 Entering Gaussian System, Link 0=g16
 Initial command:
 /apps/gaussian/g16c01/g16/l1.exe "/jobfs/52814474.gadi-pbs/Gau-3003743.inp" -scrdir="/jobfs/52814474.gadi-pbs/"
 Entering Link 1 = /apps/gaussian/g16c01/g16/l1.exe PID=   3003744.
  
 Copyright (c) 1988-2019, Gaussian, Inc.  All Rights Reserved.
  
 This is part of the Gaussian(R) 16 program.  It is based on
 the Gaussian(R) 09 system (copyright 2009, Gaussian, Inc.),
 the Gaussian(R) 03 system (copyright 2003, Gaussian, Inc.),
 the Gaussian(R) 98 system (copyright 1998, Gaussian, Inc.),
 the Gaussian(R) 94 system (copyright 1995, Gaussian, Inc.),
 the Gaussian 92(TM) system (copyright 1992, Gaussian, Inc.),
 the Gaussian 90(TM) system (copyright 1990, Gaussian, Inc.),
 the Gaussian 88(TM) system (copyright 1988, Gaussian, Inc.),
 the Gaussian 86(TM) system (copyright 1986, Carnegie Mellon
 University), and the Gaussian 82(TM) system (copyright 1983,
 Carnegie Mellon University). Gaussian is a federally registered
 trademark of Gaussian, Inc.
  
 This software contains proprietary and confidential information,
 including trade secrets, belonging to Gaussian, Inc.
  
 This software is provided under written license and may be
 used, copied, transmitted, or stored only in accord with that
 written license.
  
 The following legend is applicable only to US Government
 contracts under FAR:
  
                    RESTRICTED RIGHTS LEGEND
  
 Use, reproduction and disclosure by the US Government is
 subject to restrictions as set forth in subparagraphs (a)
 and (c) of the Commercial Computer Software - Restricted
 Rights clause in FAR 52.227-19.
  
 Gaussian, Inc.
 340 Quinnipiac St., Bldg. 40, Wallingford CT 06492
  
  
 ---------------------------------------------------------------
 Warning -- This program may not be used in any manner that
 competes with the business of Gaussian, Inc. or will provide
 assistance to any competitor of Gaussian, Inc.  The licensee
 of this program is prohibited from giving any competitor of
 Gaussian, Inc. access to this program.  By using this program,
 the user acknowledges that Gaussian, Inc. is engaged in the
 business of creating and licensing software in the field of
 computational chemistry and represents and warrants to the
 licensee that it is not a competitor of Gaussian, Inc. and that
 it will not use this program in any manner prohibited above.
 ---------------------------------------------------------------
  

 Cite this work as:
 Gaussian 16, Revision C.01,
 M. J. Frisch, G. W. Trucks, H. B. Schlegel, G. E. Scuseria, 
 M. A. Robb, J. R. Cheeseman, G. Scalmani, V. Barone, 
 G. A. Petersson, H. Nakatsuji, X. Li, M. Caricato, A. V. Marenich, 
 J. Bloino, B. G. Janesko, R. Gomperts, B. Mennucci, H. P. Hratchian, 
 J. V. Ortiz, A. F. Izmaylov, J. L. Sonnenberg, D. Williams-Young, 
 F. Ding, F. Lipparini, F. Egidi, J. Goings, B. Peng, A. Petrone, 
 T. Henderson, D. Ranasinghe, V. G. Zakrzewski, J. Gao, N. Rega, 
 G. Zheng, W. Liang, M. Hada, M. Ehara, K. Toyota, R. Fukuda, 
 J. Hasegawa, M. Ishida, T. Nakajima, Y. Honda, O. Kitao, H. Nakai, 
 T. Vreven, K. Throssell, J. A. Montgomery, Jr., J. E. Peralta, 
 F. Ogliaro, M. J. Bearpark, J. J. Heyd, E. N. Brothers, K. N. Kudin, 
 V. N. Staroverov, T. A. Keith, R. Kobayashi, J. Normand, 
 K. Raghavachari, A. P. Rendell, J. C. Burant, S. S. Iyengar, 
 J. Tomasi, M. Cossi, J. M. Millam, M. Klene, C. Adamo, R. Cammi, 
 J. W. Ochterski, R. L. Martin, K. Morokuma, O. Farkas, 
 J. B. Foresman, and D. J. Fox, Gaussian, Inc., Wallingford CT, 2019.
 
 ******************************************
 Gaussian 16:  ES64L-G16RevC.01  3-Jul-2019
                27-Jul-2022 
 ******************************************
 %NProcShared=16
 Will use up to   16 processors via shared memory.
 %mem = 64GB
 ---------------------------------------------------------------
 #n M062X/6-311++G(d,p) TD(NStates=1) EmpiricalDispersion=GD3 SP
 ---------------------------------------------------------------
 1/38=1,172=1/1;
 2/12=2,17=6,18=5,40=1/2;
 3/5=4,6=6,7=1111,11=9,25=1,30=1,74=-55,124=31/1,2,3,8;
 4//1;
 5/5=2,38=5/2;
 8/6=1,10=2,108=1/1;
 9/41=1,42=1,70=2/14;
 6/7=2,8=2,9=2,10=2/1;
 99/5=1,9=1/99;
 -----
 SP_-5
 -----
 Symbolic Z-matrix:
 Charge =  1 Multiplicity = 1
 C                     0.        2.57266   1.36043 
 C                     0.        3.79151   0.71199 
 C                     0.        3.72886  -0.63383 
 C                     0.        2.36316  -1.36754 
 C                     0.       -2.56316  -1.44754 
 C                     0.       -3.63886  -0.79383 
 C                     0.       -3.61151   0.63199 
 C                     0.       -2.41265   1.36043 
 C                     0.        0.04      1.45337 
 C                     0.       -0.145    -1.42919 
 C                     0.        1.21705   0.62207 
 C                     0.        1.19247  -0.7258 
 C                     0.       -1.30706   0.73207 
 C                     0.       -1.28247  -0.7358 
 H                     0.        2.51307   2.44365 
 H                     0.        4.72675   1.24669 
 H                     0.        4.61426  -1.26235 
 H                     0.        2.42255  -2.45006 
 H                     0.       -0.125    -2.51027 
 H                     0.       -2.51255  -2.53006 
 H                     0.       -4.60426  -1.28235 
 H                     0.       -4.54675   1.17669 
 H                     0.       -2.46307   2.44365 
 H                    -0.85959   0.22      2.14579 
 H                     0.85959   0.22      2.14579 
 
                          Input orientation:                          
 ---------------------------------------------------------------------
 Center     Atomic      Atomic             Coordinates (Angstroms)
 Number     Number       Type             X           Y           Z
 ---------------------------------------------------------------------
      1          6           0        0.000000    2.572655    1.360431
      2          6           0        0.000000    3.791508    0.711989
      3          6           0        0.000000    3.728861   -0.633830
      4          6           0        0.000000    2.363156   -1.367538
      5          6           0        0.000000   -2.563156   -1.447538
      6          6           0        0.000000   -3.638861   -0.793830
      7          6           0        0.000000   -3.611508    0.631989
      8          6           0        0.000000   -2.412655    1.360431
      9          6           0        0.000000    0.040000    1.453369
     10          6           0        0.000000   -0.145000   -1.429189
     11          6           0        0.000000    1.217055    0.622065
     12          6           0        0.000000    1.192471   -0.725804
     13          6           0        0.000000   -1.307055    0.732065
     14          6           0        0.000000   -1.282471   -0.735804
     15          1           0        0.000000    2.513071    2.443647
     16          1           0        0.000000    4.726753    1.246689
     17          1           0        0.000000    4.614262   -1.262349
     18          1           0        0.000000    2.422550   -2.450059
     19          1           0        0.000000   -0.125000   -2.510266
     20          1           0        0.000000   -2.512550   -2.530059
     21          1           0        0.000000   -4.604262   -1.282349
     22          1           0        0.000000   -4.546753    1.176689
     23          1           0        0.000000   -2.463071    2.443647
     24          1           0       -0.859585    0.220000    2.145787
     25          1           0        0.859585    0.220000    2.145787
 ---------------------------------------------------------------------
                    Distance matrix (angstroms):
                    1          2          3          4          5
     1  C    0.000000
     2  C    1.380608   0.000000
     3  C    2.305187   1.347276   0.000000
     4  C    2.736002   2.522820   1.550315   0.000000
     5  C    5.853311   6.711580   6.344415   4.926962   0.000000
     6  C    6.574479   7.581416   7.369459   6.029374   1.258759
     7  C    6.226917   7.403448   7.448712   6.300374   2.328835
     8  C    4.985310   6.237958   6.457189   5.500017   2.811999
     9  C    2.534360   3.824063   4.238407   3.654391   3.897651
    10  C    3.894564   4.481154   3.954667   2.508914   2.418226
    11  C    1.543644   2.576023   2.808281   2.296098   4.309670
    12  C    2.501456   2.970226   2.538057   1.335038   3.824348
    13  C    3.930266   5.098603   5.217865   4.228331   2.515643
    14  C    4.388188   5.276492   5.012369   3.699957   1.465169
    15  H    1.084854   2.152450   3.308929   3.814132   6.396046
    16  H    2.157099   1.077306   2.128882   3.524312   7.771849
    17  H    3.323723   2.138910   1.085804   2.253562   7.179807
    18  H    3.813445   3.445663   2.237216   1.084149   5.085500
    19  H    4.718012   5.071682   4.286404   2.738019   2.659698
    20  H    6.402751   7.088866   6.523105   5.012381   1.083703
    21  H    7.648034   8.629388   8.358320   6.967939   2.047780
    22  H    7.121779   8.351200   8.471350   7.363419   3.289563
    23  H    5.150912   6.489869   6.914542   6.149601   3.892472
    24  H    2.625006   3.943391   4.558208   4.204219   4.625671
    25  H    2.625006   3.943391   4.558208   4.204219   4.625671
                    6          7          8          9         10
     6  C    0.000000
     7  C    1.426081   0.000000
     8  C    2.478794   1.402810   0.000000
     9  C    4.310907   3.742750   2.454415   0.000000
    10  C    3.551161   4.033005   3.595030   2.888488   0.000000
    11  C    5.058130   4.828573   3.704049   1.441015   2.462283
    12  C    4.831811   4.992175   4.165250   2.465154   1.511152
    13  C    2.786696   2.306625   1.271690   1.528017   2.453852
    14  C    2.357104   2.700976   2.381495   2.557618   1.332150
    15  H    6.951800   6.386906   5.043425   2.663969   4.697255
    16  H    8.610878   8.360888   7.140314   4.691308   5.558264
    17  H    8.266411   8.441079   7.500436   5.319680   4.762185
    18  H    6.283613   6.775609   6.156220   4.573106   2.763058
    19  H    3.910674   4.693560   4.496183   3.967068   1.081262
    20  H    2.069557   3.347575   3.891772   4.731090   2.610978
    21  H    1.081966   2.156444   3.433282   5.390113   4.461679
    22  H    2.169611   1.082304   2.141993   4.595090   5.115274
    23  H    3.444378   2.144997   1.084389   2.691842   4.513570
    24  H    4.926565   4.208435   2.878636   1.118360   3.694938
    25  H    4.926565   4.208435   2.878636   1.118360   3.694938
                   11         12         13         14         15
    11  C    0.000000
    12  C    1.348093   0.000000
    13  C    2.526506   2.893616   0.000000
    14  C    2.844545   2.474962   1.468075   0.000000
    15  H    2.235580   3.433570   4.186033   4.951267   0.000000
    16  H    3.564847   4.047453   6.055714   6.327800   2.516564
    17  H    3.884846   3.463601   6.248174   5.920195   4.260212
    18  H    3.300176   2.118053   4.902639   4.082383   4.894543
    19  H    3.407728   2.218115   3.451082   2.118597   5.612546
    20  H    4.883220   4.120985   3.477739   2.175418   7.070687
    21  H    6.124910   5.823389   3.863863   3.366453   8.033646
    22  H    5.790431   6.046335   3.270066   3.783275   7.172607
    23  H    4.106274   4.838224   2.065402   3.391567   4.976142
    24  H    2.013637   3.151289   2.251531   3.361528   2.466938
    25  H    2.013637   3.151289   2.251531   3.361528   2.466938
                   16         17         18         19         20
    16  H    0.000000
    17  H    2.511558   0.000000
    18  H    4.356064   2.492841   0.000000
    19  H    6.136303   4.900806   2.548261   0.000000
    20  H    8.165252   7.238683   4.935748   2.387632   0.000000
    21  H    9.667672   9.218546   7.123176   4.644520   2.435578
    22  H    9.273770   9.480143   7.856493   5.757216   4.228234
    23  H    7.288778   7.988933   6.915031   5.477940   4.973952
    24  H    4.675263   5.627061   5.168357   4.747288   5.483544
    25  H    4.675263   5.627061   5.168357   4.747288   5.483544
                   21         22         23         24         25
    21  H    0.000000
    22  H    2.459710   0.000000
    23  H    4.297411   2.438629   0.000000
    24  H    5.980343   4.939633   2.833104   0.000000
    25  H    5.980343   4.939633   2.833104   1.719170   0.000000
 Stoichiometry    C14H11(1+)
 Framework group  CS[SG(C14H9),X(H2)]
 Deg. of freedom    46
 Full point group                 CS      NOp   2
 Largest Abelian subgroup         CS      NOp   2
 Largest concise Abelian subgroup CS      NOp   2
                         Standard orientation:                         
 ---------------------------------------------------------------------
 Center     Atomic      Atomic             Coordinates (Angstroms)
 Number     Number       Type             X           Y           Z
 ---------------------------------------------------------------------
      1          6           0        0.039773    2.908683    0.000000
      2          6           0       -1.092718    3.698331    0.000000
      3          6           0       -2.262247    3.029486    0.000000
      4          6           0       -2.293270    1.479481    0.000000
      5          6           0       -0.120349   -2.942437    0.000000
      6          6           0        0.951619   -3.602255    0.000000
      7          6           0        2.208444   -2.928385    0.000000
      8          6           0        2.310787   -1.529314    0.000000
      9          6           0        1.276236    0.696413    0.000000
     10          6           0       -1.205584   -0.781401    0.000000
     11          6           0        0.000000    1.365551    0.000000
     12          6           0       -1.188694    0.729656    0.000000
     13          6           0        1.247760   -0.831339    0.000000
     14          6           0       -0.070158   -1.478129    0.000000
     15          1           0        1.031210    3.349090    0.000000
     16          1           0       -1.042763    4.774478    0.000000
     17          1           0       -3.225101    3.531367    0.000000
     18          1           0       -3.284003    1.039222    0.000000
     19          1           0       -2.177086   -1.256072    0.000000
     20          1           0       -1.107078   -3.390520    0.000000
     21          1           0        0.956513   -4.684210    0.000000
     22          1           0        3.119387   -3.512821    0.000000
     23          1           0        3.298048   -1.080745    0.000000
     24          1           0        1.810639    1.172077    0.859585
     25          1           0        1.810639    1.172077   -0.859585
 ---------------------------------------------------------------------
 Rotational constants (GHZ):           2.1391230           0.4439355           0.3684372
 Standard basis: 6-311++G(d,p) (5D, 7F)
 There are   299 symmetry adapted cartesian basis functions of A'  symmetry.
 There are   100 symmetry adapted cartesian basis functions of A"  symmetry.
 There are   285 symmetry adapted basis functions of A'  symmetry.
 There are   100 symmetry adapted basis functions of A"  symmetry.
   385 basis functions,   603 primitive gaussians,   399 cartesian basis functions
    47 alpha electrons       47 beta electrons
       nuclear repulsion energy       781.9590646356 Hartrees.
 NAtoms=   25 NActive=   25 NUniq=   24 SFac= 1.09D+00 NAtFMM=   60 NAOKFM=F Big=F
 Integral buffers will be    131072 words long.
 Regular integral format.
 Two-electron integral symmetry is turned on.
 Nuclear repulsion after empirical dispersion term =      781.9580892527 Hartrees.
 One-electron integrals computed using PRISM.
 NBasis=   385 RedAO= T EigKep=  1.08D-06  NBF=   285   100
 NBsUse=   379 1.00D-06 EigRej=  8.10D-07 NBFU=   279   100
 ExpMin= 3.60D-02 ExpMax= 4.56D+03 ExpMxC= 6.82D+02 IAcc=3 IRadAn=         5 AccDes= 0.00D+00
 Harris functional with IExCor= 1009 and IRadAn=       5 diagonalized for initial guess.
 HarFok:  IExCor= 1009 AccDes= 0.00D+00 IRadAn=         5 IDoV= 1 UseB2=F ITyADJ=14
 ICtDFT=  3500011 ScaDFX=  1.000000  1.000000  1.000000  1.000000
 FoFCou: FMM=F IPFlag=           0 FMFlag=      100000 FMFlg1=           0
         NFxFlg=           0 DoJE=T BraDBF=F KetDBF=T FulRan=T
         wScrn=  0.000000 ICntrl=       500 IOpCl=  0 I1Cent=   200000004 NGrid=           0
         NMat0=    1 NMatS0=      1 NMatT0=    0 NMatD0=    1 NMtDS0=    0 NMtDT0=    0
 Petite list used in FoFCou.
 Initial guess orbital symmetries:
       Occupied  (A') (A') (A') (A') (A') (A') (A') (A') (A') (A')
                 (A') (A') (A') (A') (A') (A') (A') (A') (A') (A')
                 (A') (A') (A') (A') (A') (A') (A') (A') (A') (A')
                 (A') (A') (A') (A") (A') (A') (A') (A') (A") (A')
                 (A') (A") (A') (A") (A") (A") (A")
       Virtual   (A") (A") (A") (A") (A") (A') (A') (A') (A') (A")
                 (A") (A') (A') (A') (A') (A") (A') (A') (A') (A')
                 (A') (A") (A") (A') (A') (A") (A') (A') (A") (A')
                 (A') (A') (A') (A') (A") (A') (A') (A') (A") (A')
                 (A") (A') (A') (A") (A') (A') (A') (A') (A") (A')
                 (A') (A") (A') (A") (A') (A') (A') (A") (A') (A")
                 (A') (A') (A') (A') (A') (A") (A') (A') (A') (A")
                 (A') (A') (A') (A') (A') (A') (A') (A') (A') (A')
                 (A') (A') (A') (A') (A') (A') (A') (A') (A') (A')
                 (A') (A') (A') (A') (A') (A') (A") (A') (A") (A')
                 (A') (A") (A") (A') (A') (A") (A') (A") (A") (A")
                 (A') (A') (A') (A") (A') (A") (A') (A') (A") (A")
                 (A') (A") (A') (A') (A') (A") (A') (A') (A") (A')
                 (A') (A') (A') (A') (A') (A') (A") (A') (A') (A')
                 (A') (A') (A') (A') (A') (A') (A') (A") (A') (A')
                 (A") (A') (A") (A') (A") (A') (A") (A') (A') (A")
                 (A") (A') (A") (A') (A") (A") (A') (A') (A') (A')
                 (A") (A') (A') (A') (A') (A') (A") (A') (A') (A')
                 (A") (A') (A') (A") (A") (A') (A') (A") (A') (A")
                 (A") (A') (A') (A') (A") (A') (A') (A") (A') (A')
                 (A") (A") (A") (A') (A') (A") (A') (A") (A') (A")
                 (A') (A') (A") (A') (A') (A") (A') (A") (A') (A')
                 (A") (A') (A') (A') (A") (A') (A') (A') (A") (A')
                 (A") (A') (A') (A") (A') (A') (A") (A') (A") (A')
                 (A") (A') (A') (A') (A") (A') (A') (A') (A') (A")
                 (A') (A') (A') (A") (A") (A') (A') (A") (A') (A')
                 (A") (A') (A') (A") (A') (A') (A') (A") (A") (A')
                 (A') (A') (A') (A') (A") (A") (A') (A') (A") (A")
                 (A') (A') (A") (A') (A") (A") (A') (A') (A') (A')
                 (A') (A') (A') (A') (A') (A') (A') (A') (A') (A')
                 (A') (A') (A') (A") (A') (A') (A') (A') (A') (A')
                 (A') (A') (A') (A') (A') (A') (A') (A') (A') (A')
                 (A') (A') (A') (A') (A') (A') (A') (A') (A') (A')
                 (A') (A')
 The electronic state of the initial guess is 1-A'.
 Requested convergence on RMS density matrix=1.00D-08 within 128 cycles.
 Requested convergence on MAX density matrix=1.00D-06.
 Requested convergence on             energy=1.00D-06.
 No special actions if energy rises.
 SCF Done:  E(RM062X) =  -539.670230944     A.U. after   16 cycles
            NFock= 16  Conv=0.40D-08     -V/T= 2.0033
 DoSCS=F DFT=T ScalE2(SS,OS)=  1.000000  1.000000
 ExpMin= 3.60D-02 ExpMax= 4.56D+03 ExpMxC= 6.82D+02 IAcc=3 IRadAn=         5 AccDes= 0.00D+00
 HarFok:  IExCor=  205 AccDes= 0.00D+00 IRadAn=         5 IDoV=-2 UseB2=F ITyADJ=14
 ICtDFT= 12500011 ScaDFX=  1.000000  1.000000  1.000000  1.000000
 Range of M.O.s used for correlation:    15   379
 NBasis=   385 NAE=    47 NBE=    47 NFC=    14 NFV=     0
 NROrb=    365 NOA=    33 NOB=    33 NVA=   332 NVB=   332

 **** Warning!!: The largest alpha MO coefficient is  0.17426764D+03

 Orbital symmetries:
       Occupied  (A') (A') (A') (A') (A') (A') (A') (A') (A') (A')
                 (A') (A') (A') (A') (A') (A') (A') (A') (A') (A')
                 (A') (A') (A') (A') (A') (A') (A') (A') (A') (A')
                 (A') (A") (A') (A') (A') (A") (A') (A') (A') (A")
                 (A') (A') (A") (A') (A") (A") (A")
       Virtual   (A") (A") (A") (A") (A') (A') (A') (A') (A") (A')
                 (A') (A") (A') (A') (A") (A') (A") (A') (A') (A')
                 (A") (A") (A') (A') (A') (A") (A') (A') (A") (A')
                 (A") (A') (A') (A") (A') (A') (A') (A') (A") (A')
                 (A") (A') (A') (A") (A") (A") (A') (A') (A') (A')
                 (A") (A') (A') (A') (A') (A") (A') (A') (A') (A')
                 (A') (A") (A') (A') (A') (A') (A") (A') (A') (A')
                 (A') (A') (A') (A') (A') (A') (A') (A') (A') (A')
                 (A') (A') (A') (A') (A') (A') (A') (A') (A') (A')
                 (A') (A') (A') (A") (A') (A") (A') (A") (A') (A')
                 (A") (A') (A') (A') (A") (A") (A') (A") (A') (A')
                 (A") (A") (A') (A') (A") (A') (A") (A') (A') (A")
                 (A") (A') (A') (A") (A') (A") (A') (A') (A') (A')
                 (A') (A') (A') (A') (A') (A') (A') (A') (A') (A')
                 (A') (A') (A') (A') (A") (A') (A') (A') (A') (A')
                 (A") (A') (A') (A') (A') (A") (A") (A") (A') (A")
                 (A") (A') (A") (A') (A') (A") (A") (A") (A') (A')
                 (A") (A') (A') (A') (A') (A') (A") (A') (A") (A')
                 (A') (A') (A') (A") (A") (A') (A') (A") (A") (A")
                 (A') (A') (A') (A") (A') (A") (A') (A') (A') (A")
                 (A') (A") (A") (A') (A") (A') (A') (A") (A') (A')
                 (A') (A") (A') (A") (A') (A") (A') (A') (A") (A')
                 (A") (A') (A') (A') (A") (A') (A') (A') (A") (A")
                 (A') (A') (A') (A") (A') (A') (A") (A') (A") (A')
                 (A") (A') (A') (A") (A') (A') (A') (A') (A') (A')
                 (A") (A') (A') (A') (A') (A") (A") (A') (A") (A')
                 (A') (A') (A') (A') (A') (A") (A') (A') (A') (A')
                 (A') (A") (A') (A") (A") (A") (A') (A") (A') (A")
                 (A') (A") (A") (A') (A") (A") (A') (A') (A') (A')
                 (A') (A') (A') (A') (A') (A') (A') (A') (A') (A')
                 (A') (A') (A') (A") (A') (A') (A') (A') (A') (A')
                 (A') (A') (A') (A') (A') (A') (A') (A') (A') (A')
                 (A') (A') (A') (A') (A') (A') (A') (A') (A') (A')
                 (A') (A')
     4 initial guesses have been made.
 Convergence on wavefunction:    0.001000000000000
 Iteration     1 Dimension     4 NMult     0 NNew      4
 CISAX will form     4 AO SS matrices at one time.
 Iteration     2 Dimension     6 NMult     4 NNew      2
 Iteration     3 Dimension     8 NMult     6 NNew      2
 Iteration     4 Dimension    10 NMult     8 NNew      2
 Iteration     5 Dimension    12 NMult    10 NNew      2
 Iteration     6 Dimension    14 NMult    12 NNew      2
 ***********************************************************************
 Excited states from <AA,BB:AA,BB> singles matrix:
 ***********************************************************************
 
 Ground to excited state transition densities written to RWF  633
 Ground to excited state transition electric dipole moments (Au):
       state          X           Y           Z        Dip. S.      Osc.
         1         0.1616      0.5225     -0.0000      0.2991      0.0142
 Ground to excited state transition velocity dipole moments (Au):
       state          X           Y           Z        Dip. S.      Osc.
         1        -0.0188     -0.0351     -0.0000      0.0016      0.0148
 Ground to excited state transition magnetic dipole moments (Au):
       state          X           Y           Z
         1        -0.0000      0.0000     -0.0503
 Ground to excited state transition velocity quadrupole moments (Au):
       state          XX          YY          ZZ          XY          XZ          YZ
         1         0.0749      0.0449     -0.0051     -0.0870      0.0000      0.0000
 <0|del|b> * <b|rxdel|0> + <0|del|b> * <b|delr+rdel|0>
 Rotatory Strengths (R) in cgs (10**-40 erg-esu-cm/Gauss)
       state          XX          YY          ZZ    R(velocity)    E-M Angle
         1         0.0000     -0.0000      0.0000      0.0000       90.00
 1/2[<0|r|b>*<b|rxdel|0> + (<0|rxdel|b>*<b|r|0>)*]
 Rotatory Strengths (R) in cgs (10**-40 erg-esu-cm/Gauss)
       state          XX          YY          ZZ     R(length)
         1         0.0000     -0.0000     -0.0000     -0.0000
  1/2[<0|del|b>*<b|r|0> + (<0|r|b>*<b|del|0>)*] (Au)
       state          X           Y           Z        Dip. S.   Osc.(frdel)
         1        -0.0030     -0.0183      0.0000      0.0213      0.0142

 Excitation energies and oscillator strengths:
 
 Excited State   1:      Singlet-A'     1.9399 eV  639.12 nm  f=0.0142  <S**2>=0.000
      47 -> 48         0.70302
 This state for optimization and/or second-order correction.
 Total Energy, E(TD-HF/TD-DFT) =  -539.598939691    
 Copying the excited state density for this state as the 1-particle RhoCI density.
 SavETr:  write IOETrn=   770 NScale= 10 NData=  16 NLR=1 NState=    1 LETran=      28.

 **********************************************************************

            Population analysis using the SCF Density.

 **********************************************************************

 Orbital symmetries:
       Occupied  (A') (A') (A') (A') (A') (A') (A') (A') (A') (A')
                 (A') (A') (A') (A') (A') (A') (A') (A') (A') (A')
                 (A') (A') (A') (A') (A') (A') (A') (A') (A') (A')
                 (A') (A") (A') (A') (A') (A") (A') (A') (A') (A")
                 (A') (A') (A") (A') (A") (A") (A")
       Virtual   (A") (A") (A") (A") (A') (A') (A') (A') (A") (A')
                 (A') (A") (A') (A') (A") (A') (A") (A') (A') (A')
                 (A") (A") (A') (A') (A') (A") (A') (A') (A") (A')
                 (A") (A') (A') (A") (A') (A') (A') (A') (A") (A')
                 (A") (A') (A') (A") (A") (A") (A') (A') (A') (A')
                 (A") (A') (A') (A') (A') (A") (A') (A') (A') (A')
                 (A') (A") (A') (A') (A') (A') (A") (A') (A') (A')
                 (A') (A') (A') (A') (A') (A') (A') (A') (A') (A')
                 (A') (A') (A') (A') (A') (A') (A') (A') (A') (A')
                 (A') (A') (A') (A") (A') (A") (A') (A") (A') (A')
                 (A") (A') (A') (A') (A") (A") (A') (A") (A') (A')
                 (A") (A") (A') (A') (A") (A') (A") (A') (A') (A")
                 (A") (A') (A') (A") (A') (A") (A') (A') (A') (A')
                 (A') (A') (A') (A') (A') (A') (A') (A') (A') (A')
                 (A') (A') (A') (A') (A") (A') (A') (A') (A') (A')
                 (A") (A') (A') (A') (A') (A") (A") (A") (A') (A")
                 (A") (A') (A") (A') (A') (A") (A") (A") (A') (A')
                 (A") (A') (A') (A') (A') (A') (A") (A') (A") (A')
                 (A') (A') (A') (A") (A") (A') (A') (A") (A") (A")
                 (A') (A') (A') (A") (A') (A") (A') (A') (A') (A")
                 (A') (A") (A") (A') (A") (A') (A') (A") (A') (A')
                 (A') (A") (A') (A") (A') (A") (A') (A') (A") (A')
                 (A") (A') (A') (A') (A") (A') (A') (A') (A") (A")
                 (A') (A') (A') (A") (A') (A') (A") (A') (A") (A')
                 (A") (A') (A') (A") (A') (A') (A') (A') (A') (A')
                 (A") (A') (A') (A') (A') (A") (A") (A') (A") (A')
                 (A') (A') (A') (A') (A') (A") (A') (A') (A') (A')
                 (A') (A") (A') (A") (A") (A") (A') (A") (A') (A")
                 (A') (A") (A") (A') (A") (A") (A') (A') (A') (A')
                 (A') (A') (A') (A') (A') (A') (A') (A') (A') (A')
                 (A') (A') (A') (A") (A') (A') (A') (A') (A') (A')
                 (A') (A') (A') (A') (A') (A') (A') (A') (A') (A')
                 (A') (A') (A') (A') (A') (A') (A') (A') (A') (A')
                 (A') (A')
 The electronic state is 1-A'.
 Alpha  occ. eigenvalues --  -10.76539 -10.75000 -10.74738 -10.73337 -10.72359
 Alpha  occ. eigenvalues --  -10.71409 -10.71132 -10.70676 -10.70443 -10.70303
 Alpha  occ. eigenvalues --  -10.69443 -10.69266 -10.68711 -10.67905  -1.17642
 Alpha  occ. eigenvalues --   -1.12599  -1.07579  -1.06705  -1.01758  -1.01106
 Alpha  occ. eigenvalues --   -0.94787  -0.90478  -0.86567  -0.85622  -0.83662
 Alpha  occ. eigenvalues --   -0.77606  -0.77036  -0.74236  -0.70985  -0.69452
 Alpha  occ. eigenvalues --   -0.68174  -0.67966  -0.67339  -0.66389  -0.64113
 Alpha  occ. eigenvalues --   -0.61903  -0.61770  -0.61479  -0.58382  -0.58117
 Alpha  occ. eigenvalues --   -0.56399  -0.55577  -0.52429  -0.52243  -0.50768
 Alpha  occ. eigenvalues --   -0.46381  -0.40652
 Alpha virt. eigenvalues --   -0.26373  -0.14840  -0.13655  -0.12367  -0.11326
 Alpha virt. eigenvalues --   -0.10170  -0.09503  -0.07811  -0.07598  -0.07570
 Alpha virt. eigenvalues --   -0.07284  -0.06847  -0.05686  -0.05504  -0.05490
 Alpha virt. eigenvalues --   -0.04044  -0.03842  -0.03224  -0.03136  -0.02072
 Alpha virt. eigenvalues --   -0.01274  -0.01122   0.00093   0.00387   0.00684
 Alpha virt. eigenvalues --    0.01155   0.01387   0.01667   0.01969   0.02153
 Alpha virt. eigenvalues --    0.02452   0.02633   0.03075   0.03257   0.03490
 Alpha virt. eigenvalues --    0.04057   0.04516   0.04937   0.05144   0.05542
 Alpha virt. eigenvalues --    0.05948   0.06247   0.06360   0.07190   0.07425
 Alpha virt. eigenvalues --    0.07849   0.07901   0.07999   0.08422   0.08709
 Alpha virt. eigenvalues --    0.09186   0.09369   0.09811   0.10291   0.10422
 Alpha virt. eigenvalues --    0.11218   0.11505   0.11899   0.12245   0.12994
 Alpha virt. eigenvalues --    0.13426   0.13538   0.13781   0.13936   0.14746
 Alpha virt. eigenvalues --    0.16059   0.16242   0.16690   0.17305   0.17433
 Alpha virt. eigenvalues --    0.18071   0.19236   0.19455   0.20175   0.21027
 Alpha virt. eigenvalues --    0.21319   0.21997   0.22686   0.23642   0.23855
 Alpha virt. eigenvalues --    0.24344   0.24748   0.25935   0.27156   0.27492
 Alpha virt. eigenvalues --    0.29273   0.29465   0.30435   0.31381   0.35719
 Alpha virt. eigenvalues --    0.36998   0.38305   0.39251   0.40003   0.40097
 Alpha virt. eigenvalues --    0.41140   0.42187   0.43108   0.43551   0.44726
 Alpha virt. eigenvalues --    0.44906   0.45072   0.45449   0.46950   0.47104
 Alpha virt. eigenvalues --    0.47825   0.48168   0.49087   0.50649   0.51128
 Alpha virt. eigenvalues --    0.51311   0.52361   0.52382   0.53512   0.54379
 Alpha virt. eigenvalues --    0.54452   0.55174   0.55460   0.57383   0.58005
 Alpha virt. eigenvalues --    0.58354   0.60531   0.62080   0.62146   0.63028
 Alpha virt. eigenvalues --    0.63421   0.63478   0.64794   0.65739   0.68977
 Alpha virt. eigenvalues --    0.69638   0.70186   0.72260   0.73478   0.73673
 Alpha virt. eigenvalues --    0.74982   0.75693   0.76524   0.77078   0.77617
 Alpha virt. eigenvalues --    0.78149   0.78858   0.79100   0.80169   0.80424
 Alpha virt. eigenvalues --    0.81251   0.82303   0.83212   0.83979   0.86004
 Alpha virt. eigenvalues --    0.86008   0.87545   0.88816   0.90329   0.90941
 Alpha virt. eigenvalues --    0.91092   0.92755   0.94271   0.94851   0.96279
 Alpha virt. eigenvalues --    0.98089   0.98164   1.01069   1.02262   1.02413
 Alpha virt. eigenvalues --    1.03890   1.04223   1.06025   1.07799   1.10311
 Alpha virt. eigenvalues --    1.19711   1.20098   1.21393   1.23898   1.27395
 Alpha virt. eigenvalues --    1.32997   1.33006   1.33902   1.35834   1.35922
 Alpha virt. eigenvalues --    1.38093   1.38439   1.39595   1.41878   1.42665
 Alpha virt. eigenvalues --    1.43697   1.45257   1.46030   1.46568   1.48399
 Alpha virt. eigenvalues --    1.48982   1.49890   1.52731   1.53944   1.55566
 Alpha virt. eigenvalues --    1.56091   1.56506   1.57044   1.58263   1.61229
 Alpha virt. eigenvalues --    1.61918   1.63913   1.65239   1.65923   1.67934
 Alpha virt. eigenvalues --    1.68760   1.69325   1.70462   1.74925   1.76460
 Alpha virt. eigenvalues --    1.77019   1.77703   1.79153   1.79658   1.81534
 Alpha virt. eigenvalues --    1.82767   1.83048   1.83319   1.83461   1.84950
 Alpha virt. eigenvalues --    1.84989   1.87262   1.87621   1.88987   1.92115
 Alpha virt. eigenvalues --    1.93208   1.93948   1.97179   1.98274   1.99068
 Alpha virt. eigenvalues --    2.00370   2.02894   2.06583   2.08030   2.11515
 Alpha virt. eigenvalues --    2.13757   2.16015   2.16444   2.19207   2.21817
 Alpha virt. eigenvalues --    2.22337   2.27208   2.31325   2.32706   2.33785
 Alpha virt. eigenvalues --    2.36742   2.38713   2.39780   2.42112   2.42531
 Alpha virt. eigenvalues --    2.45321   2.46584   2.48422   2.53307   2.54494
 Alpha virt. eigenvalues --    2.55359   2.57537   2.58299   2.59112   2.60009
 Alpha virt. eigenvalues --    2.60622   2.61136   2.62246   2.63016   2.64110
 Alpha virt. eigenvalues --    2.64806   2.65288   2.65653   2.66418   2.67659
 Alpha virt. eigenvalues --    2.68646   2.70637   2.71948   2.73883   2.74709
 Alpha virt. eigenvalues --    2.76158   2.76159   2.79125   2.84244   2.84475
 Alpha virt. eigenvalues --    2.86140   2.86544   2.92410   2.97110   2.99188
 Alpha virt. eigenvalues --    3.00713   3.03691   3.04232   3.08187   3.12943
 Alpha virt. eigenvalues --    3.16384   3.17619   3.23495   3.29915   3.32315
 Alpha virt. eigenvalues --    3.35027   3.35991   3.44229   3.47762   3.50826
 Alpha virt. eigenvalues --    3.51513   3.56667   3.58202   3.62307   3.69788
 Alpha virt. eigenvalues --    3.71962   3.90534   3.91000   3.92517   3.96790
 Alpha virt. eigenvalues --    4.02916   4.04003   4.07826   4.11741   4.32462
 Alpha virt. eigenvalues --    4.55345   4.62436   4.65263  23.43485  23.55907
 Alpha virt. eigenvalues --   23.66872  23.69018  23.71972  23.89034  23.91561
 Alpha virt. eigenvalues --   23.92158  24.02856  24.13186  24.19193  24.22540
 Alpha virt. eigenvalues --   24.39973  24.48075
          Condensed to atoms (all electrons):
               1          2          3          4          5          6
     1  C   10.695065  -1.382197   0.292104   2.755768  -0.279906  -0.128213
     2  C   -1.382197   8.034642  -0.457671  -1.489759   0.149462  -0.010552
     3  C    0.292104  -0.457671   6.877669   1.080346  -0.210844   0.016807
     4  C    2.755768  -1.489759   1.080346   9.604871  -0.472630  -0.090555
     5  C   -0.279906   0.149462  -0.210844  -0.472630  13.591222   0.661138
     6  C   -0.128213  -0.010552   0.016807  -0.090555   0.661138   6.845551
     7  C    0.034662  -0.014166  -0.011762  -0.073146  -1.001413   0.566431
     8  C    0.412367  -0.062390  -0.064364  -0.018541   1.387101  -0.719566
     9  C   -1.027105  -0.876142   0.338178  -0.675984   0.860979   0.268747
    10  C   -1.560690   0.660042  -0.704483  -1.876866  -3.117871  -0.038772
    11  C    0.149754  -1.130208   1.373045  -0.297516  -1.613774  -0.384237
    12  C   -4.106401   3.056926  -1.938347  -1.575286  -1.159018   0.169668
    13  C    0.656619  -0.679137   0.168213  -1.182640  -1.089259   0.494248
    14  C   -1.044373   0.355600  -0.622816   0.027250  -2.109937  -1.563024
    15  H    0.390155  -0.132928   0.018795   0.031218  -0.001902   0.000908
    16  H   -0.012857   0.362439  -0.007036   0.002905  -0.000276  -0.000239
    17  H   -0.058519   0.028001   0.348922  -0.057644  -0.000176   0.000366
    18  H    0.062566  -0.001795  -0.084193   0.439899   0.008649  -0.005765
    19  H   -0.044611  -0.013271   0.058636  -0.038355  -0.140759   0.048816
    20  H    0.005494   0.003059  -0.005833   0.002832   0.529801  -0.074596
    21  H   -0.001618  -0.000323   0.000450   0.000003  -0.071474   0.392328
    22  H    0.002020   0.000466  -0.000412  -0.001937   0.026404  -0.030684
    23  H    0.002988  -0.003319   0.001454   0.006641   0.019651  -0.005966
    24  H    0.010351   0.009361  -0.002584  -0.015117  -0.007279  -0.000980
    25  H    0.010351   0.009361  -0.002584  -0.015117  -0.007279  -0.000980
               7          8          9         10         11         12
     1  C    0.034662   0.412367  -1.027105  -1.560690   0.149754  -4.106401
     2  C   -0.014166  -0.062390  -0.876142   0.660042  -1.130208   3.056926
     3  C   -0.011762  -0.064364   0.338178  -0.704483   1.373045  -1.938347
     4  C   -0.073146  -0.018541  -0.675984  -1.876866  -0.297516  -1.575286
     5  C   -1.001413   1.387101   0.860979  -3.117871  -1.613774  -1.159018
     6  C    0.566431  -0.719566   0.268747  -0.038772  -0.384237   0.169668
     7  C    7.574381   0.761557  -1.165855  -0.034633  -0.220510  -0.460973
     8  C    0.761557   7.912610  -0.888921  -1.015761   0.249234  -1.405752
     9  C   -1.165855  -0.888921  10.093327   0.098498   0.937000  -0.956691
    10  C   -0.034633  -1.015761   0.098498   8.878473  -0.709689   2.553112
    11  C   -0.220510   0.249234   0.937000  -0.709689  13.001532  -1.630478
    12  C   -0.460973  -1.405752  -0.956691   2.553112  -1.630478  14.926278
    13  C   -0.374922   0.615264   1.107309   0.092442   0.581336  -4.547147
    14  C    0.533285  -1.640951  -2.641411   2.315130  -3.831653   2.637522
    15  H   -0.000165   0.010034   0.105917  -0.015186  -0.042354  -0.076938
    16  H    0.000111  -0.000334   0.000141  -0.003397   0.014901  -0.014039
    17  H   -0.000396  -0.001168  -0.006385   0.015460  -0.020635   0.102137
    18  H    0.001945   0.005161  -0.027817   0.028107   0.004943  -0.100541
    19  H   -0.007785  -0.033075   0.066611   0.419182   0.096249   0.034454
    20  H    0.005056   0.041795  -0.011367  -0.016577  -0.014089  -0.058732
    21  H   -0.030791  -0.010836  -0.002417   0.018152  -0.006760   0.006785
    22  H    0.384048  -0.018319  -0.002202  -0.013282   0.005172  -0.014689
    23  H   -0.105076   0.369071   0.077963  -0.002523  -0.015270   0.008961
    24  H    0.017146   0.044215   0.360598   0.006571  -0.029032  -0.046957
    25  H    0.017146   0.044215   0.360598   0.006571  -0.029032  -0.046957
              13         14         15         16         17         18
     1  C    0.656619  -1.044373   0.390155  -0.012857  -0.058519   0.062566
     2  C   -0.679137   0.355600  -0.132928   0.362439   0.028001  -0.001795
     3  C    0.168213  -0.622816   0.018795  -0.007036   0.348922  -0.084193
     4  C   -1.182640   0.027250   0.031218   0.002905  -0.057644   0.439899
     5  C   -1.089259  -2.109937  -0.001902  -0.000276  -0.000176   0.008649
     6  C    0.494248  -1.563024   0.000908  -0.000239   0.000366  -0.005765
     7  C   -0.374922   0.533285  -0.000165   0.000111  -0.000396   0.001945
     8  C    0.615264  -1.640951   0.010034  -0.000334  -0.001168   0.005161
     9  C    1.107309  -2.641411   0.105917   0.000141  -0.006385  -0.027817
    10  C    0.092442   2.315130  -0.015186  -0.003397   0.015460   0.028107
    11  C    0.581336  -3.831653  -0.042354   0.014901  -0.020635   0.004943
    12  C   -4.547147   2.637522  -0.076938  -0.014039   0.102137  -0.100541
    13  C   15.501826  -4.839211   0.035468  -0.002164  -0.004897  -0.016074
    14  C   -4.839211  17.975412  -0.009593  -0.001786   0.002152   0.016301
    15  H    0.035468  -0.009593   0.462500  -0.008636   0.000785  -0.000519
    16  H   -0.002164  -0.001786  -0.008636   0.430345  -0.003884   0.001756
    17  H   -0.004897   0.002152   0.000785  -0.003884   0.425526  -0.008646
    18  H   -0.016074   0.016301  -0.000519   0.001756  -0.008646   0.469346
    19  H    0.096489  -0.169651   0.000274  -0.000472   0.000747  -0.009457
    20  H   -0.013485  -0.053085  -0.000120   0.000011  -0.000095   0.001314
    21  H   -0.012258   0.060257   0.000003  -0.000006   0.000010  -0.000214
    22  H    0.023723  -0.024581  -0.000133   0.000007  -0.000008   0.000032
    23  H   -0.039107   0.023420   0.000474  -0.000122   0.000028  -0.000164
    24  H    0.043095  -0.054495  -0.000475   0.000646  -0.000153   0.000332
    25  H    0.043095  -0.054495  -0.000475   0.000646  -0.000153   0.000332
              19         20         21         22         23         24
     1  C   -0.044611   0.005494  -0.001618   0.002020   0.002988   0.010351
     2  C   -0.013271   0.003059  -0.000323   0.000466  -0.003319   0.009361
     3  C    0.058636  -0.005833   0.000450  -0.000412   0.001454  -0.002584
     4  C   -0.038355   0.002832   0.000003  -0.001937   0.006641  -0.015117
     5  C   -0.140759   0.529801  -0.071474   0.026404   0.019651  -0.007279
     6  C    0.048816  -0.074596   0.392328  -0.030684  -0.005966  -0.000980
     7  C   -0.007785   0.005056  -0.030791   0.384048  -0.105076   0.017146
     8  C   -0.033075   0.041795  -0.010836  -0.018319   0.369071   0.044215
     9  C    0.066611  -0.011367  -0.002417  -0.002202   0.077963   0.360598
    10  C    0.419182  -0.016577   0.018152  -0.013282  -0.002523   0.006571
    11  C    0.096249  -0.014089  -0.006760   0.005172  -0.015270  -0.029032
    12  C    0.034454  -0.058732   0.006785  -0.014689   0.008961  -0.046957
    13  C    0.096489  -0.013485  -0.012258   0.023723  -0.039107   0.043095
    14  C   -0.169651  -0.053085   0.060257  -0.024581   0.023420  -0.054495
    15  H    0.000274  -0.000120   0.000003  -0.000133   0.000474  -0.000475
    16  H   -0.000472   0.000011  -0.000006   0.000007  -0.000122   0.000646
    17  H    0.000747  -0.000095   0.000010  -0.000008   0.000028  -0.000153
    18  H   -0.009457   0.001314  -0.000214   0.000032  -0.000164   0.000332
    19  H    0.456632  -0.006183   0.002418  -0.000662   0.000648   0.000572
    20  H   -0.006183   0.440752  -0.010573   0.002253   0.000247   0.000081
    21  H    0.002418  -0.010573   0.414054  -0.006715   0.001810  -0.000111
    22  H   -0.000662   0.002253  -0.006715   0.402385  -0.007249   0.000569
    23  H    0.000648   0.000247   0.001810  -0.007249   0.423775  -0.000969
    24  H    0.000572   0.000081  -0.000111   0.000569  -0.000969   0.486084
    25  H    0.000572   0.000081  -0.000111   0.000569  -0.000969  -0.075655
              25
     1  C    0.010351
     2  C    0.009361
     3  C   -0.002584
     4  C   -0.015117
     5  C   -0.007279
     6  C   -0.000980
     7  C    0.017146
     8  C    0.044215
     9  C    0.360598
    10  C    0.006571
    11  C   -0.029032
    12  C   -0.046957
    13  C    0.043095
    14  C   -0.054495
    15  H   -0.000475
    16  H    0.000646
    17  H   -0.000153
    18  H    0.000332
    19  H    0.000572
    20  H    0.000081
    21  H   -0.000111
    22  H    0.000569
    23  H   -0.000969
    24  H   -0.075655
    25  H    0.486084
 Mulliken charges:
               1
     1  C    0.166226
     2  C   -0.415504
     3  C   -0.461693
     4  C   -0.070642
     5  C    0.049389
     6  C   -0.410879
     7  C   -0.394174
     8  C    0.027354
     9  C   -0.393568
    10  C    0.017991
    11  C   -0.437931
    12  C    0.643103
    13  C   -0.658829
    14  C    0.714729
    15  H    0.232892
    16  H    0.241339
    17  H    0.238626
    18  H    0.214502
    19  H    0.181981
    20  H    0.231959
    21  H    0.257933
    22  H    0.273223
    23  H    0.243601
    24  H    0.254185
    25  H    0.254185
 Sum of Mulliken charges =   1.00000
 Mulliken charges with hydrogens summed into heavy atoms:
               1
     1  C    0.399118
     2  C   -0.174164
     3  C   -0.223067
     4  C    0.143860
     5  C    0.281347
     6  C   -0.152945
     7  C   -0.120952
     8  C    0.270955
     9  C    0.114803
    10  C    0.199972
    11  C   -0.437931
    12  C    0.643103
    13  C   -0.658829
    14  C    0.714729
 Electronic spatial extent (au):  <R**2>=           2857.7259
 Charge=              1.0000 electrons
 Dipole moment (field-independent basis, Debye):
    X=              1.6765    Y=             -3.1611    Z=              0.0000  Tot=              3.5782
 Quadrupole moment (field-independent basis, Debye-Ang):
   XX=            -51.8434   YY=            -34.3222   ZZ=            -83.9739
   XY=            -10.2044   XZ=              0.0000   YZ=              0.0000
 Traceless Quadrupole moment (field-independent basis, Debye-Ang):
   XX=              4.8698   YY=             22.3910   ZZ=            -27.2607
   XY=            -10.2044   XZ=              0.0000   YZ=              0.0000
 Octapole moment (field-independent basis, Debye-Ang**2):
  XXX=             12.4188  YYY=            -25.3136  ZZZ=              0.0000  XYY=             10.1949
  XXY=            -15.9207  XXZ=              0.0000  XZZ=              5.2737  YZZ=             -3.5049
  YYZ=              0.0000  XYZ=              0.0000
 Hexadecapole moment (field-independent basis, Debye-Ang**3):
 XXXX=           -940.0949 YYYY=          -1882.6510 ZZZZ=            -99.0558 XXXY=            328.3988
 XXXZ=              0.0000 YYYX=            252.3226 YYYZ=              0.0000 ZZZX=             -0.0000
 ZZZY=             -0.0000 XXYY=           -453.8815 XXZZ=           -229.7180 YYZZ=           -505.2025
 XXYZ=              0.0000 YYXZ=             -0.0000 ZZXY=            173.7090
 N-N= 7.819580892527D+02 E-N=-2.800507774597D+03  KE= 5.379063449213D+02
 Symmetry A'   KE= 5.231653392114D+02
 Symmetry A"   KE= 1.474100570998D+01
 Unable to Open any file for archive entry.
 1\1\GINC-GADI-CPU-CLX-0753\SP\RM062X TD-FC\6-311++G(d,p)\C14H11(1+)\TS
 1578\27-Jul-2022\0\\#n M062X/6-311++G(d,p) TD(NStates=1) EmpiricalDisp
 ersion=GD3 SP\\SP_-5\\1,1\C,0,0.,2.572655,1.360431\C,0,0.,3.791508,0.7
 11989\C,0,0.,3.728861,-0.63383\C,0,0.,2.363156,-1.367538\C,0,0.,-2.563
 156,-1.447538\C,0,0.,-3.638861,-0.79383\C,0,0.,-3.611508,0.631989\C,0,
 0.,-2.412655,1.360431\C,0,0.,0.04,1.453369\C,0,0.,-0.145,-1.429189\C,0
 ,0.,1.217055,0.622065\C,0,0.,1.192471,-0.725804\C,0,0.,-1.307055,0.732
 065\C,0,0.,-1.282471,-0.735804\H,0,0.,2.513071,2.443647\H,0,0.,4.72675
 3,1.246689\H,0,0.,4.614262,-1.262349\H,0,0.,2.42255,-2.450059\H,0,0.,-
 0.125,-2.510266\H,0,0.,-2.51255,-2.530059\H,0,0.,-4.604262,-1.282349\H
 ,0,0.,-4.546753,1.176689\H,0,0.,-2.463071,2.443647\H,0,-0.859585,0.22,
 2.145787\H,0,0.859585,0.22,2.145787\\Version=ES64L-G16RevC.01\State=1-
 A'\HF=-539.6702309\RMSD=4.037e-09\PG=CS [SG(C14H9),X(H2)]\\@
 The archive entry for this job was punched.


 EVERY WORD THAT YOU WRITE IS A BLOW THAT SMITES THE DEVIL.
     -- ST. BERNARD OF CLAIRVAUX
 Job cpu time:       0 days  0 hours 39 minutes 12.3 seconds.
 Elapsed time:       0 days  0 hours  2 minutes 29.0 seconds.
 File lengths (MBytes):  RWF=    460 Int=      0 D2E=      0 Chk=     15 Scr=      1
 Normal termination of Gaussian 16 at Wed Jul 27 11:18:22 2022.
