 Entering Gaussian System, Link 0=g16
 Initial command:
 /apps/gaussian/g16c01/g16/l1.exe "/jobfs/53803424.gadi-pbs/Gau-1801679.inp" -scrdir="/jobfs/53803424.gadi-pbs/"
 Entering Link 1 = /apps/gaussian/g16c01/g16/l1.exe PID=   1801680.
  
 Copyright (c) 1988-2019, Gaussian, Inc.  All Rights Reserved.
  
 This is part of the Gaussian(R) 16 program.  It is based on
 the Gaussian(R) 09 system (copyright 2009, Gaussian, Inc.),
 the Gaussian(R) 03 system (copyright 2003, Gaussian, Inc.),
 the Gaussian(R) 98 system (copyright 1998, Gaussian, Inc.),
 the Gaussian(R) 94 system (copyright 1995, Gaussian, Inc.),
 the Gaussian 92(TM) system (copyright 1992, Gaussian, Inc.),
 the Gaussian 90(TM) system (copyright 1990, Gaussian, Inc.),
 the Gaussian 88(TM) system (copyright 1988, Gaussian, Inc.),
 the Gaussian 86(TM) system (copyright 1986, Carnegie Mellon
 University), and the Gaussian 82(TM) system (copyright 1983,
 Carnegie Mellon University). Gaussian is a federally registered
 trademark of Gaussian, Inc.
  
 This software contains proprietary and confidential information,
 including trade secrets, belonging to Gaussian, Inc.
  
 This software is provided under written license and may be
 used, copied, transmitted, or stored only in accord with that
 written license.
  
 The following legend is applicable only to US Government
 contracts under FAR:
  
                    RESTRICTED RIGHTS LEGEND
  
 Use, reproduction and disclosure by the US Government is
 subject to restrictions as set forth in subparagraphs (a)
 and (c) of the Commercial Computer Software - Restricted
 Rights clause in FAR 52.227-19.
  
 Gaussian, Inc.
 340 Quinnipiac St., Bldg. 40, Wallingford CT 06492
  
  
 ---------------------------------------------------------------
 Warning -- This program may not be used in any manner that
 competes with the business of Gaussian, Inc. or will provide
 assistance to any competitor of Gaussian, Inc.  The licensee
 of this program is prohibited from giving any competitor of
 Gaussian, Inc. access to this program.  By using this program,
 the user acknowledges that Gaussian, Inc. is engaged in the
 business of creating and licensing software in the field of
 computational chemistry and represents and warrants to the
 licensee that it is not a competitor of Gaussian, Inc. and that
 it will not use this program in any manner prohibited above.
 ---------------------------------------------------------------
  

 Cite this work as:
 Gaussian 16, Revision C.01,
 M. J. Frisch, G. W. Trucks, H. B. Schlegel, G. E. Scuseria, 
 M. A. Robb, J. R. Cheeseman, G. Scalmani, V. Barone, 
 G. A. Petersson, H. Nakatsuji, X. Li, M. Caricato, A. V. Marenich, 
 J. Bloino, B. G. Janesko, R. Gomperts, B. Mennucci, H. P. Hratchian, 
 J. V. Ortiz, A. F. Izmaylov, J. L. Sonnenberg, D. Williams-Young, 
 F. Ding, F. Lipparini, F. Egidi, J. Goings, B. Peng, A. Petrone, 
 T. Henderson, D. Ranasinghe, V. G. Zakrzewski, J. Gao, N. Rega, 
 G. Zheng, W. Liang, M. Hada, M. Ehara, K. Toyota, R. Fukuda, 
 J. Hasegawa, M. Ishida, T. Nakajima, Y. Honda, O. Kitao, H. Nakai, 
 T. Vreven, K. Throssell, J. A. Montgomery, Jr., J. E. Peralta, 
 F. Ogliaro, M. J. Bearpark, J. J. Heyd, E. N. Brothers, K. N. Kudin, 
 V. N. Staroverov, T. A. Keith, R. Kobayashi, J. Normand, 
 K. Raghavachari, A. P. Rendell, J. C. Burant, S. S. Iyengar, 
 J. Tomasi, M. Cossi, J. M. Millam, M. Klene, C. Adamo, R. Cammi, 
 J. W. Ochterski, R. L. Martin, K. Morokuma, O. Farkas, 
 J. B. Foresman, and D. J. Fox, Gaussian, Inc., Wallingford CT, 2019.
 
 ******************************************
 Gaussian 16:  ES64L-G16RevC.01  3-Jul-2019
                 2-Aug-2022 
 ******************************************
 %NProcShared=48
 Will use up to   48 processors via shared memory.
 %mem = 190GB
 ---------------------------------------------------------------
 #n M062X/6-311++G(d,p) TD(NStates=1) EmpiricalDispersion=GD3 SP
 ---------------------------------------------------------------
 1/38=1,172=1/1;
 2/12=2,17=6,18=5,40=1/2;
 3/5=4,6=6,7=1111,11=9,25=1,30=1,74=-55,124=31/1,2,3,8;
 4//1;
 5/5=2,38=5/2;
 8/6=1,10=2,108=1/1;
 9/41=1,42=1,70=2/14;
 6/7=2,8=2,9=2,10=2/1;
 99/5=1,9=1/99;
 ------
 SP_-12
 ------
 Symbolic Z-matrix:
 Charge =  1 Multiplicity = 1
 C                     0.        2.73666   1.35243 
 C                     0.        3.94151   0.69999 
 C                     0.        3.77186  -0.58983 
 C                     0.        2.17516  -1.31954 
 C                     0.       -2.65516  -1.51154 
 C                     0.       -3.55586  -0.97383 
 C                     0.       -3.50951   0.50799 
 C                     0.       -2.35265   1.35243 
 C                     0.        0.096     1.51337 
 C                     0.       -0.348    -1.36919 
 C                     0.        1.16606   0.59707 
 C                     0.        1.12147  -0.6668 
 C                     0.       -1.38206   0.86107 
 C                     0.       -1.33747  -0.6908 
 H                     0.        2.66407   2.43565 
 H                     0.        4.89675   1.19169 
 H                     0.        4.58126  -1.35235 
 H                     0.        2.25155  -2.40206 
 H                     0.       -0.3      -2.44627 
 H                     0.       -2.46755  -2.59406 
 H                     0.       -4.55726  -1.40035 
 H                     0.       -4.46475   1.02369 
 H                     0.       -2.54407   2.43565 
 H                    -0.85959   0.528     2.20579 
 H                     0.85959   0.528     2.20579 
 
                          Input orientation:                          
 ---------------------------------------------------------------------
 Center     Atomic      Atomic             Coordinates (Angstroms)
 Number     Number       Type             X           Y           Z
 ---------------------------------------------------------------------
      1          6           0        0.000000    2.736655    1.352431
      2          6           0        0.000000    3.941508    0.699989
      3          6           0        0.000000    3.771861   -0.589830
      4          6           0        0.000000    2.175156   -1.319538
      5          6           0        0.000000   -2.655156   -1.511538
      6          6           0        0.000000   -3.555861   -0.973830
      7          6           0        0.000000   -3.509508    0.507989
      8          6           0        0.000000   -2.352655    1.352431
      9          6           0        0.000000    0.096000    1.513369
     10          6           0        0.000000   -0.348000   -1.369189
     11          6           0        0.000000    1.166055    0.597065
     12          6           0        0.000000    1.121471   -0.666804
     13          6           0        0.000000   -1.382055    0.861065
     14          6           0        0.000000   -1.337471   -0.690804
     15          1           0        0.000000    2.664071    2.435647
     16          1           0        0.000000    4.896753    1.191689
     17          1           0        0.000000    4.581262   -1.352349
     18          1           0        0.000000    2.251550   -2.402059
     19          1           0        0.000000   -0.300000   -2.446266
     20          1           0        0.000000   -2.467550   -2.594059
     21          1           0        0.000000   -4.557262   -1.400349
     22          1           0        0.000000   -4.464753    1.023689
     23          1           0        0.000000   -2.544071    2.435647
     24          1           0       -0.859585    0.528000    2.205787
     25          1           0        0.859585    0.528000    2.205787
 ---------------------------------------------------------------------
                    Distance matrix (angstroms):
                    1          2          3          4          5
     1  C    0.000000
     2  C    1.370165   0.000000
     3  C    2.200916   1.300928   0.000000
     4  C    2.730330   2.683000   1.755546   0.000000
     5  C    6.105239   6.957502   6.492772   4.834126   0.000000
     6  C    6.708744   7.681941   7.337777   5.741434   1.048999
     7  C    6.302986   7.453489   7.363664   5.971203   2.192808
     8  C    5.089310   6.327888   6.425113   5.257422   2.879900
     9  C    2.645555   3.930588   4.235021   3.514008   4.088878
    10  C    4.113674   4.762497   4.192929   2.523644   2.311543
    11  C    1.742803   2.777361   2.863380   2.166022   4.364385
    12  C    2.585755   3.133805   2.651508   1.239481   3.869947
    13  C    4.147917   5.325999   5.354246   4.172383   2.692588
    14  C    4.557775   5.459114   5.110330   3.568453   1.552385
    15  H    1.085645   2.155076   3.221911   3.786879   6.623779
    16  H    2.166070   1.074366   2.106939   3.703154   8.021145
    17  H    3.273898   2.149739   1.112010   2.406330   7.238169
    18  H    3.785700   3.532515   2.365485   1.085213   4.986862
    19  H    4.863268   5.281033   4.475087   2.719543   2.533866
    20  H    6.531350   7.206024   6.553410   4.814470   1.098657
    21  H    7.796090   8.754457   8.368466   6.732903   1.905353
    22  H    7.208908   8.412491   8.393167   7.041243   3.114806
    23  H    5.390679   6.713810   7.003178   6.030963   3.948748
    24  H    2.518980   3.828623   4.367722   3.984962   4.968891
    25  H    2.518980   3.828623   4.367722   3.984962   4.968891
                    6          7          8          9         10
     6  C    0.000000
     7  C    1.482544   0.000000
     8  C    2.619006   1.432268   0.000000
     9  C    4.418399   3.743057   2.453938   0.000000
    10  C    3.232133   3.676810   3.380216   2.916552   0.000000
    11  C    4.976364   4.676411   3.598875   1.408769   2.481636
    12  C    4.687398   4.777667   4.018316   2.409304   1.628708
    13  C    2.844692   2.156553   1.087890   1.615595   2.458313
    14  C    2.236372   2.480897   2.281536   2.629300   1.199691
    15  H    7.093101   6.467530   5.132338   2.728660   4.852767
    16  H    8.725603   8.434019   7.251190   4.811518   5.836568
    17  H    8.145922   8.301892   7.442784   5.322585   4.929291
    18  H    5.980457   6.454314   5.940951   4.469561   2.797227
    19  H    3.573332   4.362174   4.317811   3.979388   1.078146
    20  H    1.951810   3.272366   3.948162   4.841772   2.448019
    21  H    1.088450   2.177049   3.526768   5.490228   4.209377
    22  H    2.194577   1.085560   2.137529   4.586966   4.761672
    23  H    3.556438   2.155907   1.099999   2.796528   4.393120
    24  H    5.246596   4.463505   3.124944   1.185307   3.779777
    25  H    5.246596   4.463505   3.124944   1.185307   3.779777
                   11         12         13         14         15
    11  C    0.000000
    12  C    1.264655   0.000000
    13  C    2.561750   2.932921   0.000000
    14  C    2.815359   2.459059   1.552509   0.000000
    15  H    2.371589   3.464797   4.341710   5.078094   0.000000
    16  H    3.777788   4.207939   6.287507   6.512245   2.555837
    17  H    3.932411   3.527056   6.360845   5.955589   4.245531
    18  H    3.189521   2.070794   4.883755   3.976112   4.855262
    19  H    3.378044   2.277513   3.479839   2.039116   5.711286
    20  H    4.835944   4.073743   3.621627   2.213472   7.185505
    21  H    6.061850   5.725914   3.898196   3.297045   8.176950
    22  H    5.646947   5.836409   3.086985   3.566424   7.267307
    23  H    4.140703   4.802229   1.956934   3.351206   5.208142
    24  H    1.932353   3.056611   2.489071   3.550931   2.313984
    25  H    1.932353   3.056611   2.489071   3.550931   2.313984
                   16         17         18         19         20
    16  H    0.000000
    17  H    2.563526   0.000000
    18  H    4.462300   2.555279   0.000000
    19  H    6.343576   5.002337   2.551933   0.000000
    20  H    8.280389   7.157345   4.723004   2.172583   0.000000
    21  H    9.802911   9.138650   6.882103   4.383859   2.406624
    22  H    9.363013   9.352858   7.539528   5.420863   4.132423
    23  H    7.544090   8.069652   6.811856   5.372981   5.030288
    24  H    4.566540   5.461515   4.994172   4.802715   5.722825
    25  H    4.566540   5.461515   4.994172   4.802715   5.722825
                   21         22         23         24         25
    21  H    0.000000
    22  H    2.425803   0.000000
    23  H    4.332182   2.383830   0.000000
    24  H    6.293091   5.202290   3.198334   0.000000
    25  H    6.293091   5.202290   3.198334   1.719170   0.000000
 Stoichiometry    C14H11(1+)
 Framework group  CS[SG(C14H9),X(H2)]
 Deg. of freedom    46
 Full point group                 CS      NOp   2
 Largest Abelian subgroup         CS      NOp   2
 Largest concise Abelian subgroup CS      NOp   2
                         Standard orientation:                         
 ---------------------------------------------------------------------
 Center     Atomic      Atomic             Coordinates (Angstroms)
 Number     Number       Type             X           Y           Z
 ---------------------------------------------------------------------
      1          6           0        2.561262    1.656216    0.000000
      2          6           0        2.616912    3.025250    0.000000
      3          6           0        1.421817    3.539218    0.000000
      4          6           0       -0.021923    2.540442    0.000000
      5          6           0       -2.657611   -1.511956    0.000000
      6          6           0       -2.656278   -2.560954    0.000000
      7          6           0       -1.359266   -3.279074    0.000000
      8          6           0       -0.041921   -2.716942    0.000000
      9          6           0        1.348858   -0.695174    0.000000
     10          6           0       -1.355182    0.397733    0.000000
     11          6           0        1.108826    0.692996    0.000000
     12          6           0        0.000000    1.301155    0.000000
     13          6           0        0.032318   -1.631588    0.000000
     14          6           0       -1.278372   -0.799497    0.000000
     15          1           0        3.454924    1.039781    0.000000
     16          1           0        3.528029    3.594572    0.000000
     17          1           0        1.180606    4.624751    0.000000
     18          1           0       -0.913040    3.159796    0.000000
     19          1           0       -2.256144    0.989904    0.000000
     20          1           0       -3.491843   -0.797039    0.000000
     21          1           0       -3.534996   -3.203277    0.000000
     22          1           0       -1.404742   -4.363681    0.000000
     23          1           0        0.790959   -3.435488    0.000000
     24          1           0        2.164809   -0.678135    0.859585
     25          1           0        2.164809   -0.678135   -0.859585
 ---------------------------------------------------------------------
 Rotational constants (GHZ):           2.1443180           0.4400133           0.3658831
 Standard basis: 6-311++G(d,p) (5D, 7F)
 There are   299 symmetry adapted cartesian basis functions of A'  symmetry.
 There are   100 symmetry adapted cartesian basis functions of A"  symmetry.
 There are   285 symmetry adapted basis functions of A'  symmetry.
 There are   100 symmetry adapted basis functions of A"  symmetry.
   385 basis functions,   603 primitive gaussians,   399 cartesian basis functions
    47 alpha electrons       47 beta electrons
       nuclear repulsion energy       785.0752769404 Hartrees.
 NAtoms=   25 NActive=   25 NUniq=   24 SFac= 1.09D+00 NAtFMM=   60 NAOKFM=F Big=F
 Integral buffers will be    131072 words long.
 Regular integral format.
 Two-electron integral symmetry is turned on.
 Nuclear repulsion after empirical dispersion term =      785.0743195125 Hartrees.
 One-electron integrals computed using PRISM.
 NBasis=   385 RedAO= T EigKep=  1.31D-06  NBF=   285   100
 NBsUse=   379 1.00D-06 EigRej=  6.65D-07 NBFU=   279   100
 ExpMin= 3.60D-02 ExpMax= 4.56D+03 ExpMxC= 6.82D+02 IAcc=3 IRadAn=         5 AccDes= 0.00D+00
 Harris functional with IExCor= 1009 and IRadAn=       5 diagonalized for initial guess.
 HarFok:  IExCor= 1009 AccDes= 0.00D+00 IRadAn=         5 IDoV= 1 UseB2=F ITyADJ=14
 ICtDFT=  3500011 ScaDFX=  1.000000  1.000000  1.000000  1.000000
 FoFCou: FMM=F IPFlag=           0 FMFlag=      100000 FMFlg1=           0
         NFxFlg=           0 DoJE=T BraDBF=F KetDBF=T FulRan=T
         wScrn=  0.000000 ICntrl=       500 IOpCl=  0 I1Cent=   200000004 NGrid=           0
         NMat0=    1 NMatS0=      1 NMatT0=    0 NMatD0=    1 NMtDS0=    0 NMtDT0=    0
 Petite list used in FoFCou.
 Initial guess orbital symmetries:
       Occupied  (A') (A') (A') (A') (A') (A') (A') (A') (A') (A')
                 (A') (A') (A') (A') (A') (A') (A') (A') (A') (A')
                 (A') (A') (A') (A') (A') (A') (A') (A') (A') (A')
                 (A') (A') (A") (A') (A') (A") (A') (A") (A') (A')
                 (A') (A") (A') (A") (A") (A') (A")
       Virtual   (A") (A") (A") (A") (A') (A") (A') (A') (A') (A')
                 (A') (A') (A") (A') (A") (A') (A') (A") (A') (A')
                 (A') (A') (A") (A') (A') (A") (A') (A") (A') (A")
                 (A') (A') (A') (A') (A") (A') (A') (A') (A") (A')
                 (A") (A') (A") (A') (A') (A') (A') (A') (A') (A")
                 (A') (A") (A') (A") (A') (A') (A") (A') (A") (A')
                 (A') (A') (A') (A') (A') (A") (A') (A') (A") (A')
                 (A') (A') (A') (A') (A') (A') (A') (A') (A') (A')
                 (A') (A') (A') (A') (A') (A') (A') (A') (A') (A')
                 (A') (A') (A") (A') (A') (A") (A') (A') (A") (A')
                 (A') (A") (A') (A") (A') (A') (A") (A') (A") (A")
                 (A') (A") (A") (A') (A') (A') (A") (A') (A') (A")
                 (A") (A') (A') (A') (A") (A') (A') (A") (A') (A')
                 (A') (A') (A') (A') (A') (A') (A') (A') (A") (A')
                 (A') (A') (A') (A') (A") (A') (A') (A') (A') (A')
                 (A") (A') (A") (A') (A") (A') (A') (A") (A') (A")
                 (A") (A') (A") (A') (A") (A') (A") (A') (A') (A")
                 (A') (A') (A') (A') (A') (A') (A') (A") (A") (A')
                 (A') (A') (A") (A") (A') (A') (A") (A') (A") (A')
                 (A") (A') (A") (A') (A') (A') (A') (A") (A') (A")
                 (A") (A') (A") (A') (A") (A') (A") (A') (A") (A')
                 (A') (A') (A") (A') (A') (A') (A') (A') (A") (A')
                 (A") (A") (A') (A') (A") (A') (A') (A") (A') (A')
                 (A") (A') (A") (A') (A') (A") (A') (A") (A') (A")
                 (A') (A') (A') (A') (A') (A") (A') (A') (A') (A')
                 (A") (A') (A') (A") (A') (A") (A') (A") (A') (A")
                 (A') (A") (A') (A') (A') (A') (A') (A') (A") (A")
                 (A') (A") (A') (A') (A') (A") (A') (A") (A') (A')
                 (A') (A") (A") (A') (A') (A") (A") (A') (A') (A')
                 (A') (A') (A') (A') (A') (A') (A') (A') (A') (A")
                 (A') (A') (A') (A') (A') (A') (A') (A') (A') (A')
                 (A') (A') (A') (A') (A') (A') (A') (A') (A') (A')
                 (A') (A') (A') (A') (A') (A') (A') (A') (A') (A')
                 (A') (A')
 The electronic state of the initial guess is 1-A'.
 Requested convergence on RMS density matrix=1.00D-08 within 128 cycles.
 Requested convergence on MAX density matrix=1.00D-06.
 Requested convergence on             energy=1.00D-06.
 No special actions if energy rises.
 SCF Done:  E(RM062X) =  -539.143983133     A.U. after   17 cycles
            NFock= 17  Conv=0.97D-08     -V/T= 1.9985
 DoSCS=F DFT=T ScalE2(SS,OS)=  1.000000  1.000000
 ExpMin= 3.60D-02 ExpMax= 4.56D+03 ExpMxC= 6.82D+02 IAcc=3 IRadAn=         5 AccDes= 0.00D+00
 HarFok:  IExCor=  205 AccDes= 0.00D+00 IRadAn=         5 IDoV=-2 UseB2=F ITyADJ=14
 ICtDFT= 12500011 ScaDFX=  1.000000  1.000000  1.000000  1.000000
 Range of M.O.s used for correlation:    15   379
 NBasis=   385 NAE=    47 NBE=    47 NFC=    14 NFV=     0
 NROrb=    365 NOA=    33 NOB=    33 NVA=   332 NVB=   332

 **** Warning!!: The largest alpha MO coefficient is  0.17231095D+03


 **** Warning!!: The smallest alpha delta epsilon is  0.86028832D-01

 Orbital symmetries:
       Occupied  (A') (A') (A') (A') (A') (A') (A') (A') (A') (A')
                 (A') (A') (A') (A') (A') (A') (A') (A') (A') (A')
                 (A') (A') (A') (A') (A') (A') (A') (A') (A') (A')
                 (A') (A") (A') (A') (A") (A') (A') (A') (A") (A')
                 (A") (A') (A") (A') (A") (A') (A")
       Virtual   (A") (A") (A') (A") (A') (A') (A") (A') (A') (A")
                 (A') (A") (A') (A') (A") (A') (A") (A') (A') (A')
                 (A") (A') (A') (A") (A') (A') (A') (A') (A') (A")
                 (A") (A') (A") (A') (A') (A') (A') (A") (A') (A")
                 (A') (A") (A') (A') (A') (A") (A') (A') (A") (A')
                 (A") (A') (A') (A') (A') (A") (A') (A') (A") (A')
                 (A') (A') (A') (A") (A') (A') (A") (A') (A') (A')
                 (A') (A') (A') (A') (A') (A') (A') (A') (A') (A')
                 (A') (A') (A') (A') (A') (A') (A') (A') (A') (A')
                 (A") (A') (A") (A') (A') (A') (A') (A') (A") (A')
                 (A") (A') (A") (A') (A') (A") (A") (A') (A') (A')
                 (A") (A") (A') (A") (A') (A") (A') (A") (A') (A")
                 (A') (A') (A') (A') (A") (A") (A') (A') (A') (A')
                 (A') (A') (A') (A') (A') (A') (A') (A') (A') (A')
                 (A') (A') (A') (A") (A') (A') (A') (A') (A") (A')
                 (A') (A') (A") (A') (A') (A") (A') (A") (A") (A')
                 (A') (A") (A") (A') (A") (A') (A") (A') (A") (A')
                 (A") (A') (A') (A') (A') (A') (A') (A") (A') (A")
                 (A') (A') (A") (A") (A') (A") (A') (A") (A') (A')
                 (A") (A") (A') (A') (A') (A") (A') (A') (A") (A')
                 (A") (A') (A") (A') (A") (A') (A") (A') (A') (A")
                 (A') (A') (A") (A') (A') (A') (A') (A') (A") (A')
                 (A") (A") (A') (A') (A") (A') (A') (A') (A") (A")
                 (A') (A') (A') (A") (A') (A') (A") (A") (A') (A")
                 (A') (A') (A') (A") (A') (A') (A') (A') (A') (A")
                 (A') (A') (A') (A') (A') (A") (A') (A') (A") (A')
                 (A') (A') (A") (A') (A") (A') (A') (A') (A') (A')
                 (A") (A') (A") (A") (A") (A') (A") (A') (A') (A")
                 (A') (A") (A") (A') (A') (A") (A') (A") (A') (A')
                 (A') (A') (A') (A') (A') (A') (A') (A') (A") (A')
                 (A') (A') (A') (A') (A') (A') (A') (A') (A') (A')
                 (A') (A') (A') (A') (A') (A') (A') (A') (A') (A')
                 (A') (A') (A') (A') (A') (A') (A') (A') (A') (A')
                 (A') (A')
     4 initial guesses have been made.
 Convergence on wavefunction:    0.001000000000000
 Iteration     1 Dimension     4 NMult     0 NNew      4
 CISAX will form     4 AO SS matrices at one time.
 Iteration     2 Dimension     6 NMult     4 NNew      2
 Iteration     3 Dimension     8 NMult     6 NNew      2
 Iteration     4 Dimension    10 NMult     8 NNew      2
 Iteration     5 Dimension    12 NMult    10 NNew      2
 Iteration     6 Dimension    14 NMult    12 NNew      2
 ***********************************************************************
 Excited states from <AA,BB:AA,BB> singles matrix:
 ***********************************************************************
 
 Ground to excited state transition densities written to RWF  633
 Ground to excited state transition electric dipole moments (Au):
       state          X           Y           Z        Dip. S.      Osc.
         1         1.0161      1.3461     -0.0000      2.8444      0.0682
 Ground to excited state transition velocity dipole moments (Au):
       state          X           Y           Z        Dip. S.      Osc.
         1        -0.0378     -0.0433      0.0000      0.0033      0.0611
 Ground to excited state transition magnetic dipole moments (Au):
       state          X           Y           Z
         1        -0.0000     -0.0000     -0.4016
 Ground to excited state transition velocity quadrupole moments (Au):
       state          XX          YY          ZZ          XY          XZ          YZ
         1        -0.0258      0.0659     -0.0040      0.0262      0.0000     -0.0000
 <0|del|b> * <b|rxdel|0> + <0|del|b> * <b|delr+rdel|0>
 Rotatory Strengths (R) in cgs (10**-40 erg-esu-cm/Gauss)
       state          XX          YY          ZZ    R(velocity)    E-M Angle
         1        -0.0000     -0.0000     -0.0000     -0.0000       90.00
 1/2[<0|r|b>*<b|rxdel|0> + (<0|rxdel|b>*<b|r|0>)*]
 Rotatory Strengths (R) in cgs (10**-40 erg-esu-cm/Gauss)
       state          XX          YY          ZZ     R(length)
         1         0.0000      0.0000     -0.0000      0.0000
  1/2[<0|del|b>*<b|r|0> + (<0|r|b>*<b|del|0>)*] (Au)
       state          X           Y           Z        Dip. S.   Osc.(frdel)
         1        -0.0384     -0.0583     -0.0000      0.0967      0.0644

 Excitation energies and oscillator strengths:
 
 Excited State   1:      Singlet-A'     0.9793 eV 1266.08 nm  f=0.0682  <S**2>=0.000
      47 -> 48         0.71379
      47 <- 48        -0.13102
 This state for optimization and/or second-order correction.
 Total Energy, E(TD-HF/TD-DFT) =  -539.107995420    
 Copying the excited state density for this state as the 1-particle RhoCI density.
 SavETr:  write IOETrn=   770 NScale= 10 NData=  16 NLR=1 NState=    1 LETran=      28.

 **********************************************************************

            Population analysis using the SCF Density.

 **********************************************************************

 Orbital symmetries:
       Occupied  (A') (A') (A') (A') (A') (A') (A') (A') (A') (A')
                 (A') (A') (A') (A') (A') (A') (A') (A') (A') (A')
                 (A') (A') (A') (A') (A') (A') (A') (A') (A') (A')
                 (A') (A") (A') (A') (A") (A') (A') (A') (A") (A')
                 (A") (A') (A") (A') (A") (A') (A")
       Virtual   (A") (A") (A') (A") (A') (A') (A") (A') (A') (A")
                 (A') (A") (A') (A') (A") (A') (A") (A') (A') (A')
                 (A") (A') (A') (A") (A') (A') (A') (A') (A') (A")
                 (A") (A') (A") (A') (A') (A') (A') (A") (A') (A")
                 (A') (A") (A') (A') (A') (A") (A') (A') (A") (A')
                 (A") (A') (A') (A') (A') (A") (A') (A') (A") (A')
                 (A') (A') (A') (A") (A') (A') (A") (A') (A') (A')
                 (A') (A') (A') (A') (A') (A') (A') (A') (A') (A')
                 (A') (A') (A') (A') (A') (A') (A') (A') (A') (A')
                 (A") (A') (A") (A') (A') (A') (A') (A') (A") (A')
                 (A") (A') (A") (A') (A') (A") (A") (A') (A') (A')
                 (A") (A") (A') (A") (A') (A") (A') (A") (A') (A")
                 (A') (A') (A') (A') (A") (A") (A') (A') (A') (A')
                 (A') (A') (A') (A') (A') (A') (A') (A') (A') (A')
                 (A') (A') (A') (A") (A') (A') (A') (A') (A") (A')
                 (A') (A') (A") (A') (A') (A") (A') (A") (A") (A')
                 (A') (A") (A") (A') (A") (A') (A") (A') (A") (A')
                 (A") (A') (A') (A') (A') (A') (A') (A") (A') (A")
                 (A') (A') (A") (A") (A') (A") (A') (A") (A') (A')
                 (A") (A") (A') (A') (A') (A") (A') (A') (A") (A')
                 (A") (A') (A") (A') (A") (A') (A") (A') (A') (A")
                 (A') (A') (A") (A') (A') (A') (A') (A') (A") (A')
                 (A") (A") (A') (A') (A") (A') (A') (A') (A") (A")
                 (A') (A') (A') (A") (A') (A') (A") (A") (A') (A")
                 (A') (A') (A') (A") (A') (A') (A') (A') (A') (A")
                 (A') (A') (A') (A') (A') (A") (A') (A') (A") (A')
                 (A') (A') (A") (A') (A") (A') (A') (A') (A') (A')
                 (A") (A') (A") (A") (A") (A') (A") (A') (A') (A")
                 (A') (A") (A") (A') (A') (A") (A') (A") (A') (A')
                 (A') (A') (A') (A') (A') (A') (A') (A') (A") (A')
                 (A') (A') (A') (A') (A') (A') (A') (A') (A') (A')
                 (A') (A') (A') (A') (A') (A') (A') (A') (A') (A')
                 (A') (A') (A') (A') (A') (A') (A') (A') (A') (A')
                 (A') (A')
 The electronic state is 1-A'.
 Alpha  occ. eigenvalues --  -10.79263 -10.74823 -10.72490 -10.71763 -10.71431
 Alpha  occ. eigenvalues --  -10.70698 -10.70673 -10.70631 -10.69789 -10.69231
 Alpha  occ. eigenvalues --  -10.68763 -10.67722 -10.67290 -10.66407  -1.20969
 Alpha  occ. eigenvalues --   -1.13662  -1.12594  -1.06913  -1.03031  -1.01270
 Alpha  occ. eigenvalues --   -0.96123  -0.88017  -0.86068  -0.84292  -0.83642
 Alpha  occ. eigenvalues --   -0.77448  -0.76548  -0.74582  -0.73667  -0.69859
 Alpha  occ. eigenvalues --   -0.69142  -0.68513  -0.66588  -0.64630  -0.63589
 Alpha  occ. eigenvalues --   -0.63093  -0.62846  -0.59152  -0.58956  -0.56551
 Alpha  occ. eigenvalues --   -0.55549  -0.54831  -0.52511  -0.52142  -0.47975
 Alpha  occ. eigenvalues --   -0.47340  -0.36043
 Alpha virt. eigenvalues --   -0.27440  -0.15903  -0.11600  -0.11432  -0.10430
 Alpha virt. eigenvalues --   -0.09916  -0.09350  -0.07844  -0.07779  -0.07474
 Alpha virt. eigenvalues --   -0.07344  -0.06057  -0.05989  -0.05427  -0.05217
 Alpha virt. eigenvalues --   -0.04582  -0.03998  -0.03709  -0.03231  -0.02153
 Alpha virt. eigenvalues --   -0.02100  -0.01590  -0.01148  -0.00851   0.00177
 Alpha virt. eigenvalues --    0.00673   0.01022   0.01189   0.01483   0.01623
 Alpha virt. eigenvalues --    0.02045   0.02327   0.02835   0.02910   0.03365
 Alpha virt. eigenvalues --    0.03559   0.03848   0.04278   0.05430   0.05515
 Alpha virt. eigenvalues --    0.05667   0.05807   0.06032   0.06123   0.06699
 Alpha virt. eigenvalues --    0.07369   0.07390   0.07959   0.08013   0.08253
 Alpha virt. eigenvalues --    0.08254   0.08674   0.09375   0.10065   0.10210
 Alpha virt. eigenvalues --    0.10370   0.10834   0.11426   0.11434   0.12121
 Alpha virt. eigenvalues --    0.12724   0.12868   0.13302   0.13492   0.14042
 Alpha virt. eigenvalues --    0.14222   0.16046   0.16717   0.17034   0.17387
 Alpha virt. eigenvalues --    0.18204   0.18750   0.19870   0.20353   0.20963
 Alpha virt. eigenvalues --    0.21426   0.22155   0.22839   0.23443   0.24228
 Alpha virt. eigenvalues --    0.25260   0.25828   0.25975   0.26886   0.28367
 Alpha virt. eigenvalues --    0.29562   0.30970   0.31984   0.32431   0.35819
 Alpha virt. eigenvalues --    0.36711   0.37877   0.38467   0.38970   0.39546
 Alpha virt. eigenvalues --    0.40241   0.41645   0.42201   0.43192   0.43854
 Alpha virt. eigenvalues --    0.43929   0.44731   0.46423   0.46576   0.47314
 Alpha virt. eigenvalues --    0.48246   0.48983   0.49470   0.51030   0.51425
 Alpha virt. eigenvalues --    0.51501   0.52292   0.52556   0.53914   0.54587
 Alpha virt. eigenvalues --    0.55631   0.56136   0.58422   0.58731   0.59342
 Alpha virt. eigenvalues --    0.59576   0.61614   0.62554   0.63308   0.63380
 Alpha virt. eigenvalues --    0.64050   0.64972   0.66290   0.67353   0.67711
 Alpha virt. eigenvalues --    0.70290   0.71881   0.73527   0.73974   0.74301
 Alpha virt. eigenvalues --    0.74976   0.75594   0.76930   0.77284   0.78196
 Alpha virt. eigenvalues --    0.79164   0.79954   0.80882   0.81262   0.81913
 Alpha virt. eigenvalues --    0.82878   0.83893   0.84423   0.84634   0.86213
 Alpha virt. eigenvalues --    0.88261   0.89138   0.89874   0.90628   0.92505
 Alpha virt. eigenvalues --    0.94499   0.95483   0.96131   0.99025   1.01720
 Alpha virt. eigenvalues --    1.02352   1.02479   1.04046   1.04410   1.07436
 Alpha virt. eigenvalues --    1.07753   1.08056   1.09058   1.09118   1.13575
 Alpha virt. eigenvalues --    1.14791   1.17747   1.19174   1.19624   1.25700
 Alpha virt. eigenvalues --    1.29534   1.31304   1.34350   1.34641   1.35976
 Alpha virt. eigenvalues --    1.37435   1.38719   1.39032   1.39846   1.41135
 Alpha virt. eigenvalues --    1.44802   1.45516   1.47416   1.47445   1.49660
 Alpha virt. eigenvalues --    1.51088   1.53288   1.53928   1.56051   1.56285
 Alpha virt. eigenvalues --    1.57002   1.57243   1.59119   1.59899   1.60385
 Alpha virt. eigenvalues --    1.63101   1.65213   1.65298   1.66543   1.69064
 Alpha virt. eigenvalues --    1.69302   1.70983   1.71451   1.74396   1.74514
 Alpha virt. eigenvalues --    1.76077   1.76608   1.79152   1.79368   1.80506
 Alpha virt. eigenvalues --    1.82393   1.83192   1.84909   1.85785   1.87400
 Alpha virt. eigenvalues --    1.88842   1.89370   1.89396   1.92853   1.93548
 Alpha virt. eigenvalues --    1.95925   1.96841   1.99538   2.00205   2.02963
 Alpha virt. eigenvalues --    2.03315   2.05964   2.08832   2.11833   2.14843
 Alpha virt. eigenvalues --    2.18396   2.18838   2.19847   2.21345   2.23635
 Alpha virt. eigenvalues --    2.24662   2.27975   2.29343   2.32161   2.32826
 Alpha virt. eigenvalues --    2.35411   2.37741   2.39669   2.41804   2.43296
 Alpha virt. eigenvalues --    2.43328   2.44844   2.50457   2.52200   2.54067
 Alpha virt. eigenvalues --    2.56907   2.57358   2.58781   2.60098   2.60524
 Alpha virt. eigenvalues --    2.62356   2.62772   2.63352   2.64312   2.65363
 Alpha virt. eigenvalues --    2.65404   2.66342   2.66903   2.67917   2.69931
 Alpha virt. eigenvalues --    2.70413   2.73124   2.73357   2.75123   2.76664
 Alpha virt. eigenvalues --    2.78392   2.79105   2.81549   2.83487   2.84632
 Alpha virt. eigenvalues --    2.86988   2.89929   2.93112   2.95903   2.96950
 Alpha virt. eigenvalues --    2.98770   3.00915   3.01680   3.04747   3.07661
 Alpha virt. eigenvalues --    3.09398   3.14100   3.16380   3.23925   3.29775
 Alpha virt. eigenvalues --    3.34425   3.35212   3.40415   3.43743   3.50828
 Alpha virt. eigenvalues --    3.53178   3.63445   3.64903   3.71073   3.72768
 Alpha virt. eigenvalues --    3.75082   3.77420   3.80973   3.86181   3.90337
 Alpha virt. eigenvalues --    3.96448   4.01353   4.06398   4.18080   4.22133
 Alpha virt. eigenvalues --    4.28485   4.42705   4.49676  23.41950  23.47747
 Alpha virt. eigenvalues --   23.51585  23.56143  23.59409  23.79435  23.87503
 Alpha virt. eigenvalues --   23.96426  24.27938  24.35804  24.68402  24.76724
 Alpha virt. eigenvalues --   25.33177  25.51402
          Condensed to atoms (all electrons):
               1          2          3          4          5          6
     1  C   13.751186  -4.514595   1.677849   2.636575  -0.326151  -0.117194
     2  C   -4.514595  11.037467  -2.295630  -1.879038   0.242983  -0.006733
     3  C    1.677849  -2.295630   8.018514   1.471007  -0.296764   0.021615
     4  C    2.636575  -1.879038   1.471007   8.377173  -0.710814  -0.009293
     5  C   -0.326151   0.242983  -0.296764  -0.710814  12.730926   0.334227
     6  C   -0.117194  -0.006733   0.021615  -0.009293   0.334227   7.084416
     7  C    0.032737  -0.007974  -0.025452  -0.196536   0.155112   0.487800
     8  C    0.275375  -0.010148  -0.075872  -0.138438   0.784951  -0.572473
     9  C   -0.742779  -0.939116   0.346311  -0.522206   0.692937   0.177040
    10  C   -1.024475   0.982585  -1.333060  -1.156667  -2.894234   0.310284
    11  C   -2.015780   0.237747   0.978758  -0.358003  -0.767086  -0.371603
    12  C   -3.832752   3.319835  -1.720228  -0.576894  -2.907358   0.768894
    13  C    0.475703  -0.809926   0.402012  -1.015389  -1.641153   0.044509
    14  C   -0.779160   0.849901  -1.061632  -0.097985   0.226966  -2.145992
    15  H    0.427912  -0.181973   0.062124   0.030884  -0.010548   0.000763
    16  H   -0.017727   0.359080  -0.018672  -0.010353   0.001159  -0.000087
    17  H   -0.054628   0.039840   0.333359  -0.025773  -0.002713   0.000468
    18  H    0.077242  -0.003015  -0.103463   0.419135   0.030965  -0.005454
    19  H   -0.050568  -0.012196   0.065861  -0.005032  -0.214168   0.049248
    20  H    0.004615   0.003927  -0.007426  -0.007572   0.559403  -0.038353
    21  H   -0.001769  -0.000280   0.000765   0.002787  -0.077422   0.396231
    22  H    0.002250   0.000845  -0.000758  -0.004198   0.056846  -0.046867
    23  H    0.001504  -0.004115   0.002112   0.005580  -0.006674   0.000864
    24  H   -0.028017   0.014166  -0.008059  -0.019372   0.004199  -0.001592
    25  H   -0.028017   0.014166  -0.008059  -0.019372   0.004199  -0.001592
               7          8          9         10         11         12
     1  C    0.032737   0.275375  -0.742779  -1.024475  -2.015780  -3.832752
     2  C   -0.007974  -0.010148  -0.939116   0.982585   0.237747   3.319835
     3  C   -0.025452  -0.075872   0.346311  -1.333060   0.978758  -1.720228
     4  C   -0.196536  -0.138438  -0.522206  -1.156667  -0.358003  -0.576894
     5  C    0.155112   0.784951   0.692937  -2.894234  -0.767086  -2.907358
     6  C    0.487800  -0.572473   0.177040   0.310284  -0.371603   0.768894
     7  C    8.262463   1.221257  -0.838878  -0.751842  -0.345711  -0.895832
     8  C    1.221257   7.208814  -0.281662  -0.434920   0.061373  -1.440570
     9  C   -0.838878  -0.281662   9.020729  -0.287259   0.043993   0.118497
    10  C   -0.751842  -0.434920  -0.287259   9.571966  -1.024037   1.409948
    11  C   -0.345711   0.061373   0.043993  -1.024037  11.379342   0.779068
    12  C   -0.895832  -1.440570   0.118497   1.409948   0.779068  13.491465
    13  C   -0.267834   0.197624   0.773338   0.396326  -0.720753  -1.083324
    14  C   -0.774737  -1.209453  -2.026287   1.826526  -1.718008  -1.915794
    15  H    0.001487   0.005971   0.101787  -0.021608  -0.080873  -0.068127
    16  H   -0.000017   0.000093  -0.004932   0.004554   0.018602   0.012783
    17  H   -0.000578  -0.001538  -0.000339  -0.003040   0.010413   0.056036
    18  H    0.001494   0.001109  -0.023423   0.120346  -0.030143  -0.189371
    19  H   -0.022698  -0.017743   0.059689   0.415717   0.062965   0.255921
    20  H    0.032929   0.023595  -0.005963  -0.022604  -0.005251  -0.124167
    21  H   -0.039236  -0.003461  -0.001655   0.028813  -0.005680   0.019512
    22  H    0.383970  -0.006971   0.004881  -0.035431   0.007316  -0.030116
    23  H   -0.069241   0.383067   0.006790   0.009863  -0.036737   0.009480
    24  H    0.015305   0.041750   0.378205   0.012619  -0.069888  -0.015649
    25  H    0.015305   0.041750   0.378205   0.012619  -0.069888  -0.015649
              13         14         15         16         17         18
     1  C    0.475703  -0.779160   0.427912  -0.017727  -0.054628   0.077242
     2  C   -0.809926   0.849901  -0.181973   0.359080   0.039840  -0.003015
     3  C    0.402012  -1.061632   0.062124  -0.018672   0.333359  -0.103463
     4  C   -1.015389  -0.097985   0.030884  -0.010353  -0.025773   0.419135
     5  C   -1.641153   0.226966  -0.010548   0.001159  -0.002713   0.030965
     6  C    0.044509  -2.145992   0.000763  -0.000087   0.000468  -0.005454
     7  C   -0.267834  -0.774737   0.001487  -0.000017  -0.000578   0.001494
     8  C    0.197624  -1.209453   0.005971   0.000093  -0.001538   0.001109
     9  C    0.773338  -2.026287   0.101787  -0.004932  -0.000339  -0.023423
    10  C    0.396326   1.826526  -0.021608   0.004554  -0.003040   0.120346
    11  C   -0.720753  -1.718008  -0.080873   0.018602   0.010413  -0.030143
    12  C   -1.083324  -1.915794  -0.068127   0.012783   0.056036  -0.189371
    13  C   14.364347  -4.654224   0.059613  -0.008392   0.000622  -0.038651
    14  C   -4.654224  19.228684  -0.035404   0.006546  -0.009708   0.074266
    15  H    0.059613  -0.035404   0.488221  -0.005851   0.000644  -0.001448
    16  H   -0.008392   0.006546  -0.005851   0.426785  -0.001202   0.001664
    17  H    0.000622  -0.009708   0.000644  -0.001202   0.419326  -0.004518
    18  H   -0.038651   0.074266  -0.001448   0.001664  -0.004518   0.479870
    19  H    0.142640  -0.360391   0.000339  -0.000378   0.000950  -0.019549
    20  H   -0.037125  -0.032469  -0.000152   0.000014  -0.000154   0.002512
    21  H   -0.005486   0.030042  -0.000008  -0.000003   0.000013  -0.000364
    22  H    0.026908  -0.025381  -0.000152   0.000006  -0.000011   0.000050
    23  H   -0.039002   0.078281   0.000468  -0.000102   0.000051  -0.000249
    24  H    0.026328  -0.020238  -0.000501   0.000697  -0.000137   0.000472
    25  H    0.026328  -0.020238  -0.000501   0.000697  -0.000137   0.000472
              19         20         21         22         23         24
     1  C   -0.050568   0.004615  -0.001769   0.002250   0.001504  -0.028017
     2  C   -0.012196   0.003927  -0.000280   0.000845  -0.004115   0.014166
     3  C    0.065861  -0.007426   0.000765  -0.000758   0.002112  -0.008059
     4  C   -0.005032  -0.007572   0.002787  -0.004198   0.005580  -0.019372
     5  C   -0.214168   0.559403  -0.077422   0.056846  -0.006674   0.004199
     6  C    0.049248  -0.038353   0.396231  -0.046867   0.000864  -0.001592
     7  C   -0.022698   0.032929  -0.039236   0.383970  -0.069241   0.015305
     8  C   -0.017743   0.023595  -0.003461  -0.006971   0.383067   0.041750
     9  C    0.059689  -0.005963  -0.001655   0.004881   0.006790   0.378205
    10  C    0.415717  -0.022604   0.028813  -0.035431   0.009863   0.012619
    11  C    0.062965  -0.005251  -0.005680   0.007316  -0.036737  -0.069888
    12  C    0.255921  -0.124167   0.019512  -0.030116   0.009480  -0.015649
    13  C    0.142640  -0.037125  -0.005486   0.026908  -0.039002   0.026328
    14  C   -0.360391  -0.032469   0.030042  -0.025381   0.078281  -0.020238
    15  H    0.000339  -0.000152  -0.000008  -0.000152   0.000468  -0.000501
    16  H   -0.000378   0.000014  -0.000003   0.000006  -0.000102   0.000697
    17  H    0.000950  -0.000154   0.000013  -0.000011   0.000051  -0.000137
    18  H   -0.019549   0.002512  -0.000364   0.000050  -0.000249   0.000472
    19  H    0.526732  -0.010748   0.004789  -0.001042   0.001300   0.000393
    20  H   -0.010748   0.431512  -0.013387   0.003224  -0.000370   0.000075
    21  H    0.004789  -0.013387   0.406653  -0.003650   0.001603  -0.000059
    22  H   -0.001042   0.003224  -0.003650   0.390311  -0.003046   0.000434
    23  H    0.001300  -0.000370   0.001603  -0.003046   0.415454  -0.000442
    24  H    0.000393   0.000075  -0.000059   0.000434  -0.000442   0.462425
    25  H    0.000393   0.000075  -0.000059   0.000434  -0.000442  -0.064293
              25
     1  C   -0.028017
     2  C    0.014166
     3  C   -0.008059
     4  C   -0.019372
     5  C    0.004199
     6  C   -0.001592
     7  C    0.015305
     8  C    0.041750
     9  C    0.378205
    10  C    0.012619
    11  C   -0.069888
    12  C   -0.015649
    13  C    0.026328
    14  C   -0.020238
    15  H   -0.000501
    16  H    0.000697
    17  H   -0.000137
    18  H    0.000472
    19  H    0.000393
    20  H    0.000075
    21  H   -0.000059
    22  H    0.000434
    23  H   -0.000442
    24  H   -0.064293
    25  H    0.462425
 Mulliken charges:
               1
     1  C    0.170665
     2  C   -0.437803
     3  C   -0.425213
     4  C   -0.190203
     5  C    0.030212
     6  C   -0.359128
     7  C   -0.373295
     8  C   -0.053479
     9  C   -0.427903
    10  C   -0.112989
    11  C    0.039866
    12  C    0.574395
    13  C   -0.615040
    14  C    0.565888
    15  H    0.226933
    16  H    0.235037
    17  H    0.242755
    18  H    0.210054
    19  H    0.127576
    20  H    0.243858
    21  H    0.261309
    22  H    0.280148
    23  H    0.244002
    24  H    0.271178
    25  H    0.271178
 Sum of Mulliken charges =   1.00000
 Mulliken charges with hydrogens summed into heavy atoms:
               1
     1  C    0.397598
     2  C   -0.202767
     3  C   -0.182458
     4  C    0.019852
     5  C    0.274069
     6  C   -0.097819
     7  C   -0.093146
     8  C    0.190523
     9  C    0.114453
    10  C    0.014586
    11  C    0.039866
    12  C    0.574395
    13  C   -0.615040
    14  C    0.565888
 Electronic spatial extent (au):  <R**2>=           2873.2124
 Charge=              1.0000 electrons
 Dipole moment (field-independent basis, Debye):
    X=             -2.1648    Y=             -5.3078    Z=             -0.0000  Tot=              5.7323
 Quadrupole moment (field-independent basis, Debye-Ang):
   XX=            -46.3769   YY=            -35.6332   ZZ=            -83.1908
   XY=             15.4607   XZ=              0.0000   YZ=              0.0000
 Traceless Quadrupole moment (field-independent basis, Debye-Ang):
   XX=              8.6901   YY=             19.4337   ZZ=            -28.1238
   XY=             15.4607   XZ=              0.0000   YZ=              0.0000
 Octapole moment (field-independent basis, Debye-Ang**2):
  XXX=            -18.6227  YYY=            -54.1936  ZZZ=              0.0000  XYY=            -13.8468
  XXY=             -8.0307  XXZ=              0.0000  XZZ=             -3.0623  YZZ=            -10.5677
  YYZ=             -0.0000  XYZ=              0.0000
 Hexadecapole moment (field-independent basis, Debye-Ang**3):
 XXXX=          -1153.6324 YYYY=          -1673.0297 ZZZZ=            -97.6666 XXXY=           -368.8994
 XXXZ=              0.0000 YYYX=           -304.8415 YYYZ=             -0.0000 ZZZX=             -0.0000
 ZZZY=              0.0000 XXYY=           -433.1008 XXZZ=           -281.6963 YYZZ=           -448.6257
 XXYZ=              0.0000 YYXZ=              0.0000 ZZXY=           -202.8203
 N-N= 7.850743195125D+02 E-N=-2.807837848163D+03  KE= 5.399643269862D+02
 Symmetry A'   KE= 5.247530799818D+02
 Symmetry A"   KE= 1.521124700441D+01
 Unable to Open any file for archive entry.
 1\1\GINC-GADI-CPU-CLX-2808\SP\RM062X TD-FC\6-311++G(d,p)\C14H11(1+)\TS
 1578\02-Aug-2022\0\\#n M062X/6-311++G(d,p) TD(NStates=1) EmpiricalDisp
 ersion=GD3 SP\\SP_-12\\1,1\C,0,0.,2.736655,1.352431\C,0,0.,3.941508,0.
 699989\C,0,0.,3.771861,-0.58983\C,0,0.,2.175156,-1.319538\C,0,0.,-2.65
 5156,-1.511538\C,0,0.,-3.555861,-0.97383\C,0,0.,-3.509508,0.507989\C,0
 ,0.,-2.352655,1.352431\C,0,0.,0.096,1.513369\C,0,0.,-0.348,-1.369189\C
 ,0,0.,1.166055,0.597065\C,0,0.,1.121471,-0.666804\C,0,0.,-1.382055,0.8
 61065\C,0,0.,-1.337471,-0.690804\H,0,0.,2.664071,2.435647\H,0,0.,4.896
 753,1.191689\H,0,0.,4.581262,-1.352349\H,0,0.,2.25155,-2.402059\H,0,0.
 ,-0.3,-2.446266\H,0,0.,-2.46755,-2.594059\H,0,0.,-4.557262,-1.400349\H
 ,0,0.,-4.464753,1.023689\H,0,0.,-2.544071,2.435647\H,0,-0.859585,0.528
 ,2.205787\H,0,0.859585,0.528,2.205787\\Version=ES64L-G16RevC.01\State=
 1-A'\HF=-539.1439831\RMSD=9.683e-09\PG=CS [SG(C14H9),X(H2)]\\@
 The archive entry for this job was punched.


 WISDOM IS KNOWING WHAT TO DO,
 SKILL IS KNOWING HOW TO DO IT,
 AND VIRTUE IS NOT DOING IT.
 Job cpu time:       0 days  0 hours 57 minutes 38.9 seconds.
 Elapsed time:       0 days  0 hours  1 minutes 21.2 seconds.
 File lengths (MBytes):  RWF=    460 Int=      0 D2E=      0 Chk=     15 Scr=      1
 Normal termination of Gaussian 16 at Tue Aug  2 11:49:10 2022.
