 Entering Gaussian System, Link 0=g16
 Initial command:
 /apps/gaussian/g16c01/g16/l1.exe "/jobfs/53803424.gadi-pbs/Gau-1861248.inp" -scrdir="/jobfs/53803424.gadi-pbs/"
 Entering Link 1 = /apps/gaussian/g16c01/g16/l1.exe PID=   1861249.
  
 Copyright (c) 1988-2019, Gaussian, Inc.  All Rights Reserved.
  
 This is part of the Gaussian(R) 16 program.  It is based on
 the Gaussian(R) 09 system (copyright 2009, Gaussian, Inc.),
 the Gaussian(R) 03 system (copyright 2003, Gaussian, Inc.),
 the Gaussian(R) 98 system (copyright 1998, Gaussian, Inc.),
 the Gaussian(R) 94 system (copyright 1995, Gaussian, Inc.),
 the Gaussian 92(TM) system (copyright 1992, Gaussian, Inc.),
 the Gaussian 90(TM) system (copyright 1990, Gaussian, Inc.),
 the Gaussian 88(TM) system (copyright 1988, Gaussian, Inc.),
 the Gaussian 86(TM) system (copyright 1986, Carnegie Mellon
 University), and the Gaussian 82(TM) system (copyright 1983,
 Carnegie Mellon University). Gaussian is a federally registered
 trademark of Gaussian, Inc.
  
 This software contains proprietary and confidential information,
 including trade secrets, belonging to Gaussian, Inc.
  
 This software is provided under written license and may be
 used, copied, transmitted, or stored only in accord with that
 written license.
  
 The following legend is applicable only to US Government
 contracts under FAR:
  
                    RESTRICTED RIGHTS LEGEND
  
 Use, reproduction and disclosure by the US Government is
 subject to restrictions as set forth in subparagraphs (a)
 and (c) of the Commercial Computer Software - Restricted
 Rights clause in FAR 52.227-19.
  
 Gaussian, Inc.
 340 Quinnipiac St., Bldg. 40, Wallingford CT 06492
  
  
 ---------------------------------------------------------------
 Warning -- This program may not be used in any manner that
 competes with the business of Gaussian, Inc. or will provide
 assistance to any competitor of Gaussian, Inc.  The licensee
 of this program is prohibited from giving any competitor of
 Gaussian, Inc. access to this program.  By using this program,
 the user acknowledges that Gaussian, Inc. is engaged in the
 business of creating and licensing software in the field of
 computational chemistry and represents and warrants to the
 licensee that it is not a competitor of Gaussian, Inc. and that
 it will not use this program in any manner prohibited above.
 ---------------------------------------------------------------
  

 Cite this work as:
 Gaussian 16, Revision C.01,
 M. J. Frisch, G. W. Trucks, H. B. Schlegel, G. E. Scuseria, 
 M. A. Robb, J. R. Cheeseman, G. Scalmani, V. Barone, 
 G. A. Petersson, H. Nakatsuji, X. Li, M. Caricato, A. V. Marenich, 
 J. Bloino, B. G. Janesko, R. Gomperts, B. Mennucci, H. P. Hratchian, 
 J. V. Ortiz, A. F. Izmaylov, J. L. Sonnenberg, D. Williams-Young, 
 F. Ding, F. Lipparini, F. Egidi, J. Goings, B. Peng, A. Petrone, 
 T. Henderson, D. Ranasinghe, V. G. Zakrzewski, J. Gao, N. Rega, 
 G. Zheng, W. Liang, M. Hada, M. Ehara, K. Toyota, R. Fukuda, 
 J. Hasegawa, M. Ishida, T. Nakajima, Y. Honda, O. Kitao, H. Nakai, 
 T. Vreven, K. Throssell, J. A. Montgomery, Jr., J. E. Peralta, 
 F. Ogliaro, M. J. Bearpark, J. J. Heyd, E. N. Brothers, K. N. Kudin, 
 V. N. Staroverov, T. A. Keith, R. Kobayashi, J. Normand, 
 K. Raghavachari, A. P. Rendell, J. C. Burant, S. S. Iyengar, 
 J. Tomasi, M. Cossi, J. M. Millam, M. Klene, C. Adamo, R. Cammi, 
 J. W. Ochterski, R. L. Martin, K. Morokuma, O. Farkas, 
 J. B. Foresman, and D. J. Fox, Gaussian, Inc., Wallingford CT, 2019.
 
 ******************************************
 Gaussian 16:  ES64L-G16RevC.01  3-Jul-2019
                 2-Aug-2022 
 ******************************************
 %NProcShared=48
 Will use up to   48 processors via shared memory.
 %mem = 190GB
 ---------------------------------------------------------------
 #n M062X/6-311++G(d,p) TD(NStates=1) EmpiricalDispersion=GD3 SP
 ---------------------------------------------------------------
 1/38=1,172=1/1;
 2/12=2,17=6,18=5,40=1/2;
 3/5=4,6=6,7=1111,11=9,25=1,30=1,74=-55,124=31/1,2,3,8;
 4//1;
 5/5=2,38=5/2;
 8/6=1,10=2,108=1/1;
 9/41=1,42=1,70=2/14;
 6/7=2,8=2,9=2,10=2/1;
 99/5=1,9=1/99;
 -----
 SP_14
 -----
 Symbolic Z-matrix:
 Charge =  1 Multiplicity = 1
 C                     0.        2.19066   1.37243 
 C                     0.        3.41351   0.66199 
 C                     0.        3.58786  -0.83583 
 C                     0.        2.81516  -1.50754 
 C                     0.       -2.25516  -1.28354 
 C                     0.       -3.83986  -0.38783 
 C                     0.       -3.91751   0.88599 
 C                     0.       -2.63866   1.37243 
 C                     0.       -0.112     1.36337 
 C                     0.        0.406    -1.51919 
 C                     0.        1.37006   0.75307 
 C                     0.        1.37547  -0.8228 
 C                     0.       -1.11806   0.44507 
 C                     0.       -1.12347  -0.7948 
 H                     0.        2.24407   2.45565 
 H                     0.        4.31875   1.26969 
 H                     0.        4.65526  -1.14435 
 H                     0.        2.75555  -2.59006 
 H                     0.        0.35     -2.60627 
 H                     0.       -2.50355  -2.36606 
 H                     0.       -4.68326  -1.08835 
 H                     0.       -4.82275   1.46569 
 H                     0.       -2.38407   2.45565 
 H                    -0.85959  -0.616     2.05579 
 H                     0.85959  -0.616     2.05579 
 
                          Input orientation:                          
 ---------------------------------------------------------------------
 Center     Atomic      Atomic             Coordinates (Angstroms)
 Number     Number       Type             X           Y           Z
 ---------------------------------------------------------------------
      1          6           0        0.000000    2.190655    1.372431
      2          6           0        0.000000    3.413508    0.661989
      3          6           0        0.000000    3.587861   -0.835830
      4          6           0        0.000000    2.815156   -1.507538
      5          6           0        0.000000   -2.255156   -1.283538
      6          6           0        0.000000   -3.839861   -0.387830
      7          6           0        0.000000   -3.917508    0.885989
      8          6           0        0.000000   -2.638655    1.372431
      9          6           0        0.000000   -0.112000    1.363369
     10          6           0        0.000000    0.406000   -1.519189
     11          6           0        0.000000    1.370055    0.753065
     12          6           0        0.000000    1.375471   -0.822804
     13          6           0        0.000000   -1.118055    0.445065
     14          6           0        0.000000   -1.123471   -0.794804
     15          1           0        0.000000    2.244071    2.455647
     16          1           0        0.000000    4.318753    1.269689
     17          1           0        0.000000    4.655262   -1.144349
     18          1           0        0.000000    2.755550   -2.590059
     19          1           0        0.000000    0.350000   -2.606266
     20          1           0        0.000000   -2.503550   -2.366059
     21          1           0        0.000000   -4.683262   -1.088349
     22          1           0        0.000000   -4.822753    1.465689
     23          1           0        0.000000   -2.384071    2.455647
     24          1           0       -0.859585   -0.616000    2.055787
     25          1           0        0.859585   -0.616000    2.055787
 ---------------------------------------------------------------------
                    Distance matrix (angstroms):
                    1          2          3          4          5
     1  C    0.000000
     2  C    1.414248   0.000000
     3  C    2.613159   1.507933   0.000000
     4  C    2.946901   2.250527   1.023848   0.000000
     5  C    5.178746   5.993232   5.860144   5.075258   0.000000
     6  C    6.282169   7.328948   7.441220   6.748555   1.820325
     7  C    6.127502   7.334437   7.700339   7.145470   2.733178
     8  C    4.829310   6.093718   6.606506   6.167518   2.683513
     9  C    2.302673   3.594599   4.304120   4.100043   3.405765
    10  C    3.398008   3.715191   3.254415   2.409184   2.671569
    11  C    1.028104   2.045482   2.728232   2.683029   4.158113
    12  C    2.341705   2.521548   2.212428   1.594225   3.659744
    13  C    3.436214   4.536752   4.877124   4.391219   2.069074
    14  C    3.959841   4.765126   4.711511   4.002596   1.232709
    15  H    1.084532   2.141213   3.555220   4.004120   5.850175
    16  H    2.130577   1.090306   2.228769   3.158131   7.052322
    17  H    3.522566   2.191988   1.111094   1.875606   6.911820
    18  H    4.002553   3.317940   1.941664   1.084161   5.178240
    19  H    4.383839   4.479573   3.690283   2.698925   2.921720
    20  H    6.000989   6.646853   6.280676   5.387550   1.110654
    21  H    7.301108   8.283802   8.274977   7.510126   2.435939
    22  H    7.014028   8.275381   8.719829   8.196202   3.761755
    23  H    4.701221   6.068701   6.818929   6.537492   3.741407
    24  H    3.013830   4.349540   5.174242   5.020857   3.817959
    25  H    3.013830   4.349540   5.174242   5.020857   3.817959
                    6          7          8          9         10
     6  C    0.000000
     7  C    1.276183   0.000000
     8  C    2.131060   1.368244   0.000000
     9  C    4.118695   3.835333   2.526671   0.000000
    10  C    4.394008   4.947484   4.198975   2.928731   0.000000
    11  C    5.333373   5.289234   4.056275   1.602797   2.468307
    12  C    5.233440   5.561978   4.575179   2.644224   1.193661
    13  C    2.846391   2.833964   1.781076   1.362141   2.486169
    14  C    2.746708   3.260630   2.644370   2.383440   1.692340
    15  H    6.715623   6.358371   5.001437   2.596949   4.379250
    16  H    8.325284   8.245194   6.958167   4.431743   4.804943
    17  H    8.528742   8.809918   7.715919   5.386598   4.265763
    18  H    6.953363   7.524135   6.693189   4.883896   2.582082
    19  H    4.740927   5.514297   4.976152   3.996429   1.088518
    20  H    2.387282   3.546138   3.740930   4.430366   3.030292
    21  H    1.096381   2.117638   3.199352   5.187230   5.107466
    22  H    2.098001   1.074951   2.186088   4.711864   6.020744
    23  H    3.194477   2.194369   1.112731   2.520987   4.856317
    24  H    4.135629   3.606559   2.301520   1.213402   3.816258
    25  H    4.135629   3.606559   2.301520   1.213402   3.816258
                   11         12         13         14         15
    11  C    0.000000
    12  C    1.575878   0.000000
    13  C    2.507101   2.797349   0.000000
    14  C    2.934888   2.499099   1.239881   0.000000
    15  H    1.913815   3.391564   3.917439   4.680360   0.000000
    16  H    2.993613   3.611293   5.498990   5.820647   2.389728
    17  H    3.793780   3.295515   5.988107   5.789295   4.332876
    18  H    3.618850   2.242277   4.921056   4.274312   5.071564
    19  H    3.510786   2.057262   3.386120   2.335061   5.404671
    20  H    4.973304   4.174738   3.134009   2.091282   6.766739
    21  H    6.327199   6.064549   3.880987   3.571874   7.781250
    22  H    6.233675   6.607207   3.842715   4.335264   7.135826
    23  H    4.122165   4.988226   2.375971   3.486337   4.628142
    24  H    2.525942   3.604321   1.893508   3.020312   3.013101
    25  H    2.525942   3.604321   1.893508   3.020312   3.013101
                   16         17         18         19         20
    16  H    0.000000
    17  H    2.437379   0.000000
    18  H    4.164284   2.387254   0.000000
    19  H    5.547434   4.546700   2.405605   0.000000
    20  H    7.730620   7.262311   5.263868   2.863642   0.000000
    21  H    9.305730   9.338692   7.588877   5.257166   2.526596
    22  H    9.143607   9.830822   8.595334   6.583175   4.478950
    23  H    6.806934   7.906464   7.202420   5.753095   4.823186
    24  H    5.070367   6.226232   5.804319   4.838055   4.884102
    25  H    5.070367   6.226232   5.804319   4.838055   4.884102
                   21         22         23         24         25
    21  H    0.000000
    22  H    2.557844   0.000000
    23  H    4.224475   2.631955   0.000000
    24  H    5.212207   4.334037   2.006203   0.000000
    25  H    5.212207   4.334037   2.006203   1.719170   0.000000
 Stoichiometry    C14H11(1+)
 Framework group  CS[SG(C14H9),X(H2)]
 Deg. of freedom    46
 Full point group                 CS      NOp   2
 Largest Abelian subgroup         CS      NOp   2
 Largest concise Abelian subgroup CS      NOp   2
                         Standard orientation:                         
 ---------------------------------------------------------------------
 Center     Atomic      Atomic             Coordinates (Angstroms)
 Number     Number       Type             X           Y           Z
 ---------------------------------------------------------------------
      1          6           0       -2.084662   -1.532636    0.000000
      2          6           0       -1.876524   -2.931484    0.000000
      3          6           0       -0.549221   -3.647116    0.000000
      4          6           0        0.360527   -3.177409    0.000000
      5          6           0        2.026484    1.616631    0.000000
      6          6           0        1.779949    3.420184    0.000000
      7          6           0        0.625038    3.963163    0.000000
      8          6           0       -0.299646    2.954674    0.000000
      9          6           0       -1.225131    0.603601    0.000000
     10          6           0        1.261828   -0.943170    0.000000
     11          6           0       -1.205846   -0.999080    0.000000
     12          6           0        0.256422   -1.586587    0.000000
     13          6           0        0.000000    1.198985    0.000000
     14          6           0        1.154067    0.745736    0.000000
     15          1           0       -3.110911   -1.181890    0.000000
     16          1           0       -2.775785   -3.548004    0.000000
     17          1           0       -0.657084   -4.752961    0.000000
     18          1           0        1.388418   -3.522147    0.000000
     19          1           0        2.292619   -1.292942    0.000000
     20          1           0        3.124156    1.447312    0.000000
     21          1           0        2.742597    3.944931    0.000000
     22          1           0        0.420989    5.018570    0.000000
     23          1           0       -1.400251    3.118499    0.000000
     24          1           0       -1.682225    1.327841    0.859585
     25          1           0       -1.682225    1.327841   -0.859585
 ---------------------------------------------------------------------
 Rotational constants (GHZ):           2.1551481           0.4399567           0.3661579
 Standard basis: 6-311++G(d,p) (5D, 7F)
 There are   299 symmetry adapted cartesian basis functions of A'  symmetry.
 There are   100 symmetry adapted cartesian basis functions of A"  symmetry.
 There are   285 symmetry adapted basis functions of A'  symmetry.
 There are   100 symmetry adapted basis functions of A"  symmetry.
   385 basis functions,   603 primitive gaussians,   399 cartesian basis functions
    47 alpha electrons       47 beta electrons
       nuclear repulsion energy       787.1129827558 Hartrees.
 NAtoms=   25 NActive=   25 NUniq=   24 SFac= 1.09D+00 NAtFMM=   60 NAOKFM=F Big=F
 Integral buffers will be    131072 words long.
 Regular integral format.
 Two-electron integral symmetry is turned on.
 Nuclear repulsion after empirical dispersion term =      787.1120384677 Hartrees.
 One-electron integrals computed using PRISM.
 NBasis=   385 RedAO= T EigKep=  1.09D-06  NBF=   285   100
 NBsUse=   379 1.00D-06 EigRej=  6.56D-07 NBFU=   279   100
 ExpMin= 3.60D-02 ExpMax= 4.56D+03 ExpMxC= 6.82D+02 IAcc=3 IRadAn=         5 AccDes= 0.00D+00
 Harris functional with IExCor= 1009 and IRadAn=       5 diagonalized for initial guess.
 HarFok:  IExCor= 1009 AccDes= 0.00D+00 IRadAn=         5 IDoV= 1 UseB2=F ITyADJ=14
 ICtDFT=  3500011 ScaDFX=  1.000000  1.000000  1.000000  1.000000
 FoFCou: FMM=F IPFlag=           0 FMFlag=      100000 FMFlg1=           0
         NFxFlg=           0 DoJE=T BraDBF=F KetDBF=T FulRan=T
         wScrn=  0.000000 ICntrl=       500 IOpCl=  0 I1Cent=   200000004 NGrid=           0
         NMat0=    1 NMatS0=      1 NMatT0=    0 NMatD0=    1 NMtDS0=    0 NMtDT0=    0
 Petite list used in FoFCou.
 Initial guess orbital symmetries:
       Occupied  (A') (A') (A') (A') (A') (A') (A') (A') (A') (A')
                 (A') (A') (A') (A') (A') (A') (A') (A') (A') (A')
                 (A') (A') (A') (A') (A') (A') (A') (A') (A') (A')
                 (A') (A") (A') (A") (A') (A') (A") (A') (A') (A')
                 (A') (A") (A") (A') (A") (A') (A")
       Virtual   (A") (A") (A") (A') (A") (A") (A') (A') (A') (A')
                 (A') (A') (A") (A') (A') (A") (A') (A') (A") (A')
                 (A') (A') (A") (A') (A') (A") (A') (A") (A') (A")
                 (A') (A') (A') (A') (A") (A') (A') (A') (A') (A")
                 (A") (A') (A") (A') (A') (A') (A') (A') (A') (A')
                 (A") (A') (A") (A") (A') (A') (A') (A") (A") (A')
                 (A') (A') (A') (A') (A") (A') (A') (A') (A") (A')
                 (A') (A') (A') (A') (A') (A') (A') (A') (A') (A')
                 (A') (A') (A') (A') (A') (A') (A') (A') (A') (A')
                 (A') (A') (A") (A') (A') (A") (A') (A") (A') (A')
                 (A') (A") (A') (A') (A") (A") (A') (A") (A') (A")
                 (A') (A") (A") (A') (A') (A") (A') (A') (A") (A')
                 (A") (A') (A') (A") (A') (A") (A') (A') (A') (A')
                 (A') (A') (A') (A') (A') (A') (A') (A') (A') (A")
                 (A') (A') (A') (A') (A") (A') (A') (A') (A') (A")
                 (A') (A') (A") (A') (A") (A') (A') (A') (A") (A")
                 (A") (A') (A") (A') (A") (A') (A") (A') (A') (A')
                 (A") (A') (A') (A') (A') (A') (A') (A") (A") (A')
                 (A') (A") (A') (A") (A') (A") (A') (A") (A') (A')
                 (A") (A") (A') (A') (A') (A') (A") (A') (A") (A')
                 (A") (A') (A") (A') (A") (A") (A') (A') (A') (A")
                 (A') (A') (A') (A") (A') (A') (A') (A") (A') (A')
                 (A") (A') (A") (A') (A") (A') (A') (A') (A") (A')
                 (A") (A') (A") (A') (A') (A") (A') (A") (A') (A")
                 (A') (A') (A') (A') (A') (A") (A') (A') (A') (A")
                 (A') (A') (A') (A") (A") (A') (A') (A") (A') (A")
                 (A') (A") (A') (A') (A') (A') (A") (A') (A") (A')
                 (A") (A') (A') (A') (A") (A') (A') (A') (A") (A')
                 (A') (A") (A') (A") (A") (A') (A") (A') (A') (A')
                 (A') (A') (A') (A') (A') (A') (A') (A") (A') (A')
                 (A') (A') (A') (A') (A') (A') (A') (A') (A') (A')
                 (A') (A') (A') (A') (A') (A') (A') (A') (A') (A')
                 (A') (A') (A') (A') (A') (A') (A') (A') (A') (A')
                 (A') (A')
 The electronic state of the initial guess is 1-A'.
 Requested convergence on RMS density matrix=1.00D-08 within 128 cycles.
 Requested convergence on MAX density matrix=1.00D-06.
 Requested convergence on             energy=1.00D-06.
 No special actions if energy rises.
 SCF Done:  E(RM062X) =  -538.917753554     A.U. after   19 cycles
            NFock= 19  Conv=0.84D-08     -V/T= 1.9967
 DoSCS=F DFT=T ScalE2(SS,OS)=  1.000000  1.000000
 ExpMin= 3.60D-02 ExpMax= 4.56D+03 ExpMxC= 6.82D+02 IAcc=3 IRadAn=         5 AccDes= 0.00D+00
 HarFok:  IExCor=  205 AccDes= 0.00D+00 IRadAn=         5 IDoV=-2 UseB2=F ITyADJ=14
 ICtDFT= 12500011 ScaDFX=  1.000000  1.000000  1.000000  1.000000
 Range of M.O.s used for correlation:    15   379
 NBasis=   385 NAE=    47 NBE=    47 NFC=    14 NFV=     0
 NROrb=    365 NOA=    33 NOB=    33 NVA=   332 NVB=   332

 **** Warning!!: The largest alpha MO coefficient is  0.20392475D+03


 **** Warning!!: The smallest alpha delta epsilon is  0.81407438D-01

 Orbital symmetries:
       Occupied  (A') (A') (A') (A') (A') (A') (A') (A') (A') (A')
                 (A') (A') (A') (A') (A') (A') (A') (A') (A') (A')
                 (A') (A') (A') (A') (A') (A') (A') (A') (A') (A')
                 (A') (A") (A') (A') (A") (A') (A') (A") (A') (A')
                 (A") (A') (A") (A') (A") (A') (A")
       Virtual   (A") (A") (A') (A") (A') (A') (A") (A') (A') (A')
                 (A") (A') (A") (A') (A') (A") (A') (A') (A") (A')
                 (A') (A") (A") (A') (A') (A') (A') (A') (A') (A")
                 (A') (A") (A') (A") (A') (A') (A") (A') (A') (A")
                 (A') (A') (A") (A') (A') (A') (A") (A') (A") (A')
                 (A') (A") (A') (A') (A') (A") (A') (A") (A') (A')
                 (A') (A') (A') (A") (A') (A') (A") (A') (A') (A')
                 (A') (A') (A') (A') (A') (A') (A') (A') (A') (A')
                 (A') (A') (A') (A') (A') (A') (A') (A') (A') (A')
                 (A") (A') (A') (A") (A') (A') (A') (A') (A") (A')
                 (A") (A') (A') (A") (A') (A") (A') (A") (A") (A')
                 (A") (A') (A') (A") (A') (A') (A") (A") (A") (A')
                 (A') (A') (A") (A') (A") (A') (A') (A') (A') (A')
                 (A') (A') (A') (A') (A') (A') (A') (A') (A') (A')
                 (A') (A') (A') (A') (A") (A') (A') (A') (A") (A')
                 (A') (A') (A') (A") (A") (A') (A") (A') (A') (A")
                 (A") (A') (A") (A') (A") (A") (A') (A") (A') (A')
                 (A") (A') (A') (A') (A') (A') (A') (A") (A') (A")
                 (A') (A") (A") (A') (A') (A") (A") (A') (A') (A')
                 (A") (A") (A') (A") (A') (A') (A') (A') (A") (A')
                 (A") (A") (A') (A') (A") (A") (A') (A') (A') (A")
                 (A') (A') (A') (A") (A') (A') (A') (A") (A') (A')
                 (A') (A") (A") (A') (A") (A') (A') (A') (A") (A')
                 (A") (A') (A") (A') (A') (A') (A") (A") (A') (A')
                 (A") (A') (A') (A') (A') (A") (A') (A') (A') (A")
                 (A') (A') (A') (A') (A') (A') (A") (A") (A') (A')
                 (A') (A') (A") (A') (A') (A') (A") (A') (A') (A")
                 (A') (A") (A') (A") (A") (A") (A') (A') (A') (A")
                 (A') (A') (A") (A") (A') (A") (A") (A') (A') (A')
                 (A') (A') (A') (A') (A') (A') (A') (A") (A') (A')
                 (A') (A') (A') (A') (A') (A') (A') (A') (A') (A')
                 (A') (A') (A') (A') (A') (A') (A') (A') (A') (A')
                 (A') (A') (A') (A') (A') (A') (A') (A') (A') (A')
                 (A') (A')
     4 initial guesses have been made.
 Convergence on wavefunction:    0.001000000000000
 Iteration     1 Dimension     4 NMult     0 NNew      4
 CISAX will form     4 AO SS matrices at one time.
 Iteration     2 Dimension     6 NMult     4 NNew      2
 Iteration     3 Dimension     8 NMult     6 NNew      2
 Iteration     4 Dimension    10 NMult     8 NNew      2
 Iteration     5 Dimension    12 NMult    10 NNew      2
 Iteration     6 Dimension    14 NMult    12 NNew      2
 ***********************************************************************
 Excited states from <AA,BB:AA,BB> singles matrix:
 ***********************************************************************
 
 Ground to excited state transition densities written to RWF  633
 Ground to excited state transition electric dipole moments (Au):
       state          X           Y           Z        Dip. S.      Osc.
         1         0.6992      2.0477     -0.0000      4.6820      0.1279
 Ground to excited state transition velocity dipole moments (Au):
       state          X           Y           Z        Dip. S.      Osc.
         1        -0.0227     -0.0809      0.0000      0.0071      0.1148
 Ground to excited state transition magnetic dipole moments (Au):
       state          X           Y           Z
         1         0.0000     -0.0000      0.5867
 Ground to excited state transition velocity quadrupole moments (Au):
       state          XX          YY          ZZ          XY          XZ          YZ
         1         0.0199      0.0423     -0.0046      0.0665     -0.0000      0.0000
 <0|del|b> * <b|rxdel|0> + <0|del|b> * <b|delr+rdel|0>
 Rotatory Strengths (R) in cgs (10**-40 erg-esu-cm/Gauss)
       state          XX          YY          ZZ    R(velocity)    E-M Angle
         1         0.0000      0.0000      0.0000      0.0000       90.00
 1/2[<0|r|b>*<b|rxdel|0> + (<0|rxdel|b>*<b|r|0>)*]
 Rotatory Strengths (R) in cgs (10**-40 erg-esu-cm/Gauss)
       state          XX          YY          ZZ     R(length)
         1        -0.0000      0.0000      0.0000      0.0000
  1/2[<0|del|b>*<b|r|0> + (<0|r|b>*<b|del|0>)*] (Au)
       state          X           Y           Z        Dip. S.   Osc.(frdel)
         1        -0.0159     -0.1656     -0.0000      0.1815      0.1210

 Excitation energies and oscillator strengths:
 
 Excited State   1:      Singlet-A'     1.1150 eV 1111.93 nm  f=0.1279  <S**2>=0.000
      47 -> 48         0.73261
      47 <- 48        -0.22532
 This state for optimization and/or second-order correction.
 Total Energy, E(TD-HF/TD-DFT) =  -538.876776680    
 Copying the excited state density for this state as the 1-particle RhoCI density.
 SavETr:  write IOETrn=   770 NScale= 10 NData=  16 NLR=1 NState=    1 LETran=      28.

 **********************************************************************

            Population analysis using the SCF Density.

 **********************************************************************

 Orbital symmetries:
       Occupied  (A') (A') (A') (A') (A') (A') (A') (A') (A') (A')
                 (A') (A') (A') (A') (A') (A') (A') (A') (A') (A')
                 (A') (A') (A') (A') (A') (A') (A') (A') (A') (A')
                 (A') (A") (A') (A') (A") (A') (A') (A") (A') (A')
                 (A") (A') (A") (A') (A") (A') (A")
       Virtual   (A") (A") (A') (A") (A') (A') (A") (A') (A') (A')
                 (A") (A') (A") (A') (A') (A") (A') (A') (A") (A')
                 (A') (A") (A") (A') (A') (A') (A') (A') (A') (A")
                 (A') (A") (A') (A") (A') (A') (A") (A') (A') (A")
                 (A') (A') (A") (A') (A') (A') (A") (A') (A") (A')
                 (A') (A") (A') (A') (A') (A") (A') (A") (A') (A')
                 (A') (A') (A') (A") (A') (A') (A") (A') (A') (A')
                 (A') (A') (A') (A') (A') (A') (A') (A') (A') (A')
                 (A') (A') (A') (A') (A') (A') (A') (A') (A') (A')
                 (A") (A') (A') (A") (A') (A') (A') (A') (A") (A')
                 (A") (A') (A') (A") (A') (A") (A') (A") (A") (A')
                 (A") (A') (A') (A") (A') (A') (A") (A") (A") (A')
                 (A') (A') (A") (A') (A") (A') (A') (A') (A') (A')
                 (A') (A') (A') (A') (A') (A') (A') (A') (A') (A')
                 (A') (A') (A') (A') (A") (A') (A') (A') (A") (A')
                 (A') (A') (A') (A") (A") (A') (A") (A') (A') (A")
                 (A") (A') (A") (A') (A") (A") (A') (A") (A') (A')
                 (A") (A') (A') (A') (A') (A') (A') (A") (A') (A")
                 (A') (A") (A") (A') (A') (A") (A") (A') (A') (A')
                 (A") (A") (A') (A") (A') (A') (A') (A') (A") (A')
                 (A") (A") (A') (A') (A") (A") (A') (A') (A') (A")
                 (A') (A') (A') (A") (A') (A') (A') (A") (A') (A')
                 (A') (A") (A") (A') (A") (A') (A') (A') (A") (A')
                 (A") (A') (A") (A') (A') (A') (A") (A") (A') (A')
                 (A") (A') (A') (A') (A') (A") (A') (A') (A') (A")
                 (A') (A') (A') (A') (A') (A') (A") (A") (A') (A')
                 (A') (A') (A") (A') (A') (A') (A") (A') (A') (A")
                 (A') (A") (A') (A") (A") (A") (A') (A') (A') (A")
                 (A') (A') (A") (A") (A') (A") (A") (A') (A') (A')
                 (A') (A') (A') (A') (A') (A') (A') (A") (A') (A')
                 (A') (A') (A') (A') (A') (A') (A') (A') (A') (A')
                 (A') (A') (A') (A') (A') (A') (A') (A') (A') (A')
                 (A') (A') (A') (A') (A') (A') (A') (A') (A') (A')
                 (A') (A')
 The electronic state is 1-A'.
 Alpha  occ. eigenvalues --  -10.77674 -10.73151 -10.72020 -10.71714 -10.71583
 Alpha  occ. eigenvalues --  -10.71363 -10.71004 -10.69786 -10.69455 -10.69299
 Alpha  occ. eigenvalues --  -10.68837 -10.68124 -10.68015 -10.67219  -1.20902
 Alpha  occ. eigenvalues --   -1.14235  -1.13162  -1.07050  -1.04529  -1.02594
 Alpha  occ. eigenvalues --   -0.95505  -0.87678  -0.85889  -0.84712  -0.82426
 Alpha  occ. eigenvalues --   -0.77324  -0.76150  -0.74216  -0.73665  -0.70332
 Alpha  occ. eigenvalues --   -0.69694  -0.68883  -0.67230  -0.64227  -0.63898
 Alpha  occ. eigenvalues --   -0.63334  -0.62114  -0.59651  -0.58571  -0.56895
 Alpha  occ. eigenvalues --   -0.55225  -0.54349  -0.53123  -0.50513  -0.49474
 Alpha  occ. eigenvalues --   -0.46551  -0.35138
 Alpha virt. eigenvalues --   -0.26998  -0.17330  -0.11473  -0.11149  -0.10302
 Alpha virt. eigenvalues --   -0.09812  -0.08410  -0.07969  -0.07657  -0.07364
 Alpha virt. eigenvalues --   -0.07069  -0.06235  -0.05954  -0.05809  -0.05334
 Alpha virt. eigenvalues --   -0.05236  -0.04470  -0.03946  -0.03902  -0.03140
 Alpha virt. eigenvalues --   -0.02146  -0.02024  -0.01190  -0.00835  -0.00140
 Alpha virt. eigenvalues --    0.00114   0.00692   0.01237   0.01393   0.01654
 Alpha virt. eigenvalues --    0.01767   0.02283   0.02747   0.02913   0.02939
 Alpha virt. eigenvalues --    0.03605   0.03899   0.03916   0.04997   0.05305
 Alpha virt. eigenvalues --    0.05376   0.05571   0.05775   0.06053   0.06570
 Alpha virt. eigenvalues --    0.07170   0.07563   0.07567   0.07802   0.08402
 Alpha virt. eigenvalues --    0.08748   0.08764   0.09041   0.09528   0.09873
 Alpha virt. eigenvalues --    0.09881   0.10693   0.11041   0.11067   0.12080
 Alpha virt. eigenvalues --    0.12486   0.12627   0.13406   0.13556   0.14093
 Alpha virt. eigenvalues --    0.14757   0.15907   0.16815   0.17008   0.17358
 Alpha virt. eigenvalues --    0.17818   0.18282   0.19574   0.20577   0.21024
 Alpha virt. eigenvalues --    0.21491   0.22315   0.22714   0.23441   0.24263
 Alpha virt. eigenvalues --    0.24734   0.25321   0.26129   0.27354   0.28843
 Alpha virt. eigenvalues --    0.29722   0.30500   0.31309   0.32169   0.35132
 Alpha virt. eigenvalues --    0.36918   0.37740   0.38620   0.38775   0.39206
 Alpha virt. eigenvalues --    0.40454   0.41656   0.42366   0.42604   0.44337
 Alpha virt. eigenvalues --    0.44760   0.45349   0.45594   0.45686   0.48151
 Alpha virt. eigenvalues --    0.48212   0.48816   0.49076   0.50627   0.51197
 Alpha virt. eigenvalues --    0.51889   0.52420   0.52842   0.53361   0.54950
 Alpha virt. eigenvalues --    0.55389   0.55620   0.58797   0.59157   0.59370
 Alpha virt. eigenvalues --    0.59848   0.62224   0.62639   0.62917   0.63643
 Alpha virt. eigenvalues --    0.64614   0.65321   0.66588   0.67123   0.68019
 Alpha virt. eigenvalues --    0.70430   0.72693   0.73160   0.73655   0.74625
 Alpha virt. eigenvalues --    0.75449   0.75888   0.76751   0.77114   0.77877
 Alpha virt. eigenvalues --    0.78603   0.80319   0.81729   0.82220   0.82579
 Alpha virt. eigenvalues --    0.82734   0.83878   0.84427   0.85371   0.86970
 Alpha virt. eigenvalues --    0.87831   0.89362   0.90228   0.90388   0.94456
 Alpha virt. eigenvalues --    0.95000   0.95554   0.97791   1.00050   1.00485
 Alpha virt. eigenvalues --    1.03294   1.03793   1.04559   1.05668   1.07319
 Alpha virt. eigenvalues --    1.07720   1.08025   1.10425   1.12040   1.14469
 Alpha virt. eigenvalues --    1.16257   1.16698   1.17067   1.18288   1.25607
 Alpha virt. eigenvalues --    1.25978   1.31302   1.32640   1.34201   1.35164
 Alpha virt. eigenvalues --    1.36649   1.37768   1.39900   1.40226   1.42018
 Alpha virt. eigenvalues --    1.44557   1.46949   1.47321   1.48573   1.50390
 Alpha virt. eigenvalues --    1.51008   1.52924   1.54139   1.55815   1.56182
 Alpha virt. eigenvalues --    1.56977   1.57465   1.60194   1.60710   1.61793
 Alpha virt. eigenvalues --    1.63748   1.63858   1.63994   1.67385   1.69059
 Alpha virt. eigenvalues --    1.69741   1.70507   1.72063   1.73763   1.74863
 Alpha virt. eigenvalues --    1.75799   1.77061   1.77356   1.79604   1.79941
 Alpha virt. eigenvalues --    1.83158   1.83808   1.85338   1.85439   1.86956
 Alpha virt. eigenvalues --    1.89056   1.89316   1.90347   1.94027   1.95726
 Alpha virt. eigenvalues --    1.97411   1.97891   2.00382   2.00790   2.02722
 Alpha virt. eigenvalues --    2.04611   2.07947   2.12263   2.12648   2.15888
 Alpha virt. eigenvalues --    2.16326   2.17406   2.19408   2.20789   2.23427
 Alpha virt. eigenvalues --    2.24696   2.26229   2.30036   2.33401   2.33990
 Alpha virt. eigenvalues --    2.34793   2.37315   2.40038   2.41862   2.41975
 Alpha virt. eigenvalues --    2.43122   2.45437   2.49674   2.53259   2.55910
 Alpha virt. eigenvalues --    2.57982   2.58244   2.59756   2.60236   2.61180
 Alpha virt. eigenvalues --    2.62495   2.64315   2.65078   2.65228   2.65608
 Alpha virt. eigenvalues --    2.66007   2.66317   2.67846   2.69234   2.70375
 Alpha virt. eigenvalues --    2.70755   2.73383   2.73637   2.74108   2.77452
 Alpha virt. eigenvalues --    2.78256   2.78771   2.80441   2.82480   2.85175
 Alpha virt. eigenvalues --    2.90341   2.91016   2.91243   2.92903   2.97999
 Alpha virt. eigenvalues --    2.98829   3.01010   3.02424   3.05606   3.10439
 Alpha virt. eigenvalues --    3.11468   3.12549   3.17639   3.26229   3.29893
 Alpha virt. eigenvalues --    3.32089   3.37052   3.37983   3.41764   3.52289
 Alpha virt. eigenvalues --    3.54228   3.62486   3.63544   3.65394   3.71777
 Alpha virt. eigenvalues --    3.72216   3.74390   3.77036   3.82834   3.89750
 Alpha virt. eigenvalues --    3.92768   4.00916   4.01756   4.18070   4.19875
 Alpha virt. eigenvalues --    4.22419   4.39084   4.46206  23.38723  23.48027
 Alpha virt. eigenvalues --   23.53855  23.56875  23.64410  23.81920  23.94191
 Alpha virt. eigenvalues --   23.95233  24.33388  24.45110  24.76343  24.80183
 Alpha virt. eigenvalues --   25.59761  25.62051
          Condensed to atoms (all electrons):
               1          2          3          4          5          6
     1  C    7.126904   1.217926  -0.416448  -0.338703  -0.125296  -0.024822
     2  C    1.217926   9.391446   0.862310  -1.294707  -0.198307  -0.011569
     3  C   -0.416448   0.862310   6.850778   0.810744  -0.028925   0.005290
     4  C   -0.338703  -1.294707   0.810744  10.170897   0.120936  -0.107406
     5  C   -0.125296  -0.198307  -0.028925   0.120936   8.038450   1.267775
     6  C   -0.024822  -0.011569   0.005290  -0.107406   1.267775   6.993082
     7  C   -0.225867  -0.047115  -0.004722   0.180783  -1.435419  -1.642458
     8  C    0.093173  -0.029061  -0.144236  -0.178640   2.107111   1.126533
     9  C   -0.801210  -2.008268  -0.198505   1.130721  -0.841836   0.106229
    10  C   -0.165430  -0.336969   0.258170  -1.261931  -0.652979  -0.593845
    11  C    1.386259  -0.509226  -0.154585   0.334831  -1.613159   0.147873
    12  C   -0.676499   0.605961  -1.615167  -2.186633   0.557222  -0.438768
    13  C   -0.465661  -0.710844  -0.457776  -0.169491  -0.775585   0.133101
    14  C   -1.007169  -0.662889   0.258027  -1.481306  -0.504908  -1.100906
    15  H    0.397413  -0.069715   0.000450  -0.011011   0.003090   0.003153
    16  H   -0.016005   0.369687  -0.034570   0.020431  -0.002146  -0.000366
    17  H    0.005530  -0.033372   0.386625  -0.032401  -0.000450   0.000268
    18  H    0.007833   0.013272  -0.025789   0.520218   0.008566  -0.002386
    19  H    0.009210  -0.000404   0.027237  -0.144945  -0.052138   0.028525
    20  H   -0.000992  -0.000173  -0.004343   0.007481   0.394337  -0.039715
    21  H   -0.001042  -0.000258   0.000041  -0.001013  -0.032199   0.355477
    22  H   -0.000788  -0.000295  -0.000055   0.001103  -0.007793  -0.014645
    23  H    0.022463   0.005910   0.000704  -0.010666   0.021542   0.056882
    24  H    0.044419   0.013590  -0.001582   0.002310  -0.028882  -0.007137
    25  H    0.044419   0.013590  -0.001582   0.002310  -0.028882  -0.007137
               7          8          9         10         11         12
     1  C   -0.225867   0.093173  -0.801210  -0.165430   1.386259  -0.676499
     2  C   -0.047115  -0.029061  -2.008268  -0.336969  -0.509226   0.605961
     3  C   -0.004722  -0.144236  -0.198505   0.258170  -0.154585  -1.615167
     4  C    0.180783  -0.178640   1.130721  -1.261931   0.334831  -2.186633
     5  C   -1.435419   2.107111  -0.841836  -0.652979  -1.613159   0.557222
     6  C   -1.642458   1.126533   0.106229  -0.593845   0.147873  -0.438768
     7  C   11.748716  -4.783072  -1.124473   0.722827  -0.892421   0.498571
     8  C   -4.783072  13.527487  -0.887618  -0.613955   0.068832  -0.486525
     9  C   -1.124473  -0.887618  10.938666  -0.119004   1.387892  -2.595308
    10  C    0.722827  -0.613955  -0.119004   7.664841  -0.458408   1.219928
    11  C   -0.892421   0.068832   1.387892  -0.458408  15.350833  -4.706623
    12  C    0.498571  -0.486525  -2.595308   1.219928  -4.706623  17.372790
    13  C    0.610679  -1.749671   0.217039  -0.857025  -1.623311  -0.604161
    14  C    2.812553  -2.726245   0.230316   0.929516  -2.119620  -1.152594
    15  H   -0.005194   0.000837   0.034778   0.013966  -0.061623   0.058555
    16  H    0.000171   0.003868  -0.012150  -0.025179   0.052158  -0.008574
    17  H   -0.000013  -0.002374   0.005530   0.008277   0.018776  -0.018334
    18  H    0.002123   0.005291  -0.002097  -0.017795   0.023424  -0.093167
    19  H   -0.005840  -0.041886   0.039368   0.407436   0.097778  -0.217641
    20  H   -0.043144   0.096665  -0.017774   0.025405  -0.014516   0.018488
    21  H    0.036268  -0.059071  -0.004976  -0.000135  -0.000672  -0.004738
    22  H    0.361404  -0.009813  -0.010218   0.004522  -0.008896   0.005421
    23  H   -0.234281   0.388294   0.184483  -0.022806   0.078964  -0.020451
    24  H    0.014636  -0.043688   0.387254   0.007747   0.068769  -0.033678
    25  H    0.014636  -0.043688   0.387254   0.007747   0.068769  -0.033678
              13         14         15         16         17         18
     1  C   -0.465661  -1.007169   0.397413  -0.016005   0.005530   0.007833
     2  C   -0.710844  -0.662889  -0.069715   0.369687  -0.033372   0.013272
     3  C   -0.457776   0.258027   0.000450  -0.034570   0.386625  -0.025789
     4  C   -0.169491  -1.481306  -0.011011   0.020431  -0.032401   0.520218
     5  C   -0.775585  -0.504908   0.003090  -0.002146  -0.000450   0.008566
     6  C    0.133101  -1.100906   0.003153  -0.000366   0.000268  -0.002386
     7  C    0.610679   2.812553  -0.005194   0.000171  -0.000013   0.002123
     8  C   -1.749671  -2.726245   0.000837   0.003868  -0.002374   0.005291
     9  C    0.217039   0.230316   0.034778  -0.012150   0.005530  -0.002097
    10  C   -0.857025   0.929516   0.013966  -0.025179   0.008277  -0.017795
    11  C   -1.623311  -2.119620  -0.061623   0.052158   0.018776   0.023424
    12  C   -0.604161  -1.152594   0.058555  -0.008574  -0.018334  -0.093167
    13  C   11.379041   0.846280  -0.041149   0.007788  -0.010240   0.008653
    14  C    0.846280  11.221000   0.010434  -0.021924   0.006901  -0.092616
    15  H   -0.041149   0.010434   0.428461  -0.001570   0.001201  -0.000443
    16  H    0.007788  -0.021924  -0.001570   0.395862  -0.005022   0.002923
    17  H   -0.010240   0.006901   0.001201  -0.005022   0.424222  -0.013721
    18  H    0.008653  -0.092616  -0.000443   0.002923  -0.013721   0.437301
    19  H    0.046294   0.156522   0.001236  -0.000479   0.002622  -0.005288
    20  H    0.050132  -0.134844  -0.000328   0.000040  -0.000209   0.001027
    21  H    0.022589   0.031305   0.000054  -0.000004   0.000003  -0.000049
    22  H    0.014300   0.012786  -0.000167   0.000005  -0.000001   0.000015
    23  H   -0.116354  -0.087085   0.001302  -0.000190  -0.000032  -0.000159
    24  H   -0.076447  -0.017779  -0.000788   0.000597  -0.000062   0.000118
    25  H   -0.076447  -0.017779  -0.000788   0.000597  -0.000062   0.000118
              19         20         21         22         23         24
     1  C    0.009210  -0.000992  -0.001042  -0.000788   0.022463   0.044419
     2  C   -0.000404  -0.000173  -0.000258  -0.000295   0.005910   0.013590
     3  C    0.027237  -0.004343   0.000041  -0.000055   0.000704  -0.001582
     4  C   -0.144945   0.007481  -0.001013   0.001103  -0.010666   0.002310
     5  C   -0.052138   0.394337  -0.032199  -0.007793   0.021542  -0.028882
     6  C    0.028525  -0.039715   0.355477  -0.014645   0.056882  -0.007137
     7  C   -0.005840  -0.043144   0.036268   0.361404  -0.234281   0.014636
     8  C   -0.041886   0.096665  -0.059071  -0.009813   0.388294  -0.043688
     9  C    0.039368  -0.017774  -0.004976  -0.010218   0.184483   0.387254
    10  C    0.407436   0.025405  -0.000135   0.004522  -0.022806   0.007747
    11  C    0.097778  -0.014516  -0.000672  -0.008896   0.078964   0.068769
    12  C   -0.217641   0.018488  -0.004738   0.005421  -0.020451  -0.033678
    13  C    0.046294   0.050132   0.022589   0.014300  -0.116354  -0.076447
    14  C    0.156522  -0.134844   0.031305   0.012786  -0.087085  -0.017779
    15  H    0.001236  -0.000328   0.000054  -0.000167   0.001302  -0.000788
    16  H   -0.000479   0.000040  -0.000004   0.000005  -0.000190   0.000597
    17  H    0.002622  -0.000209   0.000003  -0.000001  -0.000032  -0.000062
    18  H   -0.005288   0.001027  -0.000049   0.000015  -0.000159   0.000118
    19  H    0.487961  -0.010222   0.000172  -0.000199   0.000358   0.000626
    20  H   -0.010222   0.449003  -0.002165   0.001413  -0.001592   0.000465
    21  H    0.000172  -0.002165   0.423545  -0.001733   0.000246   0.000026
    22  H   -0.000199   0.001413  -0.001733   0.412988  -0.004959   0.000540
    23  H    0.000358  -0.001592   0.000246  -0.004959   0.499946  -0.000540
    24  H    0.000626   0.000465   0.000026   0.000540  -0.000540   0.462419
    25  H    0.000626   0.000465   0.000026   0.000540  -0.000540  -0.064927
              25
     1  C    0.044419
     2  C    0.013590
     3  C   -0.001582
     4  C    0.002310
     5  C   -0.028882
     6  C   -0.007137
     7  C    0.014636
     8  C   -0.043688
     9  C    0.387254
    10  C    0.007747
    11  C    0.068769
    12  C   -0.033678
    13  C   -0.076447
    14  C   -0.017779
    15  H   -0.000788
    16  H    0.000597
    17  H   -0.000062
    18  H    0.000118
    19  H    0.000626
    20  H    0.000465
    21  H    0.000026
    22  H    0.000540
    23  H   -0.000540
    24  H   -0.064927
    25  H    0.462419
 Mulliken charges:
               1
     1  C   -0.089615
     2  C   -0.580522
     3  C   -0.372092
     4  C   -0.083910
     5  C   -0.190125
     6  C   -0.233027
     7  C   -0.559348
     8  C    0.381452
     9  C   -0.426094
    10  C   -0.144922
    11  C   -0.922100
    12  C    0.555604
    13  C    0.398267
    14  C    0.612022
    15  H    0.237844
    16  H    0.274053
    17  H    0.256336
    18  H    0.222627
    19  H    0.173071
    20  H    0.225097
    21  H    0.238303
    22  H    0.244526
    23  H    0.238560
    24  H    0.271995
    25  H    0.271995
 Sum of Mulliken charges =   1.00000
 Mulliken charges with hydrogens summed into heavy atoms:
               1
     1  C    0.148229
     2  C   -0.306468
     3  C   -0.115756
     4  C    0.138717
     5  C    0.034972
     6  C    0.005276
     7  C   -0.314822
     8  C    0.620013
     9  C    0.117896
    10  C    0.028150
    11  C   -0.922100
    12  C    0.555604
    13  C    0.398267
    14  C    0.612022
 Electronic spatial extent (au):  <R**2>=           2871.0371
 Charge=              1.0000 electrons
 Dipole moment (field-independent basis, Debye):
    X=             -2.5222    Y=             -3.0676    Z=              0.0000  Tot=              3.9714
 Quadrupole moment (field-independent basis, Debye-Ang):
   XX=            -54.6858   YY=            -28.4355   ZZ=            -82.9242
   XY=              8.3426   XZ=             -0.0000   YZ=              0.0000
 Traceless Quadrupole moment (field-independent basis, Debye-Ang):
   XX=              0.6627   YY=             26.9130   ZZ=            -27.5757
   XY=              8.3426   XZ=             -0.0000   YZ=              0.0000
 Octapole moment (field-independent basis, Debye-Ang**2):
  XXX=            -12.4626  YYY=            -13.9655  ZZZ=              0.0000  XYY=             -9.3709
  XXY=            -18.5919  XXZ=              0.0000  XZZ=             -6.1518  YZZ=             -7.2745
  YYZ=              0.0000  XYZ=             -0.0000
 Hexadecapole moment (field-independent basis, Debye-Ang**3):
 XXXX=           -766.7521 YYYY=          -1985.6329 ZZZZ=            -97.0679 XXXY=           -245.1950
 XXXZ=             -0.0000 YYYX=           -179.6298 YYYZ=              0.0000 ZZZX=             -0.0000
 ZZZY=             -0.0000 XXYY=           -478.9613 XXZZ=           -186.3433 YYZZ=           -543.5469
 XXYZ=              0.0000 YYXZ=             -0.0000 ZZXY=           -127.5022
 N-N= 7.871120384677D+02 E-N=-2.812167747821D+03  KE= 5.406971907348D+02
 Symmetry A'   KE= 5.253050642356D+02
 Symmetry A"   KE= 1.539212649915D+01
 Unable to Open any file for archive entry.
 1\1\GINC-GADI-CPU-CLX-2808\SP\RM062X TD-FC\6-311++G(d,p)\C14H11(1+)\TS
 1578\02-Aug-2022\0\\#n M062X/6-311++G(d,p) TD(NStates=1) EmpiricalDisp
 ersion=GD3 SP\\SP_14\\1,1\C,0,0.,2.190655,1.372431\C,0,0.,3.413508,0.6
 61989\C,0,0.,3.587861,-0.83583\C,0,0.,2.815156,-1.507538\C,0,0.,-2.255
 156,-1.283538\C,0,0.,-3.839861,-0.38783\C,0,0.,-3.917508,0.885989\C,0,
 0.,-2.638655,1.372431\C,0,0.,-0.112,1.363369\C,0,0.,0.406,-1.519189\C,
 0,0.,1.370055,0.753065\C,0,0.,1.375471,-0.822804\C,0,0.,-1.118055,0.44
 5065\C,0,0.,-1.123471,-0.794804\H,0,0.,2.244071,2.455647\H,0,0.,4.3187
 53,1.269689\H,0,0.,4.655262,-1.144349\H,0,0.,2.75555,-2.590059\H,0,0.,
 0.35,-2.606266\H,0,0.,-2.50355,-2.366059\H,0,0.,-4.683262,-1.088349\H,
 0,0.,-4.822753,1.465689\H,0,0.,-2.384071,2.455647\H,0,-0.859585,-0.616
 ,2.055787\H,0,0.859585,-0.616,2.055787\\Version=ES64L-G16RevC.01\State
 =1-A'\HF=-538.9177536\RMSD=8.418e-09\PG=CS [SG(C14H9),X(H2)]\\@
 The archive entry for this job was punched.


 THOSE WITH THE GOLD MAKE THE RULES.

             -- PETER'S GOLDEN RULE
 Job cpu time:       0 days  0 hours 59 minutes  6.1 seconds.
 Elapsed time:       0 days  0 hours  1 minutes 14.9 seconds.
 File lengths (MBytes):  RWF=    460 Int=      0 D2E=      0 Chk=     15 Scr=      1
 Normal termination of Gaussian 16 at Tue Aug  2 13:36:17 2022.
