 Entering Gaussian System, Link 0=g16
 Initial command:
 /apps/gaussian/g16c01/g16/l1.exe "/jobfs/53803424.gadi-pbs/Gau-1808663.inp" -scrdir="/jobfs/53803424.gadi-pbs/"
 Entering Link 1 = /apps/gaussian/g16c01/g16/l1.exe PID=   1808664.
  
 Copyright (c) 1988-2019, Gaussian, Inc.  All Rights Reserved.
  
 This is part of the Gaussian(R) 16 program.  It is based on
 the Gaussian(R) 09 system (copyright 2009, Gaussian, Inc.),
 the Gaussian(R) 03 system (copyright 2003, Gaussian, Inc.),
 the Gaussian(R) 98 system (copyright 1998, Gaussian, Inc.),
 the Gaussian(R) 94 system (copyright 1995, Gaussian, Inc.),
 the Gaussian 92(TM) system (copyright 1992, Gaussian, Inc.),
 the Gaussian 90(TM) system (copyright 1990, Gaussian, Inc.),
 the Gaussian 88(TM) system (copyright 1988, Gaussian, Inc.),
 the Gaussian 86(TM) system (copyright 1986, Carnegie Mellon
 University), and the Gaussian 82(TM) system (copyright 1983,
 Carnegie Mellon University). Gaussian is a federally registered
 trademark of Gaussian, Inc.
  
 This software contains proprietary and confidential information,
 including trade secrets, belonging to Gaussian, Inc.
  
 This software is provided under written license and may be
 used, copied, transmitted, or stored only in accord with that
 written license.
  
 The following legend is applicable only to US Government
 contracts under FAR:
  
                    RESTRICTED RIGHTS LEGEND
  
 Use, reproduction and disclosure by the US Government is
 subject to restrictions as set forth in subparagraphs (a)
 and (c) of the Commercial Computer Software - Restricted
 Rights clause in FAR 52.227-19.
  
 Gaussian, Inc.
 340 Quinnipiac St., Bldg. 40, Wallingford CT 06492
  
  
 ---------------------------------------------------------------
 Warning -- This program may not be used in any manner that
 competes with the business of Gaussian, Inc. or will provide
 assistance to any competitor of Gaussian, Inc.  The licensee
 of this program is prohibited from giving any competitor of
 Gaussian, Inc. access to this program.  By using this program,
 the user acknowledges that Gaussian, Inc. is engaged in the
 business of creating and licensing software in the field of
 computational chemistry and represents and warrants to the
 licensee that it is not a competitor of Gaussian, Inc. and that
 it will not use this program in any manner prohibited above.
 ---------------------------------------------------------------
  

 Cite this work as:
 Gaussian 16, Revision C.01,
 M. J. Frisch, G. W. Trucks, H. B. Schlegel, G. E. Scuseria, 
 M. A. Robb, J. R. Cheeseman, G. Scalmani, V. Barone, 
 G. A. Petersson, H. Nakatsuji, X. Li, M. Caricato, A. V. Marenich, 
 J. Bloino, B. G. Janesko, R. Gomperts, B. Mennucci, H. P. Hratchian, 
 J. V. Ortiz, A. F. Izmaylov, J. L. Sonnenberg, D. Williams-Young, 
 F. Ding, F. Lipparini, F. Egidi, J. Goings, B. Peng, A. Petrone, 
 T. Henderson, D. Ranasinghe, V. G. Zakrzewski, J. Gao, N. Rega, 
 G. Zheng, W. Liang, M. Hada, M. Ehara, K. Toyota, R. Fukuda, 
 J. Hasegawa, M. Ishida, T. Nakajima, Y. Honda, O. Kitao, H. Nakai, 
 T. Vreven, K. Throssell, J. A. Montgomery, Jr., J. E. Peralta, 
 F. Ogliaro, M. J. Bearpark, J. J. Heyd, E. N. Brothers, K. N. Kudin, 
 V. N. Staroverov, T. A. Keith, R. Kobayashi, J. Normand, 
 K. Raghavachari, A. P. Rendell, J. C. Burant, S. S. Iyengar, 
 J. Tomasi, M. Cossi, J. M. Millam, M. Klene, C. Adamo, R. Cammi, 
 J. W. Ochterski, R. L. Martin, K. Morokuma, O. Farkas, 
 J. B. Foresman, and D. J. Fox, Gaussian, Inc., Wallingford CT, 2019.
 
 ******************************************
 Gaussian 16:  ES64L-G16RevC.01  3-Jul-2019
                 2-Aug-2022 
 ******************************************
 %NProcShared=48
 Will use up to   48 processors via shared memory.
 %mem = 190GB
 ---------------------------------------------------------------
 #n M062X/6-311++G(d,p) TD(NStates=1) EmpiricalDispersion=GD3 SP
 ---------------------------------------------------------------
 1/38=1,172=1/1;
 2/12=2,17=6,18=5,40=1/2;
 3/5=4,6=6,7=1111,11=9,25=1,30=1,74=-55,124=31/1,2,3,8;
 4//1;
 5/5=2,38=5/2;
 8/6=1,10=2,108=1/1;
 9/41=1,42=1,70=2/14;
 6/7=2,8=2,9=2,10=2/1;
 99/5=1,9=1/99;
 ------
 SP_-10
 ------
 Symbolic Z-matrix:
 Charge =  1 Multiplicity = 1
 C                     0.        2.60066   1.36843 
 C                     0.        3.85751   0.81999 
 C                     0.        3.79386  -0.48583 
 C                     0.        2.31116  -1.31954 
 C                     0.       -2.71116  -1.47954 
 C                     0.       -3.61386  -0.80583 
 C                     0.       -3.49751   0.65999 
 C                     0.       -2.28066   1.36843 
 C                     0.        0.08      1.39337 
 C                     0.       -0.29     -1.48919 
 C                     0.        1.16005   0.51507 
 C                     0.        1.15547  -0.7728 
 C                     0.       -1.34005   0.73507 
 C                     0.       -1.33547  -0.7928 
 H                     0.        2.42207   2.45165 
 H                     0.        4.77275   1.38569 
 H                     0.        4.65926  -1.14835 
 H                     0.        2.48555  -2.40206 
 H                     0.       -0.25     -2.57427 
 H                     0.       -2.66555  -2.56206 
 H                     0.       -4.63926  -1.18835 
 H                     0.       -4.41275   1.24569 
 H                     0.       -2.32207   2.45165 
 H                    -0.85959   0.44      2.08579 
 H                     0.85959   0.44      2.08579 
 
                          Input orientation:                          
 ---------------------------------------------------------------------
 Center     Atomic      Atomic             Coordinates (Angstroms)
 Number     Number       Type             X           Y           Z
 ---------------------------------------------------------------------
      1          6           0        0.000000    2.600655    1.368431
      2          6           0        0.000000    3.857508    0.819989
      3          6           0        0.000000    3.793861   -0.485830
      4          6           0        0.000000    2.311156   -1.319538
      5          6           0        0.000000   -2.711156   -1.479538
      6          6           0        0.000000   -3.613861   -0.805830
      7          6           0        0.000000   -3.497508    0.659989
      8          6           0        0.000000   -2.280655    1.368431
      9          6           0        0.000000    0.080000    1.393369
     10          6           0        0.000000   -0.290000   -1.489189
     11          6           0        0.000000    1.160055    0.515065
     12          6           0        0.000000    1.155471   -0.772804
     13          6           0        0.000000   -1.340055    0.735065
     14          6           0        0.000000   -1.335471   -0.792804
     15          1           0        0.000000    2.422071    2.451647
     16          1           0        0.000000    4.772753    1.385689
     17          1           0        0.000000    4.659262   -1.148349
     18          1           0        0.000000    2.485550   -2.402059
     19          1           0        0.000000   -0.250000   -2.574266
     20          1           0        0.000000   -2.665550   -2.562059
     21          1           0        0.000000   -4.639262   -1.188349
     22          1           0        0.000000   -4.412753    1.245689
     23          1           0        0.000000   -2.322071    2.451647
     24          1           0       -0.859585    0.440000    2.085787
     25          1           0        0.859585    0.440000    2.085787
 ---------------------------------------------------------------------
                    Distance matrix (angstroms):
                    1          2          3          4          5
     1  C    0.000000
     2  C    1.371302   0.000000
     3  C    2.205000   1.307369   0.000000
     4  C    2.703514   2.639845   1.701024   0.000000
     5  C    6.027127   6.959538   6.580479   5.024860   0.000000
     6  C    6.583891   7.646218   7.414630   5.947245   1.126392
     7  C    6.139176   7.356756   7.380851   6.136701   2.279457
     8  C    4.881310   6.162616   6.351223   5.320705   2.880323
     9  C    2.520778   3.820776   4.162229   3.512538   4.005515
    10  C    4.064711   4.747012   4.205312   2.606683   2.421175
    11  C    1.674384   2.714633   2.817574   2.165826   4.354850
    12  C    2.583301   3.136558   2.653951   1.278486   3.930684
    13  C    3.991284   5.198257   5.277090   4.189598   2.604685
    14  C    4.490437   5.437659   5.138509   3.684472   1.537567
    15  H    1.097838   2.173197   3.242002   3.772816   6.465619
    16  H    2.172167   1.075960   2.112064   3.657556   8.013640
    17  H    3.251468   2.125362   1.089885   2.354338   7.377855
    18  H    3.772247   3.501980   2.320261   1.096478   5.277954
    19  H    4.865295   5.328470   4.551305   2.851993   2.693644
    20  H    6.571276   7.347689   6.784889   5.129470   1.083481
    21  H    7.678120   8.730895   8.462334   6.951656   1.949970
    22  H    7.014482   8.281210   8.387292   7.196620   3.212833
    23  H    5.040495   6.391362   6.784791   5.973996   3.950393
    24  H    2.433499   3.744395   4.312828   3.979491   4.835309
    25  H    2.433499   3.744395   4.312828   3.979491   4.835309
                    6          7          8          9         10
     6  C    0.000000
     7  C    1.470430   0.000000
     8  C    2.550461   1.408056   0.000000
     9  C    4.298963   3.651905   2.360787   0.000000
    10  C    3.393381   3.860968   3.482628   2.906207   0.000000
    11  C    4.953286   4.659817   3.544957   1.392098   2.473801
    12  C    4.769446   4.868584   4.048685   2.418459   1.613256
    13  C    2.746735   2.158759   1.133967   1.565222   2.459659
    14  C    2.278427   2.604805   2.358879   2.604402   1.256169
    15  H    6.858836   6.184776   4.825867   2.570068   4.783881
    16  H    8.668221   8.302039   7.053429   4.692759   5.822061
    17  H    8.280210   8.354818   7.382183   5.237363   4.960984
    18  H    6.304821   6.721095   6.077278   4.493545   2.921816
    19  H    3.800385   4.583308   4.434909   3.981335   1.085814
    20  H    1.995904   3.327724   3.949291   4.814920   2.606585
    21  H    1.094426   2.172546   3.478527   5.379284   4.359654
    22  H    2.201581   1.086608   2.135628   4.495180   4.947388
    23  H    3.504266   2.142823   1.084007   2.624861   4.433904
    24  H    5.053130   4.275015   2.942015   1.161003   3.748632
    25  H    5.053130   4.275015   2.942015   1.161003   3.748632
                   11         12         13         14         15
    11  C    0.000000
    12  C    1.287877   0.000000
    13  C    2.509771   2.915702   0.000000
    14  C    2.817476   2.491022   1.527876   0.000000
    15  H    2.311500   3.464298   4.135244   4.964432   0.000000
    16  H    3.716123   4.212342   6.147335   6.485078   2.581080
    17  H    3.874454   3.523859   6.288009   6.005267   4.238513
    18  H    3.204146   2.103231   4.947403   4.146071   4.854121
    19  H    3.395912   2.284866   3.484235   2.086110   5.692079
    20  H    4.909577   4.219198   3.553585   2.213453   7.142908
    21  H    6.044311   5.809613   3.818938   3.327385   7.944306
    22  H    5.620498   5.922789   3.114837   3.691222   6.940400
    23  H    3.984414   4.742403   1.977627   3.391142   4.744142
    24  H    1.929905   3.069581   2.394145   3.489623   2.191197
    25  H    1.929905   3.069581   2.394145   3.489623   2.191197
                   16         17         18         19         20
    16  H    0.000000
    17  H    2.536578   0.000000
    18  H    4.424741   2.509345   0.000000
    19  H    6.396037   5.112151   2.740965   0.000000
    20  H    8.420990   7.459990   5.153584   2.415581   0.000000
    21  H    9.757648   9.298610   7.227450   4.602867   2.404708
    22  H    9.186573   9.382584   7.803374   5.649829   4.189471
    23  H    7.174454   7.854870   6.831668   5.436293   5.025458
    24  H    4.472334   5.385229   5.006388   4.788641   5.655599
    25  H    4.472334   5.385229   5.006388   4.788641   5.655599
                   21         22         23         24         25
    21  H    0.000000
    22  H    2.444555   0.000000
    23  H    4.314968   2.413563   0.000000
    24  H    6.103913   4.999386   2.915781   0.000000
    25  H    6.103913   4.999386   2.915781   1.719170   0.000000
 Stoichiometry    C14H11(1+)
 Framework group  CS[SG(C14H9),X(H2)]
 Deg. of freedom    46
 Full point group                 CS      NOp   2
 Largest Abelian subgroup         CS      NOp   2
 Largest concise Abelian subgroup CS      NOp   2
                         Standard orientation:                         
 ---------------------------------------------------------------------
 Center     Atomic      Atomic             Coordinates (Angstroms)
 Number     Number       Type             X           Y           Z
 ---------------------------------------------------------------------
      1          6           0        0.195351    2.929098    0.000000
      2          6           0       -0.815934    3.855258    0.000000
      3          6           0       -1.983576    3.267187    0.000000
      4          6           0       -2.143874    1.573733    0.000000
      5          6           0       -0.252060   -3.081400    0.000000
      6          6           0        0.730001   -3.633048    0.000000
      7          6           0        2.022488   -2.931878    0.000000
      8          6           0        2.176180   -1.532236    0.000000
      9          6           0        1.241022    0.635434    0.000000
     10          6           0       -1.243382   -0.872470    0.000000
     11          6           0        0.000000    1.266149    0.000000
     12          6           0       -1.175204    0.739344    0.000000
     13          6           0        1.215613   -0.929582    0.000000
     14          6           0       -0.182662   -1.545399    0.000000
     15          1           0        1.257839    3.205447    0.000000
     16          1           0       -0.670311    4.921318    0.000000
     17          1           0       -2.940272    3.789282    0.000000
     18          1           0       -3.204026    1.293837    0.000000
     19          1           0       -2.251334   -1.276235    0.000000
     20          1           0       -1.259950   -3.479003    0.000000
     21          1           0        0.796499   -4.725452    0.000000
     22          1           0        2.929202   -3.530702    0.000000
     23          1           0        3.183006   -1.130520    0.000000
     24          1           0        1.727778    1.245443    0.859585
     25          1           0        1.727778    1.245443   -0.859585
 ---------------------------------------------------------------------
 Rotational constants (GHZ):           2.1467458           0.4424127           0.3676119
 Standard basis: 6-311++G(d,p) (5D, 7F)
 There are   299 symmetry adapted cartesian basis functions of A'  symmetry.
 There are   100 symmetry adapted cartesian basis functions of A"  symmetry.
 There are   285 symmetry adapted basis functions of A'  symmetry.
 There are   100 symmetry adapted basis functions of A"  symmetry.
   385 basis functions,   603 primitive gaussians,   399 cartesian basis functions
    47 alpha electrons       47 beta electrons
       nuclear repulsion energy       784.3416109442 Hartrees.
 NAtoms=   25 NActive=   25 NUniq=   24 SFac= 1.09D+00 NAtFMM=   60 NAOKFM=F Big=F
 Integral buffers will be    131072 words long.
 Regular integral format.
 Two-electron integral symmetry is turned on.
 Nuclear repulsion after empirical dispersion term =      784.3406495089 Hartrees.
 One-electron integrals computed using PRISM.
 NBasis=   385 RedAO= T EigKep=  2.27D-06  NBF=   285   100
 NBsUse=   378 1.00D-06 EigRej=  9.98D-07 NBFU=   278   100
 ExpMin= 3.60D-02 ExpMax= 4.56D+03 ExpMxC= 6.82D+02 IAcc=3 IRadAn=         5 AccDes= 0.00D+00
 Harris functional with IExCor= 1009 and IRadAn=       5 diagonalized for initial guess.
 HarFok:  IExCor= 1009 AccDes= 0.00D+00 IRadAn=         5 IDoV= 1 UseB2=F ITyADJ=14
 ICtDFT=  3500011 ScaDFX=  1.000000  1.000000  1.000000  1.000000
 FoFCou: FMM=F IPFlag=           0 FMFlag=      100000 FMFlg1=           0
         NFxFlg=           0 DoJE=T BraDBF=F KetDBF=T FulRan=T
         wScrn=  0.000000 ICntrl=       500 IOpCl=  0 I1Cent=   200000004 NGrid=           0
         NMat0=    1 NMatS0=      1 NMatT0=    0 NMatD0=    1 NMtDS0=    0 NMtDT0=    0
 Petite list used in FoFCou.
 Initial guess orbital symmetries:
       Occupied  (A') (A') (A') (A') (A') (A') (A') (A') (A') (A')
                 (A') (A') (A') (A') (A') (A') (A') (A') (A') (A')
                 (A') (A') (A') (A') (A') (A') (A') (A') (A') (A')
                 (A') (A') (A") (A') (A') (A') (A") (A') (A') (A")
                 (A') (A') (A") (A") (A') (A") (A")
       Virtual   (A") (A") (A") (A") (A") (A') (A') (A') (A') (A')
                 (A') (A") (A') (A') (A") (A') (A') (A") (A') (A')
                 (A') (A") (A') (A') (A') (A") (A') (A") (A') (A")
                 (A') (A') (A') (A') (A") (A') (A') (A') (A") (A')
                 (A") (A') (A') (A") (A') (A') (A') (A') (A') (A')
                 (A") (A") (A') (A") (A') (A') (A') (A") (A") (A')
                 (A') (A') (A') (A') (A") (A') (A') (A') (A") (A')
                 (A') (A') (A') (A') (A') (A') (A') (A') (A') (A')
                 (A') (A') (A') (A') (A') (A') (A') (A') (A') (A')
                 (A') (A') (A') (A") (A') (A") (A') (A') (A") (A')
                 (A') (A") (A') (A") (A') (A') (A") (A') (A") (A")
                 (A') (A") (A") (A') (A') (A") (A') (A') (A") (A")
                 (A') (A') (A') (A') (A") (A') (A") (A') (A') (A')
                 (A') (A') (A') (A') (A') (A') (A') (A") (A') (A')
                 (A') (A') (A') (A') (A") (A') (A') (A') (A') (A")
                 (A') (A") (A') (A") (A') (A') (A') (A") (A") (A')
                 (A') (A") (A") (A") (A') (A") (A') (A') (A') (A")
                 (A') (A') (A') (A') (A') (A') (A") (A') (A") (A')
                 (A') (A") (A') (A") (A') (A") (A") (A') (A') (A")
                 (A') (A') (A") (A') (A') (A") (A') (A') (A') (A")
                 (A") (A") (A') (A") (A") (A') (A') (A') (A") (A')
                 (A') (A') (A') (A") (A') (A") (A') (A') (A") (A')
                 (A") (A') (A') (A") (A') (A') (A") (A') (A') (A")
                 (A') (A") (A') (A') (A") (A') (A") (A') (A") (A')
                 (A') (A') (A') (A') (A") (A') (A') (A') (A") (A')
                 (A') (A') (A") (A") (A') (A') (A") (A') (A") (A')
                 (A') (A") (A') (A') (A') (A') (A") (A") (A') (A')
                 (A') (A") (A') (A") (A') (A') (A') (A") (A') (A")
                 (A') (A') (A") (A') (A") (A") (A') (A') (A') (A')
                 (A') (A') (A') (A') (A') (A') (A') (A') (A') (A")
                 (A') (A') (A') (A') (A') (A') (A') (A') (A') (A')
                 (A') (A') (A') (A') (A') (A') (A') (A') (A') (A')
                 (A') (A') (A') (A') (A') (A') (A') (A') (A') (A')
                 (A')
 The electronic state of the initial guess is 1-A'.
 Requested convergence on RMS density matrix=1.00D-08 within 128 cycles.
 Requested convergence on MAX density matrix=1.00D-06.
 Requested convergence on             energy=1.00D-06.
 No special actions if energy rises.
 SCF Done:  E(RM062X) =  -539.366517908     A.U. after   16 cycles
            NFock= 16  Conv=0.10D-07     -V/T= 2.0005
 DoSCS=F DFT=T ScalE2(SS,OS)=  1.000000  1.000000
 ExpMin= 3.60D-02 ExpMax= 4.56D+03 ExpMxC= 6.82D+02 IAcc=3 IRadAn=         5 AccDes= 0.00D+00
 HarFok:  IExCor=  205 AccDes= 0.00D+00 IRadAn=         5 IDoV=-2 UseB2=F ITyADJ=14
 ICtDFT= 12500011 ScaDFX=  1.000000  1.000000  1.000000  1.000000
 Range of M.O.s used for correlation:    15   378
 NBasis=   385 NAE=    47 NBE=    47 NFC=    14 NFV=     0
 NROrb=    364 NOA=    33 NOB=    33 NVA=   331 NVB=   331

 **** Warning!!: The largest alpha MO coefficient is  0.15070215D+03


 **** Warning!!: The smallest alpha delta epsilon is  0.98862052D-01

 Orbital symmetries:
       Occupied  (A') (A') (A') (A') (A') (A') (A') (A') (A') (A')
                 (A') (A') (A') (A') (A') (A') (A') (A') (A') (A')
                 (A') (A') (A') (A') (A') (A') (A') (A') (A') (A')
                 (A') (A") (A') (A') (A') (A") (A') (A') (A") (A')
                 (A') (A") (A') (A") (A') (A") (A")
       Virtual   (A") (A") (A") (A') (A") (A') (A') (A') (A') (A")
                 (A') (A") (A') (A") (A') (A') (A") (A') (A') (A')
                 (A") (A") (A') (A') (A') (A') (A') (A") (A') (A')
                 (A") (A") (A') (A') (A') (A") (A') (A') (A") (A')
                 (A") (A') (A') (A') (A') (A") (A") (A") (A') (A')
                 (A') (A') (A') (A") (A') (A') (A") (A') (A') (A')
                 (A') (A') (A") (A') (A') (A') (A") (A') (A') (A')
                 (A') (A') (A') (A') (A') (A') (A') (A') (A') (A')
                 (A') (A') (A') (A') (A') (A') (A') (A') (A') (A')
                 (A') (A") (A') (A") (A') (A') (A') (A") (A') (A")
                 (A') (A') (A") (A') (A') (A") (A") (A') (A") (A')
                 (A') (A") (A') (A") (A') (A") (A') (A") (A") (A')
                 (A') (A') (A") (A") (A') (A') (A') (A') (A') (A')
                 (A') (A') (A') (A') (A') (A') (A') (A') (A') (A')
                 (A') (A') (A') (A") (A') (A') (A') (A") (A') (A')
                 (A') (A') (A") (A') (A") (A') (A") (A') (A") (A')
                 (A") (A') (A") (A') (A") (A") (A") (A') (A') (A")
                 (A') (A') (A') (A') (A') (A') (A") (A') (A") (A')
                 (A') (A") (A') (A") (A") (A') (A') (A") (A") (A')
                 (A') (A") (A') (A") (A') (A') (A') (A') (A") (A')
                 (A") (A") (A') (A") (A') (A") (A') (A') (A") (A')
                 (A') (A') (A') (A") (A') (A") (A') (A') (A") (A')
                 (A') (A") (A') (A") (A') (A') (A") (A') (A') (A")
                 (A') (A") (A') (A') (A') (A") (A") (A') (A") (A')
                 (A') (A') (A') (A") (A') (A') (A') (A') (A') (A")
                 (A') (A') (A') (A') (A") (A') (A") (A') (A') (A')
                 (A") (A') (A') (A") (A') (A') (A') (A') (A') (A")
                 (A') (A') (A") (A") (A") (A') (A") (A') (A") (A')
                 (A") (A') (A") (A') (A") (A") (A') (A') (A') (A')
                 (A') (A') (A') (A') (A') (A') (A') (A') (A") (A')
                 (A') (A') (A') (A') (A') (A') (A') (A') (A') (A')
                 (A') (A') (A') (A') (A') (A') (A') (A') (A') (A')
                 (A') (A') (A') (A') (A') (A') (A') (A') (A') (A')
                 (A')
     4 initial guesses have been made.
 Convergence on wavefunction:    0.001000000000000
 Iteration     1 Dimension     4 NMult     0 NNew      4
 CISAX will form     4 AO SS matrices at one time.
 Iteration     2 Dimension     6 NMult     4 NNew      2
 Iteration     3 Dimension     8 NMult     6 NNew      2
 Iteration     4 Dimension    10 NMult     8 NNew      2
 Iteration     5 Dimension    12 NMult    10 NNew      2
 Iteration     6 Dimension    14 NMult    12 NNew      2
 ***********************************************************************
 Excited states from <AA,BB:AA,BB> singles matrix:
 ***********************************************************************
 
 Ground to excited state transition densities written to RWF  633
 Ground to excited state transition electric dipole moments (Au):
       state          X           Y           Z        Dip. S.      Osc.
         1        -0.3615      1.4216      0.0000      2.1516      0.0613
 Ground to excited state transition velocity dipole moments (Au):
       state          X           Y           Z        Dip. S.      Osc.
         1         0.0089     -0.0574     -0.0000      0.0034      0.0527
 Ground to excited state transition magnetic dipole moments (Au):
       state          X           Y           Z
         1        -0.0000      0.0000     -0.3508
 Ground to excited state transition velocity quadrupole moments (Au):
       state          XX          YY          ZZ          XY          XZ          YZ
         1         0.0248      0.0254     -0.0048     -0.0526     -0.0000     -0.0000
 <0|del|b> * <b|rxdel|0> + <0|del|b> * <b|delr+rdel|0>
 Rotatory Strengths (R) in cgs (10**-40 erg-esu-cm/Gauss)
       state          XX          YY          ZZ    R(velocity)    E-M Angle
         1        -0.0000      0.0000      0.0000      0.0000       90.00
 1/2[<0|r|b>*<b|rxdel|0> + (<0|rxdel|b>*<b|r|0>)*]
 Rotatory Strengths (R) in cgs (10**-40 erg-esu-cm/Gauss)
       state          XX          YY          ZZ     R(length)
         1        -0.0000     -0.0000      0.0000     -0.0000
  1/2[<0|del|b>*<b|r|0> + (<0|r|b>*<b|del|0>)*] (Au)
       state          X           Y           Z        Dip. S.   Osc.(frdel)
         1        -0.0032     -0.0816     -0.0000      0.0849      0.0566

 Excitation energies and oscillator strengths:
 
 Excited State   1:      Singlet-A'     1.1636 eV 1065.54 nm  f=0.0613  <S**2>=0.000
      47 -> 48         0.70619
 This state for optimization and/or second-order correction.
 Total Energy, E(TD-HF/TD-DFT) =  -539.323757005    
 Copying the excited state density for this state as the 1-particle RhoCI density.
 SavETr:  write IOETrn=   770 NScale= 10 NData=  16 NLR=1 NState=    1 LETran=      28.

 **********************************************************************

            Population analysis using the SCF Density.

 **********************************************************************

 Orbital symmetries:
       Occupied  (A') (A') (A') (A') (A') (A') (A') (A') (A') (A')
                 (A') (A') (A') (A') (A') (A') (A') (A') (A') (A')
                 (A') (A') (A') (A') (A') (A') (A') (A') (A') (A')
                 (A') (A") (A') (A') (A') (A") (A') (A') (A") (A')
                 (A') (A") (A') (A") (A') (A") (A")
       Virtual   (A") (A") (A") (A') (A") (A') (A') (A') (A') (A")
                 (A') (A") (A') (A") (A') (A') (A") (A') (A') (A')
                 (A") (A") (A') (A') (A') (A') (A') (A") (A') (A')
                 (A") (A") (A') (A') (A') (A") (A') (A') (A") (A')
                 (A") (A') (A') (A') (A') (A") (A") (A") (A') (A')
                 (A') (A') (A') (A") (A') (A') (A") (A') (A') (A')
                 (A') (A') (A") (A') (A') (A') (A") (A') (A') (A')
                 (A') (A') (A') (A') (A') (A') (A') (A') (A') (A')
                 (A') (A') (A') (A') (A') (A') (A') (A') (A') (A')
                 (A') (A") (A') (A") (A') (A') (A') (A") (A') (A")
                 (A') (A') (A") (A') (A') (A") (A") (A') (A") (A')
                 (A') (A") (A') (A") (A') (A") (A') (A") (A") (A')
                 (A') (A') (A") (A") (A') (A') (A') (A') (A') (A')
                 (A') (A') (A') (A') (A') (A') (A') (A') (A') (A')
                 (A') (A') (A') (A") (A') (A') (A') (A") (A') (A')
                 (A') (A') (A") (A') (A") (A') (A") (A') (A") (A')
                 (A") (A') (A") (A') (A") (A") (A") (A') (A') (A")
                 (A') (A') (A') (A') (A') (A') (A") (A') (A") (A')
                 (A') (A") (A') (A") (A") (A') (A') (A") (A") (A')
                 (A') (A") (A') (A") (A') (A') (A') (A') (A") (A')
                 (A") (A") (A') (A") (A') (A") (A') (A') (A") (A')
                 (A') (A') (A') (A") (A') (A") (A') (A') (A") (A')
                 (A') (A") (A') (A") (A') (A') (A") (A') (A') (A")
                 (A') (A") (A') (A') (A') (A") (A") (A') (A") (A')
                 (A') (A') (A') (A") (A') (A') (A') (A') (A') (A")
                 (A') (A') (A') (A') (A") (A') (A") (A') (A') (A')
                 (A") (A') (A') (A") (A') (A') (A') (A') (A') (A")
                 (A') (A') (A") (A") (A") (A') (A") (A') (A") (A')
                 (A") (A') (A") (A') (A") (A") (A') (A') (A') (A')
                 (A') (A') (A') (A') (A') (A') (A') (A') (A") (A')
                 (A') (A') (A') (A') (A') (A') (A') (A') (A') (A')
                 (A') (A') (A') (A') (A') (A') (A') (A') (A') (A')
                 (A') (A') (A') (A') (A') (A') (A') (A') (A') (A')
                 (A')
 The electronic state is 1-A'.
 Alpha  occ. eigenvalues --  -10.77963 -10.74526 -10.74130 -10.72981 -10.71469
 Alpha  occ. eigenvalues --  -10.71414 -10.70585 -10.70316 -10.69925 -10.69446
 Alpha  occ. eigenvalues --  -10.68804 -10.68560 -10.68359 -10.66597  -1.19918
 Alpha  occ. eigenvalues --   -1.13077  -1.11280  -1.06683  -1.02924  -1.01539
 Alpha  occ. eigenvalues --   -0.95660  -0.88379  -0.86323  -0.84680  -0.83580
 Alpha  occ. eigenvalues --   -0.77867  -0.76540  -0.74494  -0.72672  -0.69768
 Alpha  occ. eigenvalues --   -0.69128  -0.68354  -0.66711  -0.64931  -0.63835
 Alpha  occ. eigenvalues --   -0.63259  -0.63207  -0.60081  -0.57839  -0.56258
 Alpha  occ. eigenvalues --   -0.55409  -0.54479  -0.53203  -0.52496  -0.49103
 Alpha  occ. eigenvalues --   -0.47587  -0.36933
 Alpha virt. eigenvalues --   -0.27047  -0.15558  -0.12751  -0.11572  -0.10375
 Alpha virt. eigenvalues --   -0.10307  -0.09782  -0.07833  -0.07678  -0.07547
 Alpha virt. eigenvalues --   -0.07323  -0.06156  -0.05780  -0.05499  -0.05455
 Alpha virt. eigenvalues --   -0.04463  -0.04076  -0.03391  -0.03175  -0.01993
 Alpha virt. eigenvalues --   -0.01739  -0.00920  -0.00731  -0.00201   0.00426
 Alpha virt. eigenvalues --    0.00610   0.01320   0.01414   0.01491   0.01713
 Alpha virt. eigenvalues --    0.02161   0.02669   0.03123   0.03247   0.03719
 Alpha virt. eigenvalues --    0.03861   0.03861   0.04123   0.05208   0.05356
 Alpha virt. eigenvalues --    0.05754   0.05833   0.06000   0.06455   0.07408
 Alpha virt. eigenvalues --    0.07474   0.07746   0.08057   0.08211   0.08248
 Alpha virt. eigenvalues --    0.08627   0.09283   0.09666   0.09689   0.09948
 Alpha virt. eigenvalues --    0.10421   0.11285   0.11461   0.11722   0.12548
 Alpha virt. eigenvalues --    0.12942   0.13021   0.13546   0.14144   0.14402
 Alpha virt. eigenvalues --    0.14843   0.15926   0.17066   0.17212   0.17583
 Alpha virt. eigenvalues --    0.18219   0.19266   0.19997   0.20647   0.21126
 Alpha virt. eigenvalues --    0.21924   0.22166   0.22945   0.23735   0.24631
 Alpha virt. eigenvalues --    0.25070   0.25972   0.26471   0.28334   0.29400
 Alpha virt. eigenvalues --    0.30081   0.31177   0.31617   0.34609   0.36752
 Alpha virt. eigenvalues --    0.37964   0.37983   0.39146   0.39507   0.39750
 Alpha virt. eigenvalues --    0.41746   0.42659   0.43351   0.43938   0.44331
 Alpha virt. eigenvalues --    0.44944   0.45495   0.46514   0.46794   0.47523
 Alpha virt. eigenvalues --    0.48082   0.48965   0.50616   0.51397   0.51443
 Alpha virt. eigenvalues --    0.52087   0.52384   0.53597   0.53946   0.55106
 Alpha virt. eigenvalues --    0.55128   0.58162   0.58436   0.58968   0.59150
 Alpha virt. eigenvalues --    0.61513   0.61954   0.62437   0.63624   0.64115
 Alpha virt. eigenvalues --    0.64367   0.65991   0.67066   0.67489   0.68554
 Alpha virt. eigenvalues --    0.71760   0.73062   0.73627   0.74259   0.75064
 Alpha virt. eigenvalues --    0.75525   0.76825   0.77092   0.77956   0.79044
 Alpha virt. eigenvalues --    0.79717   0.80367   0.81105   0.81567   0.82050
 Alpha virt. eigenvalues --    0.82503   0.84313   0.84541   0.85432   0.86963
 Alpha virt. eigenvalues --    0.89115   0.89789   0.91167   0.92104   0.94313
 Alpha virt. eigenvalues --    0.94838   0.95251   0.97800   0.97954   0.99310
 Alpha virt. eigenvalues --    1.00259   1.02487   1.02557   1.04841   1.06007
 Alpha virt. eigenvalues --    1.06726   1.07818   1.08049   1.11303   1.15901
 Alpha virt. eigenvalues --    1.17395   1.19107   1.20310   1.27538   1.29810
 Alpha virt. eigenvalues --    1.31947   1.34170   1.34838   1.36938   1.37106
 Alpha virt. eigenvalues --    1.38551   1.39303   1.39897   1.40691   1.44990
 Alpha virt. eigenvalues --    1.45609   1.46189   1.46932   1.49603   1.50141
 Alpha virt. eigenvalues --    1.52385   1.53743   1.54396   1.56358   1.56717
 Alpha virt. eigenvalues --    1.56987   1.58414   1.59214   1.59955   1.62210
 Alpha virt. eigenvalues --    1.64213   1.65007   1.66328   1.68180   1.69396
 Alpha virt. eigenvalues --    1.71253   1.71805   1.74083   1.75658   1.76096
 Alpha virt. eigenvalues --    1.77688   1.78400   1.79194   1.80443   1.82755
 Alpha virt. eigenvalues --    1.83221   1.84004   1.84922   1.86523   1.87340
 Alpha virt. eigenvalues --    1.88401   1.88416   1.91393   1.93661   1.95251
 Alpha virt. eigenvalues --    1.96124   1.98574   2.00187   2.01721   2.01839
 Alpha virt. eigenvalues --    2.05464   2.10195   2.10828   2.13724   2.16303
 Alpha virt. eigenvalues --    2.17532   2.19277   2.19842   2.21807   2.24270
 Alpha virt. eigenvalues --    2.26581   2.30798   2.31543   2.31952   2.35657
 Alpha virt. eigenvalues --    2.37831   2.38971   2.41399   2.42274   2.43172
 Alpha virt. eigenvalues --    2.44697   2.48851   2.52962   2.55132   2.56777
 Alpha virt. eigenvalues --    2.57919   2.59083   2.59667   2.61314   2.62251
 Alpha virt. eigenvalues --    2.62612   2.63403   2.64121   2.65177   2.65778
 Alpha virt. eigenvalues --    2.66142   2.66704   2.68017   2.68690   2.70123
 Alpha virt. eigenvalues --    2.72121   2.73692   2.73992   2.74695   2.76343
 Alpha virt. eigenvalues --    2.77087   2.78486   2.82653   2.84935   2.87839
 Alpha virt. eigenvalues --    2.89241   2.91771   2.92934   2.95900   2.98962
 Alpha virt. eigenvalues --    3.01238   3.05192   3.05909   3.08595   3.09957
 Alpha virt. eigenvalues --    3.18447   3.21295   3.25666   3.29788   3.35115
 Alpha virt. eigenvalues --    3.35258   3.40770   3.51209   3.51604   3.56084
 Alpha virt. eigenvalues --    3.58127   3.62259   3.69561   3.72839   3.74428
 Alpha virt. eigenvalues --    3.80607   3.83736   3.87410   3.90205   3.97594
 Alpha virt. eigenvalues --    4.02740   4.06607   4.15533   4.27088   4.36100
 Alpha virt. eigenvalues --    4.50179   4.51625  23.41563  23.48511  23.54859
 Alpha virt. eigenvalues --   23.57436  23.58139  23.84212  23.92204  23.95717
 Alpha virt. eigenvalues --   24.18971  24.33657  24.45953  24.51280  25.10536
 Alpha virt. eigenvalues --   25.14638
          Condensed to atoms (all electrons):
               1          2          3          4          5          6
     1  C    9.591226   0.025055  -0.399340   1.845308   0.096169  -0.155575
     2  C    0.025055   6.322450   0.212520  -0.784098  -0.076081  -0.016906
     3  C   -0.399340   0.212520   6.331593   0.873510  -0.014809   0.016280
     4  C    1.845308  -0.784098   0.873510   8.244384   0.110424  -0.054953
     5  C    0.096169  -0.076081  -0.014809   0.110424   7.397252   0.404008
     6  C   -0.155575  -0.016906   0.016280  -0.054953   0.404008   6.907394
     7  C   -0.063020   0.034562  -0.034127  -0.153272  -0.341630   0.615727
     8  C   -0.032998   0.022995  -0.100412  -0.109151   0.635165  -0.505477
     9  C   -2.205801   0.161376  -0.201263  -1.040650  -0.651166   0.039893
    10  C   -0.423144   0.183270  -0.377186  -0.822768  -1.241472   0.254210
    11  C   -1.068662  -0.313871   0.260327  -1.227042   0.069364  -0.384308
    12  C   -0.712310   0.225575  -0.174583  -0.069267  -0.831206   0.386261
    13  C   -0.951136   0.242536  -0.184455  -1.725757  -0.217422   0.114405
    14  C    0.100416  -0.213049  -0.223816   0.731276   0.207344  -1.560665
    15  H    0.266822  -0.038072   0.004759   0.015175   0.002458  -0.000268
    16  H   -0.027744   0.375957   0.001333   0.004681  -0.000967  -0.000245
    17  H   -0.019971  -0.022211   0.374412  -0.043696   0.000606   0.000326
    18  H    0.058332   0.004070  -0.077004   0.406461   0.012663  -0.005288
    19  H   -0.063858   0.005277   0.030752  -0.063280  -0.043133   0.051351
    20  H    0.010933   0.000148  -0.002154   0.010728   0.436257  -0.080872
    21  H   -0.002632  -0.000172   0.000355  -0.000692  -0.048529   0.407325
    22  H    0.003500   0.000523  -0.000469  -0.001979   0.037312  -0.043697
    23  H   -0.001041  -0.002333   0.001818   0.005030  -0.001824  -0.001396
    24  H   -0.023817   0.012096  -0.005222  -0.022945  -0.001138  -0.000272
    25  H   -0.023817   0.012096  -0.005222  -0.022945  -0.001138  -0.000272
               7          8          9         10         11         12
     1  C   -0.063020  -0.032998  -2.205801  -0.423144  -1.068662  -0.712310
     2  C    0.034562   0.022995   0.161376   0.183270  -0.313871   0.225575
     3  C   -0.034127  -0.100412  -0.201263  -0.377186   0.260327  -0.174583
     4  C   -0.153272  -0.109151  -1.040650  -0.822768  -1.227042  -0.069267
     5  C   -0.341630   0.635165  -0.651166  -1.241472   0.069364  -0.831206
     6  C    0.615727  -0.505477   0.039893   0.254210  -0.384308   0.386261
     7  C    7.629756   0.838699  -0.537788  -0.367523  -0.267842  -0.581016
     8  C    0.838699   7.056968  -0.499554  -0.438237   0.152122  -1.092707
     9  C   -0.537788  -0.499554   7.912586   0.645442   0.449362   1.189404
    10  C   -0.367523  -0.438237   0.645442   7.319083  -0.324274   0.723071
    11  C   -0.267842   0.152122   0.449362  -0.324274   9.209796   0.577312
    12  C   -0.581016  -1.092707   1.189404   0.723071   0.577312   8.601406
    13  C   -0.603112   0.566903   1.521492   0.304502  -0.035286  -1.561216
    14  C   -0.072128  -0.886421  -1.165564   0.290238  -1.289316  -1.161666
    15  H   -0.002885  -0.001843   0.088188  -0.006086  -0.036675   0.009828
    16  H    0.000309   0.000074  -0.006373  -0.002487   0.000751  -0.008266
    17  H   -0.000488  -0.001187   0.001088   0.000932   0.033277   0.024005
    18  H    0.001039   0.000632  -0.030231   0.055864   0.001600  -0.107404
    19  H   -0.012286  -0.013549   0.069563   0.412499   0.015903   0.096080
    20  H    0.015928   0.020094  -0.024651   0.012195   0.015603  -0.061085
    21  H   -0.037464  -0.001449   0.002114   0.010965  -0.009860   0.006023
    22  H    0.366611  -0.010583   0.000794  -0.022828   0.008179  -0.020331
    23  H   -0.075094   0.382982   0.033198   0.010467  -0.036498   0.011864
    24  H    0.013931   0.038163   0.380283   0.008826  -0.046226  -0.019646
    25  H    0.013931   0.038163   0.380283   0.008826  -0.046226  -0.019646
              13         14         15         16         17         18
     1  C   -0.951136   0.100416   0.266822  -0.027744  -0.019971   0.058332
     2  C    0.242536  -0.213049  -0.038072   0.375957  -0.022211   0.004070
     3  C   -0.184455  -0.223816   0.004759   0.001333   0.374412  -0.077004
     4  C   -1.725757   0.731276   0.015175   0.004681  -0.043696   0.406461
     5  C   -0.217422   0.207344   0.002458  -0.000967   0.000606   0.012663
     6  C    0.114405  -1.560665  -0.000268  -0.000245   0.000326  -0.005288
     7  C   -0.603112  -0.072128  -0.002885   0.000309  -0.000488   0.001039
     8  C    0.566903  -0.886421  -0.001843   0.000074  -0.001187   0.000632
     9  C    1.521492  -1.165564   0.088188  -0.006373   0.001088  -0.030231
    10  C    0.304502   0.290238  -0.006086  -0.002487   0.000932   0.055864
    11  C   -0.035286  -1.289316  -0.036675   0.000751   0.033277   0.001600
    12  C   -1.561216  -1.161666   0.009828  -0.008266   0.024005  -0.107404
    13  C   12.559114  -3.284934  -0.009284  -0.000090  -0.002623  -0.022797
    14  C   -3.284934  14.276001   0.003432  -0.001633  -0.001878   0.037710
    15  H   -0.009284   0.003432   0.480842  -0.003733  -0.000192  -0.001340
    16  H   -0.000090  -0.001633  -0.003733   0.429480  -0.004418   0.001956
    17  H   -0.002623  -0.001878  -0.000192  -0.004418   0.433485  -0.006248
    18  H   -0.022797   0.037710  -0.001340   0.001956  -0.006248   0.465381
    19  H    0.093358  -0.216901  -0.000213  -0.000242   0.000414  -0.011433
    20  H   -0.021780   0.012939   0.000008   0.000006  -0.000064   0.001372
    21  H    0.011656   0.003559  -0.000032  -0.000004   0.000007  -0.000225
    22  H    0.043270  -0.028764  -0.000171   0.000007  -0.000007   0.000042
    23  H   -0.043607   0.057342   0.000800  -0.000114   0.000033  -0.000247
    24  H    0.038110  -0.036238  -0.000920   0.000573  -0.000060   0.000475
    25  H    0.038110  -0.036238  -0.000920   0.000573  -0.000060   0.000475
              19         20         21         22         23         24
     1  C   -0.063858   0.010933  -0.002632   0.003500  -0.001041  -0.023817
     2  C    0.005277   0.000148  -0.000172   0.000523  -0.002333   0.012096
     3  C    0.030752  -0.002154   0.000355  -0.000469   0.001818  -0.005222
     4  C   -0.063280   0.010728  -0.000692  -0.001979   0.005030  -0.022945
     5  C   -0.043133   0.436257  -0.048529   0.037312  -0.001824  -0.001138
     6  C    0.051351  -0.080872   0.407325  -0.043697  -0.001396  -0.000272
     7  C   -0.012286   0.015928  -0.037464   0.366611  -0.075094   0.013931
     8  C   -0.013549   0.020094  -0.001449  -0.010583   0.382982   0.038163
     9  C    0.069563  -0.024651   0.002114   0.000794   0.033198   0.380283
    10  C    0.412499   0.012195   0.010965  -0.022828   0.010467   0.008826
    11  C    0.015903   0.015603  -0.009860   0.008179  -0.036498  -0.046226
    12  C    0.096080  -0.061085   0.006023  -0.020331   0.011864  -0.019646
    13  C    0.093358  -0.021780   0.011656   0.043270  -0.043607   0.038110
    14  C   -0.216901   0.012939   0.003559  -0.028764   0.057342  -0.036238
    15  H   -0.000213   0.000008  -0.000032  -0.000171   0.000800  -0.000920
    16  H   -0.000242   0.000006  -0.000004   0.000007  -0.000114   0.000573
    17  H    0.000414  -0.000064   0.000007  -0.000007   0.000033  -0.000060
    18  H   -0.011433   0.001372  -0.000225   0.000042  -0.000247   0.000475
    19  H    0.463662  -0.003487   0.002789  -0.000609   0.000844   0.000663
    20  H   -0.003487   0.431843  -0.012605   0.002930   0.000053   0.000019
    21  H    0.002789  -0.012605   0.414738  -0.006163   0.001487  -0.000061
    22  H   -0.000609   0.002930  -0.006163   0.391721  -0.003818   0.000561
    23  H    0.000844   0.000053   0.001487  -0.003818   0.419372  -0.000803
    24  H    0.000663   0.000019  -0.000061   0.000561  -0.000803   0.469495
    25  H    0.000663   0.000019  -0.000061   0.000561  -0.000803  -0.068227
              25
     1  C   -0.023817
     2  C    0.012096
     3  C   -0.005222
     4  C   -0.022945
     5  C   -0.001138
     6  C   -0.000272
     7  C    0.013931
     8  C    0.038163
     9  C    0.380283
    10  C    0.008826
    11  C   -0.046226
    12  C   -0.019646
    13  C    0.038110
    14  C   -0.036238
    15  H   -0.000920
    16  H    0.000573
    17  H   -0.000060
    18  H    0.000475
    19  H    0.000663
    20  H    0.000019
    21  H   -0.000061
    22  H    0.000561
    23  H   -0.000803
    24  H   -0.068227
    25  H    0.469495
 Mulliken charges:
               1
     1  C    0.177105
     2  C   -0.373712
     3  C   -0.307599
     4  C   -0.104484
     5  C    0.061492
     6  C   -0.386986
     7  C   -0.380818
     8  C   -0.059390
     9  C   -0.512027
    10  C   -0.214383
    11  C    0.292491
    12  C    0.569521
    13  C   -0.869956
    14  C    0.458954
    15  H    0.230323
    16  H    0.240614
    17  H    0.234519
    18  H    0.214145
    19  H    0.185175
    20  H    0.235623
    21  H    0.258935
    22  H    0.283404
    23  H    0.242289
    24  H    0.262382
    25  H    0.262382
 Sum of Mulliken charges =   1.00000
 Mulliken charges with hydrogens summed into heavy atoms:
               1
     1  C    0.407428
     2  C   -0.133098
     3  C   -0.073080
     4  C    0.109661
     5  C    0.297114
     6  C   -0.128051
     7  C   -0.097413
     8  C    0.182899
     9  C    0.012737
    10  C   -0.029208
    11  C    0.292491
    12  C    0.569521
    13  C   -0.869956
    14  C    0.458954
 Electronic spatial extent (au):  <R**2>=           2861.5865
 Charge=              1.0000 electrons
 Dipole moment (field-independent basis, Debye):
    X=              2.8018    Y=             -4.4856    Z=             -0.0000  Tot=              5.2887
 Quadrupole moment (field-independent basis, Debye-Ang):
   XX=            -53.4592   YY=            -30.6157   ZZ=            -83.5192
   XY=             -9.5475   XZ=             -0.0000   YZ=             -0.0000
 Traceless Quadrupole moment (field-independent basis, Debye-Ang):
   XX=              2.4055   YY=             25.2490   ZZ=            -27.6545
   XY=             -9.5475   XZ=             -0.0000   YZ=             -0.0000
 Octapole moment (field-independent basis, Debye-Ang**2):
  XXX=             17.5594  YYY=            -34.7226  ZZZ=             -0.0000  XYY=             14.5364
  XXY=            -22.5100  XXZ=             -0.0000  XZZ=              6.6554  YZZ=             -6.9954
  YYZ=             -0.0000  XYZ=             -0.0000
 Hexadecapole moment (field-independent basis, Debye-Ang**3):
 XXXX=           -834.7679 YYYY=          -1943.5331 ZZZZ=            -98.2622 XXXY=            282.5400
 XXXZ=             -0.0000 YYYX=            205.0308 YYYZ=              0.0000 ZZZX=             -0.0000
 ZZZY=             -0.0000 XXYY=           -463.5477 XXZZ=           -203.4201 YYZZ=           -528.4750
 XXYZ=             -0.0000 YYXZ=             -0.0000 ZZXY=            148.2720
 N-N= 7.843406495089D+02 E-N=-2.805903959336D+03  KE= 5.390919829088D+02
 Symmetry A'   KE= 5.240704080650D+02
 Symmetry A"   KE= 1.502157484380D+01
 Unable to Open any file for archive entry.
 1\1\GINC-GADI-CPU-CLX-2808\SP\RM062X TD-FC\6-311++G(d,p)\C14H11(1+)\TS
 1578\02-Aug-2022\0\\#n M062X/6-311++G(d,p) TD(NStates=1) EmpiricalDisp
 ersion=GD3 SP\\SP_-10\\1,1\C,0,0.,2.600655,1.368431\C,0,0.,3.857508,0.
 819989\C,0,0.,3.793861,-0.48583\C,0,0.,2.311156,-1.319538\C,0,0.,-2.71
 1156,-1.479538\C,0,0.,-3.613861,-0.80583\C,0,0.,-3.497508,0.659989\C,0
 ,0.,-2.280655,1.368431\C,0,0.,0.08,1.393369\C,0,0.,-0.29,-1.489189\C,0
 ,0.,1.160055,0.515065\C,0,0.,1.155471,-0.772804\C,0,0.,-1.340055,0.735
 065\C,0,0.,-1.335471,-0.792804\H,0,0.,2.422071,2.451647\H,0,0.,4.77275
 3,1.385689\H,0,0.,4.659262,-1.148349\H,0,0.,2.48555,-2.402059\H,0,0.,-
 0.25,-2.574266\H,0,0.,-2.66555,-2.562059\H,0,0.,-4.639262,-1.188349\H,
 0,0.,-4.412753,1.245689\H,0,0.,-2.322071,2.451647\H,0,-0.859585,0.44,2
 .085787\H,0,0.859585,0.44,2.085787\\Version=ES64L-G16RevC.01\State=1-A
 '\HF=-539.3665179\RMSD=9.961e-09\PG=CS [SG(C14H9),X(H2)]\\@
 The archive entry for this job was punched.


 EVERYTHING'S GOT A MORAL, IF ONLY YOU CAN FIND IT.

                                    -- LEWIS CARROL, ALICE IN WONDERLAND
 Job cpu time:       0 days  0 hours 53 minutes 25.6 seconds.
 Elapsed time:       0 days  0 hours  1 minutes  6.9 seconds.
 File lengths (MBytes):  RWF=    459 Int=      0 D2E=      0 Chk=     15 Scr=      1
 Normal termination of Gaussian 16 at Tue Aug  2 12:01:43 2022.
