 Entering Gaussian System, Link 0=g16
 Initial command:
 /apps/gaussian/g16c01/g16/l1.exe "/jobfs/53803424.gadi-pbs/Gau-1806019.inp" -scrdir="/jobfs/53803424.gadi-pbs/"
 Entering Link 1 = /apps/gaussian/g16c01/g16/l1.exe PID=   1806020.
  
 Copyright (c) 1988-2019, Gaussian, Inc.  All Rights Reserved.
  
 This is part of the Gaussian(R) 16 program.  It is based on
 the Gaussian(R) 09 system (copyright 2009, Gaussian, Inc.),
 the Gaussian(R) 03 system (copyright 2003, Gaussian, Inc.),
 the Gaussian(R) 98 system (copyright 1998, Gaussian, Inc.),
 the Gaussian(R) 94 system (copyright 1995, Gaussian, Inc.),
 the Gaussian 92(TM) system (copyright 1992, Gaussian, Inc.),
 the Gaussian 90(TM) system (copyright 1990, Gaussian, Inc.),
 the Gaussian 88(TM) system (copyright 1988, Gaussian, Inc.),
 the Gaussian 86(TM) system (copyright 1986, Carnegie Mellon
 University), and the Gaussian 82(TM) system (copyright 1983,
 Carnegie Mellon University). Gaussian is a federally registered
 trademark of Gaussian, Inc.
  
 This software contains proprietary and confidential information,
 including trade secrets, belonging to Gaussian, Inc.
  
 This software is provided under written license and may be
 used, copied, transmitted, or stored only in accord with that
 written license.
  
 The following legend is applicable only to US Government
 contracts under FAR:
  
                    RESTRICTED RIGHTS LEGEND
  
 Use, reproduction and disclosure by the US Government is
 subject to restrictions as set forth in subparagraphs (a)
 and (c) of the Commercial Computer Software - Restricted
 Rights clause in FAR 52.227-19.
  
 Gaussian, Inc.
 340 Quinnipiac St., Bldg. 40, Wallingford CT 06492
  
  
 ---------------------------------------------------------------
 Warning -- This program may not be used in any manner that
 competes with the business of Gaussian, Inc. or will provide
 assistance to any competitor of Gaussian, Inc.  The licensee
 of this program is prohibited from giving any competitor of
 Gaussian, Inc. access to this program.  By using this program,
 the user acknowledges that Gaussian, Inc. is engaged in the
 business of creating and licensing software in the field of
 computational chemistry and represents and warrants to the
 licensee that it is not a competitor of Gaussian, Inc. and that
 it will not use this program in any manner prohibited above.
 ---------------------------------------------------------------
  

 Cite this work as:
 Gaussian 16, Revision C.01,
 M. J. Frisch, G. W. Trucks, H. B. Schlegel, G. E. Scuseria, 
 M. A. Robb, J. R. Cheeseman, G. Scalmani, V. Barone, 
 G. A. Petersson, H. Nakatsuji, X. Li, M. Caricato, A. V. Marenich, 
 J. Bloino, B. G. Janesko, R. Gomperts, B. Mennucci, H. P. Hratchian, 
 J. V. Ortiz, A. F. Izmaylov, J. L. Sonnenberg, D. Williams-Young, 
 F. Ding, F. Lipparini, F. Egidi, J. Goings, B. Peng, A. Petrone, 
 T. Henderson, D. Ranasinghe, V. G. Zakrzewski, J. Gao, N. Rega, 
 G. Zheng, W. Liang, M. Hada, M. Ehara, K. Toyota, R. Fukuda, 
 J. Hasegawa, M. Ishida, T. Nakajima, Y. Honda, O. Kitao, H. Nakai, 
 T. Vreven, K. Throssell, J. A. Montgomery, Jr., J. E. Peralta, 
 F. Ogliaro, M. J. Bearpark, J. J. Heyd, E. N. Brothers, K. N. Kudin, 
 V. N. Staroverov, T. A. Keith, R. Kobayashi, J. Normand, 
 K. Raghavachari, A. P. Rendell, J. C. Burant, S. S. Iyengar, 
 J. Tomasi, M. Cossi, J. M. Millam, M. Klene, C. Adamo, R. Cammi, 
 J. W. Ochterski, R. L. Martin, K. Morokuma, O. Farkas, 
 J. B. Foresman, and D. J. Fox, Gaussian, Inc., Wallingford CT, 2019.
 
 ******************************************
 Gaussian 16:  ES64L-G16RevC.01  3-Jul-2019
                 2-Aug-2022 
 ******************************************
 %NProcShared=48
 Will use up to   48 processors via shared memory.
 %mem = 190GB
 ---------------------------------------------------------------
 #n M062X/6-311++G(d,p) TD(NStates=1) EmpiricalDispersion=GD3 SP
 ---------------------------------------------------------------
 1/38=1,172=1/1;
 2/12=2,17=6,18=5,40=1/2;
 3/5=4,6=6,7=1111,11=9,25=1,30=1,74=-55,124=31/1,2,3,8;
 4//1;
 5/5=2,38=5/2;
 8/6=1,10=2,108=1/1;
 9/41=1,42=1,70=2/14;
 6/7=2,8=2,9=2,10=2/1;
 99/5=1,9=1/99;
 ------
 SP_-10
 ------
 Symbolic Z-matrix:
 Charge =  1 Multiplicity = 1
 C                     0.        2.70466   1.35243 
 C                     0.        3.90551   0.68399 
 C                     0.        3.75386  -0.62183 
 C                     0.        2.21516  -1.33554 
 C                     0.       -2.61516  -1.49554 
 C                     0.       -3.57386  -0.94183 
 C                     0.       -3.54551   0.52399 
 C                     0.       -2.38465   1.35243 
 C                     0.        0.08      1.51337 
 C                     0.       -0.29     -1.36919 
 C                     0.        1.18406   0.61907 
 C                     0.        1.13947  -0.6688 
 C                     0.       -1.36406   0.83907 
 C                     0.       -1.31947  -0.6888 
 H                     0.        2.65407   2.43565 
 H                     0.        4.86075   1.17769 
 H                     0.        4.57926  -1.35635 
 H                     0.        2.26955  -2.41806 
 H                     0.       -0.25     -2.44627 
 H                     0.       -2.44955  -2.57806 
 H                     0.       -4.55926  -1.39635 
 H                     0.       -4.50075   1.03769 
 H                     0.       -2.55407   2.43565 
 H                    -0.85959   0.44      2.20579 
 H                     0.85959   0.44      2.20579 
 
                          Input orientation:                          
 ---------------------------------------------------------------------
 Center     Atomic      Atomic             Coordinates (Angstroms)
 Number     Number       Type             X           Y           Z
 ---------------------------------------------------------------------
      1          6           0        0.000000    2.704655    1.352431
      2          6           0        0.000000    3.905508    0.683989
      3          6           0        0.000000    3.753861   -0.621830
      4          6           0        0.000000    2.215156   -1.335538
      5          6           0        0.000000   -2.615156   -1.495538
      6          6           0        0.000000   -3.573861   -0.941830
      7          6           0        0.000000   -3.545508    0.523989
      8          6           0        0.000000   -2.384655    1.352431
      9          6           0        0.000000    0.080000    1.513369
     10          6           0        0.000000   -0.290000   -1.369189
     11          6           0        0.000000    1.184055    0.619065
     12          6           0        0.000000    1.139471   -0.668804
     13          6           0        0.000000   -1.364055    0.839065
     14          6           0        0.000000   -1.319471   -0.688804
     15          1           0        0.000000    2.654071    2.435647
     16          1           0        0.000000    4.860753    1.177689
     17          1           0        0.000000    4.579262   -1.356349
     18          1           0        0.000000    2.269550   -2.418059
     19          1           0        0.000000   -0.250000   -2.446266
     20          1           0        0.000000   -2.449550   -2.578059
     21          1           0        0.000000   -4.559262   -1.396349
     22          1           0        0.000000   -4.500753    1.037689
     23          1           0        0.000000   -2.554071    2.435647
     24          1           0       -0.859585    0.440000    2.205787
     25          1           0        0.859585    0.440000    2.205787
 ---------------------------------------------------------------------
                    Distance matrix (angstroms):
                    1          2          3          4          5
     1  C    0.000000
     2  C    1.374359   0.000000
     3  C    2.235741   1.314595   0.000000
     4  C    2.732176   2.633587   1.696170   0.000000
     5  C    6.034179   6.875274   6.428666   4.832961   0.000000
     6  C    6.684564   7.654035   7.334706   5.802389   1.107117
     7  C    6.304828   7.452734   7.388754   6.053354   2.223521
     8  C    5.089310   6.325580   6.448185   5.327611   2.857282
     9  C    2.629585   3.914382   4.249274   3.560219   4.039479
    10  C    4.046625   4.670956   4.112342   2.505382   2.328586
    11  C    1.688209   2.722227   2.853721   2.209896   4.348051
    12  C    2.556402   3.079125   2.614812   1.265556   3.844569
    13  C    4.100969   5.271844   5.322338   4.188036   2.648702
    14  C    4.512231   5.402311   5.073774   3.593307   1.526309
    15  H    1.084396   2.152766   3.249262   3.796641   6.574114
    16  H    2.163167   1.075283   2.112695   3.649040   7.939481
    17  H    3.294183   2.148703   1.104900   2.364198   7.195764
    18  H    3.795512   3.507002   2.330154   1.083887   4.971056
    19  H    4.812493   5.202571   4.399940   2.703833   2.549087
    20  H    6.481866   7.143369   6.504548   4.827353   1.095115
    21  H    7.766613   8.716659   8.349125   6.774691   1.946635
    22  H    7.212279   8.413699   8.419778   7.122895   3.157961
    23  H    5.369130   6.692867   7.009862   6.080079   3.931660
    24  H    2.568222   3.881301   4.440268   4.053523   4.875723
    25  H    2.568222   3.881301   4.440268   4.053523   4.875723
                    6          7          8          9         10
     6  C    0.000000
     7  C    1.466093   0.000000
     8  C    2.584153   1.426147   0.000000
     9  C    4.402125   3.758082   2.469904   0.000000
    10  C    3.311552   3.765960   3.434355   2.906207   0.000000
    11  C    5.007410   4.730519   3.643284   1.420816   2.475074
    12  C    4.721233   4.834437   4.062617   2.425770   1.591831
    13  C    2.838103   2.204089   1.142440   1.593732   2.455602
    14  C    2.268545   2.534977   2.302446   2.609231   1.233991
    15  H    7.084807   6.487620   5.153845   2.734308   4.810856
    16  H    8.696843   8.431640   7.247515   4.792523   5.746029
    17  H    8.163654   8.339518   7.472190   5.336538   4.869279
    18  H    6.026998   6.516943   5.989843   4.500028   2.766121
    19  H    3.648476   4.436529   4.357390   3.973362   1.077819
    20  H    1.985276   3.289958   3.931026   4.810240   2.474878
    21  H    1.085174   2.171496   3.504955   5.476241   4.269348
    22  H    2.185778   1.084611   2.139377   4.605385   4.850103
    23  H    3.528076   2.153459   1.096384   2.790865   4.427504
    24  H    5.172761   4.410397   3.073399   1.161003   3.748632
    25  H    5.172761   4.410397   3.073399   1.161003   3.748632
                   11         12         13         14         15
    11  C    0.000000
    12  C    1.288640   0.000000
    13  C    2.557590   2.922552   0.000000
    14  C    2.824564   2.459023   1.528519   0.000000
    15  H    2.336861   3.454219   4.323703   5.054822   0.000000
    16  H    3.718894   4.154212   6.234012   6.455925   2.540060
    17  H    3.928065   3.507831   6.335839   5.936385   4.252716
    18  H    3.225279   2.082540   4.879748   3.983892   4.868913
    19  H    3.384194   2.256103   3.469080   2.057290   5.680379
    20  H    4.839906   4.065258   3.585392   2.201446   7.154313
    21  H    6.086673   5.744987   3.899541   3.316152   8.168009
    22  H    5.700201   5.892728   3.142980   3.619576   7.290116
    23  H    4.156147   4.824922   1.991284   3.359528   5.208142
    24  H    1.951971   3.080815   2.421039   3.494751   2.386175
    25  H    1.951971   3.080815   2.421039   3.494751   2.386175
                   16         17         18         19         20
    16  H    0.000000
    17  H    2.549625   0.000000
    18  H    4.432126   2.542046   0.000000
    19  H    6.265209   4.950726   2.519708   0.000000
    20  H    8.218648   7.134197   4.721812   2.203495   0.000000
    21  H    9.765365   9.138612   6.904822   4.435320   2.418124
    22  H    9.362553   9.390319   7.601263   5.496075   4.157050
    23  H    7.520776   8.078594   6.842937   5.398316   5.014795
    24  H    4.619408   5.528218   5.046394   4.780856   5.654517
    25  H    4.619408   5.528218   5.046394   4.780856   5.654517
                   21         22         23         24         25
    21  H    0.000000
    22  H    2.434741   0.000000
    23  H    4.324926   2.396635   0.000000
    24  H    6.221486   5.149212   3.123489   0.000000
    25  H    6.221486   5.149212   3.123489   1.719170   0.000000
 Stoichiometry    C14H11(1+)
 Framework group  CS[SG(C14H9),X(H2)]
 Deg. of freedom    46
 Full point group                 CS      NOp   2
 Largest Abelian subgroup         CS      NOp   2
 Largest concise Abelian subgroup CS      NOp   2
                         Standard orientation:                         
 ---------------------------------------------------------------------
 Center     Atomic      Atomic             Coordinates (Angstroms)
 Number     Number       Type             X           Y           Z
 ---------------------------------------------------------------------
      1          6           0        2.535525    1.644200    0.000000
      2          6           0        2.567272    3.018192    0.000000
      3          6           0        1.364485    3.548722    0.000000
      4          6           0       -0.030167    2.583353    0.000000
      5          6           0       -2.614300   -1.500735    0.000000
      6          6           0       -2.622353   -2.607822    0.000000
      7          6           0       -1.344038   -3.325694    0.000000
      8          6           0       -0.041804   -2.744245    0.000000
      9          6           0        1.345122   -0.700508    0.000000
     10          6           0       -1.327846    0.440231    0.000000
     11          6           0        1.133091    0.704398    0.000000
     12          6           0        0.000000    1.318156    0.000000
     13          6           0        0.032380   -1.604217    0.000000
     14          6           0       -1.262503   -0.792029    0.000000
     15          1           0        3.443951    1.052020    0.000000
     16          1           0        3.476739    3.591868    0.000000
     17          1           0        1.149118    4.632430    0.000000
     18          1           0       -0.936065    3.178466    0.000000
     19          1           0       -2.236338    1.020176    0.000000
     20          1           0       -3.463878   -0.809724    0.000000
     21          1           0       -3.513305   -3.227343    0.000000
     22          1           0       -1.384836   -4.409537    0.000000
     23          1           0        0.806443   -3.438893    0.000000
     24          1           0        2.124496   -0.740739    0.859585
     25          1           0        2.124496   -0.740739   -0.859585
 ---------------------------------------------------------------------
 Rotational constants (GHZ):           2.1397538           0.4411864           0.3665602
 Standard basis: 6-311++G(d,p) (5D, 7F)
 There are   299 symmetry adapted cartesian basis functions of A'  symmetry.
 There are   100 symmetry adapted cartesian basis functions of A"  symmetry.
 There are   285 symmetry adapted basis functions of A'  symmetry.
 There are   100 symmetry adapted basis functions of A"  symmetry.
   385 basis functions,   603 primitive gaussians,   399 cartesian basis functions
    47 alpha electrons       47 beta electrons
       nuclear repulsion energy       783.5987821305 Hartrees.
 NAtoms=   25 NActive=   25 NUniq=   24 SFac= 1.09D+00 NAtFMM=   60 NAOKFM=F Big=F
 Integral buffers will be    131072 words long.
 Regular integral format.
 Two-electron integral symmetry is turned on.
 Nuclear repulsion after empirical dispersion term =      783.5978173138 Hartrees.
 One-electron integrals computed using PRISM.
 NBasis=   385 RedAO= T EigKep=  1.28D-06  NBF=   285   100
 NBsUse=   379 1.00D-06 EigRej=  6.87D-07 NBFU=   279   100
 ExpMin= 3.60D-02 ExpMax= 4.56D+03 ExpMxC= 6.82D+02 IAcc=3 IRadAn=         5 AccDes= 0.00D+00
 Harris functional with IExCor= 1009 and IRadAn=       5 diagonalized for initial guess.
 HarFok:  IExCor= 1009 AccDes= 0.00D+00 IRadAn=         5 IDoV= 1 UseB2=F ITyADJ=14
 ICtDFT=  3500011 ScaDFX=  1.000000  1.000000  1.000000  1.000000
 FoFCou: FMM=F IPFlag=           0 FMFlag=      100000 FMFlg1=           0
         NFxFlg=           0 DoJE=T BraDBF=F KetDBF=T FulRan=T
         wScrn=  0.000000 ICntrl=       500 IOpCl=  0 I1Cent=   200000004 NGrid=           0
         NMat0=    1 NMatS0=      1 NMatT0=    0 NMatD0=    1 NMtDS0=    0 NMtDT0=    0
 Petite list used in FoFCou.
 Initial guess orbital symmetries:
       Occupied  (A') (A') (A') (A') (A') (A') (A') (A') (A') (A')
                 (A') (A') (A') (A') (A') (A') (A') (A') (A') (A')
                 (A') (A') (A') (A') (A') (A') (A') (A') (A') (A')
                 (A') (A') (A") (A') (A') (A') (A") (A') (A') (A")
                 (A') (A') (A") (A") (A') (A") (A")
       Virtual   (A") (A") (A") (A") (A") (A') (A') (A') (A') (A')
                 (A') (A") (A') (A') (A") (A') (A') (A") (A') (A')
                 (A') (A") (A') (A') (A') (A") (A") (A') (A') (A")
                 (A') (A') (A') (A') (A") (A') (A') (A') (A") (A')
                 (A") (A') (A") (A') (A') (A') (A') (A') (A') (A")
                 (A') (A") (A') (A") (A') (A') (A") (A') (A") (A')
                 (A') (A') (A') (A') (A') (A") (A') (A') (A') (A")
                 (A') (A') (A') (A') (A') (A') (A') (A') (A') (A')
                 (A') (A') (A') (A') (A') (A') (A') (A') (A') (A')
                 (A') (A') (A') (A') (A") (A') (A") (A') (A") (A')
                 (A') (A') (A") (A') (A') (A") (A") (A') (A") (A')
                 (A") (A') (A") (A") (A') (A') (A") (A') (A') (A")
                 (A") (A') (A') (A') (A") (A') (A') (A") (A') (A')
                 (A') (A') (A') (A') (A') (A') (A') (A') (A") (A')
                 (A') (A') (A') (A') (A') (A") (A') (A') (A') (A')
                 (A") (A') (A") (A') (A") (A') (A') (A") (A') (A')
                 (A") (A") (A') (A") (A") (A') (A") (A') (A') (A')
                 (A") (A') (A') (A') (A') (A') (A') (A") (A') (A")
                 (A') (A') (A") (A') (A") (A') (A") (A') (A") (A')
                 (A") (A') (A') (A") (A') (A') (A') (A") (A') (A")
                 (A") (A') (A") (A') (A') (A") (A") (A') (A") (A')
                 (A') (A') (A') (A") (A') (A') (A') (A") (A') (A")
                 (A') (A") (A') (A') (A") (A') (A') (A') (A") (A')
                 (A") (A') (A") (A') (A') (A") (A') (A") (A') (A")
                 (A') (A') (A') (A') (A') (A") (A') (A') (A') (A')
                 (A") (A') (A') (A") (A") (A') (A') (A") (A') (A")
                 (A') (A') (A") (A') (A') (A') (A') (A') (A") (A")
                 (A') (A') (A') (A") (A') (A") (A') (A') (A") (A')
                 (A") (A') (A") (A') (A') (A") (A") (A') (A') (A')
                 (A') (A') (A') (A') (A') (A') (A') (A') (A') (A")
                 (A') (A') (A') (A') (A') (A') (A') (A') (A') (A')
                 (A') (A') (A') (A') (A') (A') (A') (A') (A') (A')
                 (A') (A') (A') (A') (A') (A') (A') (A') (A') (A')
                 (A') (A')
 The electronic state of the initial guess is 1-A'.
 Requested convergence on RMS density matrix=1.00D-08 within 128 cycles.
 Requested convergence on MAX density matrix=1.00D-06.
 Requested convergence on             energy=1.00D-06.
 No special actions if energy rises.
 SCF Done:  E(RM062X) =  -539.356992479     A.U. after   17 cycles
            NFock= 17  Conv=0.36D-08     -V/T= 2.0004
 DoSCS=F DFT=T ScalE2(SS,OS)=  1.000000  1.000000
 ExpMin= 3.60D-02 ExpMax= 4.56D+03 ExpMxC= 6.82D+02 IAcc=3 IRadAn=         5 AccDes= 0.00D+00
 HarFok:  IExCor=  205 AccDes= 0.00D+00 IRadAn=         5 IDoV=-2 UseB2=F ITyADJ=14
 ICtDFT= 12500011 ScaDFX=  1.000000  1.000000  1.000000  1.000000
 Range of M.O.s used for correlation:    15   379
 NBasis=   385 NAE=    47 NBE=    47 NFC=    14 NFV=     0
 NROrb=    365 NOA=    33 NOB=    33 NVA=   332 NVB=   332

 **** Warning!!: The largest alpha MO coefficient is  0.17609788D+03


 **** Warning!!: The smallest alpha delta epsilon is  0.99152240D-01

 Orbital symmetries:
       Occupied  (A') (A') (A') (A') (A') (A') (A') (A') (A') (A')
                 (A') (A') (A') (A') (A') (A') (A') (A') (A') (A')
                 (A') (A') (A') (A') (A') (A') (A') (A') (A') (A')
                 (A') (A") (A') (A') (A') (A") (A') (A') (A") (A')
                 (A') (A") (A') (A") (A') (A") (A")
       Virtual   (A") (A") (A") (A') (A") (A') (A') (A') (A') (A")
                 (A') (A") (A') (A') (A") (A') (A") (A') (A') (A')
                 (A") (A") (A') (A') (A') (A') (A') (A") (A') (A')
                 (A") (A") (A') (A') (A') (A') (A") (A') (A") (A')
                 (A') (A") (A') (A') (A') (A") (A") (A') (A") (A')
                 (A') (A') (A') (A') (A") (A') (A') (A") (A') (A')
                 (A') (A') (A') (A") (A') (A') (A") (A') (A') (A')
                 (A') (A') (A') (A') (A') (A') (A') (A') (A') (A')
                 (A') (A') (A') (A') (A') (A') (A') (A') (A') (A')
                 (A") (A') (A') (A") (A') (A') (A') (A') (A") (A')
                 (A") (A') (A') (A") (A') (A") (A') (A") (A') (A')
                 (A") (A") (A') (A") (A') (A") (A') (A') (A") (A')
                 (A") (A') (A') (A") (A') (A") (A') (A') (A') (A')
                 (A') (A') (A') (A') (A') (A') (A') (A') (A') (A')
                 (A') (A') (A') (A") (A') (A') (A') (A") (A') (A')
                 (A') (A') (A') (A") (A') (A') (A") (A") (A") (A')
                 (A') (A") (A") (A') (A') (A") (A") (A") (A') (A')
                 (A") (A') (A') (A') (A') (A') (A') (A') (A") (A")
                 (A') (A') (A") (A") (A') (A") (A') (A') (A") (A')
                 (A") (A') (A") (A') (A') (A") (A') (A') (A') (A")
                 (A") (A') (A") (A') (A") (A') (A') (A") (A') (A")
                 (A') (A') (A') (A") (A') (A') (A') (A") (A') (A")
                 (A") (A') (A') (A') (A") (A') (A') (A') (A") (A")
                 (A') (A') (A') (A") (A') (A') (A") (A") (A') (A")
                 (A') (A') (A') (A") (A') (A') (A') (A') (A') (A')
                 (A") (A') (A') (A') (A') (A") (A') (A') (A") (A')
                 (A') (A") (A') (A') (A") (A') (A') (A') (A') (A')
                 (A") (A') (A') (A") (A") (A") (A") (A') (A') (A")
                 (A') (A") (A') (A") (A') (A") (A") (A') (A') (A')
                 (A') (A') (A') (A') (A') (A') (A') (A') (A') (A")
                 (A') (A') (A') (A') (A') (A') (A') (A') (A') (A')
                 (A') (A') (A') (A') (A') (A') (A') (A') (A') (A')
                 (A') (A') (A') (A') (A') (A') (A') (A') (A') (A')
                 (A') (A')
     4 initial guesses have been made.
 Convergence on wavefunction:    0.001000000000000
 Iteration     1 Dimension     4 NMult     0 NNew      4
 CISAX will form     4 AO SS matrices at one time.
 Iteration     2 Dimension     6 NMult     4 NNew      2
 Iteration     3 Dimension     8 NMult     6 NNew      2
 Iteration     4 Dimension    10 NMult     8 NNew      2
 Iteration     5 Dimension    12 NMult    10 NNew      2
 Iteration     6 Dimension    14 NMult    12 NNew      2
 ***********************************************************************
 Excited states from <AA,BB:AA,BB> singles matrix:
 ***********************************************************************
 
 Ground to excited state transition densities written to RWF  633
 Ground to excited state transition electric dipole moments (Au):
       state          X           Y           Z        Dip. S.      Osc.
         1         0.8169      0.9107     -0.0000      1.4967      0.0412
 Ground to excited state transition velocity dipole moments (Au):
       state          X           Y           Z        Dip. S.      Osc.
         1        -0.0350     -0.0321      0.0000      0.0023      0.0364
 Ground to excited state transition magnetic dipole moments (Au):
       state          X           Y           Z
         1        -0.0000     -0.0000     -0.3094
 Ground to excited state transition velocity quadrupole moments (Au):
       state          XX          YY          ZZ          XY          XZ          YZ
         1        -0.0263      0.0686     -0.0037      0.0226      0.0000     -0.0000
 <0|del|b> * <b|rxdel|0> + <0|del|b> * <b|delr+rdel|0>
 Rotatory Strengths (R) in cgs (10**-40 erg-esu-cm/Gauss)
       state          XX          YY          ZZ    R(velocity)    E-M Angle
         1        -0.0000     -0.0000      0.0000     -0.0000       90.00
 1/2[<0|r|b>*<b|rxdel|0> + (<0|rxdel|b>*<b|r|0>)*]
 Rotatory Strengths (R) in cgs (10**-40 erg-esu-cm/Gauss)
       state          XX          YY          ZZ     R(length)
         1         0.0000      0.0000     -0.0000      0.0000
  1/2[<0|del|b>*<b|r|0> + (<0|r|b>*<b|del|0>)*] (Au)
       state          X           Y           Z        Dip. S.   Osc.(frdel)
         1        -0.0286     -0.0292     -0.0000      0.0578      0.0385

 Excitation energies and oscillator strengths:
 
 Excited State   1:      Singlet-A'     1.1229 eV 1104.10 nm  f=0.0412  <S**2>=0.000
      47 -> 48         0.70516
 This state for optimization and/or second-order correction.
 Total Energy, E(TD-HF/TD-DFT) =  -539.315724938    
 Copying the excited state density for this state as the 1-particle RhoCI density.
 SavETr:  write IOETrn=   770 NScale= 10 NData=  16 NLR=1 NState=    1 LETran=      28.

 **********************************************************************

            Population analysis using the SCF Density.

 **********************************************************************

 Orbital symmetries:
       Occupied  (A') (A') (A') (A') (A') (A') (A') (A') (A') (A')
                 (A') (A') (A') (A') (A') (A') (A') (A') (A') (A')
                 (A') (A') (A') (A') (A') (A') (A') (A') (A') (A')
                 (A') (A") (A') (A') (A') (A") (A') (A') (A") (A')
                 (A') (A") (A') (A") (A') (A") (A")
       Virtual   (A") (A") (A") (A') (A") (A') (A') (A') (A') (A")
                 (A') (A") (A') (A') (A") (A') (A") (A') (A') (A')
                 (A") (A") (A') (A') (A') (A') (A') (A") (A') (A')
                 (A") (A") (A') (A') (A') (A') (A") (A') (A") (A')
                 (A') (A") (A') (A') (A') (A") (A") (A') (A") (A')
                 (A') (A') (A') (A') (A") (A') (A') (A") (A') (A')
                 (A') (A') (A') (A") (A') (A') (A") (A') (A') (A')
                 (A') (A') (A') (A') (A') (A') (A') (A') (A') (A')
                 (A') (A') (A') (A') (A') (A') (A') (A') (A') (A')
                 (A") (A') (A') (A") (A') (A') (A') (A') (A") (A')
                 (A") (A') (A') (A") (A') (A") (A') (A") (A') (A')
                 (A") (A") (A') (A") (A') (A") (A') (A') (A") (A')
                 (A") (A') (A') (A") (A') (A") (A') (A') (A') (A')
                 (A') (A') (A') (A') (A') (A') (A') (A') (A') (A')
                 (A') (A') (A') (A") (A') (A') (A') (A") (A') (A')
                 (A') (A') (A') (A") (A') (A') (A") (A") (A") (A')
                 (A') (A") (A") (A') (A') (A") (A") (A") (A') (A')
                 (A") (A') (A') (A') (A') (A') (A') (A') (A") (A")
                 (A') (A') (A") (A") (A') (A") (A') (A') (A") (A')
                 (A") (A') (A") (A') (A') (A") (A') (A') (A') (A")
                 (A") (A') (A") (A') (A") (A') (A') (A") (A') (A")
                 (A') (A') (A') (A") (A') (A') (A') (A") (A') (A")
                 (A") (A') (A') (A') (A") (A') (A') (A') (A") (A")
                 (A') (A') (A') (A") (A') (A') (A") (A") (A') (A")
                 (A') (A') (A') (A") (A') (A') (A') (A') (A') (A')
                 (A") (A') (A') (A') (A') (A") (A') (A') (A") (A')
                 (A') (A") (A') (A') (A") (A') (A') (A') (A') (A')
                 (A") (A') (A') (A") (A") (A") (A") (A') (A') (A")
                 (A') (A") (A') (A") (A') (A") (A") (A') (A') (A')
                 (A') (A') (A') (A') (A') (A') (A') (A') (A') (A")
                 (A') (A') (A') (A') (A') (A') (A') (A') (A') (A')
                 (A') (A') (A') (A') (A') (A') (A') (A') (A') (A')
                 (A') (A') (A') (A') (A') (A') (A') (A') (A') (A')
                 (A') (A')
 The electronic state is 1-A'.
 Alpha  occ. eigenvalues --  -10.78724 -10.75311 -10.73148 -10.72282 -10.72083
 Alpha  occ. eigenvalues --  -10.71556 -10.71106 -10.70525 -10.69972 -10.69321
 Alpha  occ. eigenvalues --  -10.68401 -10.67988 -10.67729 -10.66410  -1.20208
 Alpha  occ. eigenvalues --   -1.12937  -1.11661  -1.06778  -1.02472  -1.01035
 Alpha  occ. eigenvalues --   -0.95759  -0.88571  -0.86324  -0.84570  -0.83726
 Alpha  occ. eigenvalues --   -0.77735  -0.76610  -0.74649  -0.72917  -0.69767
 Alpha  occ. eigenvalues --   -0.69022  -0.68118  -0.66397  -0.64586  -0.63664
 Alpha  occ. eigenvalues --   -0.63310  -0.63232  -0.59926  -0.57951  -0.56398
 Alpha  occ. eigenvalues --   -0.55426  -0.55053  -0.53491  -0.52364  -0.48641
 Alpha  occ. eigenvalues --   -0.47207  -0.37076
 Alpha virt. eigenvalues --   -0.27160  -0.15330  -0.12269  -0.11613  -0.10524
 Alpha virt. eigenvalues --   -0.10381  -0.09842  -0.07790  -0.07739  -0.07566
 Alpha virt. eigenvalues --   -0.07351  -0.06142  -0.05859  -0.05406  -0.05351
 Alpha virt. eigenvalues --   -0.04351  -0.04057  -0.03434  -0.03180  -0.02000
 Alpha virt. eigenvalues --   -0.01899  -0.00825  -0.00797  -0.00490   0.00482
 Alpha virt. eigenvalues --    0.00761   0.01183   0.01449   0.01678   0.01958
 Alpha virt. eigenvalues --    0.02028   0.02670   0.02865   0.03155   0.03578
 Alpha virt. eigenvalues --    0.03893   0.04100   0.04119   0.05454   0.05458
 Alpha virt. eigenvalues --    0.05785   0.05830   0.06146   0.06439   0.07201
 Alpha virt. eigenvalues --    0.07309   0.07776   0.07897   0.08087   0.08172
 Alpha virt. eigenvalues --    0.08460   0.08851   0.09582   0.10085   0.10126
 Alpha virt. eigenvalues --    0.10697   0.11112   0.11378   0.11672   0.12258
 Alpha virt. eigenvalues --    0.12934   0.13073   0.13410   0.13455   0.14097
 Alpha virt. eigenvalues --    0.14302   0.16060   0.16640   0.17044   0.17339
 Alpha virt. eigenvalues --    0.18244   0.19002   0.19735   0.20432   0.20814
 Alpha virt. eigenvalues --    0.21369   0.22107   0.22977   0.23362   0.24196
 Alpha virt. eigenvalues --    0.25044   0.25883   0.25992   0.26991   0.28169
 Alpha virt. eigenvalues --    0.29431   0.30566   0.31808   0.32228   0.35838
 Alpha virt. eigenvalues --    0.37470   0.38017   0.38570   0.39161   0.39161
 Alpha virt. eigenvalues --    0.40110   0.41965   0.42656   0.43447   0.43681
 Alpha virt. eigenvalues --    0.43956   0.44727   0.46382   0.46605   0.47058
 Alpha virt. eigenvalues --    0.48048   0.48705   0.48993   0.50971   0.51119
 Alpha virt. eigenvalues --    0.51677   0.52509   0.52649   0.54117   0.54372
 Alpha virt. eigenvalues --    0.55345   0.55637   0.57808   0.58235   0.59042
 Alpha virt. eigenvalues --    0.59225   0.61683   0.62081   0.63177   0.63295
 Alpha virt. eigenvalues --    0.63796   0.64749   0.65956   0.66775   0.67628
 Alpha virt. eigenvalues --    0.69934   0.71650   0.73364   0.73696   0.74294
 Alpha virt. eigenvalues --    0.74889   0.75525   0.76965   0.77293   0.77921
 Alpha virt. eigenvalues --    0.79266   0.79588   0.80416   0.81185   0.81890
 Alpha virt. eigenvalues --    0.82030   0.83260   0.84288   0.84427   0.85937
 Alpha virt. eigenvalues --    0.86806   0.89376   0.90321   0.90340   0.92003
 Alpha virt. eigenvalues --    0.94106   0.94192   0.95833   0.97836   0.98843
 Alpha virt. eigenvalues --    0.99462   1.00955   1.02815   1.03354   1.04542
 Alpha virt. eigenvalues --    1.06517   1.07337   1.07693   1.08258   1.12786
 Alpha virt. eigenvalues --    1.15040   1.18368   1.19895   1.21538   1.27520
 Alpha virt. eigenvalues --    1.29516   1.32628   1.34587   1.34940   1.36350
 Alpha virt. eigenvalues --    1.37460   1.38115   1.40050   1.40305   1.40614
 Alpha virt. eigenvalues --    1.44855   1.45252   1.46711   1.47232   1.49409
 Alpha virt. eigenvalues --    1.50126   1.53141   1.53570   1.54867   1.56176
 Alpha virt. eigenvalues --    1.56974   1.57111   1.58260   1.59385   1.59740
 Alpha virt. eigenvalues --    1.63753   1.64178   1.65535   1.66093   1.68434
 Alpha virt. eigenvalues --    1.68968   1.70873   1.71059   1.74706   1.74979
 Alpha virt. eigenvalues --    1.76057   1.77038   1.78981   1.79769   1.80763
 Alpha virt. eigenvalues --    1.82252   1.82556   1.84734   1.85285   1.87195
 Alpha virt. eigenvalues --    1.87582   1.87748   1.89183   1.92442   1.93273
 Alpha virt. eigenvalues --    1.94513   1.95950   1.98570   1.99199   2.01607
 Alpha virt. eigenvalues --    2.02328   2.05092   2.08283   2.10684   2.13821
 Alpha virt. eigenvalues --    2.17589   2.17979   2.19640   2.20261   2.22425
 Alpha virt. eigenvalues --    2.25312   2.25807   2.30390   2.31204   2.32233
 Alpha virt. eigenvalues --    2.35480   2.38400   2.39436   2.40991   2.42604
 Alpha virt. eigenvalues --    2.43622   2.45220   2.49523   2.52257   2.54127
 Alpha virt. eigenvalues --    2.56496   2.57529   2.58619   2.59475   2.60743
 Alpha virt. eigenvalues --    2.61994   2.62197   2.62307   2.64562   2.64904
 Alpha virt. eigenvalues --    2.64952   2.65961   2.66879   2.67306   2.69389
 Alpha virt. eigenvalues --    2.70304   2.71746   2.73536   2.73624   2.75185
 Alpha virt. eigenvalues --    2.76326   2.78974   2.79109   2.83263   2.84566
 Alpha virt. eigenvalues --    2.88019   2.88866   2.92140   2.92935   2.98736
 Alpha virt. eigenvalues --    2.98763   3.01543   3.03925   3.04206   3.07017
 Alpha virt. eigenvalues --    3.08639   3.15112   3.20713   3.25848   3.28907
 Alpha virt. eigenvalues --    3.33234   3.37698   3.39659   3.50202   3.50232
 Alpha virt. eigenvalues --    3.54554   3.59982   3.63597   3.71724   3.72821
 Alpha virt. eigenvalues --    3.75729   3.80996   3.83186   3.88943   3.90519
 Alpha virt. eigenvalues --    3.98385   4.01778   4.07531   4.14790   4.25025
 Alpha virt. eigenvalues --    4.36650   4.48718   4.53056  23.41922  23.48469
 Alpha virt. eigenvalues --   23.54466  23.57500  23.58116  23.81662  23.87656
 Alpha virt. eigenvalues --   23.95405  24.19752  24.30815  24.54036  24.58546
 Alpha virt. eigenvalues --   25.04865  25.24314
          Condensed to atoms (all electrons):
               1          2          3          4          5          6
     1  C   13.377799  -3.854150   1.479325   2.862012  -0.382109  -0.121653
     2  C   -3.854150  10.138434  -1.872592  -1.835945   0.242203  -0.008361
     3  C    1.479325  -1.872592   7.874623   1.383048  -0.308375   0.025040
     4  C    2.862012  -1.835945   1.383048   8.753643  -0.767912  -0.027318
     5  C   -0.382109   0.242203  -0.308375  -0.767912  13.579396   0.243903
     6  C   -0.121653  -0.008361   0.025040  -0.027318   0.243903   7.138947
     7  C    0.045131  -0.012288  -0.019702  -0.162536  -0.068992   0.467423
     8  C    0.307624  -0.003596  -0.083892  -0.143045   1.262230  -0.684411
     9  C   -0.744438  -0.932690   0.384213  -0.562010   0.728812   0.232306
    10  C   -1.282639   0.909675  -1.214296  -1.266158  -3.205858   0.298535
    11  C   -1.639947  -0.006459   1.107287  -0.465309  -0.981817  -0.377520
    12  C   -4.261242   3.430653  -1.944469  -0.875778  -2.515066   0.719069
    13  C    0.667444  -0.828381   0.403553  -1.012027  -2.036281   0.205328
    14  C   -0.940164   0.803724  -1.060905  -0.102498  -0.213955  -2.081317
    15  H    0.423781  -0.162739   0.051852   0.031181  -0.009476   0.000878
    16  H   -0.018667   0.358347  -0.016176  -0.007712   0.000962  -0.000128
    17  H   -0.058351   0.041403   0.333019  -0.029998  -0.002337   0.000516
    18  H    0.072997  -0.001362  -0.107551   0.428755   0.027373  -0.006411
    19  H   -0.049037  -0.014061   0.070995  -0.009480  -0.201202   0.058472
    20  H    0.004186   0.004000  -0.007930  -0.007315   0.569020  -0.054332
    21  H   -0.001678  -0.000301   0.000723   0.002147  -0.080601   0.396995
    22  H    0.002090   0.000742  -0.000674  -0.003742   0.052352  -0.044875
    23  H    0.001584  -0.003614   0.001751   0.005793   0.002211  -0.001386
    24  H   -0.019208   0.012000  -0.006386  -0.017198   0.002609  -0.001358
    25  H   -0.019208   0.012000  -0.006386  -0.017198   0.002609  -0.001358
               7          8          9         10         11         12
     1  C    0.045131   0.307624  -0.744438  -1.282639  -1.639947  -4.261242
     2  C   -0.012288  -0.003596  -0.932690   0.909675  -0.006459   3.430653
     3  C   -0.019702  -0.083892   0.384213  -1.214296   1.107287  -1.944469
     4  C   -0.162536  -0.143045  -0.562010  -1.266158  -0.465309  -0.875778
     5  C   -0.068992   1.262230   0.728812  -3.205858  -0.981817  -2.515066
     6  C    0.467423  -0.684411   0.232306   0.298535  -0.377520   0.719069
     7  C    7.959534   1.158952  -0.869290  -0.592486  -0.294199  -0.740821
     8  C    1.158952   7.517812  -0.329325  -0.741017   0.130191  -1.539165
     9  C   -0.869290  -0.329325   9.175208  -0.163182   0.201156  -0.082461
    10  C   -0.592486  -0.741017  -0.163182   9.287611  -0.779537   1.899192
    11  C   -0.294199   0.130191   0.201156  -0.779537  11.346656   0.664706
    12  C   -0.740821  -1.539165  -0.082461   1.899192   0.664706  13.081684
    13  C   -0.195788   0.066263   0.710801   0.636555  -0.490083  -1.768787
    14  C   -0.625706  -1.332335  -2.209618   1.810960  -2.173262  -0.528892
    15  H    0.001390   0.005628   0.095314  -0.018788  -0.073949  -0.070480
    16  H   -0.000018  -0.000045  -0.002947   0.003181   0.016841   0.009522
    17  H   -0.000509  -0.001542  -0.001468   0.000594   0.004797   0.066158
    18  H    0.001743   0.002875  -0.026098   0.100174  -0.029187  -0.168181
    19  H   -0.020145  -0.028490   0.065435   0.420584   0.071164   0.195000
    20  H    0.025929   0.033802  -0.007760  -0.025184  -0.009070  -0.109928
    21  H   -0.035594  -0.007092  -0.002172   0.026845  -0.005820   0.016181
    22  H    0.383715  -0.007190   0.002992  -0.029046   0.006618  -0.025435
    23  H   -0.079797   0.379919   0.021309   0.005474  -0.031231   0.007859
    24  H    0.015238   0.042679   0.374708   0.010249  -0.059544  -0.019001
    25  H    0.015238   0.042679   0.374708   0.010249  -0.059544  -0.019001
              13         14         15         16         17         18
     1  C    0.667444  -0.940164   0.423781  -0.018667  -0.058351   0.072997
     2  C   -0.828381   0.803724  -0.162739   0.358347   0.041403  -0.001362
     3  C    0.403553  -1.060905   0.051852  -0.016176   0.333019  -0.107551
     4  C   -1.012027  -0.102498   0.031181  -0.007712  -0.029998   0.428755
     5  C   -2.036281  -0.213955  -0.009476   0.000962  -0.002337   0.027373
     6  C    0.205328  -2.081317   0.000878  -0.000128   0.000516  -0.006411
     7  C   -0.195788  -0.625706   0.001390  -0.000018  -0.000509   0.001743
     8  C    0.066263  -1.332335   0.005628  -0.000045  -0.001542   0.002875
     9  C    0.710801  -2.209618   0.095314  -0.002947  -0.001468  -0.026098
    10  C    0.636555   1.810960  -0.018788   0.003181   0.000594   0.100174
    11  C   -0.490083  -2.173262  -0.073949   0.016841   0.004797  -0.029187
    12  C   -1.768787  -0.528892  -0.070480   0.009522   0.066158  -0.168181
    13  C   14.841990  -4.751626   0.055192  -0.007416  -0.000295  -0.034928
    14  C   -4.751626  19.091995  -0.031793   0.005059  -0.007403   0.066882
    15  H    0.055192  -0.031793   0.481757  -0.006859   0.000608  -0.001270
    16  H   -0.007416   0.005059  -0.006859   0.431493  -0.001699   0.001686
    17  H   -0.000295  -0.007403   0.000608  -0.001699   0.421484  -0.005518
    18  H   -0.034928   0.066882  -0.001270   0.001686  -0.005518   0.483513
    19  H    0.139318  -0.325186   0.000383  -0.000458   0.000982  -0.018357
    20  H   -0.041865  -0.032653  -0.000150   0.000015  -0.000152   0.002338
    21  H   -0.009351   0.043084  -0.000004  -0.000004   0.000013  -0.000342
    22  H    0.022262  -0.025798  -0.000137   0.000006  -0.000011   0.000048
    23  H   -0.037973   0.069762   0.000376  -0.000103   0.000046  -0.000228
    24  H    0.025209  -0.027734  -0.000537   0.000695  -0.000150   0.000451
    25  H    0.025209  -0.027734  -0.000537   0.000695  -0.000150   0.000451
              19         20         21         22         23         24
     1  C   -0.049037   0.004186  -0.001678   0.002090   0.001584  -0.019208
     2  C   -0.014061   0.004000  -0.000301   0.000742  -0.003614   0.012000
     3  C    0.070995  -0.007930   0.000723  -0.000674   0.001751  -0.006386
     4  C   -0.009480  -0.007315   0.002147  -0.003742   0.005793  -0.017198
     5  C   -0.201202   0.569020  -0.080601   0.052352   0.002211   0.002609
     6  C    0.058472  -0.054332   0.396995  -0.044875  -0.001386  -0.001358
     7  C   -0.020145   0.025929  -0.035594   0.383715  -0.079797   0.015238
     8  C   -0.028490   0.033802  -0.007092  -0.007190   0.379919   0.042679
     9  C    0.065435  -0.007760  -0.002172   0.002992   0.021309   0.374708
    10  C    0.420584  -0.025184   0.026845  -0.029046   0.005474   0.010249
    11  C    0.071164  -0.009070  -0.005820   0.006618  -0.031231  -0.059544
    12  C    0.195000  -0.109928   0.016181  -0.025435   0.007859  -0.019001
    13  C    0.139318  -0.041865  -0.009351   0.022262  -0.037973   0.025209
    14  C   -0.325186  -0.032653   0.043084  -0.025798   0.069762  -0.027734
    15  H    0.000383  -0.000150  -0.000004  -0.000137   0.000376  -0.000537
    16  H   -0.000458   0.000015  -0.000004   0.000006  -0.000103   0.000695
    17  H    0.000982  -0.000152   0.000013  -0.000011   0.000046  -0.000150
    18  H   -0.018357   0.002338  -0.000342   0.000048  -0.000228   0.000451
    19  H    0.510819  -0.010151   0.004428  -0.001015   0.001166   0.000365
    20  H   -0.010151   0.432010  -0.012329   0.002963  -0.000173   0.000069
    21  H    0.004428  -0.012329   0.405246  -0.004408   0.001825  -0.000069
    22  H   -0.001015   0.002963  -0.004408   0.390265  -0.004303   0.000437
    23  H    0.001166  -0.000173   0.001825  -0.004303   0.414080  -0.000594
    24  H    0.000365   0.000069  -0.000069   0.000437  -0.000594   0.468219
    25  H    0.000365   0.000069  -0.000069   0.000437  -0.000594  -0.066692
              25
     1  C   -0.019208
     2  C    0.012000
     3  C   -0.006386
     4  C   -0.017198
     5  C    0.002609
     6  C   -0.001358
     7  C    0.015238
     8  C    0.042679
     9  C    0.374708
    10  C    0.010249
    11  C   -0.059544
    12  C   -0.019001
    13  C    0.025209
    14  C   -0.027734
    15  H   -0.000537
    16  H    0.000695
    17  H   -0.000150
    18  H    0.000451
    19  H    0.000365
    20  H    0.000069
    21  H   -0.000069
    22  H    0.000437
    23  H   -0.000594
    24  H   -0.066692
    25  H    0.468219
 Mulliken charges:
               1
     1  C    0.148519
     2  C   -0.416642
     3  C   -0.466096
     4  C   -0.153401
     5  C    0.060300
     6  C   -0.376985
     7  C   -0.356421
     8  C   -0.049509
     9  C   -0.433502
    10  C   -0.101690
    11  C   -0.072938
    12  C    0.578681
    13  C   -0.584325
    14  C    0.607113
    15  H    0.228379
    16  H    0.233729
    17  H    0.239961
    18  H    0.210147
    19  H    0.138105
    20  H    0.244594
    21  H    0.262346
    22  H    0.281707
    23  H    0.246841
    24  H    0.265544
    25  H    0.265544
 Sum of Mulliken charges =   1.00000
 Mulliken charges with hydrogens summed into heavy atoms:
               1
     1  C    0.376898
     2  C   -0.182914
     3  C   -0.226135
     4  C    0.056746
     5  C    0.304894
     6  C   -0.114639
     7  C   -0.074714
     8  C    0.197332
     9  C    0.097586
    10  C    0.036415
    11  C   -0.072938
    12  C    0.578681
    13  C   -0.584325
    14  C    0.607113
 Electronic spatial extent (au):  <R**2>=           2869.1826
 Charge=              1.0000 electrons
 Dipole moment (field-independent basis, Debye):
    X=             -2.4382    Y=             -5.2999    Z=             -0.0000  Tot=              5.8339
 Quadrupole moment (field-independent basis, Debye-Ang):
   XX=            -47.0850   YY=            -35.9021   ZZ=            -83.5066
   XY=             14.6763   XZ=             -0.0000   YZ=              0.0000
 Traceless Quadrupole moment (field-independent basis, Debye-Ang):
   XX=              8.4129   YY=             19.5958   ZZ=            -28.0087
   XY=             14.6763   XZ=             -0.0000   YZ=              0.0000
 Octapole moment (field-independent basis, Debye-Ang**2):
  XXX=            -20.1793  YYY=            -56.1158  ZZZ=             -0.0000  XYY=            -15.1841
  XXY=             -9.5224  XXZ=             -0.0000  XZZ=             -2.5486  YZZ=            -10.0125
  YYZ=             -0.0000  XYZ=              0.0000
 Hexadecapole moment (field-independent basis, Debye-Ang**3):
 XXXX=          -1129.9246 YYYY=          -1694.9458 ZZZZ=            -98.2661 XXXY=           -368.5182
 XXXZ=             -0.0000 YYYX=           -299.5005 YYYZ=             -0.0000 ZZZX=              0.0000
 ZZZY=              0.0000 XXYY=           -436.8603 XXZZ=           -276.3115 YYZZ=           -455.9136
 XXYZ=              0.0000 YYXZ=             -0.0000 ZZXY=           -200.8860
 N-N= 7.835978173138D+02 E-N=-2.804481094156D+03  KE= 5.391520491069D+02
 Symmetry A'   KE= 5.241246418052D+02
 Symmetry A"   KE= 1.502740730171D+01
 Unable to Open any file for archive entry.
 1\1\GINC-GADI-CPU-CLX-2808\SP\RM062X TD-FC\6-311++G(d,p)\C14H11(1+)\TS
 1578\02-Aug-2022\0\\#n M062X/6-311++G(d,p) TD(NStates=1) EmpiricalDisp
 ersion=GD3 SP\\SP_-10\\1,1\C,0,0.,2.704655,1.352431\C,0,0.,3.905508,0.
 683989\C,0,0.,3.753861,-0.62183\C,0,0.,2.215156,-1.335538\C,0,0.,-2.61
 5156,-1.495538\C,0,0.,-3.573861,-0.94183\C,0,0.,-3.545508,0.523989\C,0
 ,0.,-2.384655,1.352431\C,0,0.,0.08,1.513369\C,0,0.,-0.29,-1.369189\C,0
 ,0.,1.184055,0.619065\C,0,0.,1.139471,-0.668804\C,0,0.,-1.364055,0.839
 065\C,0,0.,-1.319471,-0.688804\H,0,0.,2.654071,2.435647\H,0,0.,4.86075
 3,1.177689\H,0,0.,4.579262,-1.356349\H,0,0.,2.26955,-2.418059\H,0,0.,-
 0.25,-2.446266\H,0,0.,-2.44955,-2.578059\H,0,0.,-4.559262,-1.396349\H,
 0,0.,-4.500753,1.037689\H,0,0.,-2.554071,2.435647\H,0,-0.859585,0.44,2
 .205787\H,0,0.859585,0.44,2.205787\\Version=ES64L-G16RevC.01\State=1-A
 '\HF=-539.3569925\RMSD=3.579e-09\PG=CS [SG(C14H9),X(H2)]\\@
 The archive entry for this job was punched.


 IT IS DOUBTED WHETHER A MAN EVER BRINGS HIS FACULTIES TO BEAR WITH THEIR FULL FORCE
 ON A SUBJECT UNTIL HE WRITES UPON IT.

                          -- CICERO
 Job cpu time:       0 days  0 hours 53 minutes 38.0 seconds.
 Elapsed time:       0 days  0 hours  1 minutes  7.2 seconds.
 File lengths (MBytes):  RWF=    460 Int=      0 D2E=      0 Chk=     15 Scr=      1
 Normal termination of Gaussian 16 at Tue Aug  2 11:57:12 2022.
