 Entering Gaussian System, Link 0=g16
 Initial command:
 /apps/gaussian/g16c01/g16/l1.exe "/jobfs/53803424.gadi-pbs/Gau-1803538.inp" -scrdir="/jobfs/53803424.gadi-pbs/"
 Entering Link 1 = /apps/gaussian/g16c01/g16/l1.exe PID=   1803539.
  
 Copyright (c) 1988-2019, Gaussian, Inc.  All Rights Reserved.
  
 This is part of the Gaussian(R) 16 program.  It is based on
 the Gaussian(R) 09 system (copyright 2009, Gaussian, Inc.),
 the Gaussian(R) 03 system (copyright 2003, Gaussian, Inc.),
 the Gaussian(R) 98 system (copyright 1998, Gaussian, Inc.),
 the Gaussian(R) 94 system (copyright 1995, Gaussian, Inc.),
 the Gaussian 92(TM) system (copyright 1992, Gaussian, Inc.),
 the Gaussian 90(TM) system (copyright 1990, Gaussian, Inc.),
 the Gaussian 88(TM) system (copyright 1988, Gaussian, Inc.),
 the Gaussian 86(TM) system (copyright 1986, Carnegie Mellon
 University), and the Gaussian 82(TM) system (copyright 1983,
 Carnegie Mellon University). Gaussian is a federally registered
 trademark of Gaussian, Inc.
  
 This software contains proprietary and confidential information,
 including trade secrets, belonging to Gaussian, Inc.
  
 This software is provided under written license and may be
 used, copied, transmitted, or stored only in accord with that
 written license.
  
 The following legend is applicable only to US Government
 contracts under FAR:
  
                    RESTRICTED RIGHTS LEGEND
  
 Use, reproduction and disclosure by the US Government is
 subject to restrictions as set forth in subparagraphs (a)
 and (c) of the Commercial Computer Software - Restricted
 Rights clause in FAR 52.227-19.
  
 Gaussian, Inc.
 340 Quinnipiac St., Bldg. 40, Wallingford CT 06492
  
  
 ---------------------------------------------------------------
 Warning -- This program may not be used in any manner that
 competes with the business of Gaussian, Inc. or will provide
 assistance to any competitor of Gaussian, Inc.  The licensee
 of this program is prohibited from giving any competitor of
 Gaussian, Inc. access to this program.  By using this program,
 the user acknowledges that Gaussian, Inc. is engaged in the
 business of creating and licensing software in the field of
 computational chemistry and represents and warrants to the
 licensee that it is not a competitor of Gaussian, Inc. and that
 it will not use this program in any manner prohibited above.
 ---------------------------------------------------------------
  

 Cite this work as:
 Gaussian 16, Revision C.01,
 M. J. Frisch, G. W. Trucks, H. B. Schlegel, G. E. Scuseria, 
 M. A. Robb, J. R. Cheeseman, G. Scalmani, V. Barone, 
 G. A. Petersson, H. Nakatsuji, X. Li, M. Caricato, A. V. Marenich, 
 J. Bloino, B. G. Janesko, R. Gomperts, B. Mennucci, H. P. Hratchian, 
 J. V. Ortiz, A. F. Izmaylov, J. L. Sonnenberg, D. Williams-Young, 
 F. Ding, F. Lipparini, F. Egidi, J. Goings, B. Peng, A. Petrone, 
 T. Henderson, D. Ranasinghe, V. G. Zakrzewski, J. Gao, N. Rega, 
 G. Zheng, W. Liang, M. Hada, M. Ehara, K. Toyota, R. Fukuda, 
 J. Hasegawa, M. Ishida, T. Nakajima, Y. Honda, O. Kitao, H. Nakai, 
 T. Vreven, K. Throssell, J. A. Montgomery, Jr., J. E. Peralta, 
 F. Ogliaro, M. J. Bearpark, J. J. Heyd, E. N. Brothers, K. N. Kudin, 
 V. N. Staroverov, T. A. Keith, R. Kobayashi, J. Normand, 
 K. Raghavachari, A. P. Rendell, J. C. Burant, S. S. Iyengar, 
 J. Tomasi, M. Cossi, J. M. Millam, M. Klene, C. Adamo, R. Cammi, 
 J. W. Ochterski, R. L. Martin, K. Morokuma, O. Farkas, 
 J. B. Foresman, and D. J. Fox, Gaussian, Inc., Wallingford CT, 2019.
 
 ******************************************
 Gaussian 16:  ES64L-G16RevC.01  3-Jul-2019
                 2-Aug-2022 
 ******************************************
 %NProcShared=48
 Will use up to   48 processors via shared memory.
 %mem = 190GB
 ---------------------------------------------------------------
 #n M062X/6-311++G(d,p) TD(NStates=1) EmpiricalDispersion=GD3 SP
 ---------------------------------------------------------------
 1/38=1,172=1/1;
 2/12=2,17=6,18=5,40=1/2;
 3/5=4,6=6,7=1111,11=9,25=1,30=1,74=-55,124=31/1,2,3,8;
 4//1;
 5/5=2,38=5/2;
 8/6=1,10=2,108=1/1;
 9/41=1,42=1,70=2/14;
 6/7=2,8=2,9=2,10=2/1;
 99/5=1,9=1/99;
 ------
 SP_-12
 ------
 Symbolic Z-matrix:
 Charge =  1 Multiplicity = 1
 C                     0.        2.65866   1.36443 
 C                     0.        3.90551   0.80199 
 C                     0.        3.80186  -0.48783 
 C                     0.        2.24716  -1.30754 
 C                     0.       -2.72716  -1.49954 
 C                     0.       -3.58586  -0.87183 
 C                     0.       -3.47351   0.60999 
 C                     0.       -2.27466   1.36443 
 C                     0.        0.096     1.42337 
 C                     0.       -0.348    -1.45919 
 C                     0.        1.14805   0.51907 
 C                     0.        1.13347  -0.7448 
 C                     0.       -1.36406   0.78307 
 C                     0.       -1.34947  -0.7688 
 H                     0.        2.49007   2.44765 
 H                     0.        4.83075   1.34769 
 H                     0.        4.64126  -1.19635 
 H                     0.        2.41355  -2.39006 
 H                     0.       -0.3      -2.54227 
 H                     0.       -2.62955  -2.58206 
 H                     0.       -4.61726  -1.24435 
 H                     0.       -4.39875   1.17969 
 H                     0.       -2.37007   2.44765 
 H                    -0.85959   0.528     2.11579 
 H                     0.85959   0.528     2.11579 
 
                          Input orientation:                          
 ---------------------------------------------------------------------
 Center     Atomic      Atomic             Coordinates (Angstroms)
 Number     Number       Type             X           Y           Z
 ---------------------------------------------------------------------
      1          6           0        0.000000    2.658655    1.364431
      2          6           0        0.000000    3.905508    0.801989
      3          6           0        0.000000    3.801861   -0.487830
      4          6           0        0.000000    2.247156   -1.307538
      5          6           0        0.000000   -2.727156   -1.499538
      6          6           0        0.000000   -3.585861   -0.871830
      7          6           0        0.000000   -3.473508    0.609989
      8          6           0        0.000000   -2.274655    1.364431
      9          6           0        0.000000    0.096000    1.423369
     10          6           0        0.000000   -0.348000   -1.459189
     11          6           0        0.000000    1.148055    0.519065
     12          6           0        0.000000    1.133471   -0.744804
     13          6           0        0.000000   -1.364055    0.783065
     14          6           0        0.000000   -1.349471   -0.768804
     15          1           0        0.000000    2.490071    2.447647
     16          1           0        0.000000    4.830753    1.347689
     17          1           0        0.000000    4.641262   -1.196349
     18          1           0        0.000000    2.413550   -2.390059
     19          1           0        0.000000   -0.300000   -2.542266
     20          1           0        0.000000   -2.629550   -2.582059
     21          1           0        0.000000   -4.617262   -1.244349
     22          1           0        0.000000   -4.398753    1.179689
     23          1           0        0.000000   -2.370071    2.447647
     24          1           0       -0.859585    0.528000    2.115787
     25          1           0        0.859585    0.528000    2.115787
 ---------------------------------------------------------------------
                    Distance matrix (angstroms):
                    1          2          3          4          5
     1  C    0.000000
     2  C    1.367839   0.000000
     3  C    2.176647   1.293977   0.000000
     4  C    2.703470   2.683325   1.757563   0.000000
     5  C    6.099941   7.020631   6.606937   4.978016   0.000000
     6  C    6.632861   7.676085   7.397695   5.849267   1.063669
     7  C    6.178398   7.381513   7.357731   6.033482   2.237665
     8  C    4.933310   6.205703   6.352552   5.252256   2.899496
     9  C    2.563333   3.859853   4.169663   3.476395   4.063692
    10  C    4.124658   4.817183   4.262028   2.599583   2.379498
    11  C    1.731056   2.771929   2.838402   2.131784   4.369441
    12  C    2.602894   3.174391   2.680735   1.247784   3.933709
    13  C    4.064503   5.269597   5.319949   4.172705   2.658631
    14  C    4.540459   5.484724   5.158989   3.636751   1.559483
    15  H    1.096256   2.170634   3.215248   3.763034   6.542150
    16  H    2.172163   1.074182   2.104222   3.704754   8.076428
    17  H    3.238568   2.129481   1.098450   2.396687   7.374653
    18  H    3.762482   3.523508   2.354970   1.095235   5.217268
    19  H    4.900604   5.373113   4.587589   2.830646   2.641660
    20  H    6.598477   7.359264   6.763789   5.040502   1.086912
    21  H    7.729470   8.764993   8.453044   6.864709   1.907255
    22  H    7.059826   8.312846   8.368434   7.096084   3.157926
    23  H    5.144069   6.487764   6.834455   5.951487   3.963304
    24  H    2.417253   3.724582   4.270348   3.926008   4.940192
    25  H    2.417253   3.724582   4.270348   3.926008   4.940192
                    6          7          8          9         10
     6  C    0.000000
     7  C    1.486072   0.000000
     8  C    2.592320   1.416486   0.000000
     9  C    4.338668   3.661007   2.371388   0.000000
    10  C    3.290704   3.748373   3.418308   2.916552   0.000000
    11  C    4.934020   4.622457   3.525562   1.387294   2.480256
    12  C    4.721041   4.802054   4.008016   2.403606   1.644720
    13  C    2.770397   2.116541   1.080360   1.594287   2.461721
    14  C    2.238762   2.532312   2.325222   2.625835   1.216378
    15  H    6.923574   6.240293   4.886304   2.603982   4.828873
    16  H    8.704347   8.336963   7.105428   4.735358   5.890505
    17  H    8.233521   8.313384   7.374788   5.246173   4.996181
    18  H    6.188534   6.607400   6.006285   4.462429   2.914220
    19  H    3.686087   4.473015   4.377390   3.985358   1.084140
    20  H    1.959442   3.301732   3.962415   4.844799   2.542894
    21  H    1.096612   2.178702   3.506215   5.415862   4.274664
    22  H    2.206700   1.086571   2.132117   4.501354   4.834488
    23  H    3.535120   2.143493   1.087410   2.670328   4.399107
    24  H    5.156413   4.361007   3.026268   1.185307   3.779777
    25  H    5.156413   4.361007   3.026268   1.185307   3.779777
                   11         12         13         14         15
    11  C    0.000000
    12  C    1.263953   0.000000
    13  C    2.525944   2.927801   0.000000
    14  C    2.810025   2.483058   1.551938   0.000000
    15  H    2.349561   3.468733   4.198228   5.008756   0.000000
    16  H    3.774769   4.248343   6.220486   6.532588   2.586252
    17  H    3.891676   3.536734   6.323125   6.005970   4.231587
    18  H    3.172456   2.084578   4.933459   4.097413   4.838311
    19  H    3.386534   2.299067   3.491424   2.060718   5.716968
    20  H    4.887460   4.187581   3.595210   2.219571   7.176940
    21  H    6.028972   5.772389   3.833244   3.302212   8.009058
    22  H    5.586010   5.857403   3.060507   3.618666   7.004542
    23  H    4.012062   4.739889   1.944968   3.374490   4.860142
    24  H    1.916475   3.047698   2.468786   3.547485   2.167658
    25  H    1.916475   3.047698   2.468786   3.547485   2.167658
                   16         17         18         19         20
    16  H    0.000000
    17  H    2.551085   0.000000
    18  H    4.451250   2.527379   0.000000
    19  H    6.438663   5.121285   2.717815   0.000000
    20  H    8.432025   7.401682   5.046754   2.329890   0.000000
    21  H    9.797124   9.258648   7.123550   4.508141   2.395927
    22  H    9.231035   9.347054   7.690941   5.536490   4.157021
    23  H    7.284351   7.901740   6.803413   5.402261   5.036395
    24  H    4.454497   5.350519   4.959519   4.808527   5.725274
    25  H    4.454497   5.350519   4.959519   4.808527   5.725274
                   21         22         23         24         25
    21  H    0.000000
    22  H    2.433867   0.000000
    23  H    4.322118   2.392335   0.000000
    24  H    6.205088   5.088031   3.041025   0.000000
    25  H    6.205088   5.088031   3.041025   1.719170   0.000000
 Stoichiometry    C14H11(1+)
 Framework group  CS[SG(C14H9),X(H2)]
 Deg. of freedom    46
 Full point group                 CS      NOp   2
 Largest Abelian subgroup         CS      NOp   2
 Largest concise Abelian subgroup CS      NOp   2
                         Standard orientation:                         
 ---------------------------------------------------------------------
 Center     Atomic      Atomic             Coordinates (Angstroms)
 Number     Number       Type             X           Y           Z
 ---------------------------------------------------------------------
      1          6           0        0.146826    2.981395    0.000000
      2          6           0       -0.879937    3.885132    0.000000
      3          6           0       -2.012101    3.258569    0.000000
      4          6           0       -2.117358    1.504160    0.000000
      5          6           0       -0.239973   -3.106270    0.000000
      6          6           0        0.686102   -3.629507    0.000000
      7          6           0        1.989571   -2.915799    0.000000
      8          6           0        2.182192   -1.512471    0.000000
      9          6           0        1.257804    0.671329    0.000000
     10          6           0       -1.184801   -0.922395    0.000000
     11          6           0        0.000000    1.256576    0.000000
     12          6           0       -1.145270    0.721849    0.000000
     13          6           0        1.276920   -0.922843    0.000000
     14          6           0       -0.142730   -1.549822    0.000000
     15          1           0        1.203106    3.274737    0.000000
     16          1           0       -0.764581    4.953102    0.000000
     17          1           0       -3.003824    3.730881    0.000000
     18          1           0       -3.172101    1.209110    0.000000
     19          1           0       -2.191204   -1.325523    0.000000
     20          1           0       -1.266336   -3.463981    0.000000
     21          1           0        0.772298   -4.722727    0.000000
     22          1           0        2.890258   -3.523582    0.000000
     23          1           0        3.208285   -1.152479    0.000000
     24          1           0        1.710311    1.350523    0.859585
     25          1           0        1.710311    1.350523   -0.859585
 ---------------------------------------------------------------------
 Rotational constants (GHZ):           2.1536079           0.4409611           0.3668087
 Standard basis: 6-311++G(d,p) (5D, 7F)
 There are   299 symmetry adapted cartesian basis functions of A'  symmetry.
 There are   100 symmetry adapted cartesian basis functions of A"  symmetry.
 There are   285 symmetry adapted basis functions of A'  symmetry.
 There are   100 symmetry adapted basis functions of A"  symmetry.
   385 basis functions,   603 primitive gaussians,   399 cartesian basis functions
    47 alpha electrons       47 beta electrons
       nuclear repulsion energy       785.8416521955 Hartrees.
 NAtoms=   25 NActive=   25 NUniq=   24 SFac= 1.09D+00 NAtFMM=   60 NAOKFM=F Big=F
 Integral buffers will be    131072 words long.
 Regular integral format.
 Two-electron integral symmetry is turned on.
 Nuclear repulsion after empirical dispersion term =      785.8406980810 Hartrees.
 One-electron integrals computed using PRISM.
 NBasis=   385 RedAO= T EigKep=  1.14D-06  NBF=   285   100
 NBsUse=   379 1.00D-06 EigRej=  6.80D-07 NBFU=   279   100
 ExpMin= 3.60D-02 ExpMax= 4.56D+03 ExpMxC= 6.82D+02 IAcc=3 IRadAn=         5 AccDes= 0.00D+00
 Harris functional with IExCor= 1009 and IRadAn=       5 diagonalized for initial guess.
 HarFok:  IExCor= 1009 AccDes= 0.00D+00 IRadAn=         5 IDoV= 1 UseB2=F ITyADJ=14
 ICtDFT=  3500011 ScaDFX=  1.000000  1.000000  1.000000  1.000000
 FoFCou: FMM=F IPFlag=           0 FMFlag=      100000 FMFlg1=           0
         NFxFlg=           0 DoJE=T BraDBF=F KetDBF=T FulRan=T
         wScrn=  0.000000 ICntrl=       500 IOpCl=  0 I1Cent=   200000004 NGrid=           0
         NMat0=    1 NMatS0=      1 NMatT0=    0 NMatD0=    1 NMtDS0=    0 NMtDT0=    0
 Petite list used in FoFCou.
 Initial guess orbital symmetries:
       Occupied  (A') (A') (A') (A') (A') (A') (A') (A') (A') (A')
                 (A') (A') (A') (A') (A') (A') (A') (A') (A') (A')
                 (A') (A') (A') (A') (A') (A') (A') (A') (A') (A')
                 (A') (A') (A") (A') (A') (A") (A') (A") (A') (A')
                 (A') (A") (A") (A') (A") (A') (A")
       Virtual   (A") (A") (A") (A") (A') (A") (A') (A') (A') (A')
                 (A') (A') (A") (A') (A") (A') (A') (A") (A') (A')
                 (A') (A') (A") (A') (A') (A") (A') (A") (A') (A")
                 (A') (A') (A') (A') (A") (A') (A') (A') (A") (A')
                 (A") (A') (A") (A') (A') (A') (A') (A') (A') (A')
                 (A") (A') (A") (A") (A') (A') (A") (A') (A") (A')
                 (A') (A') (A') (A') (A") (A') (A') (A') (A") (A')
                 (A') (A') (A') (A') (A') (A') (A') (A') (A') (A')
                 (A') (A') (A') (A') (A') (A') (A') (A') (A') (A')
                 (A') (A') (A') (A") (A') (A") (A') (A') (A") (A')
                 (A') (A") (A') (A') (A") (A') (A") (A') (A") (A")
                 (A') (A") (A') (A") (A') (A") (A') (A') (A') (A")
                 (A") (A') (A') (A') (A") (A') (A") (A') (A') (A')
                 (A') (A') (A') (A') (A') (A') (A') (A') (A") (A')
                 (A') (A') (A') (A') (A") (A') (A') (A') (A') (A')
                 (A") (A') (A") (A') (A") (A') (A') (A') (A") (A")
                 (A") (A') (A') (A") (A") (A') (A") (A') (A') (A')
                 (A") (A') (A') (A') (A') (A') (A') (A") (A') (A")
                 (A') (A") (A') (A") (A') (A') (A") (A") (A') (A')
                 (A") (A') (A") (A') (A') (A') (A") (A') (A') (A")
                 (A") (A') (A") (A') (A") (A") (A') (A') (A') (A")
                 (A') (A') (A') (A") (A') (A') (A') (A") (A') (A")
                 (A') (A') (A") (A') (A") (A') (A') (A') (A") (A')
                 (A") (A') (A") (A') (A') (A") (A') (A") (A') (A")
                 (A') (A') (A') (A') (A') (A") (A') (A') (A') (A")
                 (A') (A') (A') (A") (A") (A') (A') (A") (A') (A")
                 (A') (A') (A") (A') (A') (A') (A') (A") (A") (A')
                 (A') (A") (A') (A') (A") (A') (A') (A') (A") (A')
                 (A') (A") (A") (A') (A') (A") (A") (A') (A') (A')
                 (A') (A') (A') (A') (A') (A') (A') (A') (A') (A")
                 (A') (A') (A') (A') (A') (A') (A') (A') (A') (A')
                 (A') (A') (A') (A') (A') (A') (A') (A') (A') (A')
                 (A') (A') (A') (A') (A') (A') (A') (A') (A') (A')
                 (A') (A')
 The electronic state of the initial guess is 1-A'.
 Requested convergence on RMS density matrix=1.00D-08 within 128 cycles.
 Requested convergence on MAX density matrix=1.00D-06.
 Requested convergence on             energy=1.00D-06.
 No special actions if energy rises.
 SCF Done:  E(RM062X) =  -539.158887537     A.U. after   17 cycles
            NFock= 17  Conv=0.60D-08     -V/T= 1.9986
 DoSCS=F DFT=T ScalE2(SS,OS)=  1.000000  1.000000
 ExpMin= 3.60D-02 ExpMax= 4.56D+03 ExpMxC= 6.82D+02 IAcc=3 IRadAn=         5 AccDes= 0.00D+00
 HarFok:  IExCor=  205 AccDes= 0.00D+00 IRadAn=         5 IDoV=-2 UseB2=F ITyADJ=14
 ICtDFT= 12500011 ScaDFX=  1.000000  1.000000  1.000000  1.000000
 Range of M.O.s used for correlation:    15   379
 NBasis=   385 NAE=    47 NBE=    47 NFC=    14 NFV=     0
 NROrb=    365 NOA=    33 NOB=    33 NVA=   332 NVB=   332

 **** Warning!!: The largest alpha MO coefficient is  0.21608662D+03


 **** Warning!!: The smallest alpha delta epsilon is  0.87529188D-01

 Orbital symmetries:
       Occupied  (A') (A') (A') (A') (A') (A') (A') (A') (A') (A')
                 (A') (A') (A') (A') (A') (A') (A') (A') (A') (A')
                 (A') (A') (A') (A') (A') (A') (A') (A') (A') (A')
                 (A') (A") (A') (A') (A") (A') (A') (A') (A") (A')
                 (A") (A') (A") (A') (A") (A') (A")
       Virtual   (A") (A") (A") (A') (A') (A') (A") (A') (A') (A")
                 (A') (A") (A') (A') (A") (A') (A") (A') (A') (A')
                 (A") (A') (A") (A') (A') (A') (A') (A') (A') (A")
                 (A") (A') (A") (A') (A') (A') (A') (A") (A') (A")
                 (A') (A") (A') (A') (A') (A") (A') (A") (A') (A")
                 (A') (A') (A') (A') (A") (A') (A') (A") (A') (A')
                 (A') (A') (A') (A") (A') (A') (A") (A') (A') (A')
                 (A') (A') (A') (A') (A') (A') (A') (A') (A') (A')
                 (A') (A') (A') (A') (A') (A') (A') (A') (A') (A')
                 (A") (A') (A') (A") (A') (A') (A') (A') (A") (A')
                 (A") (A') (A') (A") (A') (A") (A') (A") (A") (A')
                 (A') (A") (A') (A") (A') (A") (A') (A") (A') (A")
                 (A') (A') (A') (A") (A") (A') (A') (A') (A') (A')
                 (A') (A') (A') (A') (A') (A') (A') (A') (A') (A')
                 (A') (A') (A') (A") (A') (A') (A') (A') (A") (A')
                 (A') (A') (A') (A") (A') (A") (A") (A') (A") (A')
                 (A") (A') (A") (A') (A') (A") (A") (A") (A') (A')
                 (A") (A') (A') (A') (A') (A') (A') (A") (A') (A")
                 (A') (A") (A') (A") (A') (A") (A') (A") (A') (A')
                 (A") (A") (A') (A') (A") (A') (A') (A') (A") (A')
                 (A') (A") (A") (A') (A") (A') (A") (A') (A') (A")
                 (A') (A') (A') (A') (A") (A') (A') (A') (A") (A')
                 (A") (A') (A") (A') (A") (A') (A') (A") (A') (A')
                 (A") (A') (A') (A") (A') (A') (A") (A") (A') (A")
                 (A') (A') (A') (A') (A") (A') (A') (A') (A') (A")
                 (A') (A') (A') (A') (A') (A") (A') (A") (A') (A')
                 (A') (A') (A") (A') (A") (A') (A') (A') (A') (A')
                 (A") (A') (A") (A") (A") (A') (A") (A') (A") (A')
                 (A') (A") (A") (A') (A') (A") (A") (A') (A') (A')
                 (A') (A') (A') (A') (A') (A') (A') (A') (A") (A')
                 (A') (A') (A') (A') (A') (A') (A') (A') (A') (A')
                 (A') (A') (A') (A') (A') (A') (A') (A') (A') (A')
                 (A') (A') (A') (A') (A') (A') (A') (A') (A') (A')
                 (A') (A')
     4 initial guesses have been made.
 Convergence on wavefunction:    0.001000000000000
 Iteration     1 Dimension     4 NMult     0 NNew      4
 CISAX will form     4 AO SS matrices at one time.
 Iteration     2 Dimension     6 NMult     4 NNew      2
 Iteration     3 Dimension     8 NMult     6 NNew      2
 Iteration     4 Dimension    10 NMult     8 NNew      2
 Iteration     5 Dimension    12 NMult    10 NNew      2
 Iteration     6 Dimension    14 NMult    12 NNew      2
 ***********************************************************************
 Excited states from <AA,BB:AA,BB> singles matrix:
 ***********************************************************************
 
 Ground to excited state transition densities written to RWF  633
 Ground to excited state transition electric dipole moments (Au):
       state          X           Y           Z        Dip. S.      Osc.
         1        -0.5854      1.7333     -0.0000      3.3471      0.0870
 Ground to excited state transition velocity dipole moments (Au):
       state          X           Y           Z        Dip. S.      Osc.
         1         0.0169     -0.0648      0.0000      0.0045      0.0767
 Ground to excited state transition magnetic dipole moments (Au):
       state          X           Y           Z
         1         0.0000      0.0000     -0.4409
 Ground to excited state transition velocity quadrupole moments (Au):
       state          XX          YY          ZZ          XY          XZ          YZ
         1         0.0195      0.0283     -0.0047     -0.0558      0.0000      0.0000
 <0|del|b> * <b|rxdel|0> + <0|del|b> * <b|delr+rdel|0>
 Rotatory Strengths (R) in cgs (10**-40 erg-esu-cm/Gauss)
       state          XX          YY          ZZ    R(velocity)    E-M Angle
         1        -0.0000     -0.0000     -0.0000     -0.0000       90.00
 1/2[<0|r|b>*<b|rxdel|0> + (<0|rxdel|b>*<b|r|0>)*]
 Rotatory Strengths (R) in cgs (10**-40 erg-esu-cm/Gauss)
       state          XX          YY          ZZ     R(length)
         1         0.0000     -0.0000     -0.0000     -0.0000
  1/2[<0|del|b>*<b|r|0> + (<0|r|b>*<b|del|0>)*] (Au)
       state          X           Y           Z        Dip. S.   Osc.(frdel)
         1        -0.0099     -0.1124     -0.0000      0.1222      0.0815

 Excitation energies and oscillator strengths:
 
 Excited State   1:      Singlet-A'     1.0612 eV 1168.31 nm  f=0.0870  <S**2>=0.000
      47 -> 48         0.71573
      47 <- 48        -0.14762
 This state for optimization and/or second-order correction.
 Total Energy, E(TD-HF/TD-DFT) =  -539.119888181    
 Copying the excited state density for this state as the 1-particle RhoCI density.
 SavETr:  write IOETrn=   770 NScale= 10 NData=  16 NLR=1 NState=    1 LETran=      28.

 **********************************************************************

            Population analysis using the SCF Density.

 **********************************************************************

 Orbital symmetries:
       Occupied  (A') (A') (A') (A') (A') (A') (A') (A') (A') (A')
                 (A') (A') (A') (A') (A') (A') (A') (A') (A') (A')
                 (A') (A') (A') (A') (A') (A') (A') (A') (A') (A')
                 (A') (A") (A') (A') (A") (A') (A') (A') (A") (A')
                 (A") (A') (A") (A') (A") (A') (A")
       Virtual   (A") (A") (A") (A') (A') (A') (A") (A') (A') (A")
                 (A') (A") (A') (A') (A") (A') (A") (A') (A') (A')
                 (A") (A') (A") (A') (A') (A') (A') (A') (A') (A")
                 (A") (A') (A") (A') (A') (A') (A') (A") (A') (A")
                 (A') (A") (A') (A') (A') (A") (A') (A") (A') (A")
                 (A') (A') (A') (A') (A") (A') (A') (A") (A') (A')
                 (A') (A') (A') (A") (A') (A') (A") (A') (A') (A')
                 (A') (A') (A') (A') (A') (A') (A') (A') (A') (A')
                 (A') (A') (A') (A') (A') (A') (A') (A') (A') (A')
                 (A") (A') (A') (A") (A') (A') (A') (A') (A") (A')
                 (A") (A') (A') (A") (A') (A") (A') (A") (A") (A')
                 (A') (A") (A') (A") (A') (A") (A') (A") (A') (A")
                 (A') (A') (A') (A") (A") (A') (A') (A') (A') (A')
                 (A') (A') (A') (A') (A') (A') (A') (A') (A') (A')
                 (A') (A') (A') (A") (A') (A') (A') (A') (A") (A')
                 (A') (A') (A') (A") (A') (A") (A") (A') (A") (A')
                 (A") (A') (A") (A') (A') (A") (A") (A") (A') (A')
                 (A") (A') (A') (A') (A') (A') (A') (A") (A') (A")
                 (A') (A") (A') (A") (A') (A") (A') (A") (A') (A')
                 (A") (A") (A') (A') (A") (A') (A') (A') (A") (A')
                 (A') (A") (A") (A') (A") (A') (A") (A') (A') (A")
                 (A') (A') (A') (A') (A") (A') (A') (A') (A") (A')
                 (A") (A') (A") (A') (A") (A') (A') (A") (A') (A')
                 (A") (A') (A') (A") (A') (A') (A") (A") (A') (A")
                 (A') (A') (A') (A') (A") (A') (A') (A') (A') (A")
                 (A') (A') (A') (A') (A') (A") (A') (A") (A') (A')
                 (A') (A') (A") (A') (A") (A') (A') (A') (A') (A')
                 (A") (A') (A") (A") (A") (A') (A") (A') (A") (A')
                 (A') (A") (A") (A') (A') (A") (A") (A') (A') (A')
                 (A') (A') (A') (A') (A') (A') (A') (A') (A") (A')
                 (A') (A') (A') (A') (A') (A') (A') (A') (A') (A')
                 (A') (A') (A') (A') (A') (A') (A') (A') (A') (A')
                 (A') (A') (A') (A') (A') (A') (A') (A') (A') (A')
                 (A') (A')
 The electronic state is 1-A'.
 Alpha  occ. eigenvalues --  -10.78510 -10.74187 -10.72472 -10.71974 -10.71952
 Alpha  occ. eigenvalues --  -10.70822 -10.70434 -10.69958 -10.69943 -10.69125
 Alpha  occ. eigenvalues --  -10.68916 -10.68296 -10.67946 -10.66593  -1.20732
 Alpha  occ. eigenvalues --   -1.13518  -1.12602  -1.06850  -1.03456  -1.01781
 Alpha  occ. eigenvalues --   -0.95937  -0.87950  -0.86058  -0.84493  -0.83427
 Alpha  occ. eigenvalues --   -0.77606  -0.76445  -0.74524  -0.73481  -0.69885
 Alpha  occ. eigenvalues --   -0.69368  -0.68576  -0.66817  -0.64478  -0.63615
 Alpha  occ. eigenvalues --   -0.63568  -0.62893  -0.59322  -0.58791  -0.56505
 Alpha  occ. eigenvalues --   -0.55224  -0.54924  -0.52663  -0.51923  -0.48321
 Alpha  occ. eigenvalues --   -0.47720  -0.35977
 Alpha virt. eigenvalues --   -0.27224  -0.16140  -0.11797  -0.11550  -0.10350
 Alpha virt. eigenvalues --   -0.09845  -0.09252  -0.07865  -0.07693  -0.07418
 Alpha virt. eigenvalues --   -0.07319  -0.06038  -0.05914  -0.05481  -0.05336
 Alpha virt. eigenvalues --   -0.04686  -0.04024  -0.03685  -0.03251  -0.02187
 Alpha virt. eigenvalues --   -0.01967  -0.01881  -0.00953  -0.00791   0.00262
 Alpha virt. eigenvalues --    0.00437   0.00983   0.01246   0.01503   0.01597
 Alpha virt. eigenvalues --    0.02164   0.02521   0.02846   0.02910   0.03293
 Alpha virt. eigenvalues --    0.03669   0.03868   0.04069   0.05296   0.05378
 Alpha virt. eigenvalues --    0.05698   0.05746   0.05873   0.06237   0.06908
 Alpha virt. eigenvalues --    0.07475   0.07572   0.07884   0.07982   0.08330
 Alpha virt. eigenvalues --    0.08462   0.09018   0.09213   0.09904   0.10023
 Alpha virt. eigenvalues --    0.10107   0.11047   0.11257   0.11292   0.12162
 Alpha virt. eigenvalues --    0.12768   0.12863   0.13362   0.13574   0.14128
 Alpha virt. eigenvalues --    0.14422   0.15989   0.16846   0.17158   0.17301
 Alpha virt. eigenvalues --    0.18030   0.18640   0.19842   0.20583   0.20730
 Alpha virt. eigenvalues --    0.21484   0.22223   0.22836   0.23825   0.24514
 Alpha virt. eigenvalues --    0.24803   0.25710   0.26267   0.27083   0.28570
 Alpha virt. eigenvalues --    0.29844   0.30492   0.31570   0.32157   0.35439
 Alpha virt. eigenvalues --    0.37146   0.37858   0.38492   0.38874   0.39563
 Alpha virt. eigenvalues --    0.40148   0.41778   0.42265   0.43140   0.44007
 Alpha virt. eigenvalues --    0.44197   0.44932   0.45998   0.46290   0.47565
 Alpha virt. eigenvalues --    0.48312   0.48494   0.48945   0.51221   0.51391
 Alpha virt. eigenvalues --    0.51909   0.52198   0.52589   0.53719   0.54602
 Alpha virt. eigenvalues --    0.55506   0.55557   0.58673   0.59040   0.59043
 Alpha virt. eigenvalues --    0.59600   0.61970   0.62333   0.62839   0.63858
 Alpha virt. eigenvalues --    0.64142   0.65126   0.66990   0.67170   0.67353
 Alpha virt. eigenvalues --    0.69946   0.72478   0.73423   0.73836   0.74299
 Alpha virt. eigenvalues --    0.75257   0.75742   0.76832   0.77421   0.78184
 Alpha virt. eigenvalues --    0.79020   0.80286   0.81182   0.81810   0.81854
 Alpha virt. eigenvalues --    0.82678   0.83403   0.84567   0.84716   0.86098
 Alpha virt. eigenvalues --    0.87880   0.89207   0.90389   0.90598   0.93398
 Alpha virt. eigenvalues --    0.94492   0.95640   0.96117   0.99190   1.00286
 Alpha virt. eigenvalues --    1.01925   1.02895   1.03793   1.04523   1.06873
 Alpha virt. eigenvalues --    1.06938   1.08070   1.08755   1.09163   1.12369
 Alpha virt. eigenvalues --    1.15383   1.17736   1.18141   1.19061   1.26578
 Alpha virt. eigenvalues --    1.29566   1.31037   1.34003   1.34380   1.36537
 Alpha virt. eigenvalues --    1.37302   1.38586   1.39874   1.40072   1.40322
 Alpha virt. eigenvalues --    1.44831   1.46530   1.47259   1.47744   1.49513
 Alpha virt. eigenvalues --    1.50685   1.53375   1.53812   1.55559   1.56518
 Alpha virt. eigenvalues --    1.56635   1.57234   1.59529   1.60152   1.60619
 Alpha virt. eigenvalues --    1.63685   1.63777   1.64807   1.66869   1.68835
 Alpha virt. eigenvalues --    1.69669   1.71080   1.72469   1.73943   1.74963
 Alpha virt. eigenvalues --    1.76022   1.77531   1.78701   1.79389   1.79729
 Alpha virt. eigenvalues --    1.83006   1.83851   1.84888   1.84942   1.87437
 Alpha virt. eigenvalues --    1.88451   1.89038   1.89634   1.93366   1.94295
 Alpha virt. eigenvalues --    1.96520   1.97034   1.99718   2.00578   2.02316
 Alpha virt. eigenvalues --    2.03280   2.06487   2.11223   2.11596   2.15324
 Alpha virt. eigenvalues --    2.17219   2.18193   2.19797   2.21108   2.23184
 Alpha virt. eigenvalues --    2.24694   2.28373   2.29342   2.32004   2.32956
 Alpha virt. eigenvalues --    2.36069   2.37284   2.39472   2.42334   2.42831
 Alpha virt. eigenvalues --    2.43111   2.44547   2.49806   2.53111   2.54981
 Alpha virt. eigenvalues --    2.57332   2.58070   2.59781   2.60063   2.61300
 Alpha virt. eigenvalues --    2.62756   2.63519   2.63823   2.64434   2.65522
 Alpha virt. eigenvalues --    2.65881   2.66207   2.67231   2.68258   2.70131
 Alpha virt. eigenvalues --    2.70272   2.72937   2.73746   2.74742   2.76867
 Alpha virt. eigenvalues --    2.77655   2.78418   2.80391   2.84887   2.85352
 Alpha virt. eigenvalues --    2.86333   2.90320   2.93083   2.94020   2.94932
 Alpha virt. eigenvalues --    2.98991   3.01474   3.02585   3.05538   3.08778
 Alpha virt. eigenvalues --    3.10853   3.15805   3.17174   3.27053   3.29911
 Alpha virt. eigenvalues --    3.32838   3.35951   3.40955   3.44657   3.51837
 Alpha virt. eigenvalues --    3.55998   3.62556   3.63934   3.71589   3.72859
 Alpha virt. eigenvalues --    3.73629   3.76800   3.80682   3.85343   3.90002
 Alpha virt. eigenvalues --    3.95937   4.02076   4.04927   4.18440   4.24127
 Alpha virt. eigenvalues --    4.28381   4.44214   4.48700  23.41271  23.48488
 Alpha virt. eigenvalues --   23.52123  23.56096  23.58585  23.81871  23.91559
 Alpha virt. eigenvalues --   23.96512  24.27275  24.38665  24.65583  24.67561
 Alpha virt. eigenvalues --   25.37940  25.45504
          Condensed to atoms (all electrons):
               1          2          3          4          5          6
     1  C   14.045259  -4.902581   1.465681   2.507405  -0.310661  -0.132378
     2  C   -4.902581  11.520472  -1.923375  -1.708026   0.237009  -0.005668
     3  C    1.465681  -1.923375   7.347678   1.332781  -0.187854   0.010347
     4  C    2.507405  -1.708026   1.332781   8.159665  -0.211320  -0.033581
     5  C   -0.310661   0.237009  -0.187854  -0.211320  11.551928   0.763240
     6  C   -0.132378  -0.005668   0.010347  -0.033581   0.763240   6.829295
     7  C    0.029757  -0.036845  -0.014579  -0.158434  -0.800651   0.674685
     8  C    0.278371  -0.138576  -0.039623  -0.064530   0.239850  -0.517804
     9  C   -0.723157  -1.211363   0.294566  -0.712003   0.983246   0.039156
    10  C   -0.859636   0.785264  -0.809922  -0.939126  -2.151629   0.248816
    11  C   -2.070859   0.648479   0.378197  -0.683374  -0.361790  -0.436453
    12  C   -3.702952   3.291216  -1.441515  -0.709852  -1.865059   0.446769
    13  C    0.561711  -0.944162   0.258932  -1.309324  -0.432123  -0.105917
    14  C   -0.815317   0.716984  -0.693945   0.368295  -1.748694  -1.770599
    15  H    0.428777  -0.220468   0.058512   0.027403  -0.011960   0.000756
    16  H   -0.012841   0.356412  -0.010633  -0.009286   0.001290  -0.000094
    17  H   -0.061663   0.041408   0.342933  -0.030476  -0.001490   0.000197
    18  H    0.085896  -0.025666  -0.061783   0.409444   0.013688  -0.004504
    19  H   -0.041861  -0.009907   0.043864  -0.032794  -0.154470   0.033940
    20  H    0.004379   0.003414  -0.004373   0.003334   0.542404  -0.035135
    21  H   -0.002165  -0.000158   0.000438   0.000333  -0.053431   0.394024
    22  H    0.003337   0.000536  -0.000542  -0.002597   0.033652  -0.036192
    23  H    0.000567  -0.004886   0.002751   0.004928  -0.007625   0.000740
    24  H   -0.034522   0.016050  -0.008232  -0.023958   0.003891  -0.001632
    25  H   -0.034522   0.016050  -0.008232  -0.023958   0.003891  -0.001632
               7          8          9         10         11         12
     1  C    0.029757   0.278371  -0.723157  -0.859636  -2.070859  -3.702952
     2  C   -0.036845  -0.138576  -1.211363   0.785264   0.648479   3.291216
     3  C   -0.014579  -0.039623   0.294566  -0.809922   0.378197  -1.441515
     4  C   -0.158434  -0.064530  -0.712003  -0.939126  -0.683374  -0.709852
     5  C   -0.800651   0.239850   0.983246  -2.151629  -0.361790  -1.865059
     6  C    0.674685  -0.517804   0.039156   0.248816  -0.436453   0.446769
     7  C    8.741351   1.039339  -1.511436  -0.400868  -0.534690  -0.720057
     8  C    1.039339   7.011405  -0.521858  -0.303627  -0.161852  -1.196237
     9  C   -1.511436  -0.521858  10.255150  -0.158538   0.086030   0.105636
    10  C   -0.400868  -0.303627  -0.158538   8.230364  -0.758581   1.275831
    11  C   -0.534690  -0.161852   0.086030  -0.758581  11.390147   0.999624
    12  C   -0.720057  -1.196237   0.105636   1.275831   0.999624  12.063793
    13  C   -0.273874   1.065336   1.177343  -0.023070  -1.429999  -2.134358
    14  C    0.130287  -1.120610  -2.630771   1.540432  -1.084900  -0.872361
    15  H    0.004351   0.015709   0.154449  -0.019584  -0.115598  -0.085761
    16  H   -0.000217  -0.000581  -0.009439   0.003297   0.019223   0.011040
    17  H   -0.000368  -0.001131  -0.002539   0.000570   0.014810   0.046966
    18  H    0.000855   0.000933  -0.021026   0.054389   0.026111  -0.157965
    19  H   -0.009435  -0.006182   0.055332   0.422402   0.043465   0.167829
    20  H    0.018067   0.017435  -0.003631  -0.022334   0.003612  -0.100767
    21  H   -0.034422   0.000579   0.001629   0.016125  -0.008828   0.011339
    22  H    0.379694  -0.015695  -0.007301  -0.027121   0.008042  -0.024611
    23  H   -0.078954   0.385870   0.034665   0.012339  -0.037959   0.011124
    24  H    0.014689   0.042166   0.382196   0.010254  -0.068134  -0.017102
    25  H    0.014689   0.042166   0.382196   0.010254  -0.068134  -0.017102
              13         14         15         16         17         18
     1  C    0.561711  -0.815317   0.428777  -0.012841  -0.061663   0.085896
     2  C   -0.944162   0.716984  -0.220468   0.356412   0.041408  -0.025666
     3  C    0.258932  -0.693945   0.058512  -0.010633   0.342933  -0.061783
     4  C   -1.309324   0.368295   0.027403  -0.009286  -0.030476   0.409444
     5  C   -0.432123  -1.748694  -0.011960   0.001290  -0.001490   0.013688
     6  C   -0.105917  -1.770599   0.000756  -0.000094   0.000197  -0.004504
     7  C   -0.273874   0.130287   0.004351  -0.000217  -0.000368   0.000855
     8  C    1.065336  -1.120610   0.015709  -0.000581  -0.001131   0.000933
     9  C    1.177343  -2.630771   0.154449  -0.009439  -0.002539  -0.021026
    10  C   -0.023070   1.540432  -0.019584   0.003297   0.000570   0.054389
    11  C   -1.429999  -1.084900  -0.115598   0.019223   0.014810   0.026111
    12  C   -2.134358  -0.872361  -0.085761   0.011040   0.046966  -0.157965
    13  C   14.856644  -4.707903   0.074313  -0.009322  -0.000815  -0.018754
    14  C   -4.707903  18.445038  -0.030021   0.006174  -0.005475   0.033868
    15  H    0.074313  -0.030021   0.494531  -0.005677   0.000281  -0.001530
    16  H   -0.009322   0.006174  -0.005677   0.421093  -0.001072   0.001455
    17  H   -0.000815  -0.005475   0.000281  -0.001072   0.423816  -0.003577
    18  H   -0.018754   0.033868  -0.001530   0.001455  -0.003577   0.463353
    19  H    0.103176  -0.257859   0.000376  -0.000271   0.000319  -0.011965
    20  H    0.002749  -0.077822  -0.000172   0.000017  -0.000078   0.001336
    21  H    0.000444   0.013277  -0.000018  -0.000002   0.000006  -0.000243
    22  H    0.039227  -0.017750  -0.000175   0.000007  -0.000008   0.000045
    23  H   -0.047314   0.063752   0.000848  -0.000142   0.000053  -0.000289
    24  H    0.046277  -0.029936  -0.000669   0.000672  -0.000085   0.000503
    25  H    0.046277  -0.029936  -0.000669   0.000672  -0.000085   0.000503
              19         20         21         22         23         24
     1  C   -0.041861   0.004379  -0.002165   0.003337   0.000567  -0.034522
     2  C   -0.009907   0.003414  -0.000158   0.000536  -0.004886   0.016050
     3  C    0.043864  -0.004373   0.000438  -0.000542   0.002751  -0.008232
     4  C   -0.032794   0.003334   0.000333  -0.002597   0.004928  -0.023958
     5  C   -0.154470   0.542404  -0.053431   0.033652  -0.007625   0.003891
     6  C    0.033940  -0.035135   0.394024  -0.036192   0.000740  -0.001632
     7  C   -0.009435   0.018067  -0.034422   0.379694  -0.078954   0.014689
     8  C   -0.006182   0.017435   0.000579  -0.015695   0.385870   0.042166
     9  C    0.055332  -0.003631   0.001629  -0.007301   0.034665   0.382196
    10  C    0.422402  -0.022334   0.016125  -0.027121   0.012339   0.010254
    11  C    0.043465   0.003612  -0.008828   0.008042  -0.037959  -0.068134
    12  C    0.167829  -0.100767   0.011339  -0.024611   0.011124  -0.017102
    13  C    0.103176   0.002749   0.000444   0.039227  -0.047314   0.046277
    14  C   -0.257859  -0.077822   0.013277  -0.017750   0.063752  -0.029936
    15  H    0.000376  -0.000172  -0.000018  -0.000175   0.000848  -0.000669
    16  H   -0.000271   0.000017  -0.000002   0.000007  -0.000142   0.000672
    17  H    0.000319  -0.000078   0.000006  -0.000008   0.000053  -0.000085
    18  H   -0.011965   0.001336  -0.000243   0.000045  -0.000289   0.000503
    19  H    0.489449  -0.005987   0.003174  -0.000668   0.001179   0.000494
    20  H   -0.005987   0.434076  -0.012929   0.002924  -0.000340   0.000118
    21  H    0.003174  -0.012929   0.414091  -0.004643   0.001556  -0.000077
    22  H   -0.000668   0.002924  -0.004643   0.391194  -0.002983   0.000562
    23  H    0.001179  -0.000340   0.001556  -0.002983   0.421173  -0.000706
    24  H    0.000494   0.000118  -0.000077   0.000562  -0.000706   0.463238
    25  H    0.000494   0.000118  -0.000077   0.000562  -0.000706  -0.064945
              25
     1  C   -0.034522
     2  C    0.016050
     3  C   -0.008232
     4  C   -0.023958
     5  C    0.003891
     6  C   -0.001632
     7  C    0.014689
     8  C    0.042166
     9  C    0.382196
    10  C    0.010254
    11  C   -0.068134
    12  C   -0.017102
    13  C    0.046277
    14  C   -0.029936
    15  H   -0.000669
    16  H    0.000672
    17  H   -0.000085
    18  H    0.000503
    19  H    0.000494
    20  H    0.000118
    21  H   -0.000077
    22  H    0.000562
    23  H   -0.000706
    24  H   -0.064945
    25  H    0.463238
 Mulliken charges:
               1
     1  C    0.293974
     2  C   -0.501613
     3  C   -0.332073
     4  C   -0.160948
     5  C   -0.075332
     6  C   -0.360377
     7  C   -0.472933
     8  C   -0.050853
     9  C   -0.438532
    10  C   -0.136301
    11  C    0.203409
    12  C    0.614531
    13  C   -0.795493
    14  C    0.575790
    15  H    0.231997
    16  H    0.238228
    17  H    0.237502
    18  H    0.214918
    19  H    0.165905
    20  H    0.229586
    21  H    0.259978
    22  H    0.280504
    23  H    0.240359
    24  H    0.268887
    25  H    0.268887
 Sum of Mulliken charges =   1.00000
 Mulliken charges with hydrogens summed into heavy atoms:
               1
     1  C    0.525971
     2  C   -0.263385
     3  C   -0.094571
     4  C    0.053970
     5  C    0.154254
     6  C   -0.100399
     7  C   -0.192429
     8  C    0.189506
     9  C    0.099242
    10  C    0.029604
    11  C    0.203409
    12  C    0.614531
    13  C   -0.795493
    14  C    0.575790
 Electronic spatial extent (au):  <R**2>=           2866.5177
 Charge=              1.0000 electrons
 Dipole moment (field-independent basis, Debye):
    X=              2.9860    Y=             -4.2450    Z=              0.0000  Tot=              5.1900
 Quadrupole moment (field-independent basis, Debye-Ang):
   XX=            -53.5647   YY=            -29.4156   ZZ=            -83.1699
   XY=            -10.0071   XZ=              0.0000   YZ=              0.0000
 Traceless Quadrupole moment (field-independent basis, Debye-Ang):
   XX=              1.8187   YY=             25.9678   ZZ=            -27.7865
   XY=            -10.0071   XZ=              0.0000   YZ=              0.0000
 Octapole moment (field-independent basis, Debye-Ang**2):
  XXX=             17.4775  YYY=            -31.1555  ZZZ=              0.0000  XYY=             13.5476
  XXY=            -21.6866  XXZ=              0.0000  XZZ=              6.8418  YZZ=             -7.6930
  YYZ=              0.0000  XYZ=             -0.0000
 Hexadecapole moment (field-independent basis, Debye-Ang**3):
 XXXX=           -831.9063 YYYY=          -1938.3329 ZZZZ=            -97.5726 XXXY=            280.3611
 XXXZ=             -0.0000 YYYX=            201.8837 YYYZ=              0.0000 ZZZX=             -0.0000
 ZZZY=             -0.0000 XXYY=           -464.4888 XXZZ=           -202.3495 YYZZ=           -527.1968
 XXYZ=              0.0000 YYXZ=             -0.0000 ZZXY=            147.4298
 N-N= 7.858406980810D+02 E-N=-2.809337141088D+03  KE= 5.399312923564D+02
 Symmetry A'   KE= 5.247268152843D+02
 Symmetry A"   KE= 1.520447707207D+01
 Unable to Open any file for archive entry.
 1\1\GINC-GADI-CPU-CLX-2808\SP\RM062X TD-FC\6-311++G(d,p)\C14H11(1+)\TS
 1578\02-Aug-2022\0\\#n M062X/6-311++G(d,p) TD(NStates=1) EmpiricalDisp
 ersion=GD3 SP\\SP_-12\\1,1\C,0,0.,2.658655,1.364431\C,0,0.,3.905508,0.
 801989\C,0,0.,3.801861,-0.48783\C,0,0.,2.247156,-1.307538\C,0,0.,-2.72
 7156,-1.499538\C,0,0.,-3.585861,-0.87183\C,0,0.,-3.473508,0.609989\C,0
 ,0.,-2.274655,1.364431\C,0,0.,0.096,1.423369\C,0,0.,-0.348,-1.459189\C
 ,0,0.,1.148055,0.519065\C,0,0.,1.133471,-0.744804\C,0,0.,-1.364055,0.7
 83065\C,0,0.,-1.349471,-0.768804\H,0,0.,2.490071,2.447647\H,0,0.,4.830
 753,1.347689\H,0,0.,4.641262,-1.196349\H,0,0.,2.41355,-2.390059\H,0,0.
 ,-0.3,-2.542266\H,0,0.,-2.62955,-2.582059\H,0,0.,-4.617262,-1.244349\H
 ,0,0.,-4.398753,1.179689\H,0,0.,-2.370071,2.447647\H,0,-0.859585,0.528
 ,2.115787\H,0,0.859585,0.528,2.115787\\Version=ES64L-G16RevC.01\State=
 1-A'\HF=-539.1588875\RMSD=6.038e-09\PG=CS [SG(C14H9),X(H2)]\\@
 The archive entry for this job was punched.


 THE PROBLEM WITH THE LADDER OF SUCCESS IS YOU CAN'T
 CLIMB IT WHILE YOU'RE TWIDDLING YOUR THUMBS.
 Job cpu time:       0 days  0 hours 54 minutes 31.8 seconds.
 Elapsed time:       0 days  0 hours  1 minutes  8.4 seconds.
 File lengths (MBytes):  RWF=    460 Int=      0 D2E=      0 Chk=     15 Scr=      1
 Normal termination of Gaussian 16 at Tue Aug  2 11:52:39 2022.
