 Entering Gaussian System, Link 0=g16
 Initial command:
 /apps/gaussian/g16c01/g16/l1.exe "/jobfs/53803424.gadi-pbs/Gau-1814846.inp" -scrdir="/jobfs/53803424.gadi-pbs/"
 Entering Link 1 = /apps/gaussian/g16c01/g16/l1.exe PID=   1814847.
  
 Copyright (c) 1988-2019, Gaussian, Inc.  All Rights Reserved.
  
 This is part of the Gaussian(R) 16 program.  It is based on
 the Gaussian(R) 09 system (copyright 2009, Gaussian, Inc.),
 the Gaussian(R) 03 system (copyright 2003, Gaussian, Inc.),
 the Gaussian(R) 98 system (copyright 1998, Gaussian, Inc.),
 the Gaussian(R) 94 system (copyright 1995, Gaussian, Inc.),
 the Gaussian 92(TM) system (copyright 1992, Gaussian, Inc.),
 the Gaussian 90(TM) system (copyright 1990, Gaussian, Inc.),
 the Gaussian 88(TM) system (copyright 1988, Gaussian, Inc.),
 the Gaussian 86(TM) system (copyright 1986, Carnegie Mellon
 University), and the Gaussian 82(TM) system (copyright 1983,
 Carnegie Mellon University). Gaussian is a federally registered
 trademark of Gaussian, Inc.
  
 This software contains proprietary and confidential information,
 including trade secrets, belonging to Gaussian, Inc.
  
 This software is provided under written license and may be
 used, copied, transmitted, or stored only in accord with that
 written license.
  
 The following legend is applicable only to US Government
 contracts under FAR:
  
                    RESTRICTED RIGHTS LEGEND
  
 Use, reproduction and disclosure by the US Government is
 subject to restrictions as set forth in subparagraphs (a)
 and (c) of the Commercial Computer Software - Restricted
 Rights clause in FAR 52.227-19.
  
 Gaussian, Inc.
 340 Quinnipiac St., Bldg. 40, Wallingford CT 06492
  
  
 ---------------------------------------------------------------
 Warning -- This program may not be used in any manner that
 competes with the business of Gaussian, Inc. or will provide
 assistance to any competitor of Gaussian, Inc.  The licensee
 of this program is prohibited from giving any competitor of
 Gaussian, Inc. access to this program.  By using this program,
 the user acknowledges that Gaussian, Inc. is engaged in the
 business of creating and licensing software in the field of
 computational chemistry and represents and warrants to the
 licensee that it is not a competitor of Gaussian, Inc. and that
 it will not use this program in any manner prohibited above.
 ---------------------------------------------------------------
  

 Cite this work as:
 Gaussian 16, Revision C.01,
 M. J. Frisch, G. W. Trucks, H. B. Schlegel, G. E. Scuseria, 
 M. A. Robb, J. R. Cheeseman, G. Scalmani, V. Barone, 
 G. A. Petersson, H. Nakatsuji, X. Li, M. Caricato, A. V. Marenich, 
 J. Bloino, B. G. Janesko, R. Gomperts, B. Mennucci, H. P. Hratchian, 
 J. V. Ortiz, A. F. Izmaylov, J. L. Sonnenberg, D. Williams-Young, 
 F. Ding, F. Lipparini, F. Egidi, J. Goings, B. Peng, A. Petrone, 
 T. Henderson, D. Ranasinghe, V. G. Zakrzewski, J. Gao, N. Rega, 
 G. Zheng, W. Liang, M. Hada, M. Ehara, K. Toyota, R. Fukuda, 
 J. Hasegawa, M. Ishida, T. Nakajima, Y. Honda, O. Kitao, H. Nakai, 
 T. Vreven, K. Throssell, J. A. Montgomery, Jr., J. E. Peralta, 
 F. Ogliaro, M. J. Bearpark, J. J. Heyd, E. N. Brothers, K. N. Kudin, 
 V. N. Staroverov, T. A. Keith, R. Kobayashi, J. Normand, 
 K. Raghavachari, A. P. Rendell, J. C. Burant, S. S. Iyengar, 
 J. Tomasi, M. Cossi, J. M. Millam, M. Klene, C. Adamo, R. Cammi, 
 J. W. Ochterski, R. L. Martin, K. Morokuma, O. Farkas, 
 J. B. Foresman, and D. J. Fox, Gaussian, Inc., Wallingford CT, 2019.
 
 ******************************************
 Gaussian 16:  ES64L-G16RevC.01  3-Jul-2019
                 2-Aug-2022 
 ******************************************
 %NProcShared=48
 Will use up to   48 processors via shared memory.
 %mem = 190GB
 ---------------------------------------------------------------
 #n M062X/6-311++G(d,p) TD(NStates=1) EmpiricalDispersion=GD3 SP
 ---------------------------------------------------------------
 1/38=1,172=1/1;
 2/12=2,17=6,18=5,40=1/2;
 3/5=4,6=6,7=1111,11=9,25=1,30=1,74=-55,124=31/1,2,3,8;
 4//1;
 5/5=2,38=5/2;
 8/6=1,10=2,108=1/1;
 9/41=1,42=1,70=2/14;
 6/7=2,8=2,9=2,10=2/1;
 99/5=1,9=1/99;
 -----
 SP_-6
 -----
 Symbolic Z-matrix:
 Charge =  1 Multiplicity = 1
 C                     0.        2.64066   1.35243 
 C                     0.        3.83351   0.65199 
 C                     0.        3.71786  -0.68583 
 C                     0.        2.29516  -1.36754 
 C                     0.       -2.53516  -1.46354 
 C                     0.       -3.60986  -0.87783 
 C                     0.       -3.61751   0.55599 
 C                     0.       -2.44866   1.35243 
 C                     0.        0.048     1.51337 
 C                     0.       -0.174    -1.36919 
 C                     0.        1.22006   0.66307 
 C                     0.        1.17547  -0.6728 
 C                     0.       -1.32805   0.79507 
 C                     0.       -1.28347  -0.6848 
 H                     0.        2.63407   2.43565 
 H                     0.        4.78875   1.14969 
 H                     0.        4.57526  -1.36435 
 H                     0.        2.30555  -2.45006 
 H                     0.       -0.15     -2.44627 
 H                     0.       -2.41355  -2.54606 
 H                     0.       -4.56326  -1.38835 
 H                     0.       -4.57275   1.06569 
 H                     0.       -2.57407   2.43565 
 H                    -0.85959   0.264     2.20579 
 H                     0.85959   0.264     2.20579 
 
                          Input orientation:                          
 ---------------------------------------------------------------------
 Center     Atomic      Atomic             Coordinates (Angstroms)
 Number     Number       Type             X           Y           Z
 ---------------------------------------------------------------------
      1          6           0        0.000000    2.640655    1.352431
      2          6           0        0.000000    3.833508    0.651989
      3          6           0        0.000000    3.717861   -0.685830
      4          6           0        0.000000    2.295156   -1.367538
      5          6           0        0.000000   -2.535156   -1.463538
      6          6           0        0.000000   -3.609861   -0.877830
      7          6           0        0.000000   -3.617508    0.555989
      8          6           0        0.000000   -2.448655    1.352431
      9          6           0        0.000000    0.048000    1.513369
     10          6           0        0.000000   -0.174000   -1.369189
     11          6           0        0.000000    1.220055    0.663065
     12          6           0        0.000000    1.175471   -0.672804
     13          6           0        0.000000   -1.328055    0.795065
     14          6           0        0.000000   -1.283471   -0.684804
     15          1           0        0.000000    2.634071    2.435647
     16          1           0        0.000000    4.788753    1.149689
     17          1           0        0.000000    4.575262   -1.364349
     18          1           0        0.000000    2.305550   -2.450059
     19          1           0        0.000000   -0.150000   -2.446266
     20          1           0        0.000000   -2.413550   -2.546059
     21          1           0        0.000000   -4.563262   -1.388349
     22          1           0        0.000000   -4.572753    1.065689
     23          1           0        0.000000   -2.574071    2.435647
     24          1           0       -0.859585    0.264000    2.205787
     25          1           0        0.859585    0.264000    2.205787
 ---------------------------------------------------------------------
                    Distance matrix (angstroms):
                    1          2          3          4          5
     1  C    0.000000
     2  C    1.383299   0.000000
     3  C    2.305402   1.342808   0.000000
     4  C    2.741824   2.538704   1.577598   0.000000
     5  C    5.892258   6.710837   6.301194   4.831266   0.000000
     6  C    6.636491   7.598953   7.330237   5.925288   1.223946
     7  C    6.308639   7.451634   7.439741   6.217681   2.291282
     8  C    5.089310   6.321091   6.494646   5.468270   2.817297
     9  C    2.597645   3.882273   4.278359   3.653674   3.941405
    10  C    3.915290   4.488349   3.951400   2.469157   2.363040
    11  C    1.579028   2.613476   2.838759   2.297649   4.315559
    12  C    2.499668   2.969888   2.542423   1.317706   3.793944
    13  C    4.007657   5.163546   5.258737   4.219539   2.560933
    14  C    4.421435   5.288713   5.001332   3.643171   1.474158
    15  H    1.083236   2.149438   3.304273   3.818256   6.474917
    16  H    2.157644   1.077125   2.125074   3.543227   7.776156
    17  H    3.335206   2.148445   1.093400   2.280108   7.111110
    18  H    3.817227   3.457941   2.259895   1.082571   4.940208
    19  H    4.713582   5.046535   4.249645   2.672535   2.579675
    20  H    6.383041   7.018066   6.407390   4.853949   1.089330
    21  H    7.707678   8.641107   8.310868   6.858450   2.029499
    22  H    7.219105   8.416435   8.473612   7.286204   3.247890
    23  H    5.326042   6.651203   7.023676   6.178478   3.899379
    24  H    2.667507   3.986798   4.585792   4.199182   4.694476
    25  H    2.667507   3.986798   4.585792   4.199182   4.694476
                    6          7          8          9         10
     6  C    0.000000
     7  C    1.433839   0.000000
     8  C    2.514451   1.414403   0.000000
     9  C    4.370101   3.788473   2.501837   0.000000
    10  C    3.470818   3.945131   3.547009   2.891094   0.000000
    11  C    5.069758   4.838748   3.732916   1.448009   2.464436
    12  C    4.789722   4.947987   4.151610   2.459785   1.518560
    13  C    2.829349   2.301902   1.251560   1.552253   2.452721
    14  C    2.334384   2.643349   2.346909   2.569977   1.303575
    15  H    7.068650   6.528044   5.196870   2.745607   4.728852
    16  H    8.639881   8.427200   7.240247   4.754682   5.565399
    17  H    8.199569   8.414819   7.531023   5.364454   4.749264
    18  H    6.120784   6.642209   6.087807   4.561282   2.704893
    19  H    3.798767   4.586627   4.440035   3.964582   1.077344
    20  H    2.052839   3.327494   3.898648   4.747440   2.529942
    21  H    1.081482   2.162152   3.461710   5.448275   4.389304
    22  H    2.168969   1.082722   2.143365   4.642389   5.027689
    23  H    3.471598   2.149855   1.090452   2.779542   4.498568
    24  H    5.025374   4.304280   2.970791   1.124716   3.702862
    25  H    5.025374   4.304280   2.970791   1.124716   3.702862
                   11         12         13         14         15
    11  C    0.000000
    12  C    1.336613   0.000000
    13  C    2.551527   2.902117   0.000000
    14  C    2.843307   2.458971   1.480540   0.000000
    15  H    2.267485   3.433654   4.288351   5.008428   0.000000
    16  H    3.601723   4.046886   6.127079   6.343285   2.509251
    17  H    3.920181   3.469411   6.285875   5.898011   4.267106
    18  H    3.296944   2.106113   4.871747   3.999650   4.896739
    19  H    3.397792   2.214055   3.448774   2.094637   5.619976
    20  H    4.847841   4.048476   3.513034   2.177464   7.091958
    21  H    6.136371   5.783171   3.903058   3.354401   8.150126
    22  H    5.806783   6.005367   3.255964   3.726071   7.335877
    23  H    4.187773   4.870476   2.060113   3.376813   5.208142
    24  H    2.008213   3.139419   2.294267   3.389553   2.531592
    25  H    2.008213   3.139419   2.294267   3.389553   2.531592
                   16         17         18         19         20
    16  H    0.000000
    17  H    2.523086   0.000000
    18  H    4.373155   2.516020   0.000000
    19  H    6.109188   4.847540   2.455553   0.000000
    20  H    8.095167   7.088013   4.720076   2.265749   0.000000
    21  H    9.690295   9.138556   6.950382   4.538289   2.441629
    22  H    9.361883   9.465266   7.724735   5.647528   4.207955
    23  H    7.474280   8.096477   6.905130   5.450614   4.984291
    24  H    4.725211   5.663191   5.155940   4.748882   5.521612
    25  H    4.725211   5.663191   5.155940   4.748882   5.521612
                   21         22         23         24         25
    21  H    0.000000
    22  H    2.454056   0.000000
    23  H    4.310432   2.423121   0.000000
    24  H    6.079404   5.043103   2.974285   0.000000
    25  H    6.079404   5.043103   2.974285   1.719170   0.000000
 Stoichiometry    C14H11(1+)
 Framework group  CS[SG(C14H9),X(H2)]
 Deg. of freedom    46
 Full point group                 CS      NOp   2
 Largest Abelian subgroup         CS      NOp   2
 Largest concise Abelian subgroup CS      NOp   2
                         Standard orientation:                         
 ---------------------------------------------------------------------
 Center     Atomic      Atomic             Coordinates (Angstroms)
 Number     Number       Type             X           Y           Z
 ---------------------------------------------------------------------
      1          6           0        2.485471    1.618325    0.000000
      2          6           0        2.469864    3.001537    0.000000
      3          6           0        1.251231    3.565511    0.000000
      4          6           0       -0.046987    2.669160    0.000000
      5          6           0       -2.529021   -1.475794    0.000000
      6          6           0       -2.554329   -2.699478    0.000000
      7          6           0       -1.313597   -3.418143    0.000000
      8          6           0       -0.041853   -2.799107    0.000000
      9          6           0        1.337664   -0.711975    0.000000
     10          6           0       -1.274590    0.526796    0.000000
     11          6           0        1.181651    0.727605    0.000000
     12          6           0        0.000000    1.352292    0.000000
     13          6           0        0.030847   -1.549661    0.000000
     14          6           0       -1.231513   -0.776068    0.000000
     15          1           0        3.422414    1.074691    0.000000
     16          1           0        3.376229    3.583517    0.000000
     17          1           0        1.088069    4.646669    0.000000
     18          1           0       -0.981435    3.215756    0.000000
     19          1           0       -2.197556    1.082498    0.000000
     20          1           0       -3.408241   -0.832668    0.000000
     21          1           0       -3.470905   -3.273493    0.000000
     22          1           0       -1.345556   -4.500393    0.000000
     23          1           0        0.836079   -3.445885    0.000000
     24          1           0        2.045935   -0.868342    0.859585
     25          1           0        2.045935   -0.868342   -0.859585
 ---------------------------------------------------------------------
 Rotational constants (GHZ):           2.1330561           0.4429081           0.3675495
 Standard basis: 6-311++G(d,p) (5D, 7F)
 There are   299 symmetry adapted cartesian basis functions of A'  symmetry.
 There are   100 symmetry adapted cartesian basis functions of A"  symmetry.
 There are   285 symmetry adapted basis functions of A'  symmetry.
 There are   100 symmetry adapted basis functions of A"  symmetry.
   385 basis functions,   603 primitive gaussians,   399 cartesian basis functions
    47 alpha electrons       47 beta electrons
       nuclear repulsion energy       781.5311146600 Hartrees.
 NAtoms=   25 NActive=   25 NUniq=   24 SFac= 1.09D+00 NAtFMM=   60 NAOKFM=F Big=F
 Integral buffers will be    131072 words long.
 Regular integral format.
 Two-electron integral symmetry is turned on.
 Nuclear repulsion after empirical dispersion term =      781.5301393339 Hartrees.
 One-electron integrals computed using PRISM.
 NBasis=   385 RedAO= T EigKep=  1.28D-06  NBF=   285   100
 NBsUse=   379 1.00D-06 EigRej=  7.25D-07 NBFU=   279   100
 ExpMin= 3.60D-02 ExpMax= 4.56D+03 ExpMxC= 6.82D+02 IAcc=3 IRadAn=         5 AccDes= 0.00D+00
 Harris functional with IExCor= 1009 and IRadAn=       5 diagonalized for initial guess.
 HarFok:  IExCor= 1009 AccDes= 0.00D+00 IRadAn=         5 IDoV= 1 UseB2=F ITyADJ=14
 ICtDFT=  3500011 ScaDFX=  1.000000  1.000000  1.000000  1.000000
 FoFCou: FMM=F IPFlag=           0 FMFlag=      100000 FMFlg1=           0
         NFxFlg=           0 DoJE=T BraDBF=F KetDBF=T FulRan=T
         wScrn=  0.000000 ICntrl=       500 IOpCl=  0 I1Cent=   200000004 NGrid=           0
         NMat0=    1 NMatS0=      1 NMatT0=    0 NMatD0=    1 NMtDS0=    0 NMtDT0=    0
 Petite list used in FoFCou.
 Initial guess orbital symmetries:
       Occupied  (A') (A') (A') (A') (A') (A') (A') (A') (A') (A')
                 (A') (A') (A') (A') (A') (A') (A') (A') (A') (A')
                 (A') (A') (A') (A') (A') (A') (A') (A') (A') (A')
                 (A') (A') (A') (A") (A') (A') (A') (A") (A') (A')
                 (A") (A') (A') (A") (A") (A") (A")
       Virtual   (A") (A") (A") (A") (A") (A') (A') (A') (A') (A")
                 (A') (A") (A') (A') (A') (A") (A') (A') (A') (A')
                 (A') (A") (A') (A") (A') (A") (A') (A') (A") (A')
                 (A') (A') (A') (A') (A") (A') (A') (A') (A") (A')
                 (A") (A') (A') (A") (A') (A') (A') (A') (A') (A")
                 (A') (A") (A') (A") (A') (A') (A') (A") (A') (A")
                 (A') (A') (A') (A') (A') (A') (A") (A') (A') (A")
                 (A') (A') (A') (A') (A') (A') (A') (A') (A') (A')
                 (A') (A') (A') (A') (A') (A') (A') (A') (A') (A')
                 (A') (A') (A') (A') (A') (A") (A') (A') (A") (A')
                 (A") (A') (A") (A') (A') (A") (A') (A") (A") (A')
                 (A") (A') (A") (A') (A') (A") (A') (A') (A") (A")
                 (A') (A") (A') (A') (A') (A") (A') (A') (A") (A')
                 (A') (A') (A') (A') (A') (A') (A') (A") (A') (A')
                 (A') (A') (A') (A') (A') (A') (A") (A') (A') (A')
                 (A") (A') (A") (A') (A") (A') (A") (A') (A') (A")
                 (A') (A") (A') (A") (A") (A") (A') (A') (A') (A')
                 (A") (A') (A') (A') (A') (A') (A") (A') (A') (A')
                 (A") (A') (A') (A") (A") (A') (A") (A') (A') (A")
                 (A") (A') (A') (A') (A") (A') (A') (A") (A') (A')
                 (A") (A") (A") (A') (A') (A") (A') (A") (A") (A')
                 (A') (A') (A") (A') (A') (A") (A') (A') (A") (A')
                 (A") (A') (A') (A') (A") (A') (A') (A') (A") (A')
                 (A") (A') (A') (A") (A') (A') (A") (A') (A") (A')
                 (A") (A') (A') (A') (A") (A') (A') (A') (A') (A")
                 (A') (A') (A') (A") (A") (A') (A') (A") (A') (A')
                 (A") (A') (A') (A') (A") (A') (A') (A') (A") (A')
                 (A") (A') (A') (A') (A") (A") (A') (A') (A") (A")
                 (A') (A') (A") (A') (A") (A") (A') (A') (A') (A')
                 (A') (A') (A') (A') (A') (A') (A') (A') (A') (A')
                 (A') (A') (A') (A") (A') (A') (A') (A') (A') (A')
                 (A') (A') (A') (A') (A') (A') (A') (A') (A') (A')
                 (A') (A') (A') (A') (A') (A') (A') (A') (A') (A')
                 (A') (A')
 The electronic state of the initial guess is 1-A'.
 Requested convergence on RMS density matrix=1.00D-08 within 128 cycles.
 Requested convergence on MAX density matrix=1.00D-06.
 Requested convergence on             energy=1.00D-06.
 No special actions if energy rises.
 SCF Done:  E(RM062X) =  -539.628288636     A.U. after   16 cycles
            NFock= 16  Conv=0.44D-08     -V/T= 2.0029
 DoSCS=F DFT=T ScalE2(SS,OS)=  1.000000  1.000000
 ExpMin= 3.60D-02 ExpMax= 4.56D+03 ExpMxC= 6.82D+02 IAcc=3 IRadAn=         5 AccDes= 0.00D+00
 HarFok:  IExCor=  205 AccDes= 0.00D+00 IRadAn=         5 IDoV=-2 UseB2=F ITyADJ=14
 ICtDFT= 12500011 ScaDFX=  1.000000  1.000000  1.000000  1.000000
 Range of M.O.s used for correlation:    15   379
 NBasis=   385 NAE=    47 NBE=    47 NFC=    14 NFV=     0
 NROrb=    365 NOA=    33 NOB=    33 NVA=   332 NVB=   332

 **** Warning!!: The largest alpha MO coefficient is  0.14216603D+03

 Orbital symmetries:
       Occupied  (A') (A') (A') (A') (A') (A') (A') (A') (A') (A')
                 (A') (A') (A') (A') (A') (A') (A') (A') (A') (A')
                 (A') (A') (A') (A') (A') (A') (A') (A') (A') (A')
                 (A') (A") (A') (A') (A') (A") (A') (A') (A') (A")
                 (A') (A') (A") (A") (A') (A") (A")
       Virtual   (A") (A") (A") (A") (A') (A') (A') (A') (A') (A")
                 (A') (A") (A') (A") (A') (A') (A") (A') (A') (A')
                 (A") (A") (A') (A') (A') (A") (A') (A') (A") (A')
                 (A") (A') (A') (A') (A") (A') (A') (A') (A") (A')
                 (A") (A') (A') (A") (A") (A') (A') (A") (A') (A')
                 (A') (A") (A') (A') (A') (A") (A') (A') (A') (A')
                 (A') (A") (A') (A') (A') (A') (A") (A') (A') (A')
                 (A') (A') (A') (A') (A') (A') (A') (A') (A') (A')
                 (A') (A') (A') (A') (A') (A') (A') (A') (A') (A')
                 (A') (A') (A') (A") (A') (A") (A') (A") (A') (A')
                 (A") (A') (A') (A") (A') (A") (A') (A") (A') (A')
                 (A") (A') (A") (A') (A") (A') (A") (A') (A') (A")
                 (A") (A') (A') (A") (A') (A') (A") (A') (A') (A')
                 (A') (A') (A') (A') (A') (A') (A') (A') (A') (A')
                 (A') (A') (A') (A') (A") (A') (A') (A') (A') (A")
                 (A') (A') (A') (A') (A") (A') (A") (A") (A') (A')
                 (A") (A") (A") (A') (A') (A") (A") (A") (A') (A')
                 (A") (A') (A') (A') (A') (A') (A') (A") (A') (A")
                 (A') (A') (A') (A") (A") (A') (A") (A') (A") (A")
                 (A') (A') (A') (A") (A') (A') (A") (A') (A') (A")
                 (A') (A") (A") (A') (A") (A') (A') (A") (A') (A')
                 (A") (A') (A') (A") (A') (A') (A') (A") (A") (A')
                 (A") (A') (A') (A') (A") (A') (A') (A') (A") (A")
                 (A') (A') (A') (A") (A') (A') (A") (A') (A") (A')
                 (A") (A') (A') (A") (A') (A') (A') (A') (A') (A')
                 (A") (A') (A') (A') (A') (A") (A") (A') (A') (A")
                 (A') (A') (A') (A') (A') (A") (A') (A') (A') (A')
                 (A') (A") (A') (A") (A") (A') (A") (A") (A") (A')
                 (A') (A") (A") (A') (A") (A") (A') (A') (A') (A')
                 (A') (A') (A') (A') (A') (A') (A') (A') (A') (A')
                 (A') (A') (A") (A') (A') (A') (A') (A') (A') (A')
                 (A') (A') (A') (A') (A') (A') (A') (A') (A') (A')
                 (A') (A') (A') (A') (A') (A') (A') (A') (A') (A')
                 (A') (A')
     4 initial guesses have been made.
 Convergence on wavefunction:    0.001000000000000
 Iteration     1 Dimension     4 NMult     0 NNew      4
 CISAX will form     4 AO SS matrices at one time.
 Iteration     2 Dimension     6 NMult     4 NNew      2
 Iteration     3 Dimension     8 NMult     6 NNew      2
 Iteration     4 Dimension    10 NMult     8 NNew      2
 Iteration     5 Dimension    12 NMult    10 NNew      2
 Iteration     6 Dimension    14 NMult    12 NNew      2
 ***********************************************************************
 Excited states from <AA,BB:AA,BB> singles matrix:
 ***********************************************************************
 
 Ground to excited state transition densities written to RWF  633
 Ground to excited state transition electric dipole moments (Au):
       state          X           Y           Z        Dip. S.      Osc.
         1         0.5205      0.2094      0.0000      0.3148      0.0139
 Ground to excited state transition velocity dipole moments (Au):
       state          X           Y           Z        Dip. S.      Osc.
         1        -0.0366     -0.0076     -0.0000      0.0014      0.0140
 Ground to excited state transition magnetic dipole moments (Au):
       state          X           Y           Z
         1         0.0000      0.0000     -0.1051
 Ground to excited state transition velocity quadrupole moments (Au):
       state          XX          YY          ZZ          XY          XZ          YZ
         1        -0.0306      0.1251     -0.0042      0.0236     -0.0000      0.0000
 <0|del|b> * <b|rxdel|0> + <0|del|b> * <b|delr+rdel|0>
 Rotatory Strengths (R) in cgs (10**-40 erg-esu-cm/Gauss)
       state          XX          YY          ZZ    R(velocity)    E-M Angle
         1        -0.0000     -0.0000     -0.0000     -0.0000       90.00
 1/2[<0|r|b>*<b|rxdel|0> + (<0|rxdel|b>*<b|r|0>)*]
 Rotatory Strengths (R) in cgs (10**-40 erg-esu-cm/Gauss)
       state          XX          YY          ZZ     R(length)
         1        -0.0000     -0.0000      0.0000     -0.0000
  1/2[<0|del|b>*<b|r|0> + (<0|r|b>*<b|del|0>)*] (Au)
       state          X           Y           Z        Dip. S.   Osc.(frdel)
         1        -0.0191     -0.0016     -0.0000      0.0206      0.0138

 Excitation energies and oscillator strengths:
 
 Excited State   1:      Singlet-A'     1.8061 eV  686.48 nm  f=0.0139  <S**2>=0.000
      47 -> 48         0.70316
 This state for optimization and/or second-order correction.
 Total Energy, E(TD-HF/TD-DFT) =  -539.561916497    
 Copying the excited state density for this state as the 1-particle RhoCI density.
 SavETr:  write IOETrn=   770 NScale= 10 NData=  16 NLR=1 NState=    1 LETran=      28.

 **********************************************************************

            Population analysis using the SCF Density.

 **********************************************************************

 Orbital symmetries:
       Occupied  (A') (A') (A') (A') (A') (A') (A') (A') (A') (A')
                 (A') (A') (A') (A') (A') (A') (A') (A') (A') (A')
                 (A') (A') (A') (A') (A') (A') (A') (A') (A') (A')
                 (A') (A") (A') (A') (A') (A") (A') (A') (A') (A")
                 (A') (A') (A") (A") (A') (A") (A")
       Virtual   (A") (A") (A") (A") (A') (A') (A') (A') (A') (A")
                 (A') (A") (A') (A") (A') (A') (A") (A') (A') (A')
                 (A") (A") (A') (A') (A') (A") (A') (A') (A") (A')
                 (A") (A') (A') (A') (A") (A') (A') (A') (A") (A')
                 (A") (A') (A') (A") (A") (A') (A') (A") (A') (A')
                 (A') (A") (A') (A') (A') (A") (A') (A') (A') (A')
                 (A') (A") (A') (A') (A') (A') (A") (A') (A') (A')
                 (A') (A') (A') (A') (A') (A') (A') (A') (A') (A')
                 (A') (A') (A') (A') (A') (A') (A') (A') (A') (A')
                 (A') (A') (A') (A") (A') (A") (A') (A") (A') (A')
                 (A") (A') (A') (A") (A') (A") (A') (A") (A') (A')
                 (A") (A') (A") (A') (A") (A') (A") (A') (A') (A")
                 (A") (A') (A') (A") (A') (A') (A") (A') (A') (A')
                 (A') (A') (A') (A') (A') (A') (A') (A') (A') (A')
                 (A') (A') (A') (A') (A") (A') (A') (A') (A') (A")
                 (A') (A') (A') (A') (A") (A') (A") (A") (A') (A')
                 (A") (A") (A") (A') (A') (A") (A") (A") (A') (A')
                 (A") (A') (A') (A') (A') (A') (A') (A") (A') (A")
                 (A') (A') (A') (A") (A") (A') (A") (A') (A") (A")
                 (A') (A') (A') (A") (A') (A') (A") (A') (A') (A")
                 (A') (A") (A") (A') (A") (A') (A') (A") (A') (A')
                 (A") (A') (A') (A") (A') (A') (A') (A") (A") (A')
                 (A") (A') (A') (A') (A") (A') (A') (A') (A") (A")
                 (A') (A') (A') (A") (A') (A') (A") (A') (A") (A')
                 (A") (A') (A') (A") (A') (A') (A') (A') (A') (A')
                 (A") (A') (A') (A') (A') (A") (A") (A') (A') (A")
                 (A') (A') (A') (A') (A') (A") (A') (A') (A') (A')
                 (A') (A") (A') (A") (A") (A') (A") (A") (A") (A')
                 (A') (A") (A") (A') (A") (A") (A') (A') (A') (A')
                 (A') (A') (A') (A') (A') (A') (A') (A') (A') (A')
                 (A') (A') (A") (A') (A') (A') (A') (A') (A') (A')
                 (A') (A') (A') (A') (A') (A') (A') (A') (A') (A')
                 (A') (A') (A') (A') (A') (A') (A') (A') (A') (A')
                 (A') (A')
 The electronic state is 1-A'.
 Alpha  occ. eigenvalues --  -10.75974 -10.75538 -10.75251 -10.72988 -10.72346
 Alpha  occ. eigenvalues --  -10.71576 -10.71277 -10.71107 -10.70338 -10.69682
 Alpha  occ. eigenvalues --  -10.69355 -10.68976 -10.68619 -10.67536  -1.18115
 Alpha  occ. eigenvalues --   -1.12580  -1.08290  -1.06701  -1.01885  -1.00956
 Alpha  occ. eigenvalues --   -0.94702  -0.90247  -0.86519  -0.85438  -0.83653
 Alpha  occ. eigenvalues --   -0.77530  -0.76917  -0.74342  -0.71344  -0.69363
 Alpha  occ. eigenvalues --   -0.68670  -0.67722  -0.66953  -0.65888  -0.63849
 Alpha  occ. eigenvalues --   -0.62315  -0.62031  -0.61303  -0.57985  -0.57933
 Alpha  occ. eigenvalues --   -0.56186  -0.55486  -0.52400  -0.51849  -0.51424
 Alpha  occ. eigenvalues --   -0.46379  -0.39945
 Alpha virt. eigenvalues --   -0.26386  -0.14919  -0.13308  -0.12244  -0.11375
 Alpha virt. eigenvalues --   -0.10211  -0.09589  -0.07768  -0.07605  -0.07563
 Alpha virt. eigenvalues --   -0.07290  -0.06602  -0.05735  -0.05499  -0.05474
 Alpha virt. eigenvalues --   -0.04091  -0.03901  -0.03248  -0.03156  -0.02035
 Alpha virt. eigenvalues --   -0.01405  -0.01058  -0.00068   0.00183   0.00709
 Alpha virt. eigenvalues --    0.01201   0.01281   0.01545   0.01961   0.02149
 Alpha virt. eigenvalues --    0.02451   0.02583   0.03214   0.03426   0.03426
 Alpha virt. eigenvalues --    0.04055   0.04399   0.05071   0.05295   0.05585
 Alpha virt. eigenvalues --    0.05944   0.06157   0.06299   0.07128   0.07464
 Alpha virt. eigenvalues --    0.07536   0.07812   0.07890   0.08397   0.08611
 Alpha virt. eigenvalues --    0.09064   0.09466   0.09712   0.09990   0.10135
 Alpha virt. eigenvalues --    0.11188   0.11488   0.11799   0.12018   0.12930
 Alpha virt. eigenvalues --    0.13232   0.13428   0.13653   0.13933   0.14241
 Alpha virt. eigenvalues --    0.15565   0.16200   0.16391   0.17169   0.17383
 Alpha virt. eigenvalues --    0.18120   0.19360   0.19440   0.20334   0.20711
 Alpha virt. eigenvalues --    0.21353   0.21926   0.22869   0.23511   0.23919
 Alpha virt. eigenvalues --    0.24603   0.25140   0.25883   0.27215   0.27509
 Alpha virt. eigenvalues --    0.29209   0.29681   0.31053   0.31790   0.35880
 Alpha virt. eigenvalues --    0.37224   0.38346   0.39239   0.39395   0.40277
 Alpha virt. eigenvalues --    0.40722   0.42182   0.43180   0.43457   0.44126
 Alpha virt. eigenvalues --    0.44830   0.45059   0.45392   0.46836   0.47305
 Alpha virt. eigenvalues --    0.47794   0.48194   0.49123   0.50472   0.50728
 Alpha virt. eigenvalues --    0.51540   0.52444   0.52447   0.53941   0.54363
 Alpha virt. eigenvalues --    0.54569   0.55150   0.55837   0.57563   0.57972
 Alpha virt. eigenvalues --    0.58617   0.60642   0.62130   0.62363   0.63263
 Alpha virt. eigenvalues --    0.63373   0.63596   0.64571   0.65882   0.69095
 Alpha virt. eigenvalues --    0.69317   0.70544   0.72251   0.73435   0.74150
 Alpha virt. eigenvalues --    0.74801   0.75626   0.76856   0.76990   0.77216
 Alpha virt. eigenvalues --    0.78239   0.78974   0.79270   0.80184   0.80820
 Alpha virt. eigenvalues --    0.81378   0.82692   0.83578   0.84189   0.85300
 Alpha virt. eigenvalues --    0.86045   0.88582   0.89366   0.90461   0.91005
 Alpha virt. eigenvalues --    0.91112   0.92831   0.94640   0.94946   0.96136
 Alpha virt. eigenvalues --    0.96407   0.98901   1.01167   1.02162   1.02702
 Alpha virt. eigenvalues --    1.04508   1.04703   1.06314   1.07997   1.11038
 Alpha virt. eigenvalues --    1.17985   1.19988   1.21888   1.24221   1.27976
 Alpha virt. eigenvalues --    1.32056   1.33226   1.33448   1.35969   1.36447
 Alpha virt. eigenvalues --    1.37442   1.38148   1.39838   1.41591   1.42144
 Alpha virt. eigenvalues --    1.44028   1.45475   1.45745   1.46834   1.48673
 Alpha virt. eigenvalues --    1.49130   1.50211   1.53172   1.53791   1.56142
 Alpha virt. eigenvalues --    1.56439   1.56457   1.56849   1.58271   1.60727
 Alpha virt. eigenvalues --    1.62642   1.63932   1.65340   1.65703   1.68038
 Alpha virt. eigenvalues --    1.68557   1.69441   1.70475   1.74792   1.75517
 Alpha virt. eigenvalues --    1.76504   1.77441   1.79050   1.79862   1.81523
 Alpha virt. eigenvalues --    1.82171   1.82443   1.83368   1.83549   1.85242
 Alpha virt. eigenvalues --    1.85483   1.87653   1.88993   1.89330   1.92320
 Alpha virt. eigenvalues --    1.92862   1.94291   1.96722   1.98412   1.99332
 Alpha virt. eigenvalues --    2.00823   2.03396   2.07091   2.08411   2.11402
 Alpha virt. eigenvalues --    2.14569   2.16148   2.17398   2.19270   2.21978
 Alpha virt. eigenvalues --    2.22179   2.26921   2.31215   2.31820   2.32721
 Alpha virt. eigenvalues --    2.36287   2.39161   2.39581   2.41529   2.42461
 Alpha virt. eigenvalues --    2.45000   2.45714   2.48801   2.53102   2.54259
 Alpha virt. eigenvalues --    2.55710   2.57808   2.57863   2.59016   2.59521
 Alpha virt. eigenvalues --    2.60481   2.60819   2.61961   2.62958   2.64369
 Alpha virt. eigenvalues --    2.64574   2.65008   2.66192   2.66845   2.67104
 Alpha virt. eigenvalues --    2.69113   2.70475   2.71616   2.74009   2.74683
 Alpha virt. eigenvalues --    2.75812   2.76209   2.78985   2.84397   2.84591
 Alpha virt. eigenvalues --    2.84925   2.86745   2.92415   2.95780   2.98974
 Alpha virt. eigenvalues --    3.00843   3.01634   3.03828   3.06712   3.11177
 Alpha virt. eigenvalues --    3.14429   3.16167   3.24466   3.29023   3.31279
 Alpha virt. eigenvalues --    3.32800   3.36331   3.43056   3.47822   3.52091
 Alpha virt. eigenvalues --    3.52982   3.58373   3.59805   3.61887   3.70428
 Alpha virt. eigenvalues --    3.73212   3.89003   3.89556   3.91358   3.96121
 Alpha virt. eigenvalues --    4.02298   4.02630   4.07075   4.11845   4.30468
 Alpha virt. eigenvalues --    4.51975   4.59330   4.62759  23.42789  23.54561
 Alpha virt. eigenvalues --   23.63915  23.65407  23.68113  23.87033  23.89074
 Alpha virt. eigenvalues --   23.91290  24.05360  24.20398  24.23843  24.30032
 Alpha virt. eigenvalues --   24.48716  24.63986
          Condensed to atoms (all electrons):
               1          2          3          4          5          6
     1  C   11.791411  -2.021962   0.681841   3.118541  -0.390152  -0.118664
     2  C   -2.021962   8.254312  -0.806353  -1.650224   0.168749  -0.010639
     3  C    0.681841  -0.806353   7.335111   1.152602  -0.271462   0.027333
     4  C    3.118541  -1.650224   1.152602   9.769506  -0.824634  -0.067863
     5  C   -0.390152   0.168749  -0.271462  -0.824634  14.136769   0.219402
     6  C   -0.118664  -0.010639   0.027333  -0.067863   0.219402   7.075704
     7  C    0.048457  -0.011467  -0.012482  -0.101052  -0.575236   0.460262
     8  C    0.323138   0.009673  -0.092857  -0.151964   2.150017  -0.809102
     9  C   -0.720776  -0.836918   0.403299  -0.556169   0.576171   0.302530
    10  C   -1.636484   0.659850  -0.858300  -1.705175  -3.363499   0.120927
    11  C   -0.752512  -0.506997   1.341175  -0.534021  -1.460535  -0.319698
    12  C   -4.473452   3.042065  -2.161342  -1.542990  -1.424711   0.405272
    13  C    0.718741  -0.640396   0.265129  -1.083462  -2.214548   0.532605
    14  C   -1.035861   0.463089  -0.814947  -0.118907  -1.199106  -1.741342
    15  H    0.403880  -0.126524   0.027883   0.032849  -0.003787   0.000989
    16  H   -0.020701   0.367218  -0.016938  -0.001450  -0.000029  -0.000198
    17  H   -0.057852   0.031147   0.340315  -0.045575  -0.000956   0.000521
    18  H    0.069982  -0.000998  -0.100757   0.451506   0.014101  -0.006925
    19  H   -0.050393  -0.013559   0.072448  -0.022978  -0.153677   0.066412
    20  H    0.004230   0.003386  -0.007662  -0.005056   0.555795  -0.078070
    21  H   -0.001437  -0.000338   0.000602   0.001185  -0.080551   0.391930
    22  H    0.001516   0.000555  -0.000485  -0.002834   0.034496  -0.036044
    23  H    0.002364  -0.002898   0.001240   0.006044   0.019640  -0.004543
    24  H    0.002817   0.009402  -0.003366  -0.013521  -0.003160  -0.001167
    25  H    0.002817   0.009402  -0.003366  -0.013521  -0.003160  -0.001167
               7          8          9         10         11         12
     1  C    0.048457   0.323138  -0.720776  -1.636484  -0.752512  -4.473452
     2  C   -0.011467   0.009673  -0.836918   0.659850  -0.506997   3.042065
     3  C   -0.012482  -0.092857   0.403299  -0.858300   1.341175  -2.161342
     4  C   -0.101052  -0.151964  -0.556169  -1.705175  -0.534021  -1.542990
     5  C   -0.575236   2.150017   0.576171  -3.363499  -1.460535  -1.424711
     6  C    0.460262  -0.809102   0.302530   0.120927  -0.319698   0.405272
     7  C    7.474181   0.850067  -0.849044  -0.243683  -0.211533  -0.500828
     8  C    0.850067   8.273968  -0.431141  -1.265892   0.208261  -1.434846
     9  C   -0.849044  -0.431141   9.290651   0.120267   0.580186  -0.762048
    10  C   -0.243683  -1.265892   0.120267   8.965353  -0.329575   2.417651
    11  C   -0.211533   0.208261   0.580186  -0.329575  11.904645  -0.488238
    12  C   -0.500828  -1.434846  -0.762048   2.417651  -0.488238  13.608734
    13  C   -0.114744  -0.259794   0.807275   0.804793   0.207233  -3.322519
    14  C   -0.144703  -1.803336  -2.374370   1.905643  -3.222141   2.168686
    15  H    0.000035   0.004820   0.081633  -0.014309  -0.051779  -0.062068
    16  H    0.000100  -0.000117   0.001216  -0.000528   0.014659  -0.000973
    17  H   -0.000435  -0.001370  -0.004475   0.009459  -0.011113   0.090141
    18  H    0.001887   0.004786  -0.027932   0.048862  -0.021735  -0.116550
    19  H   -0.014535  -0.045057   0.074087   0.427555   0.083490   0.064236
    20  H    0.014154   0.051050  -0.013032  -0.022630  -0.015852  -0.071223
    21  H   -0.029812  -0.014868  -0.003738   0.022307  -0.005637   0.010098
    22  H    0.385570  -0.014852   0.001712  -0.016658   0.004865  -0.016894
    23  H   -0.095791   0.380461   0.045240  -0.003254  -0.019799   0.007430
    24  H    0.015896   0.042458   0.363687   0.006547  -0.035135  -0.033640
    25  H    0.015896   0.042458   0.363687   0.006547  -0.035135  -0.033640
              13         14         15         16         17         18
     1  C    0.718741  -1.035861   0.403880  -0.020701  -0.057852   0.069982
     2  C   -0.640396   0.463089  -0.126524   0.367218   0.031147  -0.000998
     3  C    0.265129  -0.814947   0.027883  -0.016938   0.340315  -0.100757
     4  C   -1.083462  -0.118907   0.032849  -0.001450  -0.045575   0.451506
     5  C   -2.214548  -1.199106  -0.003787  -0.000029  -0.000956   0.014101
     6  C    0.532605  -1.741342   0.000989  -0.000198   0.000521  -0.006925
     7  C   -0.114744  -0.144703   0.000035   0.000100  -0.000435   0.001887
     8  C   -0.259794  -1.803336   0.004820  -0.000117  -0.001370   0.004786
     9  C    0.807275  -2.374370   0.081633   0.001216  -0.004475  -0.027932
    10  C    0.804793   1.905643  -0.014309  -0.000528   0.009459   0.048862
    11  C    0.207233  -3.222141  -0.051779   0.014659  -0.011113  -0.021735
    12  C   -3.322519   2.168686  -0.062068  -0.000973   0.090141  -0.116550
    13  C   15.034908  -4.269836   0.033195  -0.003354  -0.003006  -0.025158
    14  C   -4.269836  17.746840  -0.015328  -0.000215  -0.000864   0.033949
    15  H    0.033195  -0.015328   0.464815  -0.009005   0.000873  -0.000658
    16  H   -0.003354  -0.000215  -0.009005   0.434499  -0.003779   0.001764
    17  H   -0.003006  -0.000864   0.000873  -0.003779   0.422771  -0.007707
    18  H   -0.025158   0.033949  -0.000658   0.001764  -0.007707   0.479176
    19  H    0.114542  -0.222553   0.000365  -0.000594   0.001190  -0.014340
    20  H   -0.038173  -0.041835  -0.000123   0.000013  -0.000145   0.001822
    21  H   -0.017189   0.069734   0.000004  -0.000006   0.000014  -0.000278
    22  H    0.021007  -0.024760  -0.000121   0.000006  -0.000009   0.000034
    23  H   -0.041001   0.043351   0.000325  -0.000108   0.000035  -0.000179
    24  H    0.028779  -0.044602  -0.000559   0.000659  -0.000159   0.000343
    25  H    0.028779  -0.044602  -0.000559   0.000659  -0.000159   0.000343
              19         20         21         22         23         24
     1  C   -0.050393   0.004230  -0.001437   0.001516   0.002364   0.002817
     2  C   -0.013559   0.003386  -0.000338   0.000555  -0.002898   0.009402
     3  C    0.072448  -0.007662   0.000602  -0.000485   0.001240  -0.003366
     4  C   -0.022978  -0.005056   0.001185  -0.002834   0.006044  -0.013521
     5  C   -0.153677   0.555795  -0.080551   0.034496   0.019640  -0.003160
     6  C    0.066412  -0.078070   0.391930  -0.036044  -0.004543  -0.001167
     7  C   -0.014535   0.014154  -0.029812   0.385570  -0.095791   0.015896
     8  C   -0.045057   0.051050  -0.014868  -0.014852   0.380461   0.042458
     9  C    0.074087  -0.013032  -0.003738   0.001712   0.045240   0.363687
    10  C    0.427555  -0.022630   0.022307  -0.016658  -0.003254   0.006547
    11  C    0.083490  -0.015852  -0.005637   0.004865  -0.019799  -0.035135
    12  C    0.064236  -0.071223   0.010098  -0.016894   0.007430  -0.033640
    13  C    0.114542  -0.038173  -0.017189   0.021007  -0.041001   0.028779
    14  C   -0.222553  -0.041835   0.069734  -0.024760   0.043351  -0.044602
    15  H    0.000365  -0.000123   0.000004  -0.000121   0.000325  -0.000559
    16  H   -0.000594   0.000013  -0.000006   0.000006  -0.000108   0.000659
    17  H    0.001190  -0.000145   0.000014  -0.000009   0.000035  -0.000159
    18  H   -0.014340   0.001822  -0.000278   0.000034  -0.000179   0.000343
    19  H    0.483310  -0.008690   0.003453  -0.000922   0.000875   0.000391
    20  H   -0.008690   0.440160  -0.011020   0.002420   0.000144   0.000065
    21  H    0.003453  -0.011020   0.409443  -0.005940   0.002040  -0.000096
    22  H   -0.000922   0.002420  -0.005940   0.399451  -0.007067   0.000487
    23  H    0.000875   0.000144   0.002040  -0.007067   0.419857  -0.000885
    24  H    0.000391   0.000065  -0.000096   0.000487  -0.000885   0.481899
    25  H    0.000391   0.000065  -0.000096   0.000487  -0.000885  -0.073452
              25
     1  C    0.002817
     2  C    0.009402
     3  C   -0.003366
     4  C   -0.013521
     5  C   -0.003160
     6  C   -0.001167
     7  C    0.015896
     8  C    0.042458
     9  C    0.363687
    10  C    0.006547
    11  C   -0.035135
    12  C   -0.033640
    13  C    0.028779
    14  C   -0.044602
    15  H   -0.000559
    16  H    0.000659
    17  H   -0.000159
    18  H    0.000343
    19  H    0.000391
    20  H    0.000065
    21  H   -0.000096
    22  H    0.000487
    23  H   -0.000885
    24  H   -0.073452
    25  H    0.481899
 Mulliken charges:
               1
     1  C    0.110511
     2  C   -0.389574
     3  C   -0.498663
     4  C   -0.090839
     5  C    0.094064
     6  C   -0.408466
     7  C   -0.361161
     8  C   -0.015961
     9  C   -0.431999
    10  C   -0.055774
    11  C   -0.323078
    12  C    0.631649
    13  C   -0.563805
    14  C    0.688017
    15  H    0.233155
    16  H    0.237202
    17  H    0.241138
    18  H    0.214661
    19  H    0.154552
    20  H    0.240210
    21  H    0.260197
    22  H    0.273979
    23  H    0.247361
    24  H    0.256313
    25  H    0.256313
 Sum of Mulliken charges =   1.00000
 Mulliken charges with hydrogens summed into heavy atoms:
               1
     1  C    0.343666
     2  C   -0.152371
     3  C   -0.257526
     4  C    0.123822
     5  C    0.334274
     6  C   -0.148269
     7  C   -0.087182
     8  C    0.231400
     9  C    0.080627
    10  C    0.098778
    11  C   -0.323078
    12  C    0.631649
    13  C   -0.563805
    14  C    0.688017
 Electronic spatial extent (au):  <R**2>=           2863.9481
 Charge=              1.0000 electrons
 Dipole moment (field-independent basis, Debye):
    X=             -2.0170    Y=             -3.7167    Z=             -0.0000  Tot=              4.2288
 Quadrupole moment (field-independent basis, Debye-Ang):
   XX=            -48.4938   YY=            -36.7792   ZZ=            -83.9443
   XY=             12.8192   XZ=             -0.0000   YZ=              0.0000
 Traceless Quadrupole moment (field-independent basis, Debye-Ang):
   XX=              7.9120   YY=             19.6266   ZZ=            -27.5385
   XY=             12.8192   XZ=             -0.0000   YZ=              0.0000
 Octapole moment (field-independent basis, Debye-Ang**2):
  XXX=            -15.7947  YYY=            -41.5436  ZZZ=             -0.0000  XYY=            -11.5833
  XXY=             -6.9352  XXZ=             -0.0000  XZZ=             -0.7362  YZZ=             -7.2236
  YYZ=             -0.0000  XYZ=              0.0000
 Hexadecapole moment (field-independent basis, Debye-Ang**3):
 XXXX=          -1084.6615 YYYY=          -1749.7224 ZZZZ=            -99.0206 XXXY=           -366.1753
 XXXZ=             -0.0000 YYYX=           -294.3769 YYYZ=              0.0000 ZZZX=             -0.0000
 ZZZY=              0.0000 XXYY=           -444.7898 XXZZ=           -265.5835 YYZZ=           -469.9632
 XXYZ=              0.0000 YYXZ=             -0.0000 ZZXY=           -196.7318
 N-N= 7.815301393339D+02 E-N=-2.799732666223D+03  KE= 5.380419538811D+02
 Symmetry A'   KE= 5.232654415554D+02
 Symmetry A"   KE= 1.477651232570D+01
 Unable to Open any file for archive entry.
 1\1\GINC-GADI-CPU-CLX-2808\SP\RM062X TD-FC\6-311++G(d,p)\C14H11(1+)\TS
 1578\02-Aug-2022\0\\#n M062X/6-311++G(d,p) TD(NStates=1) EmpiricalDisp
 ersion=GD3 SP\\SP_-6\\1,1\C,0,0.,2.640655,1.352431\C,0,0.,3.833508,0.6
 51989\C,0,0.,3.717861,-0.68583\C,0,0.,2.295156,-1.367538\C,0,0.,-2.535
 156,-1.463538\C,0,0.,-3.609861,-0.87783\C,0,0.,-3.617508,0.555989\C,0,
 0.,-2.448655,1.352431\C,0,0.,0.048,1.513369\C,0,0.,-0.174,-1.369189\C,
 0,0.,1.220055,0.663065\C,0,0.,1.175471,-0.672804\C,0,0.,-1.328055,0.79
 5065\C,0,0.,-1.283471,-0.684804\H,0,0.,2.634071,2.435647\H,0,0.,4.7887
 53,1.149689\H,0,0.,4.575262,-1.364349\H,0,0.,2.30555,-2.450059\H,0,0.,
 -0.15,-2.446266\H,0,0.,-2.41355,-2.546059\H,0,0.,-4.563262,-1.388349\H
 ,0,0.,-4.572753,1.065689\H,0,0.,-2.574071,2.435647\H,0,-0.859585,0.264
 ,2.205787\H,0,0.859585,0.264,2.205787\\Version=ES64L-G16RevC.01\State=
 1-A'\HF=-539.6282886\RMSD=4.422e-09\PG=CS [SG(C14H9),X(H2)]\\@
 The archive entry for this job was punched.


 IF YOU'RE NOT PART OF THE SOLUTION,
 THEN YOU'RE PART OF THE PRECIPITATE.
 Job cpu time:       0 days  0 hours 53 minutes 20.6 seconds.
 Elapsed time:       0 days  0 hours  1 minutes  7.0 seconds.
 File lengths (MBytes):  RWF=    460 Int=      0 D2E=      0 Chk=     15 Scr=      1
 Normal termination of Gaussian 16 at Tue Aug  2 12:13:03 2022.
