 Entering Gaussian System, Link 0=g16
 Initial command:
 /apps/gaussian/g16c01/g16/l1.exe "/jobfs/53803424.gadi-pbs/Gau-1860634.inp" -scrdir="/jobfs/53803424.gadi-pbs/"
 Entering Link 1 = /apps/gaussian/g16c01/g16/l1.exe PID=   1860635.
  
 Copyright (c) 1988-2019, Gaussian, Inc.  All Rights Reserved.
  
 This is part of the Gaussian(R) 16 program.  It is based on
 the Gaussian(R) 09 system (copyright 2009, Gaussian, Inc.),
 the Gaussian(R) 03 system (copyright 2003, Gaussian, Inc.),
 the Gaussian(R) 98 system (copyright 1998, Gaussian, Inc.),
 the Gaussian(R) 94 system (copyright 1995, Gaussian, Inc.),
 the Gaussian 92(TM) system (copyright 1992, Gaussian, Inc.),
 the Gaussian 90(TM) system (copyright 1990, Gaussian, Inc.),
 the Gaussian 88(TM) system (copyright 1988, Gaussian, Inc.),
 the Gaussian 86(TM) system (copyright 1986, Carnegie Mellon
 University), and the Gaussian 82(TM) system (copyright 1983,
 Carnegie Mellon University). Gaussian is a federally registered
 trademark of Gaussian, Inc.
  
 This software contains proprietary and confidential information,
 including trade secrets, belonging to Gaussian, Inc.
  
 This software is provided under written license and may be
 used, copied, transmitted, or stored only in accord with that
 written license.
  
 The following legend is applicable only to US Government
 contracts under FAR:
  
                    RESTRICTED RIGHTS LEGEND
  
 Use, reproduction and disclosure by the US Government is
 subject to restrictions as set forth in subparagraphs (a)
 and (c) of the Commercial Computer Software - Restricted
 Rights clause in FAR 52.227-19.
  
 Gaussian, Inc.
 340 Quinnipiac St., Bldg. 40, Wallingford CT 06492
  
  
 ---------------------------------------------------------------
 Warning -- This program may not be used in any manner that
 competes with the business of Gaussian, Inc. or will provide
 assistance to any competitor of Gaussian, Inc.  The licensee
 of this program is prohibited from giving any competitor of
 Gaussian, Inc. access to this program.  By using this program,
 the user acknowledges that Gaussian, Inc. is engaged in the
 business of creating and licensing software in the field of
 computational chemistry and represents and warrants to the
 licensee that it is not a competitor of Gaussian, Inc. and that
 it will not use this program in any manner prohibited above.
 ---------------------------------------------------------------
  

 Cite this work as:
 Gaussian 16, Revision C.01,
 M. J. Frisch, G. W. Trucks, H. B. Schlegel, G. E. Scuseria, 
 M. A. Robb, J. R. Cheeseman, G. Scalmani, V. Barone, 
 G. A. Petersson, H. Nakatsuji, X. Li, M. Caricato, A. V. Marenich, 
 J. Bloino, B. G. Janesko, R. Gomperts, B. Mennucci, H. P. Hratchian, 
 J. V. Ortiz, A. F. Izmaylov, J. L. Sonnenberg, D. Williams-Young, 
 F. Ding, F. Lipparini, F. Egidi, J. Goings, B. Peng, A. Petrone, 
 T. Henderson, D. Ranasinghe, V. G. Zakrzewski, J. Gao, N. Rega, 
 G. Zheng, W. Liang, M. Hada, M. Ehara, K. Toyota, R. Fukuda, 
 J. Hasegawa, M. Ishida, T. Nakajima, Y. Honda, O. Kitao, H. Nakai, 
 T. Vreven, K. Throssell, J. A. Montgomery, Jr., J. E. Peralta, 
 F. Ogliaro, M. J. Bearpark, J. J. Heyd, E. N. Brothers, K. N. Kudin, 
 V. N. Staroverov, T. A. Keith, R. Kobayashi, J. Normand, 
 K. Raghavachari, A. P. Rendell, J. C. Burant, S. S. Iyengar, 
 J. Tomasi, M. Cossi, J. M. Millam, M. Klene, C. Adamo, R. Cammi, 
 J. W. Ochterski, R. L. Martin, K. Morokuma, O. Farkas, 
 J. B. Foresman, and D. J. Fox, Gaussian, Inc., Wallingford CT, 2019.
 
 ******************************************
 Gaussian 16:  ES64L-G16RevC.01  3-Jul-2019
                 2-Aug-2022 
 ******************************************
 %NProcShared=48
 Will use up to   48 processors via shared memory.
 %mem = 190GB
 ---------------------------------------------------------------
 #n M062X/6-311++G(d,p) TD(NStates=1) EmpiricalDispersion=GD3 SP
 ---------------------------------------------------------------
 1/38=1,172=1/1;
 2/12=2,17=6,18=5,40=1/2;
 3/5=4,6=6,7=1111,11=9,25=1,30=1,74=-55,124=31/1,2,3,8;
 4//1;
 5/5=2,38=5/2;
 8/6=1,10=2,108=1/1;
 9/41=1,42=1,70=2/14;
 6/7=2,8=2,9=2,10=2/1;
 99/5=1,9=1/99;
 -----
 SP_14
 -----
 Symbolic Z-matrix:
 Charge =  1 Multiplicity = 1
 C                     0.        2.21666   1.36843 
 C                     0.        3.42551   0.62799 
 C                     0.        3.57786  -0.86983 
 C                     0.        2.79116  -1.51154 
 C                     0.       -2.23116  -1.28754 
 C                     0.       -3.82986  -0.42183 
 C                     0.       -3.92951   0.85199 
 C                     0.       -2.66466   1.36843 
 C                     0.       -0.112     1.39337 
 C                     0.        0.406    -1.48919 
 C                     0.        1.37606   0.77907 
 C                     0.        1.37147  -0.7968 
 C                     0.       -1.12405   0.47107 
 C                     0.       -1.11947  -0.7688 
 H                     0.        2.30207   2.45165 
 H                     0.        4.34075   1.21769 
 H                     0.        4.63526  -1.19635 
 H                     0.        2.70155  -2.59406 
 H                     0.        0.35     -2.57427 
 H                     0.       -2.44955  -2.37006 
 H                     0.       -4.66326  -1.14035 
 H                     0.       -4.84475   1.41369 
 H                     0.       -2.44207   2.45165 
 H                    -0.85959  -0.616     2.08579 
 H                     0.85959  -0.616     2.08579 
 
                          Input orientation:                          
 ---------------------------------------------------------------------
 Center     Atomic      Atomic             Coordinates (Angstroms)
 Number     Number       Type             X           Y           Z
 ---------------------------------------------------------------------
      1          6           0        0.000000    2.216655    1.368431
      2          6           0        0.000000    3.425508    0.627989
      3          6           0        0.000000    3.577861   -0.869830
      4          6           0        0.000000    2.791156   -1.511538
      5          6           0        0.000000   -2.231156   -1.287538
      6          6           0        0.000000   -3.829861   -0.421830
      7          6           0        0.000000   -3.929508    0.851989
      8          6           0        0.000000   -2.664655    1.368431
      9          6           0        0.000000   -0.112000    1.393369
     10          6           0        0.000000    0.406000   -1.489189
     11          6           0        0.000000    1.376055    0.779065
     12          6           0        0.000000    1.371471   -0.796804
     13          6           0        0.000000   -1.124055    0.471065
     14          6           0        0.000000   -1.119471   -0.768804
     15          1           0        0.000000    2.302071    2.451647
     16          1           0        0.000000    4.340753    1.217689
     17          1           0        0.000000    4.635262   -1.196349
     18          1           0        0.000000    2.701550   -2.594059
     19          1           0        0.000000    0.350000   -2.574266
     20          1           0        0.000000   -2.449550   -2.370059
     21          1           0        0.000000   -4.663262   -1.140349
     22          1           0        0.000000   -4.844753    1.413689
     23          1           0        0.000000   -2.442071    2.451647
     24          1           0       -0.859585   -0.616000    2.085787
     25          1           0        0.859585   -0.616000    2.085787
 ---------------------------------------------------------------------
                    Distance matrix (angstroms):
                    1          2          3          4          5
     1  C    0.000000
     2  C    1.417597   0.000000
     3  C    2.619674   1.505547   0.000000
     4  C    2.936711   2.231586   1.015231   0.000000
     5  C    5.180463   5.972193   5.824016   5.027305   0.000000
     6  C    6.305981   7.330928   7.421257   6.710092   1.818051
     7  C    6.167822   7.358426   7.702289   7.124155   2.731662
     8  C    4.881310   6.135009   6.631653   6.169286   2.691114
     9  C    2.328789   3.619360   4.328642   4.106921   3.417321
    10  C    3.382967   3.687800   3.231765   2.385261   2.644854
    11  C    1.026626   2.055014   2.750783   2.692466   4.157261
    12  C    2.324345   2.499821   2.207598   1.589450   3.635896
    13  C    3.459134   4.552269   4.889378   4.388575   2.078066
    14  C    3.962008   4.754773   4.698418   3.980535   1.226755
    15  H    1.086578   2.141924   3.558068   3.993249   5.876364
    16  H    2.129440   1.088770   2.222553   3.138460   7.033218
    17  H    3.525302   2.188998   1.106667   1.870848   6.867023
    18  H    3.992048   3.302379   1.934137   1.086223   5.102802
    19  H    4.362254   4.439953   3.650231   2.662449   2.884100
    20  H    5.979112   6.595802   6.211310   5.310561   1.104331
    21  H    7.323062   8.279808   8.245562   7.463654   2.436556
    22  H    7.061553   8.307499   8.726677   8.177045   3.758659
    23  H    4.783000   6.144446   6.875448   6.564564   3.745129
    24  H    3.045886   4.381535   5.202214   5.028752   3.837569
    25  H    3.045886   4.381535   5.202214   5.028752   3.837569
                    6          7          8          9         10
     6  C    0.000000
     7  C    1.277711   0.000000
     8  C    2.136057   1.366223   0.000000
     9  C    4.137323   3.855705   2.552777   0.000000
    10  C    4.368269   4.927245   4.194629   2.928731   0.000000
    11  C    5.342631   5.306064   4.083465   1.609869   2.466978
    12  C    5.214831   5.551477   4.580235   2.645287   1.188079
    13  C    2.849324   2.831196   1.782895   1.369270   2.486697
    14  C    2.732509   3.243960   2.637303   2.385370   1.687014
    15  H    6.771814   6.433621   5.083476   2.635847   4.373245
    16  H    8.333484   8.278342   7.007030   4.456217   4.775926
    17  H    8.500482   8.806303   7.737369   5.407692   4.239388
    18  H    6.883161   7.473030   6.670643   4.880128   2.547604
    19  H    4.701512   5.482099   4.963165   3.994443   1.086521
    20  H    2.387646   3.545683   3.744673   4.430297   2.988327
    21  H    1.100376   2.123159   3.207555   5.209003   5.081250
    22  H    2.097412   1.073862   2.180568   4.732797   5.999759
    23  H    3.191055   2.184348   1.105848   2.559137   4.862273
    24  H    4.166045   3.638747   2.334625   1.213402   3.816258
    25  H    4.166045   3.638747   2.334625   1.213402   3.816258
                   11         12         13         14         15
    11  C    0.000000
    12  C    1.575876   0.000000
    13  C    2.519011   2.799132   0.000000
    14  C    2.936588   2.491099   1.239877   0.000000
    15  H    1.911815   3.379120   3.957404   4.698750   0.000000
    16  H    2.996969   3.588150   5.515576   5.810353   2.383039
    17  H    3.811127   3.288156   5.995832   5.770593   4.330318
    18  H    3.624211   2.235897   4.902065   4.234591   5.061495
    19  H    3.506796   2.050067   3.383324   2.327883   5.391696
    20  H    4.955021   4.132231   3.135111   2.081617   6.769546
    21  H    6.336995   6.044504   3.888784   3.563215   7.836983
    22  H    6.253095   6.597554   3.838246   4.317523   7.221804
    23  H    4.168407   5.009545   2.379048   3.481462   4.744142
    24  H    2.532724   3.605310   1.898508   3.023418   3.063964
    25  H    2.532724   3.605310   1.898508   3.023418   3.063964
                   16         17         18         19         20
    16  H    0.000000
    17  H    2.431936   0.000000
    18  H    4.149266   2.385966   0.000000
    19  H    5.505001   4.501347   2.351633   0.000000
    20  H    7.679854   7.181376   5.155968   2.806988   0.000000
    21  H    9.307665   9.298693   7.506912   5.214299   2.532332
    22  H    9.187597   9.832751   8.544515   6.548988   4.478141
    23  H    6.894154   7.962193   7.205275   5.749388   4.821712
    24  H    5.105084   6.251964   5.800516   4.836128   4.894421
    25  H    5.105084   6.251964   5.800516   4.836128   4.894421
                   21         22         23         24         25
    21  H    0.000000
    22  H    2.560478   0.000000
    23  H    4.223284   2.617296   0.000000
    24  H    5.246634   4.367259   2.051164   0.000000
    25  H    5.246634   4.367259   2.051164   1.719170   0.000000
 Stoichiometry    C14H11(1+)
 Framework group  CS[SG(C14H9),X(H2)]
 Deg. of freedom    46
 Full point group                 CS      NOp   2
 Largest Abelian subgroup         CS      NOp   2
 Largest concise Abelian subgroup CS      NOp   2
                         Standard orientation:                         
 ---------------------------------------------------------------------
 Center     Atomic      Atomic             Coordinates (Angstroms)
 Number     Number       Type             X           Y           Z
 ---------------------------------------------------------------------
      1          6           0       -2.119680   -1.518987    0.000000
      2          6           0       -1.904442   -2.920148    0.000000
      3          6           0       -0.582132   -3.639987    0.000000
      4          6           0        0.313921   -3.162720    0.000000
      5          6           0        2.049943    1.555332    0.000000
      6          6           0        1.869981    3.364454    0.000000
      7          6           0        0.733850    3.949048    0.000000
      8          6           0       -0.231631    2.982397    0.000000
      9          6           0       -1.241973    0.638068    0.000000
     10          6           0        1.215870   -0.954563    0.000000
     11          6           0       -1.251049   -0.971775    0.000000
     12          6           0        0.203939   -1.577080    0.000000
     13          6           0        0.000000    1.214613    0.000000
     14          6           0        1.141593    0.730815    0.000000
     15          1           0       -3.151624   -1.178776    0.000000
     16          1           0       -2.802253   -3.536066    0.000000
     17          1           0       -0.690020   -4.741382    0.000000
     18          1           0        1.346845   -3.498799    0.000000
     19          1           0        2.238153   -1.322620    0.000000
     20          1           0        3.132682    1.338018    0.000000
     21          1           0        2.854928    3.855072    0.000000
     22          1           0        0.569877    5.010317    0.000000
     23          1           0       -1.316630    3.196116    0.000000
     24          1           0       -1.685555    1.370662    0.859585
     25          1           0       -1.685555    1.370662   -0.859585
 ---------------------------------------------------------------------
 Rotational constants (GHZ):           2.1585811           0.4397728           0.3661294
 Standard basis: 6-311++G(d,p) (5D, 7F)
 There are   299 symmetry adapted cartesian basis functions of A'  symmetry.
 There are   100 symmetry adapted cartesian basis functions of A"  symmetry.
 There are   285 symmetry adapted basis functions of A'  symmetry.
 There are   100 symmetry adapted basis functions of A"  symmetry.
   385 basis functions,   603 primitive gaussians,   399 cartesian basis functions
    47 alpha electrons       47 beta electrons
       nuclear repulsion energy       787.4348968316 Hartrees.
 NAtoms=   25 NActive=   25 NUniq=   24 SFac= 1.09D+00 NAtFMM=   60 NAOKFM=F Big=F
 Integral buffers will be    131072 words long.
 Regular integral format.
 Two-electron integral symmetry is turned on.
 Nuclear repulsion after empirical dispersion term =      787.4339521124 Hartrees.
 One-electron integrals computed using PRISM.
 NBasis=   385 RedAO= T EigKep=  1.16D-06  NBF=   285   100
 NBsUse=   379 1.00D-06 EigRej=  6.43D-07 NBFU=   279   100
 ExpMin= 3.60D-02 ExpMax= 4.56D+03 ExpMxC= 6.82D+02 IAcc=3 IRadAn=         5 AccDes= 0.00D+00
 Harris functional with IExCor= 1009 and IRadAn=       5 diagonalized for initial guess.
 HarFok:  IExCor= 1009 AccDes= 0.00D+00 IRadAn=         5 IDoV= 1 UseB2=F ITyADJ=14
 ICtDFT=  3500011 ScaDFX=  1.000000  1.000000  1.000000  1.000000
 FoFCou: FMM=F IPFlag=           0 FMFlag=      100000 FMFlg1=           0
         NFxFlg=           0 DoJE=T BraDBF=F KetDBF=T FulRan=T
         wScrn=  0.000000 ICntrl=       500 IOpCl=  0 I1Cent=   200000004 NGrid=           0
         NMat0=    1 NMatS0=      1 NMatT0=    0 NMatD0=    1 NMtDS0=    0 NMtDT0=    0
 Petite list used in FoFCou.
 Initial guess orbital symmetries:
       Occupied  (A') (A') (A') (A') (A') (A') (A') (A') (A') (A')
                 (A') (A') (A') (A') (A') (A') (A') (A') (A') (A')
                 (A') (A') (A') (A') (A') (A') (A') (A') (A') (A')
                 (A') (A") (A') (A") (A') (A') (A") (A') (A') (A')
                 (A') (A") (A") (A') (A") (A') (A")
       Virtual   (A") (A") (A") (A') (A") (A") (A') (A') (A') (A')
                 (A') (A') (A") (A') (A') (A") (A') (A') (A") (A')
                 (A') (A') (A") (A') (A') (A") (A') (A") (A') (A")
                 (A') (A') (A') (A') (A") (A') (A') (A') (A') (A")
                 (A") (A') (A") (A') (A') (A') (A') (A') (A') (A')
                 (A") (A') (A") (A") (A') (A') (A') (A") (A") (A')
                 (A') (A') (A') (A') (A") (A') (A') (A') (A") (A')
                 (A') (A') (A') (A') (A') (A') (A') (A') (A') (A')
                 (A') (A') (A') (A') (A') (A') (A') (A') (A') (A')
                 (A') (A') (A") (A') (A') (A") (A') (A") (A') (A')
                 (A') (A") (A') (A") (A') (A") (A') (A") (A') (A")
                 (A') (A") (A") (A') (A') (A") (A') (A') (A") (A')
                 (A") (A') (A') (A") (A') (A") (A') (A') (A') (A')
                 (A') (A') (A') (A') (A') (A') (A') (A') (A') (A")
                 (A') (A') (A') (A") (A') (A') (A') (A') (A') (A")
                 (A') (A') (A") (A') (A") (A') (A') (A') (A") (A")
                 (A") (A') (A") (A') (A") (A') (A") (A') (A') (A')
                 (A") (A') (A') (A') (A') (A') (A') (A") (A") (A')
                 (A") (A') (A') (A") (A') (A") (A") (A') (A') (A')
                 (A") (A") (A') (A') (A') (A') (A") (A') (A") (A')
                 (A") (A') (A") (A') (A") (A") (A') (A') (A') (A")
                 (A') (A') (A') (A") (A') (A') (A') (A") (A') (A')
                 (A") (A') (A") (A') (A") (A') (A') (A') (A") (A')
                 (A") (A') (A") (A') (A') (A") (A') (A") (A') (A")
                 (A') (A') (A') (A') (A') (A") (A') (A') (A') (A")
                 (A') (A') (A') (A") (A") (A') (A') (A") (A") (A')
                 (A') (A") (A') (A') (A') (A') (A") (A') (A") (A')
                 (A") (A') (A') (A') (A") (A') (A') (A") (A') (A')
                 (A') (A") (A') (A") (A") (A') (A") (A') (A') (A')
                 (A') (A') (A') (A') (A') (A') (A') (A") (A') (A')
                 (A') (A') (A') (A') (A') (A') (A') (A') (A') (A')
                 (A') (A') (A') (A') (A') (A') (A') (A') (A') (A')
                 (A') (A') (A') (A') (A') (A') (A') (A') (A') (A')
                 (A') (A')
 The electronic state of the initial guess is 1-A'.
 Requested convergence on RMS density matrix=1.00D-08 within 128 cycles.
 Requested convergence on MAX density matrix=1.00D-06.
 Requested convergence on             energy=1.00D-06.
 No special actions if energy rises.
 SCF Done:  E(RM062X) =  -538.903013259     A.U. after   19 cycles
            NFock= 19  Conv=0.85D-08     -V/T= 1.9965
 DoSCS=F DFT=T ScalE2(SS,OS)=  1.000000  1.000000
 ExpMin= 3.60D-02 ExpMax= 4.56D+03 ExpMxC= 6.82D+02 IAcc=3 IRadAn=         5 AccDes= 0.00D+00
 HarFok:  IExCor=  205 AccDes= 0.00D+00 IRadAn=         5 IDoV=-2 UseB2=F ITyADJ=14
 ICtDFT= 12500011 ScaDFX=  1.000000  1.000000  1.000000  1.000000
 Range of M.O.s used for correlation:    15   379
 NBasis=   385 NAE=    47 NBE=    47 NFC=    14 NFV=     0
 NROrb=    365 NOA=    33 NOB=    33 NVA=   332 NVB=   332

 **** Warning!!: The largest alpha MO coefficient is  0.21277486D+03


 **** Warning!!: The smallest alpha delta epsilon is  0.80559176D-01

 Orbital symmetries:
       Occupied  (A') (A') (A') (A') (A') (A') (A') (A') (A') (A')
                 (A') (A') (A') (A') (A') (A') (A') (A') (A') (A')
                 (A') (A') (A') (A') (A') (A') (A') (A') (A') (A')
                 (A') (A") (A') (A') (A") (A') (A') (A") (A') (A')
                 (A") (A') (A") (A') (A") (A') (A")
       Virtual   (A") (A") (A') (A") (A') (A') (A") (A') (A') (A')
                 (A") (A') (A") (A') (A') (A") (A') (A') (A") (A')
                 (A') (A") (A") (A') (A') (A') (A') (A') (A') (A")
                 (A') (A") (A') (A') (A") (A') (A') (A") (A') (A")
                 (A') (A') (A") (A') (A') (A') (A") (A') (A") (A')
                 (A") (A') (A') (A') (A') (A") (A') (A') (A") (A')
                 (A') (A') (A') (A") (A') (A') (A") (A') (A') (A')
                 (A') (A') (A') (A') (A') (A') (A') (A') (A') (A')
                 (A') (A') (A') (A') (A') (A') (A') (A') (A') (A')
                 (A") (A') (A") (A') (A') (A') (A') (A') (A") (A')
                 (A") (A') (A") (A') (A') (A") (A") (A') (A") (A')
                 (A") (A') (A') (A") (A') (A') (A") (A") (A") (A')
                 (A') (A') (A') (A") (A") (A') (A') (A') (A') (A')
                 (A') (A') (A') (A') (A') (A') (A') (A') (A') (A')
                 (A') (A') (A') (A') (A") (A') (A') (A') (A") (A')
                 (A') (A') (A') (A") (A") (A') (A") (A') (A") (A')
                 (A") (A') (A") (A') (A") (A") (A') (A") (A') (A')
                 (A") (A') (A') (A') (A') (A') (A') (A") (A') (A")
                 (A') (A") (A") (A') (A') (A") (A") (A') (A') (A')
                 (A") (A") (A') (A") (A') (A') (A') (A') (A") (A')
                 (A") (A") (A') (A') (A") (A") (A') (A') (A') (A")
                 (A') (A') (A') (A") (A') (A') (A') (A') (A") (A')
                 (A') (A") (A") (A') (A") (A') (A') (A') (A") (A')
                 (A") (A') (A') (A") (A') (A') (A") (A") (A') (A')
                 (A") (A') (A') (A') (A') (A") (A') (A') (A") (A')
                 (A') (A') (A') (A') (A') (A") (A') (A") (A') (A')
                 (A') (A') (A") (A') (A') (A') (A") (A') (A') (A")
                 (A') (A') (A") (A") (A") (A") (A') (A') (A') (A")
                 (A') (A") (A') (A") (A') (A") (A") (A') (A') (A')
                 (A') (A') (A') (A') (A') (A') (A') (A") (A') (A')
                 (A') (A') (A') (A') (A') (A') (A') (A') (A') (A')
                 (A') (A') (A') (A') (A') (A') (A') (A') (A') (A')
                 (A') (A') (A') (A') (A') (A') (A') (A') (A') (A')
                 (A') (A')
     4 initial guesses have been made.
 Convergence on wavefunction:    0.001000000000000
 Iteration     1 Dimension     4 NMult     0 NNew      4
 CISAX will form     4 AO SS matrices at one time.
 Iteration     2 Dimension     6 NMult     4 NNew      2
 Iteration     3 Dimension     8 NMult     6 NNew      2
 Iteration     4 Dimension    10 NMult     8 NNew      2
 Iteration     5 Dimension    12 NMult    10 NNew      2
 Iteration     6 Dimension    14 NMult    12 NNew      2
 ***********************************************************************
 Excited states from <AA,BB:AA,BB> singles matrix:
 ***********************************************************************
 
 Ground to excited state transition densities written to RWF  633
 Ground to excited state transition electric dipole moments (Au):
       state          X           Y           Z        Dip. S.      Osc.
         1         0.7237      2.0140      0.0000      4.5800      0.1218
 Ground to excited state transition velocity dipole moments (Au):
       state          X           Y           Z        Dip. S.      Osc.
         1        -0.0231     -0.0776     -0.0000      0.0066      0.1096
 Ground to excited state transition magnetic dipole moments (Au):
       state          X           Y           Z
         1        -0.0000      0.0000      0.5662
 Ground to excited state transition velocity quadrupole moments (Au):
       state          XX          YY          ZZ          XY          XZ          YZ
         1         0.0194      0.0403     -0.0046      0.0658      0.0000      0.0000
 <0|del|b> * <b|rxdel|0> + <0|del|b> * <b|delr+rdel|0>
 Rotatory Strengths (R) in cgs (10**-40 erg-esu-cm/Gauss)
       state          XX          YY          ZZ    R(velocity)    E-M Angle
         1        -0.0000     -0.0000     -0.0000     -0.0000       90.00
 1/2[<0|r|b>*<b|rxdel|0> + (<0|rxdel|b>*<b|r|0>)*]
 Rotatory Strengths (R) in cgs (10**-40 erg-esu-cm/Gauss)
       state          XX          YY          ZZ     R(length)
         1         0.0000     -0.0000     -0.0000     -0.0000
  1/2[<0|del|b>*<b|r|0> + (<0|r|b>*<b|del|0>)*] (Au)
       state          X           Y           Z        Dip. S.   Osc.(frdel)
         1        -0.0167     -0.1563     -0.0000      0.1730      0.1153

 Excitation energies and oscillator strengths:
 
 Excited State   1:      Singlet-A'     1.0853 eV 1142.44 nm  f=0.1218  <S**2>=0.000
      47 -> 48         0.73352
      47 <- 48        -0.22533
 This state for optimization and/or second-order correction.
 Total Energy, E(TD-HF/TD-DFT) =  -538.863130797    
 Copying the excited state density for this state as the 1-particle RhoCI density.
 SavETr:  write IOETrn=   770 NScale= 10 NData=  16 NLR=1 NState=    1 LETran=      28.

 **********************************************************************

            Population analysis using the SCF Density.

 **********************************************************************

 Orbital symmetries:
       Occupied  (A') (A') (A') (A') (A') (A') (A') (A') (A') (A')
                 (A') (A') (A') (A') (A') (A') (A') (A') (A') (A')
                 (A') (A') (A') (A') (A') (A') (A') (A') (A') (A')
                 (A') (A") (A') (A') (A") (A') (A') (A") (A') (A')
                 (A") (A') (A") (A') (A") (A') (A")
       Virtual   (A") (A") (A') (A") (A') (A') (A") (A') (A') (A')
                 (A") (A') (A") (A') (A') (A") (A') (A') (A") (A')
                 (A') (A") (A") (A') (A') (A') (A') (A') (A') (A")
                 (A') (A") (A') (A') (A") (A') (A') (A") (A') (A")
                 (A') (A') (A") (A') (A') (A') (A") (A') (A") (A')
                 (A") (A') (A') (A') (A') (A") (A') (A') (A") (A')
                 (A') (A') (A') (A") (A') (A') (A") (A') (A') (A')
                 (A') (A') (A') (A') (A') (A') (A') (A') (A') (A')
                 (A') (A') (A') (A') (A') (A') (A') (A') (A') (A')
                 (A") (A') (A") (A') (A') (A') (A') (A') (A") (A')
                 (A") (A') (A") (A') (A') (A") (A") (A') (A") (A')
                 (A") (A') (A') (A") (A') (A') (A") (A") (A") (A')
                 (A') (A') (A') (A") (A") (A') (A') (A') (A') (A')
                 (A') (A') (A') (A') (A') (A') (A') (A') (A') (A')
                 (A') (A') (A') (A') (A") (A') (A') (A') (A") (A')
                 (A') (A') (A') (A") (A") (A') (A") (A') (A") (A')
                 (A") (A') (A") (A') (A") (A") (A') (A") (A') (A')
                 (A") (A') (A') (A') (A') (A') (A') (A") (A') (A")
                 (A') (A") (A") (A') (A') (A") (A") (A') (A') (A')
                 (A") (A") (A') (A") (A') (A') (A') (A') (A") (A')
                 (A") (A") (A') (A') (A") (A") (A') (A') (A') (A")
                 (A') (A') (A') (A") (A') (A') (A') (A') (A") (A')
                 (A') (A") (A") (A') (A") (A') (A') (A') (A") (A')
                 (A") (A') (A') (A") (A') (A') (A") (A") (A') (A')
                 (A") (A') (A') (A') (A') (A") (A') (A') (A") (A')
                 (A') (A') (A') (A') (A') (A") (A') (A") (A') (A')
                 (A') (A') (A") (A') (A') (A') (A") (A') (A') (A")
                 (A') (A') (A") (A") (A") (A") (A') (A') (A') (A")
                 (A') (A") (A') (A") (A') (A") (A") (A') (A') (A')
                 (A') (A') (A') (A') (A') (A') (A') (A") (A') (A')
                 (A') (A') (A') (A') (A') (A') (A') (A') (A') (A')
                 (A') (A') (A') (A') (A') (A') (A') (A') (A') (A')
                 (A') (A') (A') (A') (A') (A') (A') (A') (A') (A')
                 (A') (A')
 The electronic state is 1-A'.
 Alpha  occ. eigenvalues --  -10.77926 -10.73312 -10.72191 -10.71489 -10.71460
 Alpha  occ. eigenvalues --  -10.71129 -10.70872 -10.69695 -10.69309 -10.69127
 Alpha  occ. eigenvalues --  -10.68991 -10.67964 -10.67836 -10.67086  -1.21033
 Alpha  occ. eigenvalues --   -1.14155  -1.13369  -1.07065  -1.04463  -1.02407
 Alpha  occ. eigenvalues --   -0.95643  -0.87720  -0.85906  -0.84731  -0.82523
 Alpha  occ. eigenvalues --   -0.77223  -0.76240  -0.74401  -0.73793  -0.70227
 Alpha  occ. eigenvalues --   -0.69729  -0.68904  -0.67198  -0.64311  -0.63922
 Alpha  occ. eigenvalues --   -0.63194  -0.62202  -0.59864  -0.58525  -0.56949
 Alpha  occ. eigenvalues --   -0.55331  -0.54288  -0.53086  -0.50631  -0.49404
 Alpha  occ. eigenvalues --   -0.46466  -0.35168
 Alpha virt. eigenvalues --   -0.27112  -0.17182  -0.11458  -0.10994  -0.10337
 Alpha virt. eigenvalues --   -0.09848  -0.08394  -0.07949  -0.07682  -0.07338
 Alpha virt. eigenvalues --   -0.07057  -0.06148  -0.05962  -0.05743  -0.05314
 Alpha virt. eigenvalues --   -0.05183  -0.04329  -0.03933  -0.03885  -0.03116
 Alpha virt. eigenvalues --   -0.02153  -0.02085  -0.01154  -0.00937  -0.00066
 Alpha virt. eigenvalues --    0.00107   0.00703   0.01188   0.01338   0.01688
 Alpha virt. eigenvalues --    0.01818   0.02245   0.02734   0.02944   0.02947
 Alpha virt. eigenvalues --    0.03636   0.03888   0.04006   0.05078   0.05388
 Alpha virt. eigenvalues --    0.05437   0.05630   0.05778   0.06067   0.06505
 Alpha virt. eigenvalues --    0.07133   0.07521   0.07621   0.07859   0.08351
 Alpha virt. eigenvalues --    0.08769   0.08890   0.08965   0.09563   0.09942
 Alpha virt. eigenvalues --    0.10047   0.10689   0.11097   0.11115   0.12085
 Alpha virt. eigenvalues --    0.12566   0.12661   0.13321   0.13603   0.14099
 Alpha virt. eigenvalues --    0.14645   0.16033   0.16814   0.17089   0.17301
 Alpha virt. eigenvalues --    0.17904   0.18405   0.19635   0.20608   0.20906
 Alpha virt. eigenvalues --    0.21519   0.22337   0.22776   0.23566   0.24383
 Alpha virt. eigenvalues --    0.24705   0.25404   0.26148   0.27220   0.28783
 Alpha virt. eigenvalues --    0.29907   0.30587   0.31494   0.32299   0.35335
 Alpha virt. eigenvalues --    0.36741   0.37792   0.38611   0.38656   0.39471
 Alpha virt. eigenvalues --    0.40466   0.41596   0.42223   0.42604   0.44201
 Alpha virt. eigenvalues --    0.44671   0.45351   0.45744   0.45831   0.47965
 Alpha virt. eigenvalues --    0.48176   0.49138   0.49188   0.50746   0.51339
 Alpha virt. eigenvalues --    0.51877   0.52201   0.52800   0.53434   0.54851
 Alpha virt. eigenvalues --    0.55555   0.55738   0.58826   0.59204   0.59447
 Alpha virt. eigenvalues --    0.59760   0.62295   0.62804   0.62873   0.63801
 Alpha virt. eigenvalues --    0.64494   0.65201   0.66823   0.67167   0.68131
 Alpha virt. eigenvalues --    0.70436   0.72823   0.73332   0.73722   0.74539
 Alpha virt. eigenvalues --    0.75412   0.75892   0.76863   0.77295   0.77923
 Alpha virt. eigenvalues --    0.78674   0.80342   0.81665   0.82066   0.82411
 Alpha virt. eigenvalues --    0.82808   0.83989   0.84507   0.85323   0.86907
 Alpha virt. eigenvalues --    0.87905   0.89412   0.90248   0.90276   0.94384
 Alpha virt. eigenvalues --    0.94884   0.95771   0.97784   1.00506   1.00723
 Alpha virt. eigenvalues --    1.03512   1.04350   1.04655   1.05594   1.07572
 Alpha virt. eigenvalues --    1.07911   1.08315   1.10594   1.12244   1.14717
 Alpha virt. eigenvalues --    1.16126   1.17073   1.17457   1.18218   1.25402
 Alpha virt. eigenvalues --    1.26536   1.31383   1.32997   1.34270   1.35178
 Alpha virt. eigenvalues --    1.36777   1.37763   1.39939   1.40561   1.41792
 Alpha virt. eigenvalues --    1.44676   1.47214   1.47275   1.49045   1.49732
 Alpha virt. eigenvalues --    1.51326   1.53003   1.54254   1.56050   1.56407
 Alpha virt. eigenvalues --    1.57166   1.57253   1.60369   1.60775   1.61893
 Alpha virt. eigenvalues --    1.63414   1.64089   1.64244   1.67485   1.69292
 Alpha virt. eigenvalues --    1.70053   1.70202   1.72186   1.73652   1.74916
 Alpha virt. eigenvalues --    1.75852   1.77250   1.77807   1.79451   1.79889
 Alpha virt. eigenvalues --    1.83067   1.84064   1.85093   1.85859   1.87250
 Alpha virt. eigenvalues --    1.89108   1.89639   1.90304   1.94109   1.95707
 Alpha virt. eigenvalues --    1.97298   1.98265   2.00412   2.01033   2.03041
 Alpha virt. eigenvalues --    2.04761   2.07778   2.12310   2.12488   2.15937
 Alpha virt. eigenvalues --    2.16891   2.17930   2.19677   2.21189   2.23726
 Alpha virt. eigenvalues --    2.25069   2.26686   2.30376   2.33525   2.34689
 Alpha virt. eigenvalues --    2.34927   2.37438   2.40279   2.42429   2.42603
 Alpha virt. eigenvalues --    2.43246   2.45462   2.49953   2.53289   2.55765
 Alpha virt. eigenvalues --    2.58114   2.58248   2.59981   2.60454   2.61182
 Alpha virt. eigenvalues --    2.62709   2.64148   2.64812   2.64978   2.65692
 Alpha virt. eigenvalues --    2.66187   2.66263   2.67793   2.68915   2.70394
 Alpha virt. eigenvalues --    2.70806   2.73358   2.73457   2.74197   2.77330
 Alpha virt. eigenvalues --    2.78459   2.79026   2.81188   2.82423   2.85096
 Alpha virt. eigenvalues --    2.90742   2.91239   2.91626   2.93022   2.98464
 Alpha virt. eigenvalues --    2.98888   3.01229   3.02471   3.06311   3.10957
 Alpha virt. eigenvalues --    3.11666   3.12834   3.17443   3.26684   3.29570
 Alpha virt. eigenvalues --    3.32659   3.36806   3.37690   3.41751   3.52213
 Alpha virt. eigenvalues --    3.54314   3.62564   3.64356   3.66061   3.71740
 Alpha virt. eigenvalues --    3.72905   3.75174   3.77578   3.83301   3.90114
 Alpha virt. eigenvalues --    3.93353   4.01070   4.02310   4.18659   4.19988
 Alpha virt. eigenvalues --    4.22758   4.38869   4.46610  23.38987  23.48352
 Alpha virt. eigenvalues --   23.54001  23.56669  23.65971  23.81465  23.93127
 Alpha virt. eigenvalues --   23.95844  24.34340  24.44639  24.77964  24.83310
 Alpha virt. eigenvalues --   25.60869  25.64219
          Condensed to atoms (all electrons):
               1          2          3          4          5          6
     1  C    6.977438   1.120174  -0.439556  -0.129772  -0.093817  -0.032291
     2  C    1.120174   9.299810   0.746069  -1.014327  -0.190107  -0.014743
     3  C   -0.439556   0.746069   6.827872   0.777930  -0.020470   0.007197
     4  C   -0.129772  -1.014327   0.777930  10.273603  -0.028993  -0.132079
     5  C   -0.093817  -0.190107  -0.020470  -0.028993   7.964276   1.314991
     6  C   -0.032291  -0.014743   0.007197  -0.132079   1.314991   7.166705
     7  C   -0.180462  -0.042883  -0.005137   0.194609  -1.569003  -1.862398
     8  C    0.160740  -0.007659  -0.133269  -0.212421   2.189512   1.298344
     9  C   -0.553332  -1.759131  -0.100721   0.951237  -0.753565   0.193140
    10  C   -0.132670  -0.397344   0.270257  -1.555390  -0.739344  -0.677686
    11  C    1.181583  -0.396989  -0.195482   0.143428  -1.457703   0.171834
    12  C   -0.895957   0.333370  -1.659708  -1.785705   0.483050  -0.522545
    13  C   -0.381437  -0.689964  -0.430413  -0.156962  -0.649235   0.164627
    14  C   -1.027634  -0.746671   0.357120  -1.591357  -0.552376  -1.185969
    15  H    0.397156  -0.067247   0.002347  -0.012734   0.003793   0.003164
    16  H   -0.017131   0.375219  -0.035683   0.026575  -0.002455  -0.000473
    17  H    0.004635  -0.033941   0.389564  -0.041188   0.000093   0.000346
    18  H    0.009457   0.018354  -0.025869   0.522730   0.006183  -0.003003
    19  H    0.003885  -0.005503   0.028721  -0.142101  -0.039318   0.033052
    20  H   -0.000675   0.000070  -0.004196   0.009806   0.401332  -0.045363
    21  H   -0.001065  -0.000326   0.000104  -0.001186  -0.030322   0.350161
    22  H   -0.000551  -0.000256  -0.000059   0.001177  -0.009462  -0.016585
    23  H    0.018043   0.005039   0.000740  -0.010995   0.024192   0.060617
    24  H    0.043537   0.014719  -0.001884   0.003460  -0.027689  -0.008407
    25  H    0.043537   0.014719  -0.001884   0.003460  -0.027689  -0.008407
               7          8          9         10         11         12
     1  C   -0.180462   0.160740  -0.553332  -0.132670   1.181583  -0.895957
     2  C   -0.042883  -0.007659  -1.759131  -0.397344  -0.396989   0.333370
     3  C   -0.005137  -0.133269  -0.100721   0.270257  -0.195482  -1.659708
     4  C    0.194609  -0.212421   0.951237  -1.555390   0.143428  -1.785705
     5  C   -1.569003   2.189512  -0.753565  -0.739344  -1.457703   0.483050
     6  C   -1.862398   1.298344   0.193140  -0.677686   0.171834  -0.522545
     7  C   11.985771  -5.121903  -1.229015   0.702644  -0.863676   0.577358
     8  C   -5.121903  13.926539  -0.708050  -0.585457   0.219372  -0.556301
     9  C   -1.229015  -0.708050  10.507187  -0.195895   1.378390  -2.515431
    10  C    0.702644  -0.585457  -0.195895   7.913508  -0.260386   1.283033
    11  C   -0.863676   0.219372   1.378390  -0.260386  14.794264  -4.489859
    12  C    0.577358  -0.556301  -2.515431   1.283033  -4.489859  17.559396
    13  C    0.867276  -2.123388   0.007911  -0.826761  -1.699069  -0.616226
    14  C    2.941132  -3.011113   0.234089   0.907174  -1.920303  -1.398176
    15  H   -0.005173   0.000689   0.024988   0.014971  -0.058175   0.063101
    16  H    0.000371   0.003631  -0.009264  -0.028003   0.050973  -0.013476
    17  H   -0.000061  -0.002301   0.003487   0.011341   0.008363  -0.004584
    18  H    0.002602   0.005060  -0.003029  -0.019158   0.018022  -0.086845
    19  H   -0.005869  -0.043083   0.047087   0.421017   0.094431  -0.247072
    20  H   -0.039423   0.096959  -0.017382   0.041168  -0.016708   0.024584
    21  H    0.034523  -0.056356  -0.002913  -0.000385  -0.000453  -0.005428
    22  H    0.364397  -0.013481  -0.011410   0.004135  -0.009175   0.006005
    23  H   -0.234357   0.405731   0.177458  -0.020857   0.074893  -0.024346
    24  H    0.016336  -0.043016   0.385736   0.009566   0.059818  -0.029901
    25  H    0.016336  -0.043016   0.385736   0.009566   0.059818  -0.029901
              13         14         15         16         17         18
     1  C   -0.381437  -1.027634   0.397156  -0.017131   0.004635   0.009457
     2  C   -0.689964  -0.746671  -0.067247   0.375219  -0.033941   0.018354
     3  C   -0.430413   0.357120   0.002347  -0.035683   0.389564  -0.025869
     4  C   -0.156962  -1.591357  -0.012734   0.026575  -0.041188   0.522730
     5  C   -0.649235  -0.552376   0.003793  -0.002455   0.000093   0.006183
     6  C    0.164627  -1.185969   0.003164  -0.000473   0.000346  -0.003003
     7  C    0.867276   2.941132  -0.005173   0.000371  -0.000061   0.002602
     8  C   -2.123388  -3.011113   0.000689   0.003631  -0.002301   0.005060
     9  C    0.007911   0.234089   0.024988  -0.009264   0.003487  -0.003029
    10  C   -0.826761   0.907174   0.014971  -0.028003   0.011341  -0.019158
    11  C   -1.699069  -1.920303  -0.058175   0.050973   0.008363   0.018022
    12  C   -0.616226  -1.398176   0.063101  -0.013476  -0.004584  -0.086845
    13  C   11.470175   0.881725  -0.042717   0.008138  -0.009573   0.008268
    14  C    0.881725  11.642291   0.011641  -0.024739   0.009702  -0.098038
    15  H   -0.042717   0.011641   0.427247  -0.001822   0.001304  -0.000503
    16  H    0.008138  -0.024739  -0.001822   0.395342  -0.004427   0.003037
    17  H   -0.009573   0.009702   0.001304  -0.004427   0.421811  -0.014092
    18  H    0.008268  -0.098038  -0.000503   0.003037  -0.014092   0.437151
    19  H    0.036797   0.169206   0.001298  -0.000591   0.002921  -0.005385
    20  H    0.038771  -0.150460  -0.000324   0.000043  -0.000227   0.001166
    21  H    0.021107   0.033341   0.000057  -0.000006   0.000004  -0.000062
    22  H    0.018263   0.014067  -0.000157   0.000006  -0.000001   0.000016
    23  H   -0.121930  -0.083146   0.001197  -0.000198  -0.000027  -0.000162
    24  H   -0.077260  -0.016220  -0.000749   0.000598  -0.000068   0.000123
    25  H   -0.077260  -0.016220  -0.000749   0.000598  -0.000068   0.000123
              19         20         21         22         23         24
     1  C    0.003885  -0.000675  -0.001065  -0.000551   0.018043   0.043537
     2  C   -0.005503   0.000070  -0.000326  -0.000256   0.005039   0.014719
     3  C    0.028721  -0.004196   0.000104  -0.000059   0.000740  -0.001884
     4  C   -0.142101   0.009806  -0.001186   0.001177  -0.010995   0.003460
     5  C   -0.039318   0.401332  -0.030322  -0.009462   0.024192  -0.027689
     6  C    0.033052  -0.045363   0.350161  -0.016585   0.060617  -0.008407
     7  C   -0.005869  -0.039423   0.034523   0.364397  -0.234357   0.016336
     8  C   -0.043083   0.096959  -0.056356  -0.013481   0.405731  -0.043016
     9  C    0.047087  -0.017382  -0.002913  -0.011410   0.177458   0.385736
    10  C    0.421017   0.041168  -0.000385   0.004135  -0.020857   0.009566
    11  C    0.094431  -0.016708  -0.000453  -0.009175   0.074893   0.059818
    12  C   -0.247072   0.024584  -0.005428   0.006005  -0.024346  -0.029901
    13  C    0.036797   0.038771   0.021107   0.018263  -0.121930  -0.077260
    14  C    0.169206  -0.150460   0.033341   0.014067  -0.083146  -0.016220
    15  H    0.001298  -0.000324   0.000057  -0.000157   0.001197  -0.000749
    16  H   -0.000591   0.000043  -0.000006   0.000006  -0.000198   0.000598
    17  H    0.002921  -0.000227   0.000004  -0.000001  -0.000027  -0.000068
    18  H   -0.005385   0.001166  -0.000062   0.000016  -0.000162   0.000123
    19  H    0.494824  -0.011157   0.000250  -0.000210   0.000345   0.000580
    20  H   -0.011157   0.452330  -0.002360   0.001434  -0.001600   0.000472
    21  H    0.000250  -0.002360   0.422393  -0.001565   0.000316  -0.000011
    22  H   -0.000210   0.001434  -0.001565   0.414685  -0.005151   0.000595
    23  H    0.000345  -0.001600   0.000316  -0.005151   0.500265  -0.000549
    24  H    0.000580   0.000472  -0.000011   0.000595  -0.000549   0.461762
    25  H    0.000580   0.000472  -0.000011   0.000595  -0.000549  -0.064566
              25
     1  C    0.043537
     2  C    0.014719
     3  C   -0.001884
     4  C    0.003460
     5  C   -0.027689
     6  C   -0.008407
     7  C    0.016336
     8  C   -0.043016
     9  C    0.385736
    10  C    0.009566
    11  C    0.059818
    12  C   -0.029901
    13  C   -0.077260
    14  C   -0.016220
    15  H   -0.000749
    16  H    0.000598
    17  H   -0.000068
    18  H    0.000123
    19  H    0.000580
    20  H    0.000472
    21  H   -0.000011
    22  H    0.000595
    23  H   -0.000549
    24  H   -0.064566
    25  H    0.461762
 Mulliken charges:
               1
     1  C   -0.073834
     2  C   -0.560452
     3  C   -0.353589
     4  C   -0.092807
     5  C   -0.195877
     6  C   -0.254229
     7  C   -0.543995
     8  C    0.354237
     9  C   -0.437310
    10  C   -0.149046
    11  C   -0.887210
    12  C    0.551562
    13  C    0.379140
    14  C    0.620933
    15  H    0.237398
    16  H    0.273735
    17  H    0.256985
    18  H    0.223854
    19  H    0.165295
    20  H    0.221265
    21  H    0.240191
    22  H    0.242689
    23  H    0.235031
    24  H    0.273016
    25  H    0.273016
 Sum of Mulliken charges =   1.00000
 Mulliken charges with hydrogens summed into heavy atoms:
               1
     1  C    0.163564
     2  C   -0.286717
     3  C   -0.096604
     4  C    0.131047
     5  C    0.025388
     6  C   -0.014038
     7  C   -0.301306
     8  C    0.589268
     9  C    0.108722
    10  C    0.016250
    11  C   -0.887210
    12  C    0.551562
    13  C    0.379140
    14  C    0.620933
 Electronic spatial extent (au):  <R**2>=           2871.0383
 Charge=              1.0000 electrons
 Dipole moment (field-independent basis, Debye):
    X=             -2.6434    Y=             -3.2252    Z=             -0.0000  Tot=              4.1700
 Quadrupole moment (field-independent basis, Debye-Ang):
   XX=            -54.3562   YY=            -28.4513   ZZ=            -82.8532
   XY=              9.0225   XZ=             -0.0000   YZ=              0.0000
 Traceless Quadrupole moment (field-independent basis, Debye-Ang):
   XX=              0.8640   YY=             26.7690   ZZ=            -27.6330
   XY=              9.0225   XZ=             -0.0000   YZ=              0.0000
 Octapole moment (field-independent basis, Debye-Ang**2):
  XXX=            -13.5171  YYY=            -16.7184  ZZZ=              0.0000  XYY=             -9.7040
  XXY=            -18.7521  XXZ=              0.0000  XZZ=             -6.3381  YZZ=             -7.5096
  YYZ=             -0.0000  XYZ=             -0.0000
 Hexadecapole moment (field-independent basis, Debye-Ang**3):
 XXXX=           -786.6889 YYYY=          -1969.6994 ZZZZ=            -96.9367 XXXY=           -257.6239
 XXXZ=             -0.0000 YYYX=           -187.0309 YYYZ=             -0.0000 ZZZX=              0.0000
 ZZZY=             -0.0000 XXYY=           -475.2137 XXZZ=           -191.1009 YYZZ=           -537.6070
 XXYZ=              0.0000 YYXZ=             -0.0000 ZZXY=           -134.3159
 N-N= 7.874339521124D+02 E-N=-2.812894433087D+03  KE= 5.408166654804D+02
 Symmetry A'   KE= 5.254073507937D+02
 Symmetry A"   KE= 1.540931468677D+01
 Unable to Open any file for archive entry.
 1\1\GINC-GADI-CPU-CLX-2808\SP\RM062X TD-FC\6-311++G(d,p)\C14H11(1+)\TS
 1578\02-Aug-2022\0\\#n M062X/6-311++G(d,p) TD(NStates=1) EmpiricalDisp
 ersion=GD3 SP\\SP_14\\1,1\C,0,0.,2.216655,1.368431\C,0,0.,3.425508,0.6
 27989\C,0,0.,3.577861,-0.86983\C,0,0.,2.791156,-1.511538\C,0,0.,-2.231
 156,-1.287538\C,0,0.,-3.829861,-0.42183\C,0,0.,-3.929508,0.851989\C,0,
 0.,-2.664655,1.368431\C,0,0.,-0.112,1.393369\C,0,0.,0.406,-1.489189\C,
 0,0.,1.376055,0.779065\C,0,0.,1.371471,-0.796804\C,0,0.,-1.124055,0.47
 1065\C,0,0.,-1.119471,-0.768804\H,0,0.,2.302071,2.451647\H,0,0.,4.3407
 53,1.217689\H,0,0.,4.635262,-1.196349\H,0,0.,2.70155,-2.594059\H,0,0.,
 0.35,-2.574266\H,0,0.,-2.44955,-2.370059\H,0,0.,-4.663262,-1.140349\H,
 0,0.,-4.844753,1.413689\H,0,0.,-2.442071,2.451647\H,0,-0.859585,-0.616
 ,2.085787\H,0,0.859585,-0.616,2.085787\\Version=ES64L-G16RevC.01\State
 =1-A'\HF=-538.9030133\RMSD=8.467e-09\PG=CS [SG(C14H9),X(H2)]\\@
 The archive entry for this job was punched.


 Life may have no meaning.  Or even worse, it may have a
 meaning of which I disapprove.
                                 -- Ashleigh Brilliant
 Job cpu time:       0 days  0 hours 56 minutes 34.2 seconds.
 Elapsed time:       0 days  0 hours  1 minutes 10.8 seconds.
 File lengths (MBytes):  RWF=    460 Int=      0 D2E=      0 Chk=     15 Scr=      1
 Normal termination of Gaussian 16 at Tue Aug  2 13:35:02 2022.
