 Entering Gaussian System, Link 0=g16
 Initial command:
 /apps/gaussian/g16c01/g16/l1.exe "/jobfs/53803424.gadi-pbs/Gau-1839583.inp" -scrdir="/jobfs/53803424.gadi-pbs/"
 Entering Link 1 = /apps/gaussian/g16c01/g16/l1.exe PID=   1839584.
  
 Copyright (c) 1988-2019, Gaussian, Inc.  All Rights Reserved.
  
 This is part of the Gaussian(R) 16 program.  It is based on
 the Gaussian(R) 09 system (copyright 2009, Gaussian, Inc.),
 the Gaussian(R) 03 system (copyright 2003, Gaussian, Inc.),
 the Gaussian(R) 98 system (copyright 1998, Gaussian, Inc.),
 the Gaussian(R) 94 system (copyright 1995, Gaussian, Inc.),
 the Gaussian 92(TM) system (copyright 1992, Gaussian, Inc.),
 the Gaussian 90(TM) system (copyright 1990, Gaussian, Inc.),
 the Gaussian 88(TM) system (copyright 1988, Gaussian, Inc.),
 the Gaussian 86(TM) system (copyright 1986, Carnegie Mellon
 University), and the Gaussian 82(TM) system (copyright 1983,
 Carnegie Mellon University). Gaussian is a federally registered
 trademark of Gaussian, Inc.
  
 This software contains proprietary and confidential information,
 including trade secrets, belonging to Gaussian, Inc.
  
 This software is provided under written license and may be
 used, copied, transmitted, or stored only in accord with that
 written license.
  
 The following legend is applicable only to US Government
 contracts under FAR:
  
                    RESTRICTED RIGHTS LEGEND
  
 Use, reproduction and disclosure by the US Government is
 subject to restrictions as set forth in subparagraphs (a)
 and (c) of the Commercial Computer Software - Restricted
 Rights clause in FAR 52.227-19.
  
 Gaussian, Inc.
 340 Quinnipiac St., Bldg. 40, Wallingford CT 06492
  
  
 ---------------------------------------------------------------
 Warning -- This program may not be used in any manner that
 competes with the business of Gaussian, Inc. or will provide
 assistance to any competitor of Gaussian, Inc.  The licensee
 of this program is prohibited from giving any competitor of
 Gaussian, Inc. access to this program.  By using this program,
 the user acknowledges that Gaussian, Inc. is engaged in the
 business of creating and licensing software in the field of
 computational chemistry and represents and warrants to the
 licensee that it is not a competitor of Gaussian, Inc. and that
 it will not use this program in any manner prohibited above.
 ---------------------------------------------------------------
  

 Cite this work as:
 Gaussian 16, Revision C.01,
 M. J. Frisch, G. W. Trucks, H. B. Schlegel, G. E. Scuseria, 
 M. A. Robb, J. R. Cheeseman, G. Scalmani, V. Barone, 
 G. A. Petersson, H. Nakatsuji, X. Li, M. Caricato, A. V. Marenich, 
 J. Bloino, B. G. Janesko, R. Gomperts, B. Mennucci, H. P. Hratchian, 
 J. V. Ortiz, A. F. Izmaylov, J. L. Sonnenberg, D. Williams-Young, 
 F. Ding, F. Lipparini, F. Egidi, J. Goings, B. Peng, A. Petrone, 
 T. Henderson, D. Ranasinghe, V. G. Zakrzewski, J. Gao, N. Rega, 
 G. Zheng, W. Liang, M. Hada, M. Ehara, K. Toyota, R. Fukuda, 
 J. Hasegawa, M. Ishida, T. Nakajima, Y. Honda, O. Kitao, H. Nakai, 
 T. Vreven, K. Throssell, J. A. Montgomery, Jr., J. E. Peralta, 
 F. Ogliaro, M. J. Bearpark, J. J. Heyd, E. N. Brothers, K. N. Kudin, 
 V. N. Staroverov, T. A. Keith, R. Kobayashi, J. Normand, 
 K. Raghavachari, A. P. Rendell, J. C. Burant, S. S. Iyengar, 
 J. Tomasi, M. Cossi, J. M. Millam, M. Klene, C. Adamo, R. Cammi, 
 J. W. Ochterski, R. L. Martin, K. Morokuma, O. Farkas, 
 J. B. Foresman, and D. J. Fox, Gaussian, Inc., Wallingford CT, 2019.
 
 ******************************************
 Gaussian 16:  ES64L-G16RevC.01  3-Jul-2019
                 2-Aug-2022 
 ******************************************
 %NProcShared=48
 Will use up to   48 processors via shared memory.
 %mem = 190GB
 ---------------------------------------------------------------
 #n M062X/6-311++G(d,p) TD(NStates=1) EmpiricalDispersion=GD3 SP
 ---------------------------------------------------------------
 1/38=1,172=1/1;
 2/12=2,17=6,18=5,40=1/2;
 3/5=4,6=6,7=1111,11=9,25=1,30=1,74=-55,124=31/1,2,3,8;
 4//1;
 5/5=2,38=5/2;
 8/6=1,10=2,108=1/1;
 9/41=1,42=1,70=2/14;
 6/7=2,8=2,9=2,10=2/1;
 99/5=1,9=1/99;
 ----
 SP_4
 ----
 Symbolic Z-matrix:
 Charge =  1 Multiplicity = 1
 C                     0.        2.35066   1.37243 
 C                     0.        3.59351   0.74199 
 C                     0.        3.67786  -0.67583 
 C                     0.        2.61516  -1.42754 
 C                     0.       -2.45516  -1.36354 
 C                     0.       -3.74986  -0.54783 
 C                     0.       -3.73751   0.80599 
 C                     0.       -2.47866   1.37243 
 C                     0.       -0.032     1.36337 
 C                     0.        0.116    -1.51919 
 C                     0.        1.28006   0.64307 
 C                     0.        1.28547  -0.8128 
 C                     0.       -1.20806   0.55507 
 C                     0.       -1.21347  -0.8048 
 H                     0.        2.29407   2.45565 
 H                     0.        4.49875   1.33969 
 H                     0.        4.66526  -1.12435 
 H                     0.        2.66555  -2.51006 
 H                     0.        0.1      -2.60627 
 H                     0.       -2.59355  -2.44606 
 H                     0.       -4.67326  -1.10835 
 H                     0.       -4.64275   1.39569 
 H                     0.       -2.33407   2.45565 
 H                    -0.85959  -0.176     2.05579 
 H                     0.85959  -0.176     2.05579 
 
                          Input orientation:                          
 ---------------------------------------------------------------------
 Center     Atomic      Atomic             Coordinates (Angstroms)
 Number     Number       Type             X           Y           Z
 ---------------------------------------------------------------------
      1          6           0        0.000000    2.350655    1.372431
      2          6           0        0.000000    3.593508    0.741989
      3          6           0        0.000000    3.677861   -0.675830
      4          6           0        0.000000    2.615156   -1.427538
      5          6           0        0.000000   -2.455156   -1.363538
      6          6           0        0.000000   -3.749861   -0.547830
      7          6           0        0.000000   -3.737508    0.805989
      8          6           0        0.000000   -2.478655    1.372431
      9          6           0        0.000000   -0.032000    1.363369
     10          6           0        0.000000    0.116000   -1.519189
     11          6           0        0.000000    1.280055    0.643065
     12          6           0        0.000000    1.285471   -0.812804
     13          6           0        0.000000   -1.208055    0.555065
     14          6           0        0.000000   -1.213471   -0.804804
     15          1           0        0.000000    2.294071    2.455647
     16          1           0        0.000000    4.498753    1.339689
     17          1           0        0.000000    4.665262   -1.124349
     18          1           0        0.000000    2.665550   -2.510059
     19          1           0        0.000000    0.100000   -2.606266
     20          1           0        0.000000   -2.593550   -2.446059
     21          1           0        0.000000   -4.673262   -1.108349
     22          1           0        0.000000   -4.642753    1.395689
     23          1           0        0.000000   -2.334071    2.455647
     24          1           0       -0.859585   -0.176000    2.055787
     25          1           0        0.859585   -0.176000    2.055787
 ---------------------------------------------------------------------
                    Distance matrix (angstroms):
                    1          2          3          4          5
     1  C    0.000000
     2  C    1.393607   0.000000
     3  C    2.440666   1.420326   0.000000
     4  C    2.812434   2.379920   1.301694   0.000000
     5  C    5.530040   6.404653   6.171454   5.070716   0.000000
     6  C    6.395600   7.455783   7.428825   6.425522   1.530242
     7  C    6.114457   7.331295   7.561976   6.733868   2.520173
     8  C    4.829310   6.104803   6.488302   5.812636   2.736070
     9  C    2.382672   3.678372   4.233368   3.846634   3.647973
    10  C    3.654470   4.148010   3.660343   2.500836   2.575863
    11  C    1.295438   2.315567   2.736596   2.463715   4.240077
    12  C    2.431022   2.782879   2.396308   1.464910   3.780952
    13  C    3.651370   4.805200   5.038579   4.306699   2.288296
    14  C    4.176523   5.049714   4.893032   3.878941   1.361604
    15  H    1.084693   2.150619   3.423598   3.896437   6.094369
    16  H    2.148348   1.084764   2.176277   3.347459   7.460850
    17  H    3.404602   2.152179   1.084495   2.072404   7.124434
    18  H    3.895239   3.381852   2.095035   1.083693   5.247489
    19  H    4.571157   4.838947   4.065424   2.777663   2.841337
    20  H    6.247082   6.960125   6.516464   5.307354   1.091332
    21  H    7.449140   8.471318   8.362316   7.295404   2.232737
    22  H    6.993447   8.262162   8.574603   7.787673   3.521209
    23  H    4.808328   6.170317   6.778604   6.290785   3.821104
    24  H    2.754968   4.083398   4.801340   4.545656   4.198240
    25  H    2.754968   4.083398   4.801340   4.545656   4.198240
                    6          7          8          9         10
     6  C    0.000000
     7  C    1.353875   0.000000
     8  C    2.302904   1.380423   0.000000
     9  C    4.180332   3.747194   2.446672   0.000000
    10  C    3.986028   4.500664   3.885061   2.886355   0.000000
    11  C    5.168973   5.020207   3.828822   1.496772   2.455680
    12  C    5.042299   5.277387   4.352459   2.543906   1.366251
    13  C    2.770768   2.541868   1.510798   1.427046   2.460823
    14  C    2.549374   2.994231   2.518143   2.469180   1.509251
    15  H    6.749073   6.253105   4.894106   2.569762   4.532473
    16  H    8.461818   8.253534   6.977485   4.530815   5.232753
    17  H    8.434849   8.621644   7.567659   5.315356   4.566364
    18  H    6.708788   7.210778   6.444887   4.720193   2.735330
    19  H    4.365614   5.135168   4.741254   3.971829   1.087195
    20  H    2.222685   3.447384   3.820218   4.590564   2.863695
    21  H    1.080209   2.130804   3.312185   5.258394   4.806851
    22  H    2.138813   1.080377   2.164223   4.610866   5.580524
    23  H    3.320442   2.165873   1.092823   2.548058   4.669279
    24  H    4.504463   3.871075   2.551094   1.113133   3.688442
    25  H    4.504463   3.871075   2.551094   1.113133   3.688442
                   11         12         13         14         15
    11  C    0.000000
    12  C    1.455879   0.000000
    13  C    2.489666   2.844071   0.000000
    14  C    2.883400   2.498955   1.359880   0.000000
    15  H    2.076941   3.420533   3.984608   4.788882   0.000000
    16  H    3.293221   3.867610   5.760494   6.101504   2.471029
    17  H    3.818819   3.394120   6.108706   5.887411   4.294056
    18  H    3.444095   2.187531   4.939615   4.237298   4.979582
    19  H    3.456976   2.149848   3.421260   2.229455   5.516966
    20  H    4.954544   4.208839   3.305502   2.144373   6.922107
    21  H    6.205597   5.966058   3.843775   3.473081   7.825969
    22  H    5.970435   6.326238   3.536071   4.074573   7.017338
    23  H    4.043187   4.876870   2.209100   3.447649   4.628142
    24  H    2.203353   3.332206   2.013999   3.161995   2.645756
    25  H    2.203353   3.332206   2.013999   3.161995   2.645756
                   16         17         18         19         20
    16  H    0.000000
    17  H    2.469658   0.000000
    18  H    4.263941   2.432908   0.000000
    19  H    5.909280   4.799760   2.567353   0.000000
    20  H    8.039443   7.378162   5.259489   2.698310   0.000000
    21  H    9.493090   9.338538   7.471476   5.002778   2.472786
    22  H    9.141678   9.643119   8.286505   6.205590   4.354108
    23  H    6.923355   7.861745   7.046591   5.616731   4.908569
    24  H    4.806766   5.855764   5.446122   4.748663   5.181704
    25  H    4.806766   5.855764   5.446122   4.748663   5.181704
                   21         22         23         24         25
    21  H    0.000000
    22  H    2.504224   0.000000
    23  H    4.263084   2.540379   0.000000
    24  H    5.565609   4.596357   2.357126   0.000000
    25  H    5.565609   4.596357   2.357126   1.719170   0.000000
 Stoichiometry    C14H11(1+)
 Framework group  CS[SG(C14H9),X(H2)]
 Deg. of freedom    46
 Full point group                 CS      NOp   2
 Largest Abelian subgroup         CS      NOp   2
 Largest concise Abelian subgroup CS      NOp   2
                         Standard orientation:                         
 ---------------------------------------------------------------------
 Center     Atomic      Atomic             Coordinates (Angstroms)
 Number     Number       Type             X           Y           Z
 ---------------------------------------------------------------------
      1          6           0       -2.225791   -1.566892    0.000000
      2          6           0       -2.170518   -2.959402    0.000000
      3          6           0       -0.916775   -3.626825    0.000000
      4          6           0        0.209357   -2.973960    0.000000
      5          6           0        2.263745    1.661949    0.000000
      6          6           0        2.061658    3.178789    0.000000
      7          6           0        0.825801    3.731634    0.000000
      8          6           0       -0.213638    2.823265    0.000000
      9          6           0       -1.224809    0.595321    0.000000
     10          6           0        1.333958   -0.740251    0.000000
     11          6           0       -1.116680   -0.897540    0.000000
     12          6           0        0.204543   -1.509058    0.000000
     13          6           0        0.000000    1.327648    0.000000
     14          6           0        1.238466    0.765976    0.000000
     15          1           0       -3.186929   -1.064126    0.000000
     16          1           0       -3.091041   -3.533294    0.000000
     17          1           0       -0.920447   -4.711314    0.000000
     18          1           0        1.172442   -3.470808    0.000000
     19          1           0        2.328848   -1.178642    0.000000
     20          1           0        3.305489    1.336721    0.000000
     21          1           0        2.955945    3.784677    0.000000
     22          1           0        0.666900    4.800261    0.000000
     23          1           0       -1.258593    3.143155    0.000000
     24          1           0       -1.794264    1.014725    0.859585
     25          1           0       -1.794264    1.014725   -0.859585
 ---------------------------------------------------------------------
 Rotational constants (GHZ):           2.1320052           0.4449860           0.3689479
 Standard basis: 6-311++G(d,p) (5D, 7F)
 There are   299 symmetry adapted cartesian basis functions of A'  symmetry.
 There are   100 symmetry adapted cartesian basis functions of A"  symmetry.
 There are   285 symmetry adapted basis functions of A'  symmetry.
 There are   100 symmetry adapted basis functions of A"  symmetry.
   385 basis functions,   603 primitive gaussians,   399 cartesian basis functions
    47 alpha electrons       47 beta electrons
       nuclear repulsion energy       781.5809025586 Hartrees.
 NAtoms=   25 NActive=   25 NUniq=   24 SFac= 1.09D+00 NAtFMM=   60 NAOKFM=F Big=F
 Integral buffers will be    131072 words long.
 Regular integral format.
 Two-electron integral symmetry is turned on.
 Nuclear repulsion after empirical dispersion term =      781.5799265816 Hartrees.
 One-electron integrals computed using PRISM.
 NBasis=   385 RedAO= T EigKep=  1.12D-06  NBF=   285   100
 NBsUse=   379 1.00D-06 EigRej=  7.80D-07 NBFU=   279   100
 ExpMin= 3.60D-02 ExpMax= 4.56D+03 ExpMxC= 6.82D+02 IAcc=3 IRadAn=         5 AccDes= 0.00D+00
 Harris functional with IExCor= 1009 and IRadAn=       5 diagonalized for initial guess.
 HarFok:  IExCor= 1009 AccDes= 0.00D+00 IRadAn=         5 IDoV= 1 UseB2=F ITyADJ=14
 ICtDFT=  3500011 ScaDFX=  1.000000  1.000000  1.000000  1.000000
 FoFCou: FMM=F IPFlag=           0 FMFlag=      100000 FMFlg1=           0
         NFxFlg=           0 DoJE=T BraDBF=F KetDBF=T FulRan=T
         wScrn=  0.000000 ICntrl=       500 IOpCl=  0 I1Cent=   200000004 NGrid=           0
         NMat0=    1 NMatS0=      1 NMatT0=    0 NMatD0=    1 NMtDS0=    0 NMtDT0=    0
 Petite list used in FoFCou.
 Initial guess orbital symmetries:
       Occupied  (A') (A') (A') (A') (A') (A') (A') (A') (A') (A')
                 (A') (A') (A') (A') (A') (A') (A') (A') (A') (A')
                 (A') (A') (A') (A') (A') (A') (A') (A') (A') (A')
                 (A') (A') (A") (A') (A') (A') (A') (A') (A") (A')
                 (A') (A") (A') (A") (A") (A") (A")
       Virtual   (A") (A") (A") (A") (A") (A') (A') (A') (A') (A")
                 (A") (A') (A') (A') (A') (A") (A') (A') (A') (A')
                 (A") (A') (A") (A') (A') (A") (A') (A') (A") (A')
                 (A') (A') (A') (A') (A") (A') (A') (A") (A') (A')
                 (A") (A') (A') (A") (A') (A') (A') (A') (A") (A')
                 (A') (A") (A') (A") (A') (A') (A') (A") (A') (A")
                 (A') (A') (A') (A') (A") (A') (A') (A') (A') (A")
                 (A') (A') (A') (A') (A') (A') (A') (A') (A') (A')
                 (A') (A') (A') (A') (A') (A') (A') (A') (A') (A')
                 (A') (A') (A') (A') (A') (A') (A') (A") (A') (A")
                 (A') (A") (A') (A") (A') (A') (A") (A") (A") (A')
                 (A") (A') (A') (A") (A') (A") (A') (A') (A") (A")
                 (A') (A") (A') (A') (A') (A') (A") (A') (A") (A')
                 (A') (A') (A') (A') (A') (A') (A") (A') (A') (A')
                 (A') (A') (A') (A') (A') (A') (A') (A') (A') (A")
                 (A") (A') (A") (A') (A") (A') (A') (A") (A') (A")
                 (A') (A") (A") (A") (A") (A') (A') (A') (A') (A')
                 (A') (A") (A') (A') (A') (A') (A") (A') (A') (A")
                 (A') (A') (A') (A") (A') (A") (A') (A") (A') (A")
                 (A") (A') (A') (A') (A") (A') (A') (A") (A') (A')
                 (A") (A") (A") (A') (A") (A') (A') (A") (A') (A')
                 (A") (A") (A') (A') (A') (A") (A') (A") (A') (A")
                 (A') (A') (A') (A') (A") (A') (A') (A") (A') (A")
                 (A') (A') (A') (A") (A') (A') (A") (A') (A") (A")
                 (A') (A') (A') (A") (A') (A') (A') (A') (A') (A")
                 (A') (A') (A') (A") (A") (A') (A') (A") (A') (A')
                 (A') (A") (A') (A") (A') (A') (A') (A") (A") (A')
                 (A') (A') (A') (A") (A') (A') (A") (A') (A") (A')
                 (A") (A') (A") (A') (A") (A") (A') (A') (A') (A')
                 (A') (A') (A') (A') (A') (A') (A') (A') (A') (A')
                 (A') (A') (A') (A") (A') (A') (A') (A') (A') (A')
                 (A') (A') (A') (A') (A') (A') (A') (A') (A') (A')
                 (A') (A') (A') (A') (A') (A') (A') (A') (A') (A')
                 (A') (A')
 The electronic state of the initial guess is 1-A'.
 Requested convergence on RMS density matrix=1.00D-08 within 128 cycles.
 Requested convergence on MAX density matrix=1.00D-06.
 Requested convergence on             energy=1.00D-06.
 No special actions if energy rises.
 SCF Done:  E(RM062X) =  -539.693475223     A.U. after   16 cycles
            NFock= 16  Conv=0.51D-08     -V/T= 2.0038
 DoSCS=F DFT=T ScalE2(SS,OS)=  1.000000  1.000000
 ExpMin= 3.60D-02 ExpMax= 4.56D+03 ExpMxC= 6.82D+02 IAcc=3 IRadAn=         5 AccDes= 0.00D+00
 HarFok:  IExCor=  205 AccDes= 0.00D+00 IRadAn=         5 IDoV=-2 UseB2=F ITyADJ=14
 ICtDFT= 12500011 ScaDFX=  1.000000  1.000000  1.000000  1.000000
 Range of M.O.s used for correlation:    15   379
 NBasis=   385 NAE=    47 NBE=    47 NFC=    14 NFV=     0
 NROrb=    365 NOA=    33 NOB=    33 NVA=   332 NVB=   332

 **** Warning!!: The largest alpha MO coefficient is  0.15008008D+03

 Orbital symmetries:
       Occupied  (A') (A') (A') (A') (A') (A') (A') (A') (A') (A')
                 (A') (A') (A') (A') (A') (A') (A') (A') (A') (A')
                 (A') (A') (A') (A') (A') (A') (A') (A') (A') (A')
                 (A") (A') (A') (A') (A') (A') (A") (A') (A') (A")
                 (A') (A') (A') (A") (A") (A") (A")
       Virtual   (A") (A") (A") (A") (A') (A') (A') (A') (A") (A')
                 (A') (A") (A') (A') (A") (A') (A") (A') (A') (A')
                 (A") (A") (A') (A') (A') (A") (A') (A') (A") (A')
                 (A") (A') (A") (A') (A') (A') (A') (A') (A") (A')
                 (A") (A') (A') (A") (A") (A') (A") (A') (A') (A')
                 (A") (A') (A') (A') (A') (A") (A') (A') (A') (A')
                 (A") (A') (A') (A') (A') (A') (A") (A') (A') (A')
                 (A') (A') (A') (A') (A') (A') (A') (A') (A') (A')
                 (A') (A') (A') (A') (A') (A') (A') (A') (A') (A')
                 (A') (A') (A') (A') (A") (A") (A') (A") (A') (A')
                 (A") (A') (A') (A') (A") (A") (A') (A") (A') (A")
                 (A') (A') (A") (A') (A") (A') (A") (A') (A') (A")
                 (A") (A') (A") (A') (A') (A") (A') (A') (A') (A')
                 (A') (A') (A') (A') (A') (A') (A') (A') (A') (A')
                 (A') (A') (A') (A") (A') (A') (A') (A') (A') (A')
                 (A") (A') (A') (A') (A") (A') (A") (A") (A') (A")
                 (A") (A') (A') (A") (A') (A") (A") (A") (A') (A')
                 (A') (A") (A') (A') (A') (A") (A') (A") (A') (A')
                 (A') (A') (A') (A") (A') (A") (A') (A") (A") (A')
                 (A") (A') (A') (A") (A') (A") (A') (A') (A') (A')
                 (A") (A") (A") (A') (A") (A') (A") (A') (A') (A')
                 (A') (A") (A') (A") (A') (A") (A") (A') (A") (A')
                 (A') (A') (A') (A') (A") (A') (A') (A") (A') (A")
                 (A') (A') (A') (A") (A') (A') (A") (A') (A") (A')
                 (A") (A') (A') (A") (A') (A') (A') (A') (A') (A')
                 (A") (A') (A') (A') (A') (A") (A") (A') (A") (A')
                 (A') (A') (A') (A') (A') (A") (A') (A') (A') (A')
                 (A') (A") (A') (A") (A") (A") (A') (A") (A') (A")
                 (A') (A") (A") (A") (A') (A") (A') (A') (A') (A')
                 (A') (A') (A') (A') (A') (A') (A') (A') (A') (A')
                 (A') (A') (A') (A") (A') (A') (A') (A') (A') (A')
                 (A') (A') (A') (A') (A') (A') (A') (A') (A') (A')
                 (A') (A') (A') (A') (A') (A') (A') (A') (A') (A')
                 (A') (A')
     4 initial guesses have been made.
 Convergence on wavefunction:    0.001000000000000
 Iteration     1 Dimension     4 NMult     0 NNew      4
 CISAX will form     4 AO SS matrices at one time.
 Iteration     2 Dimension     6 NMult     4 NNew      2
 Iteration     3 Dimension     8 NMult     6 NNew      2
 Iteration     4 Dimension    10 NMult     8 NNew      2
 Iteration     5 Dimension    12 NMult    10 NNew      2
 Iteration     6 Dimension    14 NMult    12 NNew      2
 ***********************************************************************
 Excited states from <AA,BB:AA,BB> singles matrix:
 ***********************************************************************
 
 Ground to excited state transition densities written to RWF  633
 Ground to excited state transition electric dipole moments (Au):
       state          X           Y           Z        Dip. S.      Osc.
         1        -0.2329      0.4959     -0.0000      0.3001      0.0148
 Ground to excited state transition velocity dipole moments (Au):
       state          X           Y           Z        Dip. S.      Osc.
         1         0.0250     -0.0335     -0.0000      0.0017      0.0158
 Ground to excited state transition magnetic dipole moments (Au):
       state          X           Y           Z
         1        -0.0000     -0.0000      0.0118
 Ground to excited state transition velocity quadrupole moments (Au):
       state          XX          YY          ZZ          XY          XZ          YZ
         1         0.0869      0.0636     -0.0061      0.0899      0.0000      0.0000
 <0|del|b> * <b|rxdel|0> + <0|del|b> * <b|delr+rdel|0>
 Rotatory Strengths (R) in cgs (10**-40 erg-esu-cm/Gauss)
       state          XX          YY          ZZ    R(velocity)    E-M Angle
         1         0.0000      0.0000     -0.0000     -0.0000       90.00
 1/2[<0|r|b>*<b|rxdel|0> + (<0|rxdel|b>*<b|r|0>)*]
 Rotatory Strengths (R) in cgs (10**-40 erg-esu-cm/Gauss)
       state          XX          YY          ZZ     R(length)
         1        -0.0000      0.0000      0.0000      0.0000
  1/2[<0|del|b>*<b|r|0> + (<0|r|b>*<b|del|0>)*] (Au)
       state          X           Y           Z        Dip. S.   Osc.(frdel)
         1        -0.0058     -0.0166      0.0000      0.0224      0.0149

 Excitation energies and oscillator strengths:
 
 Excited State   1:      Singlet-A'     2.0105 eV  616.68 nm  f=0.0148  <S**2>=0.000
      47 -> 48         0.70289
 This state for optimization and/or second-order correction.
 Total Energy, E(TD-HF/TD-DFT) =  -539.619590650    
 Copying the excited state density for this state as the 1-particle RhoCI density.
 SavETr:  write IOETrn=   770 NScale= 10 NData=  16 NLR=1 NState=    1 LETran=      28.

 **********************************************************************

            Population analysis using the SCF Density.

 **********************************************************************

 Orbital symmetries:
       Occupied  (A') (A') (A') (A') (A') (A') (A') (A') (A') (A')
                 (A') (A') (A') (A') (A') (A') (A') (A') (A') (A')
                 (A') (A') (A') (A') (A') (A') (A') (A') (A') (A')
                 (A") (A') (A') (A') (A') (A') (A") (A') (A') (A")
                 (A') (A') (A') (A") (A") (A") (A")
       Virtual   (A") (A") (A") (A") (A') (A') (A') (A') (A") (A')
                 (A') (A") (A') (A') (A") (A') (A") (A') (A') (A')
                 (A") (A") (A') (A') (A') (A") (A') (A') (A") (A')
                 (A") (A') (A") (A') (A') (A') (A') (A') (A") (A')
                 (A") (A') (A') (A") (A") (A') (A") (A') (A') (A')
                 (A") (A') (A') (A') (A') (A") (A') (A') (A') (A')
                 (A") (A') (A') (A') (A') (A') (A") (A') (A') (A')
                 (A') (A') (A') (A') (A') (A') (A') (A') (A') (A')
                 (A') (A') (A') (A') (A') (A') (A') (A') (A') (A')
                 (A') (A') (A') (A') (A") (A") (A') (A") (A') (A')
                 (A") (A') (A') (A') (A") (A") (A') (A") (A') (A")
                 (A') (A') (A") (A') (A") (A') (A") (A') (A') (A")
                 (A") (A') (A") (A') (A') (A") (A') (A') (A') (A')
                 (A') (A') (A') (A') (A') (A') (A') (A') (A') (A')
                 (A') (A') (A') (A") (A') (A') (A') (A') (A') (A')
                 (A") (A') (A') (A') (A") (A') (A") (A") (A') (A")
                 (A") (A') (A') (A") (A') (A") (A") (A") (A') (A')
                 (A') (A") (A') (A') (A') (A") (A') (A") (A') (A')
                 (A') (A') (A') (A") (A') (A") (A') (A") (A") (A')
                 (A") (A') (A') (A") (A') (A") (A') (A') (A') (A')
                 (A") (A") (A") (A') (A") (A') (A") (A') (A') (A')
                 (A') (A") (A') (A") (A') (A") (A") (A') (A") (A')
                 (A') (A') (A') (A') (A") (A') (A') (A") (A') (A")
                 (A') (A') (A') (A") (A') (A') (A") (A') (A") (A')
                 (A") (A') (A') (A") (A') (A') (A') (A') (A') (A')
                 (A") (A') (A') (A') (A') (A") (A") (A') (A") (A')
                 (A') (A') (A') (A') (A') (A") (A') (A') (A') (A')
                 (A') (A") (A') (A") (A") (A") (A') (A") (A') (A")
                 (A') (A") (A") (A") (A') (A") (A') (A') (A') (A')
                 (A') (A') (A') (A') (A') (A') (A') (A') (A') (A')
                 (A') (A') (A') (A") (A') (A') (A') (A') (A') (A')
                 (A') (A') (A') (A') (A') (A') (A') (A') (A') (A')
                 (A') (A') (A') (A') (A') (A') (A') (A') (A') (A')
                 (A') (A')
 The electronic state is 1-A'.
 Alpha  occ. eigenvalues --  -10.77724 -10.74140 -10.74056 -10.73860 -10.72528
 Alpha  occ. eigenvalues --  -10.71554 -10.71438 -10.70590 -10.70365 -10.70325
 Alpha  occ. eigenvalues --  -10.70146 -10.69300 -10.68947 -10.68427  -1.17170
 Alpha  occ. eigenvalues --   -1.12508  -1.07028  -1.06568  -1.01436  -1.01142
 Alpha  occ. eigenvalues --   -0.94933  -0.90498  -0.86572  -0.85682  -0.83528
 Alpha  occ. eigenvalues --   -0.77798  -0.76763  -0.74039  -0.70524  -0.69414
 Alpha  occ. eigenvalues --   -0.68394  -0.67845  -0.67625  -0.66613  -0.64286
 Alpha  occ. eigenvalues --   -0.61889  -0.61293  -0.61092  -0.58538  -0.58215
 Alpha  occ. eigenvalues --   -0.56668  -0.55421  -0.52965  -0.52434  -0.49455
 Alpha  occ. eigenvalues --   -0.46398  -0.41243
 Alpha virt. eigenvalues --   -0.26494  -0.14872  -0.14060  -0.12511  -0.11326
 Alpha virt. eigenvalues --   -0.10143  -0.09416  -0.07891  -0.07672  -0.07539
 Alpha virt. eigenvalues --   -0.07349  -0.07163  -0.05664  -0.05543  -0.05484
 Alpha virt. eigenvalues --   -0.04023  -0.03779  -0.03243  -0.03112  -0.02105
 Alpha virt. eigenvalues --   -0.01209  -0.01088   0.00088   0.00484   0.00637
 Alpha virt. eigenvalues --    0.01086   0.01424   0.01818   0.01953   0.02153
 Alpha virt. eigenvalues --    0.02425   0.02460   0.03026   0.03320   0.03466
 Alpha virt. eigenvalues --    0.04127   0.04522   0.04640   0.04863   0.05367
 Alpha virt. eigenvalues --    0.05913   0.06096   0.06462   0.07192   0.07369
 Alpha virt. eigenvalues --    0.07606   0.07884   0.08170   0.08430   0.08747
 Alpha virt. eigenvalues --    0.08820   0.09489   0.09581   0.10532   0.10757
 Alpha virt. eigenvalues --    0.11281   0.11298   0.12100   0.12379   0.13029
 Alpha virt. eigenvalues --    0.13500   0.13510   0.13843   0.14009   0.15404
 Alpha virt. eigenvalues --    0.16060   0.16193   0.16991   0.17417   0.17763
 Alpha virt. eigenvalues --    0.18536   0.18894   0.19190   0.20257   0.20843
 Alpha virt. eigenvalues --    0.21249   0.21703   0.21809   0.22900   0.23645
 Alpha virt. eigenvalues --    0.24194   0.25014   0.25132   0.26939   0.27706
 Alpha virt. eigenvalues --    0.28875   0.29350   0.29766   0.31633   0.35241
 Alpha virt. eigenvalues --    0.36340   0.37778   0.39267   0.40483   0.40655
 Alpha virt. eigenvalues --    0.41502   0.42254   0.43084   0.43424   0.44581
 Alpha virt. eigenvalues --    0.45013   0.45209   0.45466   0.46429   0.47485
 Alpha virt. eigenvalues --    0.47850   0.47908   0.48982   0.50425   0.50993
 Alpha virt. eigenvalues --    0.51748   0.52044   0.52257   0.53142   0.54196
 Alpha virt. eigenvalues --    0.54539   0.55231   0.55569   0.57341   0.57929
 Alpha virt. eigenvalues --    0.58089   0.60342   0.61833   0.61864   0.62136
 Alpha virt. eigenvalues --    0.62942   0.63666   0.65177   0.65634   0.67482
 Alpha virt. eigenvalues --    0.70260   0.70402   0.72132   0.72882   0.73327
 Alpha virt. eigenvalues --    0.74932   0.75678   0.76185   0.77020   0.77521
 Alpha virt. eigenvalues --    0.77844   0.78273   0.79054   0.79985   0.80440
 Alpha virt. eigenvalues --    0.80923   0.82012   0.83049   0.83798   0.85926
 Alpha virt. eigenvalues --    0.86770   0.86865   0.88189   0.89215   0.90809
 Alpha virt. eigenvalues --    0.91084   0.92798   0.93999   0.94642   0.96053
 Alpha virt. eigenvalues --    0.97261   0.99111   1.00848   1.01053   1.02008
 Alpha virt. eigenvalues --    1.03353   1.03643   1.05603   1.06598   1.09225
 Alpha virt. eigenvalues --    1.15899   1.21783   1.22488   1.23573   1.29049
 Alpha virt. eigenvalues --    1.32523   1.32749   1.34412   1.34654   1.35332
 Alpha virt. eigenvalues --    1.38256   1.39321   1.39781   1.41729   1.42696
 Alpha virt. eigenvalues --    1.43118   1.45096   1.45784   1.46414   1.47862
 Alpha virt. eigenvalues --    1.48003   1.51194   1.51989   1.54065   1.54166
 Alpha virt. eigenvalues --    1.55582   1.55868   1.56145   1.58567   1.60909
 Alpha virt. eigenvalues --    1.61624   1.63639   1.65034   1.66170   1.67466
 Alpha virt. eigenvalues --    1.68758   1.70040   1.70407   1.74357   1.75583
 Alpha virt. eigenvalues --    1.78217   1.78655   1.78780   1.79059   1.80344
 Alpha virt. eigenvalues --    1.81834   1.83410   1.83469   1.84242   1.84303
 Alpha virt. eigenvalues --    1.84888   1.85793   1.86410   1.88703   1.91660
 Alpha virt. eigenvalues --    1.92472   1.94713   1.97558   1.97988   1.98401
 Alpha virt. eigenvalues --    1.99993   2.02893   2.04694   2.07645   2.11306
 Alpha virt. eigenvalues --    2.14237   2.15397   2.15825   2.18415   2.21875
 Alpha virt. eigenvalues --    2.21979   2.26892   2.30653   2.33092   2.34575
 Alpha virt. eigenvalues --    2.36167   2.38148   2.39651   2.41751   2.42522
 Alpha virt. eigenvalues --    2.45467   2.46354   2.47364   2.52498   2.53286
 Alpha virt. eigenvalues --    2.54862   2.57136   2.58656   2.58673   2.59255
 Alpha virt. eigenvalues --    2.60691   2.61005   2.61901   2.63209   2.63510
 Alpha virt. eigenvalues --    2.65207   2.65220   2.66138   2.67467   2.67714
 Alpha virt. eigenvalues --    2.68526   2.70694   2.71333   2.73144   2.74649
 Alpha virt. eigenvalues --    2.76137   2.76475   2.79390   2.81689   2.84392
 Alpha virt. eigenvalues --    2.85719   2.86422   2.92304   2.99023   2.99545
 Alpha virt. eigenvalues --    3.00184   3.04403   3.06302   3.09450   3.13973
 Alpha virt. eigenvalues --    3.16615   3.19597   3.22248   3.31291   3.31893
 Alpha virt. eigenvalues --    3.34443   3.36075   3.44358   3.46943   3.48055
 Alpha virt. eigenvalues --    3.48514   3.51012   3.57299   3.65022   3.68601
 Alpha virt. eigenvalues --    3.70425   3.91196   3.91546   3.92929   3.96390
 Alpha virt. eigenvalues --    4.02152   4.05032   4.08180   4.11225   4.34185
 Alpha virt. eigenvalues --    4.56992   4.64641   4.66101  23.44191  23.57212
 Alpha virt. eigenvalues --   23.69705  23.71595  23.75452  23.90212  23.92270
 Alpha virt. eigenvalues --   23.94555  23.99501  24.02653  24.13683  24.17315
 Alpha virt. eigenvalues --   24.28142  24.33034
          Condensed to atoms (all electrons):
               1          2          3          4          5          6
     1  C   12.078273   1.638986  -1.429942   1.579962  -0.465465  -0.009050
     2  C    1.638986   7.139396   0.247049  -0.230995  -0.139600  -0.015674
     3  C   -1.429942   0.247049   7.599662   0.040761   0.058812   0.001108
     4  C    1.579962  -0.230995   0.040761   8.422875   0.470599  -0.048192
     5  C   -0.465465  -0.139600   0.058812   0.470599   9.427044   0.325208
     6  C   -0.009050  -0.015674   0.001108  -0.048192   0.325208   6.465317
     7  C   -0.124116   0.026153  -0.012295  -0.077328  -0.354708   0.248592
     8  C   -0.587976  -0.105469  -0.067614   0.092989   2.292820  -0.791727
     9  C   -3.737674  -0.929780   0.508814  -1.194808  -1.093442  -0.006946
    10  C   -0.194525   0.149661  -0.623084  -0.772187   0.186960  -0.723314
    11  C   -1.771414  -1.895793   1.247406  -2.418160  -2.094091   0.006264
    12  C   -1.284660   0.454271  -0.496331   0.809172   1.638379  -0.429369
    13  C    1.258497   0.000981  -0.569754  -0.832625  -4.553830   1.536235
    14  C   -1.327297  -0.291300  -0.388303  -0.313497  -0.132238  -0.492772
    15  H    0.383051  -0.076812  -0.000076   0.015541   0.002345   0.001561
    16  H   -0.037222   0.384760  -0.026493   0.003865  -0.001547  -0.000343
    17  H   -0.013268  -0.033176   0.428007  -0.078831  -0.001031   0.000299
    18  H    0.039231   0.003666  -0.123472   0.447728   0.015584  -0.002611
    19  H   -0.002203  -0.006025   0.014689  -0.071198  -0.105374   0.038248
    20  H    0.004663   0.001464  -0.003133   0.017118   0.422456  -0.081426
    21  H   -0.001931  -0.000381   0.000470   0.000372  -0.033929   0.367453
    22  H    0.001181   0.000427  -0.000394  -0.000992  -0.004515   0.007650
    23  H   -0.013099  -0.004994   0.000672   0.003604   0.029715   0.001272
    24  H    0.077243   0.019877  -0.001938  -0.010094  -0.025835  -0.000395
    25  H    0.077243   0.019877  -0.001938  -0.010094  -0.025835  -0.000395
               7          8          9         10         11         12
     1  C   -0.124116  -0.587976  -3.737674  -0.194525  -1.771414  -1.284660
     2  C    0.026153  -0.105469  -0.929780   0.149661  -1.895793   0.454271
     3  C   -0.012295  -0.067614   0.508814  -0.623084   1.247406  -0.496331
     4  C   -0.077328   0.092989  -1.194808  -0.772187  -2.418160   0.809172
     5  C   -0.354708   2.292820  -1.093442   0.186960  -2.094091   1.638379
     6  C    0.248592  -0.791727  -0.006946  -0.723314   0.006264  -0.429369
     7  C    6.753405   0.726361  -0.216884   0.411802  -0.150820  -0.079352
     8  C    0.726361  10.317746  -2.147010   0.190786  -1.054024  -0.234053
     9  C   -0.216884  -2.147010   9.817814   0.422245   2.687291  -0.115913
    10  C    0.411802   0.190786   0.422245  10.008049  -1.621893   1.186404
    11  C   -0.150820  -1.054024   2.687291  -1.621893  17.387305  -3.767548
    12  C   -0.079352  -0.234053  -0.115913   1.186404  -3.767548  14.708385
    13  C   -1.828922  -3.252129   1.326285  -3.610854   3.703379  -5.562621
    14  C    0.772652   0.309974   0.253426   0.514647  -4.003173  -1.013684
    15  H   -0.004168  -0.010191   0.045099   0.001612  -0.016964   0.016758
    16  H    0.000479   0.002391   0.004715  -0.014984   0.074341  -0.050166
    17  H   -0.000311  -0.002247   0.004242  -0.000575   0.037700   0.012153
    18  H    0.000872   0.010529  -0.028954   0.040629  -0.032521  -0.026611
    19  H   -0.003328  -0.060243   0.052759   0.382713   0.077602  -0.185659
    20  H    0.003675   0.050290  -0.029754   0.076888  -0.012313   0.027454
    21  H   -0.020455  -0.011724   0.001268   0.021570  -0.006627   0.003245
    22  H    0.366884  -0.040567  -0.001530  -0.013199   0.004498  -0.005854
    23  H   -0.058213   0.340383   0.060398  -0.000624  -0.025599   0.010755
    24  H    0.009952  -0.004619   0.346803   0.001159   0.046669  -0.070169
    25  H    0.009952  -0.004619   0.346803   0.001159   0.046669  -0.070169
              13         14         15         16         17         18
     1  C    1.258497  -1.327297   0.383051  -0.037222  -0.013268   0.039231
     2  C    0.000981  -0.291300  -0.076812   0.384760  -0.033176   0.003666
     3  C   -0.569754  -0.388303  -0.000076  -0.026493   0.428007  -0.123472
     4  C   -0.832625  -0.313497   0.015541   0.003865  -0.078831   0.447728
     5  C   -4.553830  -0.132238   0.002345  -0.001547  -0.001031   0.015584
     6  C    1.536235  -0.492772   0.001561  -0.000343   0.000299  -0.002611
     7  C   -1.828922   0.772652  -0.004168   0.000479  -0.000311   0.000872
     8  C   -3.252129   0.309974  -0.010191   0.002391  -0.002247   0.010529
     9  C    1.326285   0.253426   0.045099   0.004715   0.004242  -0.028954
    10  C   -3.610854   0.514647   0.001612  -0.014984  -0.000575   0.040629
    11  C    3.703379  -4.003173  -0.016964   0.074341   0.037700  -0.032521
    12  C   -5.562621  -1.013684   0.016758  -0.050166   0.012153  -0.026611
    13  C   19.962289  -1.579235  -0.021889   0.007528  -0.008314   0.006618
    14  C   -1.579235  13.721779   0.003931  -0.012156  -0.000289  -0.015828
    15  H   -0.021889   0.003931   0.426178  -0.007988   0.001364   0.000237
    16  H    0.007528  -0.012156  -0.007988   0.404204  -0.007819   0.002369
    17  H   -0.008314  -0.000289   0.001364  -0.007819   0.418322  -0.010630
    18  H    0.006618  -0.015828   0.000237   0.002369  -0.010630   0.440216
    19  H    0.125678   0.107252   0.000596  -0.000361   0.001446  -0.003707
    20  H   -0.040374  -0.102951  -0.000187   0.000031  -0.000155   0.001016
    21  H   -0.016435   0.044221   0.000005  -0.000007   0.000007  -0.000078
    22  H    0.063261  -0.042441  -0.000141   0.000010  -0.000006   0.000016
    23  H   -0.042853   0.024524   0.000687  -0.000149  -0.000015  -0.000045
    24  H    0.018793  -0.074327  -0.000696   0.000604  -0.000106   0.000074
    25  H    0.018793  -0.074327  -0.000696   0.000604  -0.000106   0.000074
              19         20         21         22         23         24
     1  C   -0.002203   0.004663  -0.001931   0.001181  -0.013099   0.077243
     2  C   -0.006025   0.001464  -0.000381   0.000427  -0.004994   0.019877
     3  C    0.014689  -0.003133   0.000470  -0.000394   0.000672  -0.001938
     4  C   -0.071198   0.017118   0.000372  -0.000992   0.003604  -0.010094
     5  C   -0.105374   0.422456  -0.033929  -0.004515   0.029715  -0.025835
     6  C    0.038248  -0.081426   0.367453   0.007650   0.001272  -0.000395
     7  C   -0.003328   0.003675  -0.020455   0.366884  -0.058213   0.009952
     8  C   -0.060243   0.050290  -0.011724  -0.040567   0.340383  -0.004619
     9  C    0.052759  -0.029754   0.001268  -0.001530   0.060398   0.346803
    10  C    0.382713   0.076888   0.021570  -0.013199  -0.000624   0.001159
    11  C    0.077602  -0.012313  -0.006627   0.004498  -0.025599   0.046669
    12  C   -0.185659   0.027454   0.003245  -0.005854   0.010755  -0.070169
    13  C    0.125678  -0.040374  -0.016435   0.063261  -0.042853   0.018793
    14  C    0.107252  -0.102951   0.044221  -0.042441   0.024524  -0.074327
    15  H    0.000596  -0.000187   0.000005  -0.000141   0.000687  -0.000696
    16  H   -0.000361   0.000031  -0.000007   0.000010  -0.000149   0.000604
    17  H    0.001446  -0.000155   0.000007  -0.000006  -0.000015  -0.000106
    18  H   -0.003707   0.001016  -0.000078   0.000016  -0.000045   0.000074
    19  H    0.430498  -0.005476   0.000521  -0.000263  -0.000397   0.000979
    20  H   -0.005476   0.453597  -0.008711   0.001618  -0.000181   0.000307
    21  H    0.000521  -0.008711   0.429711  -0.005042   0.000973  -0.000168
    22  H   -0.000263   0.001618  -0.005042   0.426263  -0.007558   0.000683
    23  H   -0.000397  -0.000181   0.000973  -0.007558   0.454285  -0.001446
    24  H    0.000979   0.000307  -0.000168   0.000683  -0.001446   0.493599
    25  H    0.000979   0.000307  -0.000168   0.000683  -0.001446  -0.078676
              25
     1  C    0.077243
     2  C    0.019877
     3  C   -0.001938
     4  C   -0.010094
     5  C   -0.025835
     6  C   -0.000395
     7  C    0.009952
     8  C   -0.004619
     9  C    0.346803
    10  C    0.001159
    11  C    0.046669
    12  C   -0.070169
    13  C    0.018793
    14  C   -0.074327
    15  H   -0.000696
    16  H    0.000604
    17  H   -0.000106
    18  H    0.000074
    19  H    0.000979
    20  H    0.000307
    21  H   -0.000168
    22  H    0.000683
    23  H   -0.001446
    24  H   -0.078676
    25  H    0.493599
 Mulliken charges:
               1
     1  C   -0.138490
     2  C   -0.356569
     3  C   -0.402684
     4  C    0.154416
     5  C    0.161517
     6  C   -0.396993
     7  C   -0.399877
     8  C    0.039941
     9  C   -0.375269
    10  C   -0.021049
    11  C   -0.448183
    12  C    0.525182
    13  C   -0.108502
    14  C    0.111415
    15  H    0.240844
    16  H    0.273335
    17  H    0.253340
    18  H    0.235595
    19  H    0.210273
    20  H    0.223777
    21  H    0.235841
    22  H    0.249330
    23  H    0.229352
    24  H    0.251728
    25  H    0.251728
 Sum of Mulliken charges =   1.00000
 Mulliken charges with hydrogens summed into heavy atoms:
               1
     1  C    0.102354
     2  C   -0.083233
     3  C   -0.149344
     4  C    0.390012
     5  C    0.385295
     6  C   -0.161152
     7  C   -0.150547
     8  C    0.269293
     9  C    0.128187
    10  C    0.189225
    11  C   -0.448183
    12  C    0.525182
    13  C   -0.108502
    14  C    0.111415
 Electronic spatial extent (au):  <R**2>=           2854.3999
 Charge=              1.0000 electrons
 Dipole moment (field-independent basis, Debye):
    X=             -1.2342    Y=             -2.5831    Z=              0.0000  Tot=              2.8628
 Quadrupole moment (field-independent basis, Debye-Ang):
   XX=            -52.4333   YY=            -34.5609   ZZ=            -84.1355
   XY=              9.0358   XZ=             -0.0000   YZ=              0.0000
 Traceless Quadrupole moment (field-independent basis, Debye-Ang):
   XX=              4.6100   YY=             22.4823   ZZ=            -27.0923
   XY=              9.0358   XZ=             -0.0000   YZ=              0.0000
 Octapole moment (field-independent basis, Debye-Ang**2):
  XXX=             -9.2304  YYY=            -17.4930  ZZZ=              0.0000  XYY=             -9.0585
  XXY=            -15.2739  XXZ=              0.0000  XZZ=             -4.8204  YZZ=             -2.5652
  YYZ=              0.0000  XYZ=             -0.0000
 Hexadecapole moment (field-independent basis, Debye-Ang**3):
 XXXX=           -887.7051 YYYY=          -1926.5787 ZZZZ=            -99.4009 XXXY=           -311.7247
 XXXZ=             -0.0000 YYYX=           -236.4579 YYYZ=              0.0000 ZZZX=              0.0000
 ZZZY=              0.0000 XXYY=           -461.8917 XXZZ=           -217.2201 YYZZ=           -519.5993
 XXYZ=              0.0000 YYXZ=             -0.0000 ZZXY=           -162.2983
 N-N= 7.815799265816D+02 E-N=-2.799566348170D+03  KE= 5.376630220683D+02
 Symmetry A'   KE= 5.229579602717D+02
 Symmetry A"   KE= 1.470506179659D+01
 Unable to Open any file for archive entry.
 1\1\GINC-GADI-CPU-CLX-2808\SP\RM062X TD-FC\6-311++G(d,p)\C14H11(1+)\TS
 1578\02-Aug-2022\0\\#n M062X/6-311++G(d,p) TD(NStates=1) EmpiricalDisp
 ersion=GD3 SP\\SP_4\\1,1\C,0,0.,2.350655,1.372431\C,0,0.,3.593508,0.74
 1989\C,0,0.,3.677861,-0.67583\C,0,0.,2.615156,-1.427538\C,0,0.,-2.4551
 56,-1.363538\C,0,0.,-3.749861,-0.54783\C,0,0.,-3.737508,0.805989\C,0,0
 .,-2.478655,1.372431\C,0,0.,-0.032,1.363369\C,0,0.,0.116,-1.519189\C,0
 ,0.,1.280055,0.643065\C,0,0.,1.285471,-0.812804\C,0,0.,-1.208055,0.555
 065\C,0,0.,-1.213471,-0.804804\H,0,0.,2.294071,2.455647\H,0,0.,4.49875
 3,1.339689\H,0,0.,4.665262,-1.124349\H,0,0.,2.66555,-2.510059\H,0,0.,0
 .1,-2.606266\H,0,0.,-2.59355,-2.446059\H,0,0.,-4.673262,-1.108349\H,0,
 0.,-4.642753,1.395689\H,0,0.,-2.334071,2.455647\H,0,-0.859585,-0.176,2
 .055787\H,0,0.859585,-0.176,2.055787\\Version=ES64L-G16RevC.01\State=1
 -A'\HF=-539.6934752\RMSD=5.110e-09\PG=CS [SG(C14H9),X(H2)]\\@
 The archive entry for this job was punched.


 The theorems and results in mathematical physics are
 not theorems and results about Nature, but about our
 description of it.
                   --Gerard 't Hooft
 Job cpu time:       0 days  0 hours 53 minutes 18.3 seconds.
 Elapsed time:       0 days  0 hours  1 minutes  6.8 seconds.
 File lengths (MBytes):  RWF=    460 Int=      0 D2E=      0 Chk=     15 Scr=      1
 Normal termination of Gaussian 16 at Tue Aug  2 12:54:47 2022.
