 Entering Gaussian System, Link 0=g16
 Initial command:
 /apps/gaussian/g16c01/g16/l1.exe "/jobfs/53803424.gadi-pbs/Gau-1829690.inp" -scrdir="/jobfs/53803424.gadi-pbs/"
 Entering Link 1 = /apps/gaussian/g16c01/g16/l1.exe PID=   1829691.
  
 Copyright (c) 1988-2019, Gaussian, Inc.  All Rights Reserved.
  
 This is part of the Gaussian(R) 16 program.  It is based on
 the Gaussian(R) 09 system (copyright 2009, Gaussian, Inc.),
 the Gaussian(R) 03 system (copyright 2003, Gaussian, Inc.),
 the Gaussian(R) 98 system (copyright 1998, Gaussian, Inc.),
 the Gaussian(R) 94 system (copyright 1995, Gaussian, Inc.),
 the Gaussian 92(TM) system (copyright 1992, Gaussian, Inc.),
 the Gaussian 90(TM) system (copyright 1990, Gaussian, Inc.),
 the Gaussian 88(TM) system (copyright 1988, Gaussian, Inc.),
 the Gaussian 86(TM) system (copyright 1986, Carnegie Mellon
 University), and the Gaussian 82(TM) system (copyright 1983,
 Carnegie Mellon University). Gaussian is a federally registered
 trademark of Gaussian, Inc.
  
 This software contains proprietary and confidential information,
 including trade secrets, belonging to Gaussian, Inc.
  
 This software is provided under written license and may be
 used, copied, transmitted, or stored only in accord with that
 written license.
  
 The following legend is applicable only to US Government
 contracts under FAR:
  
                    RESTRICTED RIGHTS LEGEND
  
 Use, reproduction and disclosure by the US Government is
 subject to restrictions as set forth in subparagraphs (a)
 and (c) of the Commercial Computer Software - Restricted
 Rights clause in FAR 52.227-19.
  
 Gaussian, Inc.
 340 Quinnipiac St., Bldg. 40, Wallingford CT 06492
  
  
 ---------------------------------------------------------------
 Warning -- This program may not be used in any manner that
 competes with the business of Gaussian, Inc. or will provide
 assistance to any competitor of Gaussian, Inc.  The licensee
 of this program is prohibited from giving any competitor of
 Gaussian, Inc. access to this program.  By using this program,
 the user acknowledges that Gaussian, Inc. is engaged in the
 business of creating and licensing software in the field of
 computational chemistry and represents and warrants to the
 licensee that it is not a competitor of Gaussian, Inc. and that
 it will not use this program in any manner prohibited above.
 ---------------------------------------------------------------
  

 Cite this work as:
 Gaussian 16, Revision C.01,
 M. J. Frisch, G. W. Trucks, H. B. Schlegel, G. E. Scuseria, 
 M. A. Robb, J. R. Cheeseman, G. Scalmani, V. Barone, 
 G. A. Petersson, H. Nakatsuji, X. Li, M. Caricato, A. V. Marenich, 
 J. Bloino, B. G. Janesko, R. Gomperts, B. Mennucci, H. P. Hratchian, 
 J. V. Ortiz, A. F. Izmaylov, J. L. Sonnenberg, D. Williams-Young, 
 F. Ding, F. Lipparini, F. Egidi, J. Goings, B. Peng, A. Petrone, 
 T. Henderson, D. Ranasinghe, V. G. Zakrzewski, J. Gao, N. Rega, 
 G. Zheng, W. Liang, M. Hada, M. Ehara, K. Toyota, R. Fukuda, 
 J. Hasegawa, M. Ishida, T. Nakajima, Y. Honda, O. Kitao, H. Nakai, 
 T. Vreven, K. Throssell, J. A. Montgomery, Jr., J. E. Peralta, 
 F. Ogliaro, M. J. Bearpark, J. J. Heyd, E. N. Brothers, K. N. Kudin, 
 V. N. Staroverov, T. A. Keith, R. Kobayashi, J. Normand, 
 K. Raghavachari, A. P. Rendell, J. C. Burant, S. S. Iyengar, 
 J. Tomasi, M. Cossi, J. M. Millam, M. Klene, C. Adamo, R. Cammi, 
 J. W. Ochterski, R. L. Martin, K. Morokuma, O. Farkas, 
 J. B. Foresman, and D. J. Fox, Gaussian, Inc., Wallingford CT, 2019.
 
 ******************************************
 Gaussian 16:  ES64L-G16RevC.01  3-Jul-2019
                 2-Aug-2022 
 ******************************************
 %NProcShared=48
 Will use up to   48 processors via shared memory.
 %mem = 190GB
 ---------------------------------------------------------------
 #n M062X/6-311++G(d,p) TD(NStates=1) EmpiricalDispersion=GD3 SP
 ---------------------------------------------------------------
 1/38=1,172=1/1;
 2/12=2,17=6,18=5,40=1/2;
 3/5=4,6=6,7=1111,11=9,25=1,30=1,74=-55,124=31/1,2,3,8;
 4//1;
 5/5=2,38=5/2;
 8/6=1,10=2,108=1/1;
 9/41=1,42=1,70=2/14;
 6/7=2,8=2,9=2,10=2/1;
 99/5=1,9=1/99;
 ----
 SP_0
 ----
 Symbolic Z-matrix:
 Charge =  1 Multiplicity = 1
 C                     0.        2.46666   1.36443 
 C                     0.        3.68951   0.70599 
 C                     0.        3.69386  -0.67983 
 C                     0.        2.48716  -1.40354 
 C                     0.       -2.48716  -1.40354 
 C                     0.       -3.69386  -0.67983 
 C                     0.       -3.68951   0.70599 
 C                     0.       -2.46666   1.36443 
 C                     0.        0.        1.42337 
 C                     0.        0.       -1.45919 
 C                     0.        1.25606   0.65107 
 C                     0.        1.24147  -0.7568 
 C                     0.       -1.25606   0.65107 
 C                     0.       -1.24147  -0.7568 
 H                     0.        2.43007   2.44765 
 H                     0.        4.61475   1.26369 
 H                     0.        4.62926  -1.22035 
 H                     0.        2.52155  -2.48606 
 H                     0.        0.       -2.54227 
 H                     0.       -2.52155  -2.48606 
 H                     0.       -4.62926  -1.22035 
 H                     0.       -4.61475   1.26369 
 H                     0.       -2.43007   2.44765 
 H                    -0.85959   0.        2.11579 
 H                     0.85959   0.        2.11579 
 
                          Input orientation:                          
 ---------------------------------------------------------------------
 Center     Atomic      Atomic             Coordinates (Angstroms)
 Number     Number       Type             X           Y           Z
 ---------------------------------------------------------------------
      1          6           0        0.000000    2.466655    1.364431
      2          6           0        0.000000    3.689508    0.705989
      3          6           0        0.000000    3.693861   -0.679830
      4          6           0        0.000000    2.487156   -1.403538
      5          6           0        0.000000   -2.487156   -1.403538
      6          6           0        0.000000   -3.693861   -0.679830
      7          6           0        0.000000   -3.689508    0.705989
      8          6           0        0.000000   -2.466655    1.364431
      9          6           0        0.000000    0.000000    1.423369
     10          6           0        0.000000    0.000000   -1.459189
     11          6           0        0.000000    1.256055    0.651065
     12          6           0        0.000000    1.241471   -0.756804
     13          6           0        0.000000   -1.256055    0.651065
     14          6           0        0.000000   -1.241471   -0.756804
     15          1           0        0.000000    2.430071    2.447647
     16          1           0        0.000000    4.614753    1.263689
     17          1           0        0.000000    4.629262   -1.220349
     18          1           0        0.000000    2.521550   -2.486059
     19          1           0        0.000000    0.000000   -2.542266
     20          1           0        0.000000   -2.521550   -2.486059
     21          1           0        0.000000   -4.629262   -1.220349
     22          1           0        0.000000   -4.614753    1.263689
     23          1           0        0.000000   -2.430071    2.447647
     24          1           0       -0.859585    0.000000    2.115787
     25          1           0        0.859585    0.000000    2.115787
 ---------------------------------------------------------------------
                    Distance matrix (angstroms):
                    1          2          3          4          5
     1  C    0.000000
     2  C    1.388854   0.000000
     3  C    2.384332   1.385826   0.000000
     4  C    2.768045   2.428117   1.407086   0.000000
     5  C    5.674671   6.526966   6.223241   4.974312   0.000000
     6  C    6.490837   7.512299   7.387722   6.223241   1.407086
     7  C    6.191275   7.379016   7.512299   6.526966   2.428117
     8  C    4.933310   6.191275   6.490837   5.674671   2.768045
     9  C    2.467359   3.758604   4.250653   3.765282   3.765282
    10  C    3.749296   4.277904   3.775183   2.487779   2.487779
    11  C    1.405149   2.434073   2.777441   2.395204   4.270014
    12  C    2.449635   2.851780   2.453598   1.403565   3.784300
    13  C    3.790443   4.945868   5.125715   4.270014   2.395204
    14  C    4.271983   5.143376   4.935932   3.784300   1.403565
    15  H    1.083834   2.149315   3.373170   3.851608   6.245858
    16  H    2.150459   1.080328   2.150653   3.411857   7.586251
    17  H    3.370157   2.143342   1.080341   2.149925   7.118775
    18  H    3.850881   3.399014   2.153318   1.083067   5.124352
    19  H    4.620245   4.915652   4.136820   2.735443   2.735443
    20  H    6.301465   6.983295   6.472542   5.124352   1.083067
    21  H    7.552028   8.538894   8.340656   7.118775   2.149925
    22  H    7.082125   8.322967   8.532897   7.586251   3.411857
    23  H    5.015105   6.362595   6.876311   6.245858   3.851608
    24  H    2.718052   4.042139   4.711578   4.394369   4.394369
    25  H    2.718052   4.042139   4.711578   4.394369   4.394369
                    6          7          8          9         10
     6  C    0.000000
     7  C    1.385826   0.000000
     8  C    2.384332   1.388854   0.000000
     9  C    4.250653   3.758604   2.467359   0.000000
    10  C    3.775183   4.277904   3.749296   2.882558   0.000000
    11  C    5.125715   4.945868   3.790443   1.474492   2.455778
    12  C    4.935932   5.143376   4.271983   2.508865   1.426392
    13  C    2.777441   2.434073   1.405149   1.474492   2.455778
    14  C    2.453598   2.851780   2.449635   2.508865   1.426392
    15  H    6.876311   6.362595   5.015105   2.637118   4.600936
    16  H    8.532897   8.322967   7.082125   4.617515   5.358172
    17  H    8.340656   8.538894   7.552028   5.330977   4.635419
    18  H    6.472542   6.983295   6.301465   4.652079   2.722623
    19  H    4.136820   4.915652   4.620245   3.965635   1.083077
    20  H    2.153318   3.399014   3.850881   4.652079   2.722623
    21  H    1.080341   2.143342   3.370157   5.330977   4.635419
    22  H    2.150653   1.080328   2.150459   4.617515   5.358172
    23  H    3.373170   2.149315   1.083834   2.637118   4.600936
    24  H    4.711578   4.042139   2.718052   1.103779   3.676865
    25  H    4.711578   4.042139   2.718052   1.103779   3.676865
                   11         12         13         14         15
    11  C    0.000000
    12  C    1.407945   0.000000
    13  C    2.512110   2.867007   0.000000
    14  C    2.867007   2.482942   1.407945   0.000000
    15  H    2.146164   3.417788   4.100638   4.873267   0.000000
    16  H    3.414112   3.932102   5.902685   6.194978   2.484873
    17  H    3.857553   3.419357   6.175690   5.889005   4.276755
    18  H    3.382754   2.151494   4.910382   4.141334   4.934554
    19  H    3.431477   2.174655   3.431477   2.174655   5.550178
    20  H    4.910382   4.141334   3.382754   2.151494   6.989993
    21  H    6.175690   5.889005   3.857553   3.419357   7.955399
    22  H    5.902685   6.194978   3.414112   3.932102   7.143620
    23  H    4.100638   4.873267   2.146164   3.417788   4.860142
    24  H    2.112338   3.245291   2.112338   3.245291   2.598896
    25  H    2.112338   3.245291   2.112338   3.245291   2.598896
                   16         17         18         19         20
    16  H    0.000000
    17  H    2.484080   0.000000
    18  H    4.294428   2.458551   0.000000
    19  H    5.981742   4.814305   2.522176   0.000000
    20  H    8.061478   7.261965   5.043100   2.522176   0.000000
    21  H    9.571952   9.258524   7.261965   4.814305   2.458551
    22  H    9.229506   9.571952   8.061478   5.981742   4.294428
    23  H    7.143620   7.955399   6.989993   5.550178   4.934554
    24  H    4.770839   5.770507   5.317338   4.736702   5.317338
    25  H    4.770839   5.770507   5.317338   4.736702   5.317338
                   21         22         23         24         25
    21  H    0.000000
    22  H    2.484080   0.000000
    23  H    4.276755   2.484873   0.000000
    24  H    5.770507   4.770839   2.598896   0.000000
    25  H    5.770507   4.770839   2.598896   1.719170   0.000000
 Stoichiometry    C14H11(1+)
 Framework group  C2V[C2(CCH),SGV(C12H8),SGV'(H2)]
 Deg. of freedom    24
 Full point group                 C2V     NOp   4
 Largest Abelian subgroup         C2V     NOp   4
 Largest concise Abelian subgroup C2V     NOp   4
                         Standard orientation:                         
 ---------------------------------------------------------------------
 Center     Atomic      Atomic             Coordinates (Angstroms)
 Number     Number       Type             X           Y           Z
 ---------------------------------------------------------------------
      1          6           0        0.000000    2.466655   -1.363799
      2          6           0        0.000000    3.689508   -0.705357
      3          6           0        0.000000    3.693861    0.680462
      4          6           0        0.000000    2.487156    1.404170
      5          6           0       -0.000000   -2.487156    1.404170
      6          6           0       -0.000000   -3.693861    0.680462
      7          6           0       -0.000000   -3.689508   -0.705357
      8          6           0       -0.000000   -2.466655   -1.363799
      9          6           0       -0.000000    0.000000   -1.422737
     10          6           0        0.000000   -0.000000    1.459821
     11          6           0        0.000000    1.256055   -0.650433
     12          6           0        0.000000    1.241471    0.757436
     13          6           0       -0.000000   -1.256055   -0.650433
     14          6           0       -0.000000   -1.241471    0.757436
     15          1           0        0.000000    2.430071   -2.447015
     16          1           0        0.000000    4.614753   -1.263057
     17          1           0        0.000000    4.629262    1.220981
     18          1           0        0.000000    2.521550    2.486691
     19          1           0        0.000000   -0.000000    2.542898
     20          1           0       -0.000000   -2.521550    2.486691
     21          1           0       -0.000000   -4.629262    1.220981
     22          1           0       -0.000000   -4.614753   -1.263057
     23          1           0       -0.000000   -2.430071   -2.447015
     24          1           0        0.859585   -0.000000   -2.115155
     25          1           0       -0.859585    0.000000   -2.115155
 ---------------------------------------------------------------------
 Rotational constants (GHZ):           2.1363607           0.4449382           0.3690452
 Standard basis: 6-311++G(d,p) (5D, 7F)
 There are   161 symmetry adapted cartesian basis functions of A1  symmetry.
 There are    43 symmetry adapted cartesian basis functions of A2  symmetry.
 There are    57 symmetry adapted cartesian basis functions of B1  symmetry.
 There are   138 symmetry adapted cartesian basis functions of B2  symmetry.
 There are   153 symmetry adapted basis functions of A1  symmetry.
 There are    43 symmetry adapted basis functions of A2  symmetry.
 There are    57 symmetry adapted basis functions of B1  symmetry.
 There are   132 symmetry adapted basis functions of B2  symmetry.
   385 basis functions,   603 primitive gaussians,   399 cartesian basis functions
    47 alpha electrons       47 beta electrons
       nuclear repulsion energy       781.3391899932 Hartrees.
 NAtoms=   25 NActive=   25 NUniq=   14 SFac= 3.19D+00 NAtFMM=   60 NAOKFM=F Big=F
 Integral buffers will be    131072 words long.
 Regular integral format.
 Two-electron integral symmetry is turned on.
 Nuclear repulsion after empirical dispersion term =      781.3382109679 Hartrees.
 One-electron integrals computed using PRISM.
 NBasis=   385 RedAO= T EigKep=  1.07D-06  NBF=   153    43    57   132
 NBsUse=   379 1.00D-06 EigRej=  8.71D-07 NBFU=   150    43    57   129
 ExpMin= 3.60D-02 ExpMax= 4.56D+03 ExpMxC= 6.82D+02 IAcc=3 IRadAn=         5 AccDes= 0.00D+00
 Harris functional with IExCor= 1009 and IRadAn=       5 diagonalized for initial guess.
 HarFok:  IExCor= 1009 AccDes= 0.00D+00 IRadAn=         5 IDoV= 1 UseB2=F ITyADJ=14
 ICtDFT=  3500011 ScaDFX=  1.000000  1.000000  1.000000  1.000000
 FoFCou: FMM=F IPFlag=           0 FMFlag=      100000 FMFlg1=           0
         NFxFlg=           0 DoJE=T BraDBF=F KetDBF=T FulRan=T
         wScrn=  0.000000 ICntrl=       500 IOpCl=  0 I1Cent=   200000004 NGrid=           0
         NMat0=    1 NMatS0=      1 NMatT0=    0 NMatD0=    1 NMtDS0=    0 NMtDT0=    0
 Petite list used in FoFCou.
 Initial guess orbital symmetries:
       Occupied  (A1) (B2) (A1) (B2) (A1) (B2) (A1) (B2) (A1) (A1)
                 (B2) (A1) (B2) (A1) (A1) (B2) (A1) (A1) (B2) (B2)
                 (A1) (A1) (B2) (A1) (B2) (A1) (B2) (A1) (A1) (B2)
                 (B2) (A1) (B1) (B2) (B2) (A1) (A1) (A1) (B2) (A2)
                 (B1) (B2) (A1) (B1) (A2) (A2) (B1)
       Virtual   (B1) (B1) (A2) (A2) (B1) (A1) (B2) (A1) (A1) (A2)
                 (B1) (B2) (A1) (B2) (B1) (A1) (B2) (A1) (B2) (A2)
                 (A1) (B1) (A1) (B2) (A1) (B1) (B2) (A2) (A1) (A1)
                 (A1) (B2) (B2) (B2) (B1) (A1) (A2) (A1) (A1) (A1)
                 (B1) (B2) (B2) (B1) (A1) (B2) (A1) (B2) (B2) (A2)
                 (B2) (A1) (A2) (B1) (A1) (A1) (A1) (B1) (B1) (B2)
                 (B2) (B2) (A1) (A1) (A1) (B1) (B2) (A1) (B2) (B2)
                 (A2) (A1) (A1) (B2) (B2) (A1) (A1) (A1) (B2) (A1)
                 (B2) (A1) (B2) (B2) (A1) (B2) (A1) (A1) (A1) (B2)
                 (B2) (A1) (B2) (A1) (B2) (A1) (B2) (B1) (A1) (A2)
                 (B2) (A1) (B1) (B1) (A1) (B1) (A2) (B2) (A1) (A2)
                 (B1) (B2) (B2) (A1) (B1) (A1) (B2) (A2) (B1) (A1)
                 (A2) (B1) (A1) (B2) (A1) (A2) (B2) (B2) (A1) (B1)
                 (A1) (B2) (A1) (A1) (A1) (A2) (B2) (B2) (A1) (B2)
                 (A1) (B2) (B2) (A1) (A1) (B2) (B2) (A1) (B2) (B1)
                 (A2) (A1) (B1) (A2) (B2) (B2) (A1) (B1) (A2) (A1)
                 (B1) (A1) (A2) (A2) (B1) (B2) (A1) (A1) (B2) (B2)
                 (A1) (B1) (A1) (A2) (B2) (A1) (B2) (B2) (A1) (B1)
                 (A1) (B2) (B2) (A1) (B1) (A2) (B2) (A1) (A2) (B1)
                 (A1) (A2) (A1) (B1) (A1) (B2) (B2) (B1) (A1) (B2)
                 (B1) (A2) (B1) (A1) (B2) (A2) (B2) (B1) (A1) (A1)
                 (A2) (A2) (A1) (B1) (B2) (A2) (A1) (B2) (B1) (A1)
                 (B2) (A1) (B2) (B2) (B1) (A1) (B2) (B2) (A2) (B1)
                 (A1) (B2) (A1) (A2) (B2) (A1) (B1) (B2) (A2) (A1)
                 (B1) (A1) (B2) (A1) (B2) (A2) (A1) (B2) (A1) (B1)
                 (B2) (A1) (B2) (B1) (A2) (A1) (B2) (B1) (A1) (A1)
                 (A1) (B2) (B1) (A2) (A1) (B2) (A1) (B1) (A2) (B2)
                 (A1) (B2) (B2) (A1) (B1) (A1) (B1) (B2) (A2) (A2)
                 (A1) (B2) (B1) (A2) (B1) (A1) (B2) (B2) (A1) (A1)
                 (B2) (A1) (B2) (A1) (B2) (A1) (A1) (A1) (B2) (B2)
                 (A1) (B2) (A1) (B2) (A1) (B1) (A1) (B2) (A1) (B2)
                 (A1) (A1) (B2) (A1) (B2) (B2) (B2) (A1) (A1) (B2)
                 (A1) (A1) (B2) (B2) (A1) (A1) (B2) (A1) (B2) (A1)
                 (A1) (B2)
 The electronic state of the initial guess is 1-A1.
 Requested convergence on RMS density matrix=1.00D-08 within 128 cycles.
 Requested convergence on MAX density matrix=1.00D-06.
 Requested convergence on             energy=1.00D-06.
 No special actions if energy rises.
 SCF Done:  E(RM062X) =  -539.757569228     A.U. after   15 cycles
            NFock= 15  Conv=0.35D-08     -V/T= 2.0042
 DoSCS=F DFT=T ScalE2(SS,OS)=  1.000000  1.000000
 ExpMin= 3.60D-02 ExpMax= 4.56D+03 ExpMxC= 6.82D+02 IAcc=3 IRadAn=         5 AccDes= 0.00D+00
 HarFok:  IExCor=  205 AccDes= 0.00D+00 IRadAn=         5 IDoV=-2 UseB2=F ITyADJ=14
 ICtDFT= 12500011 ScaDFX=  1.000000  1.000000  1.000000  1.000000
 Range of M.O.s used for correlation:    15   379
 NBasis=   385 NAE=    47 NBE=    47 NFC=    14 NFV=     0
 NROrb=    365 NOA=    33 NOB=    33 NVA=   332 NVB=   332

 **** Warning!!: The largest alpha MO coefficient is  0.15469231D+03

 Orbital symmetries:
       Occupied  (A1) (B2) (A1) (B2) (A1) (B2) (A1) (B2) (A1) (A1)
                 (B2) (A1) (B2) (A1) (A1) (B2) (A1) (A1) (B2) (B2)
                 (A1) (A1) (A1) (B2) (B2) (A1) (B2) (A1) (A1) (B2)
                 (A1) (B1) (B2) (B2) (A1) (B2) (A1) (B1) (A2) (A1)
                 (B2) (A1) (B2) (B1) (A2) (A2) (B1)
       Virtual   (B1) (B1) (A2) (A2) (A1) (A1) (B2) (A1) (B1) (B2)
                 (A1) (B1) (B2) (A1) (B1) (B2) (A2) (A1) (B2) (A1)
                 (B1) (A2) (A1) (A1) (B2) (B1) (A1) (B1) (B2) (A1)
                 (A2) (B2) (A2) (B2) (A1) (B2) (B2) (A1) (B1) (A1)
                 (A2) (A1) (B2) (B1) (B1) (A1) (A2) (A1) (B1) (B2)
                 (A1) (B2) (A1) (A1) (B2) (B1) (B2) (A1) (A1) (B2)
                 (A1) (A2) (B2) (A1) (B1) (A1) (B2) (A1) (B2) (B2)
                 (A1) (B2) (A1) (A1) (B2) (A1) (B2) (B2) (A1) (B2)
                 (A1) (A1) (B2) (B2) (A1) (A1) (B2) (A1) (B2) (A1)
                 (B2) (A1) (B2) (A1) (B1) (A1) (B1) (A2) (B2) (B1)
                 (A1) (B2) (A1) (B2) (B1) (A2) (A1) (A2) (B1) (B2)
                 (A1) (B2) (B1) (B2) (A1) (A2) (A1) (A2) (B2) (B1)
                 (B1) (A1) (A2) (B2) (A1) (A1) (B1) (A1) (B2) (B2)
                 (B2) (A1) (A1) (A1) (A1) (A1) (B2) (B2) (A1) (B2)
                 (A1) (B2) (B2) (A2) (A1) (B2) (B2) (A1) (B2) (A1)
                 (B2) (B2) (B1) (A1) (A2) (A1) (B1) (A2) (A1) (B1)
                 (A2) (B2) (B1) (A1) (A2) (A2) (B2) (B1) (A1) (B2)
                 (A1) (A1) (B2) (B1) (A2) (A1) (B2) (B2) (A1) (B1)
                 (A1) (B2) (A1) (B1) (A2) (B2) (B2) (A1) (A2) (B1)
                 (A2) (A1) (A1) (B1) (A1) (B1) (B2) (B2) (A1) (B2)
                 (B1) (A2) (B1) (A1) (A2) (B2) (B2) (B1) (A1) (A1)
                 (A1) (A2) (B2) (A2) (B1) (B2) (A2) (A1) (A1) (B1)
                 (B2) (B2) (A1) (B2) (B1) (B2) (A1) (B2) (A2) (B1)
                 (A1) (A1) (B2) (A2) (A1) (B2) (B2) (B1) (A2) (A1)
                 (B1) (A1) (B2) (A2) (B2) (A1) (A1) (B2) (A1) (A1)
                 (B1) (B2) (B2) (A1) (B2) (B1) (B1) (A2) (A1) (A1)
                 (B2) (A1) (A1) (B2) (A1) (A1) (B2) (B1) (B2) (A1)
                 (B2) (A2) (A1) (B1) (A2) (B1) (B2) (B1) (A2) (A1)
                 (B2) (A2) (B1) (A1) (B1) (A2) (B2) (A1) (A1) (B2)
                 (B2) (A1) (B2) (A1) (A1) (B2) (A1) (A1) (B2) (B2)
                 (A1) (B2) (A1) (B1) (A1) (B2) (A1) (A1) (B2) (B2)
                 (A1) (A1) (B2) (A1) (B2) (B2) (B2) (A1) (A1) (B2)
                 (A1) (A1) (B2) (B2) (A1) (A1) (B2) (A1) (B2) (A1)
                 (A1) (B2)
     4 initial guesses have been made.
 Convergence on wavefunction:    0.001000000000000
 Iteration     1 Dimension     4 NMult     0 NNew      4
 CISAX will form     4 AO SS matrices at one time.
 Iteration     2 Dimension     6 NMult     4 NNew      2
 Iteration     3 Dimension     8 NMult     6 NNew      2
 Iteration     4 Dimension    10 NMult     8 NNew      2
 Iteration     5 Dimension    12 NMult    10 NNew      2
 Iteration     6 Dimension    14 NMult    12 NNew      2
 ***********************************************************************
 Excited states from <AA,BB:AA,BB> singles matrix:
 ***********************************************************************
 
 Ground to excited state transition densities written to RWF  633
 Ground to excited state transition electric dipole moments (Au):
       state          X           Y           Z        Dip. S.      Osc.
         1         0.0000     -0.0000     -0.6396      0.4091      0.0277
 Ground to excited state transition velocity dipole moments (Au):
       state          X           Y           Z        Dip. S.      Osc.
         1        -0.0000      0.0000      0.0728      0.0053      0.0347
 Ground to excited state transition magnetic dipole moments (Au):
       state          X           Y           Z
         1         0.0000      0.0000     -0.0000
 Ground to excited state transition velocity quadrupole moments (Au):
       state          XX          YY          ZZ          XY          XZ          YZ
         1        -0.0098      0.2909      0.0403      0.0000      0.0000      0.0000
 <0|del|b> * <b|rxdel|0> + <0|del|b> * <b|delr+rdel|0>
 Rotatory Strengths (R) in cgs (10**-40 erg-esu-cm/Gauss)
       state          XX          YY          ZZ    R(velocity)    E-M Angle
         1         0.0000     -0.0000      0.0000     -0.0000       90.00
 1/2[<0|r|b>*<b|rxdel|0> + (<0|rxdel|b>*<b|r|0>)*]
 Rotatory Strengths (R) in cgs (10**-40 erg-esu-cm/Gauss)
       state          XX          YY          ZZ     R(length)
         1        -0.0000      0.0000     -0.0000     -0.0000
  1/2[<0|del|b>*<b|r|0> + (<0|r|b>*<b|del|0>)*] (Au)
       state          X           Y           Z        Dip. S.   Osc.(frdel)
         1        -0.0000     -0.0000     -0.0465      0.0465      0.0310

 Excitation energies and oscillator strengths:
 
 Excited State   1:      Singlet-A1     2.7681 eV  447.90 nm  f=0.0277  <S**2>=0.000
      47 -> 48         0.70450
 This state for optimization and/or second-order correction.
 Total Energy, E(TD-HF/TD-DFT) =  -539.655843106    
 Copying the excited state density for this state as the 1-particle RhoCI density.
 SavETr:  write IOETrn=   770 NScale= 10 NData=  16 NLR=1 NState=    1 LETran=      28.

 **********************************************************************

            Population analysis using the SCF Density.

 **********************************************************************

 Orbital symmetries:
       Occupied  (A1) (B2) (A1) (B2) (A1) (B2) (A1) (B2) (A1) (A1)
                 (B2) (A1) (B2) (A1) (A1) (B2) (A1) (A1) (B2) (B2)
                 (A1) (A1) (A1) (B2) (B2) (A1) (B2) (A1) (A1) (B2)
                 (A1) (B1) (B2) (B2) (A1) (B2) (A1) (B1) (A2) (A1)
                 (B2) (A1) (B2) (B1) (A2) (A2) (B1)
       Virtual   (B1) (B1) (A2) (A2) (A1) (A1) (B2) (A1) (B1) (B2)
                 (A1) (B1) (B2) (A1) (B1) (B2) (A2) (A1) (B2) (A1)
                 (B1) (A2) (A1) (A1) (B2) (B1) (A1) (B1) (B2) (A1)
                 (A2) (B2) (A2) (B2) (A1) (B2) (B2) (A1) (B1) (A1)
                 (A2) (A1) (B2) (B1) (B1) (A1) (A2) (A1) (B1) (B2)
                 (A1) (B2) (A1) (A1) (B2) (B1) (B2) (A1) (A1) (B2)
                 (A1) (A2) (B2) (A1) (B1) (A1) (B2) (A1) (B2) (B2)
                 (A1) (B2) (A1) (A1) (B2) (A1) (B2) (B2) (A1) (B2)
                 (A1) (A1) (B2) (B2) (A1) (A1) (B2) (A1) (B2) (A1)
                 (B2) (A1) (B2) (A1) (B1) (A1) (B1) (A2) (B2) (B1)
                 (A1) (B2) (A1) (B2) (B1) (A2) (A1) (A2) (B1) (B2)
                 (A1) (B2) (B1) (B2) (A1) (A2) (A1) (A2) (B2) (B1)
                 (B1) (A1) (A2) (B2) (A1) (A1) (B1) (A1) (B2) (B2)
                 (B2) (A1) (A1) (A1) (A1) (A1) (B2) (B2) (A1) (B2)
                 (A1) (B2) (B2) (A2) (A1) (B2) (B2) (A1) (B2) (A1)
                 (B2) (B2) (B1) (A1) (A2) (A1) (B1) (A2) (A1) (B1)
                 (A2) (B2) (B1) (A1) (A2) (A2) (B2) (B1) (A1) (B2)
                 (A1) (A1) (B2) (B1) (A2) (A1) (B2) (B2) (A1) (B1)
                 (A1) (B2) (A1) (B1) (A2) (B2) (B2) (A1) (A2) (B1)
                 (A2) (A1) (A1) (B1) (A1) (B1) (B2) (B2) (A1) (B2)
                 (B1) (A2) (B1) (A1) (A2) (B2) (B2) (B1) (A1) (A1)
                 (A1) (A2) (B2) (A2) (B1) (B2) (A2) (A1) (A1) (B1)
                 (B2) (B2) (A1) (B2) (B1) (B2) (A1) (B2) (A2) (B1)
                 (A1) (A1) (B2) (A2) (A1) (B2) (B2) (B1) (A2) (A1)
                 (B1) (A1) (B2) (A2) (B2) (A1) (A1) (B2) (A1) (A1)
                 (B1) (B2) (B2) (A1) (B2) (B1) (B1) (A2) (A1) (A1)
                 (B2) (A1) (A1) (B2) (A1) (A1) (B2) (B1) (B2) (A1)
                 (B2) (A2) (A1) (B1) (A2) (B1) (B2) (B1) (A2) (A1)
                 (B2) (A2) (B1) (A1) (B1) (A2) (B2) (A1) (A1) (B2)
                 (B2) (A1) (B2) (A1) (A1) (B2) (A1) (A1) (B2) (B2)
                 (A1) (B2) (A1) (B1) (A1) (B2) (A1) (A1) (B2) (B2)
                 (A1) (A1) (B2) (A1) (B2) (B2) (B2) (A1) (A1) (B2)
                 (A1) (A1) (B2) (B2) (A1) (A1) (B2) (A1) (B2) (A1)
                 (A1) (B2)
 The electronic state is 1-A1.
 Alpha  occ. eigenvalues --  -10.77934 -10.73121 -10.73120 -10.72612 -10.72610
 Alpha  occ. eigenvalues --  -10.71429 -10.71429 -10.70974 -10.70974 -10.70805
 Alpha  occ. eigenvalues --  -10.69883 -10.69883 -10.69643 -10.69643  -1.16446
 Alpha  occ. eigenvalues --   -1.12449  -1.06932  -1.05807  -1.01311  -1.00162
 Alpha  occ. eigenvalues --   -0.95778  -0.91042  -0.86404  -0.85901  -0.83786
 Alpha  occ. eigenvalues --   -0.78395  -0.76055  -0.74403  -0.69474  -0.69269
 Alpha  occ. eigenvalues --   -0.68570  -0.68231  -0.68217  -0.64795  -0.64361
 Alpha  occ. eigenvalues --   -0.62938  -0.61780  -0.59900  -0.59671  -0.59097
 Alpha  occ. eigenvalues --   -0.56924  -0.55233  -0.54770  -0.52449  -0.46604
 Alpha  occ. eigenvalues --   -0.46069  -0.44389
 Alpha virt. eigenvalues --   -0.26185  -0.14685  -0.14128  -0.12761  -0.11193
 Alpha virt. eigenvalues --   -0.10087  -0.09226  -0.07990  -0.07981  -0.07477
 Alpha virt. eigenvalues --   -0.07238  -0.07193  -0.05640  -0.05581  -0.05346
 Alpha virt. eigenvalues --   -0.03818  -0.03643  -0.03274  -0.03126  -0.02166
 Alpha virt. eigenvalues --   -0.01361  -0.00927   0.00178   0.00613   0.00746
 Alpha virt. eigenvalues --    0.01055   0.01518   0.01945   0.02183   0.02224
 Alpha virt. eigenvalues --    0.02437   0.02707   0.02756   0.02979   0.03373
 Alpha virt. eigenvalues --    0.04236   0.04508   0.04661   0.04966   0.05312
 Alpha virt. eigenvalues --    0.06025   0.06264   0.06603   0.07092   0.07212
 Alpha virt. eigenvalues --    0.07971   0.08166   0.08326   0.08502   0.08932
 Alpha virt. eigenvalues --    0.09524   0.09535   0.10023   0.10892   0.11049
 Alpha virt. eigenvalues --    0.11162   0.12270   0.12317   0.12903   0.13004
 Alpha virt. eigenvalues --    0.13306   0.13540   0.14021   0.14251   0.16348
 Alpha virt. eigenvalues --    0.16380   0.16640   0.17356   0.17507   0.17758
 Alpha virt. eigenvalues --    0.18150   0.19010   0.19244   0.19657   0.19994
 Alpha virt. eigenvalues --    0.21467   0.21471   0.22524   0.23144   0.23203
 Alpha virt. eigenvalues --    0.23579   0.24536   0.24927   0.26871   0.27672
 Alpha virt. eigenvalues --    0.28807   0.29318   0.29607   0.31214   0.35747
 Alpha virt. eigenvalues --    0.36389   0.38087   0.39207   0.41171   0.41456
 Alpha virt. eigenvalues --    0.41962   0.42211   0.42994   0.43747   0.44365
 Alpha virt. eigenvalues --    0.44941   0.45073   0.46059   0.46155   0.47964
 Alpha virt. eigenvalues --    0.48540   0.48856   0.48968   0.50426   0.51271
 Alpha virt. eigenvalues --    0.51628   0.51959   0.52094   0.53063   0.53909
 Alpha virt. eigenvalues --    0.54052   0.54753   0.55695   0.55742   0.57445
 Alpha virt. eigenvalues --    0.58207   0.58947   0.61508   0.62082   0.62412
 Alpha virt. eigenvalues --    0.63064   0.63313   0.65078   0.65127   0.67734
 Alpha virt. eigenvalues --    0.70376   0.70458   0.71126   0.72510   0.72797
 Alpha virt. eigenvalues --    0.75925   0.75977   0.76341   0.76892   0.77320
 Alpha virt. eigenvalues --    0.77709   0.77930   0.78280   0.79728   0.80448
 Alpha virt. eigenvalues --    0.81085   0.81535   0.82053   0.82981   0.85238
 Alpha virt. eigenvalues --    0.87142   0.88406   0.88532   0.88940   0.90396
 Alpha virt. eigenvalues --    0.91107   0.91452   0.93355   0.94651   0.96325
 Alpha virt. eigenvalues --    0.96470   1.00189   1.01727   1.01958   1.02684
 Alpha virt. eigenvalues --    1.03202   1.03778   1.04654   1.04816   1.08805
 Alpha virt. eigenvalues --    1.17784   1.23296   1.24345   1.25704   1.28154
 Alpha virt. eigenvalues --    1.30579   1.31977   1.33640   1.35229   1.35485
 Alpha virt. eigenvalues --    1.39490   1.39981   1.40847   1.43110   1.43371
 Alpha virt. eigenvalues --    1.43572   1.45468   1.45480   1.46293   1.46603
 Alpha virt. eigenvalues --    1.47760   1.48171   1.51589   1.53710   1.55562
 Alpha virt. eigenvalues --    1.55658   1.56047   1.56508   1.57970   1.61133
 Alpha virt. eigenvalues --    1.63210   1.63562   1.63803   1.66228   1.68192
 Alpha virt. eigenvalues --    1.68571   1.68908   1.69642   1.74305   1.76046
 Alpha virt. eigenvalues --    1.77275   1.78106   1.80297   1.80351   1.81079
 Alpha virt. eigenvalues --    1.82700   1.82915   1.83453   1.83810   1.83913
 Alpha virt. eigenvalues --    1.84706   1.85830   1.85899   1.88330   1.91416
 Alpha virt. eigenvalues --    1.91568   1.94375   1.95560   1.97675   1.97959
 Alpha virt. eigenvalues --    1.99681   2.02383   2.04011   2.07331   2.11783
 Alpha virt. eigenvalues --    2.12469   2.14029   2.15212   2.18955   2.21360
 Alpha virt. eigenvalues --    2.22715   2.28535   2.30071   2.34672   2.35185
 Alpha virt. eigenvalues --    2.36147   2.38751   2.39522   2.42352   2.44353
 Alpha virt. eigenvalues --    2.46130   2.46754   2.49028   2.52523   2.53532
 Alpha virt. eigenvalues --    2.54287   2.56762   2.57814   2.58173   2.59852
 Alpha virt. eigenvalues --    2.59873   2.61759   2.61993   2.63527   2.64082
 Alpha virt. eigenvalues --    2.65004   2.65101   2.65267   2.65546   2.67931
 Alpha virt. eigenvalues --    2.68638   2.71034   2.71300   2.73134   2.74835
 Alpha virt. eigenvalues --    2.76244   2.78852   2.79801   2.83136   2.83351
 Alpha virt. eigenvalues --    2.84323   2.86332   2.92141   2.98480   2.99476
 Alpha virt. eigenvalues --    3.00012   3.05484   3.10390   3.11694   3.12682
 Alpha virt. eigenvalues --    3.20847   3.24008   3.26651   3.28235   3.31084
 Alpha virt. eigenvalues --    3.32600   3.33021   3.43434   3.45845   3.46861
 Alpha virt. eigenvalues --    3.48367   3.49950   3.56596   3.66396   3.66872
 Alpha virt. eigenvalues --    3.67428   3.94037   3.94658   3.95083   3.96283
 Alpha virt. eigenvalues --    4.04041   4.06987   4.07414   4.12224   4.35823
 Alpha virt. eigenvalues --    4.61621   4.69727   4.71436  23.45434  23.60426
 Alpha virt. eigenvalues --   23.81672  23.86179  23.88238  23.89111  23.90437
 Alpha virt. eigenvalues --   23.92022  23.97627  23.99115  23.99576  24.00212
 Alpha virt. eigenvalues --   24.10620  24.10743
          Condensed to atoms (all electrons):
               1          2          3          4          5          6
     1  C    8.642300   0.824997  -0.726181   1.185686   0.107864  -0.082101
     2  C    0.824997   6.971072   0.410789  -0.731808  -0.063652  -0.016249
     3  C   -0.726181   0.410789   6.629883   0.641950  -0.093972   0.012516
     4  C    1.185686  -0.731808   0.641950   9.238777   0.193006  -0.093972
     5  C    0.107864  -0.063652  -0.093972   0.193006   9.238777   0.641950
     6  C   -0.082101  -0.016249   0.012516  -0.093972   0.641950   6.629883
     7  C   -0.068781   0.011731  -0.016249  -0.063652  -0.731808   0.410789
     8  C    0.250989  -0.068781  -0.082101   0.107864   1.185686  -0.726181
     9  C   -1.991967  -0.697638   0.249794  -0.632964  -0.632964   0.249794
    10  C   -0.701301   0.250272  -0.465639  -2.013308  -2.013308  -0.465639
    11  C   -0.399002  -1.427059   1.162685  -0.693805  -1.478810  -0.208217
    12  C   -0.421918   1.074154  -1.110473  -0.002456  -0.097848  -0.255629
    13  C   -0.015624  -0.182456  -0.208217  -1.478810  -0.693805   1.162685
    14  C   -1.044386  -0.225330  -0.255629  -0.097848  -0.002456  -1.110473
    15  H    0.346589  -0.090223  -0.001274   0.019813   0.005868   0.001103
    16  H   -0.023623   0.374790  -0.013511   0.011932  -0.001374  -0.000358
    17  H   -0.011649  -0.023970   0.375997  -0.052306   0.000022   0.000377
    18  H    0.041612   0.001339  -0.095716   0.426337   0.015633  -0.004104
    19  H   -0.043297  -0.006390   0.044835  -0.072787  -0.072787   0.044835
    20  H    0.009255   0.001704  -0.004104   0.015633   0.426337  -0.095716
    21  H   -0.001587  -0.000398   0.000377   0.000022  -0.052306   0.375997
    22  H    0.001103   0.000372  -0.000358  -0.001374   0.011932  -0.013511
    23  H    0.003453  -0.003454   0.001103   0.005868   0.019813  -0.001274
    24  H    0.034817   0.014892  -0.001431  -0.013626  -0.013626  -0.001431
    25  H    0.034817   0.014892  -0.001431  -0.013626  -0.013626  -0.001431
               7          8          9         10         11         12
     1  C   -0.068781   0.250989  -1.991967  -0.701301  -0.399002  -0.421918
     2  C    0.011731  -0.068781  -0.697638   0.250272  -1.427059   1.074154
     3  C   -0.016249  -0.082101   0.249794  -0.465639   1.162685  -1.110473
     4  C   -0.063652   0.107864  -0.632964  -2.013308  -0.693805  -0.002456
     5  C   -0.731808   1.185686  -0.632964  -2.013308  -1.478810  -0.097848
     6  C    0.410789  -0.726181   0.249794  -0.465639  -0.208217  -0.255629
     7  C    6.971072   0.824997  -0.697638   0.250272  -0.182456  -0.225330
     8  C    0.824997   8.642300  -1.991967  -0.701301  -0.015624  -1.044386
     9  C   -0.697638  -1.991967   9.536908   0.229532   2.261034  -1.403065
    10  C    0.250272  -0.701301   0.229532   9.573742  -1.264544   1.968938
    11  C   -0.182456  -0.015624   2.261034  -1.264544  16.120197  -4.189682
    12  C   -0.225330  -1.044386  -1.403065   1.968938  -4.189682  14.964103
    13  C   -1.427059  -0.399002   2.261034  -1.264544   2.001222  -5.237986
    14  C    1.074154  -0.421918  -1.403065   1.968938  -5.237986   1.725784
    15  H   -0.003454   0.003453   0.086869  -0.009222  -0.007090  -0.017719
    16  H    0.000372   0.001103   0.006297  -0.012992   0.047947  -0.049122
    17  H   -0.000398  -0.001587  -0.003329   0.018926  -0.020834   0.064489
    18  H    0.001704   0.009255  -0.029570   0.050074  -0.031609  -0.040004
    19  H   -0.006390  -0.043297   0.073031   0.417898   0.079257  -0.060732
    20  H    0.001339   0.041612  -0.029570   0.050074  -0.007098   0.000972
    21  H   -0.023970  -0.011649  -0.003329   0.018926  -0.006741   0.004394
    22  H    0.374790  -0.023623   0.006297  -0.012992   0.004100  -0.009579
    23  H   -0.090223   0.346589   0.086869  -0.009222  -0.003916   0.006971
    24  H    0.014892   0.034817   0.356604   0.005783   0.016608  -0.064773
    25  H    0.014892   0.034817   0.356604   0.005783   0.016608  -0.064773
              13         14         15         16         17         18
     1  C   -0.015624  -1.044386   0.346589  -0.023623  -0.011649   0.041612
     2  C   -0.182456  -0.225330  -0.090223   0.374790  -0.023970   0.001339
     3  C   -0.208217  -0.255629  -0.001274  -0.013511   0.375997  -0.095716
     4  C   -1.478810  -0.097848   0.019813   0.011932  -0.052306   0.426337
     5  C   -0.693805  -0.002456   0.005868  -0.001374   0.000022   0.015633
     6  C    1.162685  -1.110473   0.001103  -0.000358   0.000377  -0.004104
     7  C   -1.427059   1.074154  -0.003454   0.000372  -0.000398   0.001704
     8  C   -0.399002  -0.421918   0.003453   0.001103  -0.001587   0.009255
     9  C    2.261034  -1.403065   0.086869   0.006297  -0.003329  -0.029570
    10  C   -1.264544   1.968938  -0.009222  -0.012992   0.018926   0.050074
    11  C    2.001222  -5.237986  -0.007090   0.047947  -0.020834  -0.031609
    12  C   -5.237986   1.725784  -0.017719  -0.049122   0.064489  -0.040004
    13  C   16.120197  -4.189682  -0.003916   0.004100  -0.006741  -0.007098
    14  C   -4.189682  14.964103   0.006971  -0.009579   0.004394   0.000972
    15  H   -0.003916   0.006971   0.436270  -0.008844   0.001388   0.000269
    16  H    0.004100  -0.009579  -0.008844   0.418864  -0.006750   0.001930
    17  H   -0.006741   0.004394   0.001388  -0.006750   0.423103  -0.009737
    18  H   -0.007098   0.000972   0.000269   0.001930  -0.009737   0.449027
    19  H    0.079257  -0.060732   0.000236  -0.000458   0.001181  -0.005275
    20  H   -0.031609  -0.040004  -0.000122   0.000019  -0.000131   0.001342
    21  H   -0.020834   0.064489   0.000008  -0.000007   0.000009  -0.000131
    22  H    0.047947  -0.049122  -0.000133   0.000008  -0.000007   0.000019
    23  H   -0.007090  -0.017719   0.000871  -0.000133   0.000008  -0.000122
    24  H    0.016608  -0.064773  -0.000939   0.000643  -0.000143   0.000188
    25  H    0.016608  -0.064773  -0.000939   0.000643  -0.000143   0.000188
              19         20         21         22         23         24
     1  C   -0.043297   0.009255  -0.001587   0.001103   0.003453   0.034817
     2  C   -0.006390   0.001704  -0.000398   0.000372  -0.003454   0.014892
     3  C    0.044835  -0.004104   0.000377  -0.000358   0.001103  -0.001431
     4  C   -0.072787   0.015633   0.000022  -0.001374   0.005868  -0.013626
     5  C   -0.072787   0.426337  -0.052306   0.011932   0.019813  -0.013626
     6  C    0.044835  -0.095716   0.375997  -0.013511  -0.001274  -0.001431
     7  C   -0.006390   0.001339  -0.023970   0.374790  -0.090223   0.014892
     8  C   -0.043297   0.041612  -0.011649  -0.023623   0.346589   0.034817
     9  C    0.073031  -0.029570  -0.003329   0.006297   0.086869   0.356604
    10  C    0.417898   0.050074   0.018926  -0.012992  -0.009222   0.005783
    11  C    0.079257  -0.007098  -0.006741   0.004100  -0.003916   0.016608
    12  C   -0.060732   0.000972   0.004394  -0.009579   0.006971  -0.064773
    13  C    0.079257  -0.031609  -0.020834   0.047947  -0.007090   0.016608
    14  C   -0.060732  -0.040004   0.064489  -0.049122  -0.017719  -0.064773
    15  H    0.000236  -0.000122   0.000008  -0.000133   0.000871  -0.000939
    16  H   -0.000458   0.000019  -0.000007   0.000008  -0.000133   0.000643
    17  H    0.001181  -0.000131   0.000009  -0.000007   0.000008  -0.000143
    18  H   -0.005275   0.001342  -0.000131   0.000019  -0.000122   0.000188
    19  H    0.435144  -0.005275   0.001181  -0.000458   0.000236   0.000690
    20  H   -0.005275   0.449027  -0.009737   0.001930   0.000269   0.000188
    21  H    0.001181  -0.009737   0.423103  -0.006750   0.001388  -0.000143
    22  H   -0.000458   0.001930  -0.006750   0.418864  -0.008844   0.000643
    23  H    0.000236   0.000269   0.001388  -0.008844   0.436270  -0.000939
    24  H    0.000690   0.000188  -0.000143   0.000643  -0.000939   0.495180
    25  H    0.000690   0.000188  -0.000143   0.000643  -0.000939  -0.080179
              25
     1  C    0.034817
     2  C    0.014892
     3  C   -0.001431
     4  C   -0.013626
     5  C   -0.013626
     6  C   -0.001431
     7  C    0.014892
     8  C    0.034817
     9  C    0.356604
    10  C    0.005783
    11  C    0.016608
    12  C   -0.064773
    13  C    0.016608
    14  C   -0.064773
    15  H   -0.000939
    16  H    0.000643
    17  H   -0.000143
    18  H    0.000188
    19  H    0.000690
    20  H    0.000188
    21  H   -0.000143
    22  H    0.000643
    23  H   -0.000939
    24  H   -0.080179
    25  H    0.495180
 Mulliken charges:
               1
     1  C    0.047935
     2  C   -0.413597
     3  C   -0.453642
     4  C    0.115454
     5  C    0.115454
     6  C   -0.453642
     7  C   -0.413597
     8  C    0.047935
     9  C   -0.243605
    10  C    0.124856
    11  C   -0.535184
    12  C    0.485672
    13  C   -0.535184
    14  C    0.485672
    15  H    0.234167
    16  H    0.258103
    17  H    0.247834
    18  H    0.223476
    19  H    0.199407
    20  H    0.223476
    21  H    0.247834
    22  H    0.258103
    23  H    0.234167
    24  H    0.249452
    25  H    0.249452
 Sum of Mulliken charges =   1.00000
 Mulliken charges with hydrogens summed into heavy atoms:
               1
     1  C    0.282103
     2  C   -0.155494
     3  C   -0.205808
     4  C    0.338931
     5  C    0.338931
     6  C   -0.205808
     7  C   -0.155494
     8  C    0.282103
     9  C    0.255299
    10  C    0.324263
    11  C   -0.535184
    12  C    0.485672
    13  C   -0.535184
    14  C    0.485672
 Electronic spatial extent (au):  <R**2>=           2854.2821
 Charge=              1.0000 electrons
 Dipole moment (field-independent basis, Debye):
    X=             -0.0000    Y=              0.0000    Z=              0.1682  Tot=              0.1682
 Quadrupole moment (field-independent basis, Debye-Ang):
   XX=            -84.1522   YY=            -31.3093   ZZ=            -56.2008
   XY=              0.0000   XZ=              0.0000   YZ=             -0.0000
 Traceless Quadrupole moment (field-independent basis, Debye-Ang):
   XX=            -26.9314   YY=             25.9115   ZZ=              1.0199
   XY=              0.0000   XZ=              0.0000   YZ=             -0.0000
 Octapole moment (field-independent basis, Debye-Ang**2):
  XXX=              0.0000  YYY=              0.0000  ZZZ=              5.4447  XYY=             -0.0000
  XXY=              0.0000  XXZ=             -3.1526  XZZ=              0.0000  YZZ=             -0.0000
  YYZ=             -6.0747  XYZ=              0.0000
 Hexadecapole moment (field-independent basis, Debye-Ang**3):
 XXXX=            -99.3592 YYYY=          -2124.3078 ZZZZ=           -608.1933 XXXY=             -0.0000
 XXXZ=             -0.0000 YYYX=             -0.0000 YYYZ=             -0.0000 ZZZX=              0.0000
 ZZZY=             -0.0000 XXYY=           -590.6062 XXZZ=           -145.8290 YYZZ=           -507.2836
 XXYZ=             -0.0000 YYXZ=              0.0000 ZZXY=             -0.0000
 N-N= 7.813382109679D+02 E-N=-2.799007994797D+03  KE= 5.374988248790D+02
 Symmetry A1   KE= 2.955848858617D+02
 Symmetry A2   KE= 6.453417996352D+00
 Symmetry B1   KE= 8.195362177728D+00
 Symmetry B2   KE= 2.272651588432D+02
 Unable to Open any file for archive entry.
 1\1\GINC-GADI-CPU-CLX-2808\SP\RM062X TD-FC\6-311++G(d,p)\C14H11(1+)\TS
 1578\02-Aug-2022\0\\#n M062X/6-311++G(d,p) TD(NStates=1) EmpiricalDisp
 ersion=GD3 SP\\SP_0\\1,1\C,0,0.,2.466655,1.364431\C,0,0.,3.689508,0.70
 5989\C,0,0.,3.693861,-0.67983\C,0,0.,2.487156,-1.403538\C,0,0.,-2.4871
 56,-1.403538\C,0,0.,-3.693861,-0.67983\C,0,0.,-3.689508,0.705989\C,0,0
 .,-2.466655,1.364431\C,0,0.,0.,1.423369\C,0,0.,0.,-1.459189\C,0,0.,1.2
 56055,0.651065\C,0,0.,1.241471,-0.756804\C,0,0.,-1.256055,0.651065\C,0
 ,0.,-1.241471,-0.756804\H,0,0.,2.430071,2.447647\H,0,0.,4.614753,1.263
 689\H,0,0.,4.629262,-1.220349\H,0,0.,2.52155,-2.486059\H,0,0.,0.,-2.54
 2266\H,0,0.,-2.52155,-2.486059\H,0,0.,-4.629262,-1.220349\H,0,0.,-4.61
 4753,1.263689\H,0,0.,-2.430071,2.447647\H,0,-0.859585,0.,2.115787\H,0,
 0.859585,0.,2.115787\\Version=ES64L-G16RevC.01\State=1-A1\HF=-539.7575
 692\RMSD=3.452e-09\PG=C02V [C2(C1C1H1),SGV(C12H8),SGV'(H2)]\\@
 The archive entry for this job was punched.


 A COMPUTER IS LIKE A HORSE, IT WILL SENSE WEAKNESS.
     -- GREG WETTSTEIN
 Job cpu time:       0 days  0 hours 28 minutes 46.4 seconds.
 Elapsed time:       0 days  0 hours  0 minutes 36.1 seconds.
 File lengths (MBytes):  RWF=    460 Int=      0 D2E=      0 Chk=     15 Scr=      1
 Normal termination of Gaussian 16 at Tue Aug  2 12:37:39 2022.
