 Entering Gaussian System, Link 0=g16
 Initial command:
 /apps/gaussian/g16c01/g16/l1.exe "/jobfs/53803424.gadi-pbs/Gau-1847634.inp" -scrdir="/jobfs/53803424.gadi-pbs/"
 Entering Link 1 = /apps/gaussian/g16c01/g16/l1.exe PID=   1847635.
  
 Copyright (c) 1988-2019, Gaussian, Inc.  All Rights Reserved.
  
 This is part of the Gaussian(R) 16 program.  It is based on
 the Gaussian(R) 09 system (copyright 2009, Gaussian, Inc.),
 the Gaussian(R) 03 system (copyright 2003, Gaussian, Inc.),
 the Gaussian(R) 98 system (copyright 1998, Gaussian, Inc.),
 the Gaussian(R) 94 system (copyright 1995, Gaussian, Inc.),
 the Gaussian 92(TM) system (copyright 1992, Gaussian, Inc.),
 the Gaussian 90(TM) system (copyright 1990, Gaussian, Inc.),
 the Gaussian 88(TM) system (copyright 1988, Gaussian, Inc.),
 the Gaussian 86(TM) system (copyright 1986, Carnegie Mellon
 University), and the Gaussian 82(TM) system (copyright 1983,
 Carnegie Mellon University). Gaussian is a federally registered
 trademark of Gaussian, Inc.
  
 This software contains proprietary and confidential information,
 including trade secrets, belonging to Gaussian, Inc.
  
 This software is provided under written license and may be
 used, copied, transmitted, or stored only in accord with that
 written license.
  
 The following legend is applicable only to US Government
 contracts under FAR:
  
                    RESTRICTED RIGHTS LEGEND
  
 Use, reproduction and disclosure by the US Government is
 subject to restrictions as set forth in subparagraphs (a)
 and (c) of the Commercial Computer Software - Restricted
 Rights clause in FAR 52.227-19.
  
 Gaussian, Inc.
 340 Quinnipiac St., Bldg. 40, Wallingford CT 06492
  
  
 ---------------------------------------------------------------
 Warning -- This program may not be used in any manner that
 competes with the business of Gaussian, Inc. or will provide
 assistance to any competitor of Gaussian, Inc.  The licensee
 of this program is prohibited from giving any competitor of
 Gaussian, Inc. access to this program.  By using this program,
 the user acknowledges that Gaussian, Inc. is engaged in the
 business of creating and licensing software in the field of
 computational chemistry and represents and warrants to the
 licensee that it is not a competitor of Gaussian, Inc. and that
 it will not use this program in any manner prohibited above.
 ---------------------------------------------------------------
  

 Cite this work as:
 Gaussian 16, Revision C.01,
 M. J. Frisch, G. W. Trucks, H. B. Schlegel, G. E. Scuseria, 
 M. A. Robb, J. R. Cheeseman, G. Scalmani, V. Barone, 
 G. A. Petersson, H. Nakatsuji, X. Li, M. Caricato, A. V. Marenich, 
 J. Bloino, B. G. Janesko, R. Gomperts, B. Mennucci, H. P. Hratchian, 
 J. V. Ortiz, A. F. Izmaylov, J. L. Sonnenberg, D. Williams-Young, 
 F. Ding, F. Lipparini, F. Egidi, J. Goings, B. Peng, A. Petrone, 
 T. Henderson, D. Ranasinghe, V. G. Zakrzewski, J. Gao, N. Rega, 
 G. Zheng, W. Liang, M. Hada, M. Ehara, K. Toyota, R. Fukuda, 
 J. Hasegawa, M. Ishida, T. Nakajima, Y. Honda, O. Kitao, H. Nakai, 
 T. Vreven, K. Throssell, J. A. Montgomery, Jr., J. E. Peralta, 
 F. Ogliaro, M. J. Bearpark, J. J. Heyd, E. N. Brothers, K. N. Kudin, 
 V. N. Staroverov, T. A. Keith, R. Kobayashi, J. Normand, 
 K. Raghavachari, A. P. Rendell, J. C. Burant, S. S. Iyengar, 
 J. Tomasi, M. Cossi, J. M. Millam, M. Klene, C. Adamo, R. Cammi, 
 J. W. Ochterski, R. L. Martin, K. Morokuma, O. Farkas, 
 J. B. Foresman, and D. J. Fox, Gaussian, Inc., Wallingford CT, 2019.
 
 ******************************************
 Gaussian 16:  ES64L-G16RevC.01  3-Jul-2019
                 2-Aug-2022 
 ******************************************
 %NProcShared=48
 Will use up to   48 processors via shared memory.
 %mem = 190GB
 ---------------------------------------------------------------
 #n M062X/6-311++G(d,p) TD(NStates=1) EmpiricalDispersion=GD3 SP
 ---------------------------------------------------------------
 1/38=1,172=1/1;
 2/12=2,17=6,18=5,40=1/2;
 3/5=4,6=6,7=1111,11=9,25=1,30=1,74=-55,124=31/1,2,3,8;
 4//1;
 5/5=2,38=5/2;
 8/6=1,10=2,108=1/1;
 9/41=1,42=1,70=2/14;
 6/7=2,8=2,9=2,10=2/1;
 99/5=1,9=1/99;
 ----
 SP_8
 ----
 Symbolic Z-matrix:
 Charge =  1 Multiplicity = 1
 C                     0.        2.31266   1.36843 
 C                     0.        3.53351   0.67599 
 C                     0.        3.63186  -0.77383 
 C                     0.        2.67116  -1.46354 
 C                     0.       -2.35116  -1.33554 
 C                     0.       -3.77586  -0.51783 
 C                     0.       -3.82151   0.80399 
 C                     0.       -2.56866   1.36843 
 C                     0.       -0.064     1.39337 
 C                     0.        0.232    -1.48919 
 C                     0.        1.32206   0.71307 
 C                     0.        1.31747  -0.7908 
 C                     0.       -1.17806   0.53707 
 C                     0.       -1.17347  -0.7748 
 H                     0.        2.33207   2.45165 
 H                     0.        4.44875   1.25969 
 H                     0.        4.64126  -1.18435 
 H                     0.        2.64755  -2.54606 
 H                     0.        0.2      -2.57427 
 H                     0.       -2.50355  -2.41806 
 H                     0.       -4.65726  -1.15235 
 H                     0.       -4.73675   1.37169 
 H                     0.       -2.41207   2.45165 
 H                    -0.85959  -0.352     2.08579 
 H                     0.85959  -0.352     2.08579 
 
                          Input orientation:                          
 ---------------------------------------------------------------------
 Center     Atomic      Atomic             Coordinates (Angstroms)
 Number     Number       Type             X           Y           Z
 ---------------------------------------------------------------------
      1          6           0        0.000000    2.312655    1.368431
      2          6           0        0.000000    3.533508    0.675989
      3          6           0        0.000000    3.631861   -0.773830
      4          6           0        0.000000    2.671156   -1.463538
      5          6           0        0.000000   -2.351156   -1.335538
      6          6           0        0.000000   -3.775861   -0.517830
      7          6           0        0.000000   -3.821508    0.803989
      8          6           0        0.000000   -2.568655    1.368431
      9          6           0        0.000000   -0.064000    1.393369
     10          6           0        0.000000    0.232000   -1.489189
     11          6           0        0.000000    1.322055    0.713065
     12          6           0        0.000000    1.317471   -0.790804
     13          6           0        0.000000   -1.178055    0.537065
     14          6           0        0.000000   -1.173471   -0.774804
     15          1           0        0.000000    2.332071    2.451647
     16          1           0        0.000000    4.448753    1.259689
     17          1           0        0.000000    4.641262   -1.184349
     18          1           0        0.000000    2.647550   -2.546059
     19          1           0        0.000000    0.200000   -2.574266
     20          1           0        0.000000   -2.503550   -2.418059
     21          1           0        0.000000   -4.657262   -1.152349
     22          1           0        0.000000   -4.736753    1.371689
     23          1           0        0.000000   -2.412071    2.451647
     24          1           0       -0.859585   -0.352000    2.085787
     25          1           0        0.859585   -0.352000    2.085787
 ---------------------------------------------------------------------
                    Distance matrix (angstroms):
                    1          2          3          4          5
     1  C    0.000000
     2  C    1.403552   0.000000
     3  C    2.515867   1.453151   0.000000
     4  C    2.854570   2.306778   1.182646   0.000000
     5  C    5.390972   6.218964   6.009327   5.023943   0.000000
     6  C    6.374010   7.406219   7.412144   6.516010   1.642690
     7  C    6.160077   7.356130   7.618545   6.877235   2.596057
     8  C    4.881310   6.141325   6.560159   5.956145   2.712702
     9  C    2.376786   3.668337   4.284407   3.955123   3.560620
    10  C    3.534843   3.948158   3.474305   2.439291   2.587722
    11  C    1.187768   2.211764   2.747009   2.560796   4.205859
    12  C    2.377538   2.657499   2.314452   1.511633   3.708849
    13  C    3.588346   4.713611   4.985352   4.338068   2.209708
    14  C    4.092253   4.925490   4.805332   3.905830   1.304364
    15  H    1.083390   2.143924   3.477522   3.929841   6.022905
    16  H    2.138864   1.085532   2.191463   3.252048   7.278322
    17  H    3.455300   2.165174   1.089686   1.989790   6.994052
    18  H    3.928789   3.341634   2.027231   1.082778   5.143192
    19  H    4.473049   4.655796   3.875466   2.709304   2.835991
    20  H    6.126446   6.783745   6.351910   5.262005   1.093195
    21  H    7.411752   8.392350   8.297761   7.335022   2.313371
    22  H    7.049409   8.299471   8.639268   7.931937   3.608345
    23  H    4.847308   6.205068   6.850753   6.416219   3.787675
    24  H    2.890307   4.221799   4.978699   4.740893   4.054747
    25  H    2.890307   4.221799   4.978699   4.740893   4.054747
                    6          7          8          9         10
     6  C    0.000000
     7  C    1.322607   0.000000
     8  C    2.239493   1.374131   0.000000
     9  C    4.174996   3.803450   2.504779   0.000000
    10  C    4.123892   4.657209   4.001207   2.897716   0.000000
    11  C    5.244411   5.144367   3.945520   1.544008   2.457263
    12  C    5.100642   5.380750   4.445703   2.584390   1.290732
    13  C    2.803819   2.656895   1.620166   1.405125   2.468595
    14  C    2.615047   3.082967   2.557341   2.435549   1.576609
    15  H    6.791511   6.370346   5.019011   2.619372   4.465477
    16  H    8.414502   8.282806   7.018250   4.514733   5.033621
    17  H    8.443471   8.693214   7.648502   5.365083   4.419787
    18  H    6.736017   7.285021   6.521658   4.782426   2.636637
    19  H    4.476204   5.252155   4.817708   3.976408   1.085549
    20  H    2.286842   3.481179   3.787050   4.525305   2.888950
    21  H    1.086040   2.127379   3.273624   5.251546   4.900851
    22  H    2.119810   1.077013   2.168100   4.672803   5.733509
    23  H    3.267678   2.168246   1.094475   2.575537   4.745661
    24  H    4.386403   3.797286   2.483354   1.140734   3.722955
    25  H    4.386403   3.797286   2.483354   1.140734   3.722955
                   11         12         13         14         15
    11  C    0.000000
    12  C    1.503876   0.000000
    13  C    2.506297   2.826816   0.000000
    14  C    2.905409   2.490993   1.311877   0.000000
    15  H    2.010671   3.397485   3.998326   4.764327   0.000000
    16  H    3.174120   3.742920   5.673020   5.979010   2.429219
    17  H    3.823260   3.347008   6.068584   5.829138   4.307300
    18  H    3.518356   2.202278   4.913340   4.211597   5.007653
    19  H    3.473550   2.104633   3.402854   2.263733   5.459444
    20  H    4.943601   4.153090   3.238780   2.114095   6.862745
    21  H    6.263545   5.985662   3.867687   3.504189   7.863814
    22  H    6.094501   6.428842   3.655260   4.159857   7.150845
    23  H    4.119025   4.941960   2.277810   3.456026   4.744142
    24  H    2.329316   3.435229   1.954429   3.097851   2.842002
    25  H    2.329316   3.435229   1.954429   3.097851   2.842002
                   16         17         18         19         20
    16  H    0.000000
    17  H    2.451608   0.000000
    18  H    4.210469   2.414362   0.000000
    19  H    5.722859   4.653674   2.447713   0.000000
    20  H    7.865135   7.250543   5.152690   2.708059   0.000000
    21  H    9.420055   9.298579   7.436579   5.061111   2.498099
    22  H    9.186189   9.720108   8.359227   6.319976   4.398794
    23  H    6.963596   7.935362   7.111739   5.664161   4.870565
    24  H    4.946570   6.030368   5.584817   4.770711   5.064848
    25  H    4.946570   6.030368   5.584817   4.770711   5.064848
                   21         22         23         24         25
    21  H    0.000000
    22  H    2.525289   0.000000
    23  H    4.246136   2.563290   0.000000
    24  H    5.455244   4.524918   2.261997   0.000000
    25  H    5.455244   4.524918   2.261997   1.719170   0.000000
 Stoichiometry    C14H11(1+)
 Framework group  CS[SG(C14H9),X(H2)]
 Deg. of freedom    46
 Full point group                 CS      NOp   2
 Largest Abelian subgroup         CS      NOp   2
 Largest concise Abelian subgroup CS      NOp   2
                         Standard orientation:                         
 ---------------------------------------------------------------------
 Center     Atomic      Atomic             Coordinates (Angstroms)
 Number     Number       Type             X           Y           Z
 ---------------------------------------------------------------------
      1          6           0       -2.204020   -1.539591    0.000000
      2          6           0       -2.080172   -2.937668    0.000000
      3          6           0       -0.801663   -3.628366    0.000000
      4          6           0        0.224329   -3.040155    0.000000
      5          6           0        2.190467    1.583080    0.000000
      6          6           0        2.037162    3.218601    0.000000
      7          6           0        0.853274    3.808260    0.000000
      8          6           0       -0.179875    2.902259    0.000000
      9          6           0       -1.241179    0.633437    0.000000
     10          6           0        1.259121   -0.831232    0.000000
     11          6           0       -1.196881   -0.909936    0.000000
     12          6           0        0.173496   -1.529377    0.000000
     13          6           0        0.000000    1.292109    0.000000
     14          6           0        1.191862    0.743942    0.000000
     15          1           0       -3.197766   -1.108079    0.000000
     16          1           0       -2.990849   -3.528470    0.000000
     17          1           0       -0.846674   -4.717122    0.000000
     18          1           0        1.219180   -3.467566    0.000000
     19          1           0        2.259779   -1.252064    0.000000
     20          1           0        3.238723    1.272862    0.000000
     21          1           0        2.980048    3.757532    0.000000
     22          1           0        0.716210    4.876516    0.000000
     23          1           0       -1.230501    3.208952    0.000000
     24          1           0       -1.751834    1.182635    0.859585
     25          1           0       -1.751834    1.182635   -0.859585
 ---------------------------------------------------------------------
 Rotational constants (GHZ):           2.1422682           0.4434140           0.3681709
 Standard basis: 6-311++G(d,p) (5D, 7F)
 There are   299 symmetry adapted cartesian basis functions of A'  symmetry.
 There are   100 symmetry adapted cartesian basis functions of A"  symmetry.
 There are   285 symmetry adapted basis functions of A'  symmetry.
 There are   100 symmetry adapted basis functions of A"  symmetry.
   385 basis functions,   603 primitive gaussians,   399 cartesian basis functions
    47 alpha electrons       47 beta electrons
       nuclear repulsion energy       783.2286859855 Hartrees.
 NAtoms=   25 NActive=   25 NUniq=   24 SFac= 1.09D+00 NAtFMM=   60 NAOKFM=F Big=F
 Integral buffers will be    131072 words long.
 Regular integral format.
 Two-electron integral symmetry is turned on.
 Nuclear repulsion after empirical dispersion term =      783.2277181519 Hartrees.
 One-electron integrals computed using PRISM.
 NBasis=   385 RedAO= T EigKep=  2.13D-06  NBF=   285   100
 NBsUse=   378 1.00D-06 EigRej=  9.55D-07 NBFU=   278   100
 ExpMin= 3.60D-02 ExpMax= 4.56D+03 ExpMxC= 6.82D+02 IAcc=3 IRadAn=         5 AccDes= 0.00D+00
 Harris functional with IExCor= 1009 and IRadAn=       5 diagonalized for initial guess.
 HarFok:  IExCor= 1009 AccDes= 0.00D+00 IRadAn=         5 IDoV= 1 UseB2=F ITyADJ=14
 ICtDFT=  3500011 ScaDFX=  1.000000  1.000000  1.000000  1.000000
 FoFCou: FMM=F IPFlag=           0 FMFlag=      100000 FMFlg1=           0
         NFxFlg=           0 DoJE=T BraDBF=F KetDBF=T FulRan=T
         wScrn=  0.000000 ICntrl=       500 IOpCl=  0 I1Cent=   200000004 NGrid=           0
         NMat0=    1 NMatS0=      1 NMatT0=    0 NMatD0=    1 NMtDS0=    0 NMtDT0=    0
 Petite list used in FoFCou.
 Initial guess orbital symmetries:
       Occupied  (A') (A') (A') (A') (A') (A') (A') (A') (A') (A')
                 (A') (A') (A') (A') (A') (A') (A') (A') (A') (A')
                 (A') (A') (A') (A') (A') (A') (A') (A') (A') (A')
                 (A') (A') (A") (A') (A') (A') (A") (A') (A') (A')
                 (A") (A') (A") (A") (A') (A") (A")
       Virtual   (A") (A") (A") (A") (A") (A') (A') (A') (A') (A')
                 (A") (A') (A') (A") (A') (A') (A") (A') (A') (A')
                 (A') (A") (A') (A') (A") (A') (A") (A') (A') (A")
                 (A') (A') (A') (A') (A") (A') (A') (A') (A") (A')
                 (A") (A') (A') (A") (A') (A') (A') (A') (A') (A")
                 (A') (A') (A") (A") (A') (A') (A") (A') (A") (A')
                 (A') (A') (A') (A') (A") (A') (A') (A') (A') (A")
                 (A') (A') (A') (A') (A') (A') (A') (A') (A') (A')
                 (A') (A') (A') (A') (A') (A') (A') (A') (A') (A')
                 (A') (A') (A') (A") (A') (A') (A') (A") (A') (A")
                 (A') (A') (A") (A') (A") (A') (A") (A') (A") (A")
                 (A') (A") (A') (A") (A') (A') (A") (A') (A") (A")
                 (A') (A') (A') (A') (A") (A') (A') (A") (A') (A')
                 (A') (A') (A') (A') (A') (A') (A') (A") (A') (A')
                 (A') (A') (A') (A') (A') (A") (A') (A') (A') (A")
                 (A') (A") (A') (A') (A") (A') (A') (A") (A") (A')
                 (A") (A') (A") (A") (A") (A') (A') (A') (A') (A")
                 (A') (A') (A') (A') (A') (A') (A") (A") (A') (A')
                 (A') (A") (A') (A") (A') (A") (A') (A") (A') (A")
                 (A') (A') (A') (A") (A') (A") (A') (A') (A') (A")
                 (A") (A") (A') (A") (A') (A") (A') (A') (A") (A')
                 (A') (A') (A') (A") (A") (A') (A') (A") (A') (A')
                 (A") (A') (A') (A") (A') (A') (A") (A') (A') (A")
                 (A') (A") (A') (A') (A') (A") (A") (A') (A') (A")
                 (A') (A') (A') (A") (A') (A') (A') (A') (A') (A")
                 (A') (A') (A") (A") (A') (A') (A") (A') (A') (A")
                 (A') (A") (A') (A') (A') (A') (A") (A") (A') (A')
                 (A') (A') (A") (A") (A') (A') (A') (A") (A') (A")
                 (A') (A") (A') (A') (A") (A") (A') (A') (A') (A')
                 (A') (A') (A') (A') (A') (A') (A') (A') (A') (A')
                 (A") (A') (A') (A') (A') (A') (A') (A') (A') (A')
                 (A') (A') (A') (A') (A') (A') (A') (A') (A') (A')
                 (A') (A') (A') (A') (A') (A') (A') (A') (A') (A')
                 (A')
 The electronic state of the initial guess is 1-A'.
 Requested convergence on RMS density matrix=1.00D-08 within 128 cycles.
 Requested convergence on MAX density matrix=1.00D-06.
 Requested convergence on             energy=1.00D-06.
 No special actions if energy rises.
 SCF Done:  E(RM062X) =  -539.516832281     A.U. after   16 cycles
            NFock= 16  Conv=0.45D-08     -V/T= 2.0019
 DoSCS=F DFT=T ScalE2(SS,OS)=  1.000000  1.000000
 ExpMin= 3.60D-02 ExpMax= 4.56D+03 ExpMxC= 6.82D+02 IAcc=3 IRadAn=         5 AccDes= 0.00D+00
 HarFok:  IExCor=  205 AccDes= 0.00D+00 IRadAn=         5 IDoV=-2 UseB2=F ITyADJ=14
 ICtDFT= 12500011 ScaDFX=  1.000000  1.000000  1.000000  1.000000
 Range of M.O.s used for correlation:    15   378
 NBasis=   385 NAE=    47 NBE=    47 NFC=    14 NFV=     0
 NROrb=    364 NOA=    33 NOB=    33 NVA=   331 NVB=   331

 **** Warning!!: The largest alpha MO coefficient is  0.12800950D+03

 Orbital symmetries:
       Occupied  (A') (A') (A') (A') (A') (A') (A') (A') (A') (A')
                 (A') (A') (A') (A') (A') (A') (A') (A') (A') (A')
                 (A') (A') (A') (A') (A') (A') (A') (A') (A') (A')
                 (A') (A") (A') (A') (A') (A') (A") (A') (A") (A')
                 (A') (A') (A") (A") (A') (A") (A")
       Virtual   (A") (A") (A") (A') (A") (A') (A') (A') (A') (A")
                 (A') (A") (A') (A") (A') (A') (A") (A') (A') (A')
                 (A") (A") (A') (A') (A') (A') (A") (A') (A') (A")
                 (A') (A") (A') (A') (A") (A') (A') (A') (A") (A')
                 (A") (A') (A') (A') (A") (A") (A') (A") (A') (A')
                 (A') (A") (A') (A') (A') (A') (A") (A') (A') (A')
                 (A') (A') (A") (A') (A') (A') (A") (A') (A') (A')
                 (A') (A') (A') (A') (A') (A') (A') (A') (A') (A')
                 (A') (A') (A') (A') (A') (A') (A') (A') (A') (A')
                 (A') (A") (A') (A') (A") (A') (A') (A") (A') (A")
                 (A') (A') (A') (A") (A') (A") (A") (A') (A") (A')
                 (A') (A") (A') (A") (A') (A") (A') (A") (A') (A")
                 (A') (A') (A") (A') (A") (A') (A') (A') (A') (A')
                 (A') (A') (A') (A') (A') (A') (A') (A') (A') (A')
                 (A') (A') (A') (A") (A') (A') (A') (A") (A') (A')
                 (A') (A') (A') (A") (A') (A") (A") (A') (A") (A')
                 (A") (A") (A') (A') (A") (A") (A") (A') (A') (A")
                 (A') (A') (A') (A') (A') (A') (A") (A') (A") (A')
                 (A') (A') (A") (A") (A') (A") (A') (A") (A") (A')
                 (A') (A') (A") (A') (A") (A') (A') (A') (A") (A')
                 (A") (A") (A') (A") (A') (A') (A") (A') (A') (A")
                 (A') (A') (A') (A") (A") (A') (A') (A') (A") (A")
                 (A') (A') (A') (A") (A') (A') (A") (A') (A") (A')
                 (A') (A") (A') (A') (A') (A") (A') (A") (A") (A')
                 (A') (A') (A") (A') (A') (A') (A') (A') (A') (A")
                 (A') (A') (A') (A') (A") (A') (A") (A') (A") (A')
                 (A') (A') (A') (A') (A") (A') (A') (A') (A') (A')
                 (A") (A') (A") (A") (A') (A") (A") (A') (A") (A")
                 (A') (A") (A') (A") (A') (A") (A') (A') (A') (A')
                 (A') (A') (A') (A') (A') (A') (A') (A') (A') (A')
                 (A") (A') (A') (A') (A') (A') (A') (A') (A') (A')
                 (A') (A') (A') (A') (A') (A') (A') (A') (A') (A')
                 (A') (A') (A') (A') (A') (A') (A') (A') (A') (A')
                 (A')
     4 initial guesses have been made.
 Convergence on wavefunction:    0.001000000000000
 Iteration     1 Dimension     4 NMult     0 NNew      4
 CISAX will form     4 AO SS matrices at one time.
 Iteration     2 Dimension     6 NMult     4 NNew      2
 Iteration     3 Dimension     8 NMult     6 NNew      2
 Iteration     4 Dimension    10 NMult     8 NNew      2
 Iteration     5 Dimension    12 NMult    10 NNew      2
 Iteration     6 Dimension    14 NMult    12 NNew      2
 ***********************************************************************
 Excited states from <AA,BB:AA,BB> singles matrix:
 ***********************************************************************
 
 Ground to excited state transition densities written to RWF  633
 Ground to excited state transition electric dipole moments (Au):
       state          X           Y           Z        Dip. S.      Osc.
         1         0.1345      1.0278     -0.0000      1.0745      0.0360
 Ground to excited state transition velocity dipole moments (Au):
       state          X           Y           Z        Dip. S.      Osc.
         1         0.0001     -0.0483      0.0000      0.0023      0.0309
 Ground to excited state transition magnetic dipole moments (Au):
       state          X           Y           Z
         1         0.0000      0.0000      0.2472
 Ground to excited state transition velocity quadrupole moments (Au):
       state          XX          YY          ZZ          XY          XZ          YZ
         1         0.0362      0.0288     -0.0047      0.0576     -0.0000      0.0000
 <0|del|b> * <b|rxdel|0> + <0|del|b> * <b|delr+rdel|0>
 Rotatory Strengths (R) in cgs (10**-40 erg-esu-cm/Gauss)
       state          XX          YY          ZZ    R(velocity)    E-M Angle
         1        -0.0000      0.0000     -0.0000     -0.0000       90.00
 1/2[<0|r|b>*<b|rxdel|0> + (<0|rxdel|b>*<b|r|0>)*]
 Rotatory Strengths (R) in cgs (10**-40 erg-esu-cm/Gauss)
       state          XX          YY          ZZ     R(length)
         1        -0.0000     -0.0000      0.0000     -0.0000
  1/2[<0|del|b>*<b|r|0> + (<0|r|b>*<b|del|0>)*] (Au)
       state          X           Y           Z        Dip. S.   Osc.(frdel)
         1         0.0000     -0.0496     -0.0000      0.0496      0.0331

 Excitation energies and oscillator strengths:
 
 Excited State   1:      Singlet-A'     1.3680 eV  906.34 nm  f=0.0360  <S**2>=0.000
      47 -> 48         0.70312
 This state for optimization and/or second-order correction.
 Total Energy, E(TD-HF/TD-DFT) =  -539.466560712    
 Copying the excited state density for this state as the 1-particle RhoCI density.
 SavETr:  write IOETrn=   770 NScale= 10 NData=  16 NLR=1 NState=    1 LETran=      28.

 **********************************************************************

            Population analysis using the SCF Density.

 **********************************************************************

 Orbital symmetries:
       Occupied  (A') (A') (A') (A') (A') (A') (A') (A') (A') (A')
                 (A') (A') (A') (A') (A') (A') (A') (A') (A') (A')
                 (A') (A') (A') (A') (A') (A') (A') (A') (A') (A')
                 (A') (A") (A') (A') (A') (A') (A") (A') (A") (A')
                 (A') (A') (A") (A") (A') (A") (A")
       Virtual   (A") (A") (A") (A') (A") (A') (A') (A') (A') (A")
                 (A') (A") (A') (A") (A') (A') (A") (A') (A') (A')
                 (A") (A") (A') (A') (A') (A') (A") (A') (A') (A")
                 (A') (A") (A') (A') (A") (A') (A') (A') (A") (A')
                 (A") (A') (A') (A') (A") (A") (A') (A") (A') (A')
                 (A') (A") (A') (A') (A') (A') (A") (A') (A') (A')
                 (A') (A') (A") (A') (A') (A') (A") (A') (A') (A')
                 (A') (A') (A') (A') (A') (A') (A') (A') (A') (A')
                 (A') (A') (A') (A') (A') (A') (A') (A') (A') (A')
                 (A') (A") (A') (A') (A") (A') (A') (A") (A') (A")
                 (A') (A') (A') (A") (A') (A") (A") (A') (A") (A')
                 (A') (A") (A') (A") (A') (A") (A') (A") (A') (A")
                 (A') (A') (A") (A') (A") (A') (A') (A') (A') (A')
                 (A') (A') (A') (A') (A') (A') (A') (A') (A') (A')
                 (A') (A') (A') (A") (A') (A') (A') (A") (A') (A')
                 (A') (A') (A') (A") (A') (A") (A") (A') (A") (A')
                 (A") (A") (A') (A') (A") (A") (A") (A') (A') (A")
                 (A') (A') (A') (A') (A') (A') (A") (A') (A") (A')
                 (A') (A') (A") (A") (A') (A") (A') (A") (A") (A')
                 (A') (A') (A") (A') (A") (A') (A') (A') (A") (A')
                 (A") (A") (A') (A") (A') (A') (A") (A') (A') (A")
                 (A') (A') (A') (A") (A") (A') (A') (A') (A") (A")
                 (A') (A') (A') (A") (A') (A') (A") (A') (A") (A')
                 (A') (A") (A') (A') (A') (A") (A') (A") (A") (A')
                 (A') (A') (A") (A') (A') (A') (A') (A') (A') (A")
                 (A') (A') (A') (A') (A") (A') (A") (A') (A") (A')
                 (A') (A') (A') (A') (A") (A') (A') (A') (A') (A')
                 (A") (A') (A") (A") (A') (A") (A") (A') (A") (A")
                 (A') (A") (A') (A") (A') (A") (A') (A') (A') (A')
                 (A') (A') (A') (A') (A') (A') (A') (A') (A') (A')
                 (A") (A') (A') (A') (A') (A') (A') (A') (A') (A')
                 (A') (A') (A') (A') (A') (A') (A') (A') (A') (A')
                 (A') (A') (A') (A') (A') (A') (A') (A') (A') (A')
                 (A')
 The electronic state is 1-A'.
 Alpha  occ. eigenvalues --  -10.77018 -10.75469 -10.74728 -10.73500 -10.72168
 Alpha  occ. eigenvalues --  -10.71107 -10.70636 -10.70544 -10.70326 -10.69531
 Alpha  occ. eigenvalues --  -10.69160 -10.68665 -10.68446 -10.66867  -1.19004
 Alpha  occ. eigenvalues --   -1.12818  -1.09783  -1.06623  -1.02503  -1.01273
 Alpha  occ. eigenvalues --   -0.95250  -0.89106  -0.86529  -0.85119  -0.83522
 Alpha  occ. eigenvalues --   -0.77747  -0.76844  -0.74383  -0.71917  -0.69556
 Alpha  occ. eigenvalues --   -0.68979  -0.68211  -0.66823  -0.65685  -0.63958
 Alpha  occ. eigenvalues --   -0.62830  -0.62794  -0.60745  -0.57592  -0.56616
 Alpha  occ. eigenvalues --   -0.55480  -0.54732  -0.53230  -0.52428  -0.50383
 Alpha  occ. eigenvalues --   -0.46995  -0.38181
 Alpha virt. eigenvalues --   -0.26838  -0.15139  -0.13351  -0.11512  -0.11359
 Alpha virt. eigenvalues --   -0.10261  -0.09700  -0.07804  -0.07650  -0.07567
 Alpha virt. eigenvalues --   -0.07334  -0.06396  -0.05717  -0.05572  -0.05458
 Alpha virt. eigenvalues --   -0.04292  -0.04027  -0.03257  -0.03141  -0.02003
 Alpha virt. eigenvalues --   -0.01540  -0.00959  -0.00154   0.00238   0.00650
 Alpha virt. eigenvalues --    0.00999   0.01271   0.01374   0.01831   0.02102
 Alpha virt. eigenvalues --    0.02107   0.02536   0.03277   0.03449   0.03640
 Alpha virt. eigenvalues --    0.04036   0.04369   0.04518   0.05117   0.05308
 Alpha virt. eigenvalues --    0.05805   0.05865   0.06120   0.06632   0.07415
 Alpha virt. eigenvalues --    0.07611   0.07720   0.07879   0.08409   0.08496
 Alpha virt. eigenvalues --    0.08950   0.09454   0.09625   0.09908   0.10131
 Alpha virt. eigenvalues --    0.10768   0.11319   0.11635   0.12208   0.12682
 Alpha virt. eigenvalues --    0.13151   0.13373   0.13550   0.14136   0.14571
 Alpha virt. eigenvalues --    0.15433   0.16017   0.17174   0.17242   0.17634
 Alpha virt. eigenvalues --    0.18303   0.19269   0.20119   0.20542   0.21137
 Alpha virt. eigenvalues --    0.21737   0.22177   0.23164   0.23466   0.24426
 Alpha virt. eigenvalues --    0.25072   0.25890   0.26726   0.27903   0.29257
 Alpha virt. eigenvalues --    0.29765   0.30913   0.31205   0.34773   0.36834
 Alpha virt. eigenvalues --    0.37877   0.38805   0.39057   0.39561   0.40139
 Alpha virt. eigenvalues --    0.42071   0.42891   0.43280   0.44029   0.44745
 Alpha virt. eigenvalues --    0.45175   0.45356   0.46122   0.46629   0.47308
 Alpha virt. eigenvalues --    0.47870   0.49013   0.50081   0.51505   0.51582
 Alpha virt. eigenvalues --    0.51895   0.52468   0.53388   0.54215   0.54776
 Alpha virt. eigenvalues --    0.54937   0.57131   0.58238   0.58675   0.58798
 Alpha virt. eigenvalues --    0.61364   0.61717   0.62313   0.63212   0.63412
 Alpha virt. eigenvalues --    0.64157   0.65375   0.66869   0.67559   0.68672
 Alpha virt. eigenvalues --    0.71155   0.73125   0.73321   0.74117   0.74960
 Alpha virt. eigenvalues --    0.75450   0.76831   0.77001   0.77599   0.78964
 Alpha virt. eigenvalues --    0.79372   0.80096   0.80429   0.81078   0.81221
 Alpha virt. eigenvalues --    0.82440   0.84151   0.84838   0.84913   0.86148
 Alpha virt. eigenvalues --    0.88701   0.89706   0.90864   0.91305   0.92062
 Alpha virt. eigenvalues --    0.93896   0.94946   0.96497   0.97022   0.97299
 Alpha virt. eigenvalues --    0.99113   1.01555   1.02041   1.03510   1.05205
 Alpha virt. eigenvalues --    1.05276   1.07262   1.07923   1.10727   1.17144
 Alpha virt. eigenvalues --    1.17619   1.20668   1.21307   1.27504   1.30712
 Alpha virt. eigenvalues --    1.33654   1.34435   1.35451   1.36109   1.37114
 Alpha virt. eigenvalues --    1.38107   1.39429   1.40254   1.41584   1.44485
 Alpha virt. eigenvalues --    1.45408   1.45651   1.46667   1.48947   1.50214
 Alpha virt. eigenvalues --    1.51198   1.53589   1.54005   1.56161   1.56191
 Alpha virt. eigenvalues --    1.56831   1.57058   1.58812   1.60200   1.61730
 Alpha virt. eigenvalues --    1.64202   1.65295   1.66042   1.67850   1.69152
 Alpha virt. eigenvalues --    1.70929   1.71048   1.74411   1.76207   1.76636
 Alpha virt. eigenvalues --    1.77791   1.78442   1.79577   1.80765   1.82196
 Alpha virt. eigenvalues --    1.82776   1.84041   1.84971   1.85109   1.86842
 Alpha virt. eigenvalues --    1.87318   1.88260   1.89390   1.92986   1.94362
 Alpha virt. eigenvalues --    1.95298   1.98199   1.99519   2.00609   2.01195
 Alpha virt. eigenvalues --    2.04298   2.09076   2.09403   2.12023   2.15570
 Alpha virt. eigenvalues --    2.16867   2.18513   2.19009   2.21653   2.23292
 Alpha virt. eigenvalues --    2.25998   2.31641   2.31755   2.32675   2.35626
 Alpha virt. eigenvalues --    2.38213   2.39267   2.41022   2.42010   2.43998
 Alpha virt. eigenvalues --    2.45398   2.48217   2.52932   2.55195   2.56170
 Alpha virt. eigenvalues --    2.57965   2.58438   2.59803   2.61095   2.61370
 Alpha virt. eigenvalues --    2.61940   2.63141   2.63583   2.64123   2.64954
 Alpha virt. eigenvalues --    2.65856   2.66883   2.67008   2.67977   2.69785
 Alpha virt. eigenvalues --    2.70219   2.72629   2.74047   2.74604   2.75736
 Alpha virt. eigenvalues --    2.76097   2.78765   2.82014   2.84980   2.88012
 Alpha virt. eigenvalues --    2.88060   2.92751   2.93641   2.98978   2.99221
 Alpha virt. eigenvalues --    3.01025   3.04872   3.07146   3.10109   3.11086
 Alpha virt. eigenvalues --    3.18668   3.23513   3.26160   3.31679   3.34193
 Alpha virt. eigenvalues --    3.38202   3.40133   3.50012   3.53459   3.55188
 Alpha virt. eigenvalues --    3.57204   3.60179   3.64820   3.71997   3.74616
 Alpha virt. eigenvalues --    3.85234   3.87107   3.88732   3.93155   3.99387
 Alpha virt. eigenvalues --    4.03434   4.08076   4.12800   4.29450   4.44416
 Alpha virt. eigenvalues --    4.55674   4.56438  23.41843  23.51171  23.59473
 Alpha virt. eigenvalues --   23.60529  23.61781  23.86688  23.91809  23.94778
 Alpha virt. eigenvalues --   24.11679  24.28047  24.29375  24.38398  24.81392
 Alpha virt. eigenvalues --   24.85027
          Condensed to atoms (all electrons):
               1          2          3          4          5          6
     1  C    7.244720   0.775411  -0.543550   0.838488  -0.084961  -0.096545
     2  C    0.775411   7.322578   0.586280  -0.370271  -0.133546  -0.030805
     3  C   -0.543550   0.586280   6.900417   0.335724  -0.064226   0.017570
     4  C    0.838488  -0.370271   0.335724   7.607715   0.170094  -0.016301
     5  C   -0.084961  -0.133546  -0.064226   0.170094   8.385466   0.771624
     6  C   -0.096545  -0.030805   0.017570  -0.016301   0.771624   6.265750
     7  C    0.009983   0.033163  -0.019534  -0.084371  -0.693059   0.300293
     8  C    0.069627  -0.043462  -0.154511   0.100398   1.825008  -0.438626
     9  C   -0.710998  -0.449619   0.067921  -0.770431  -1.083411  -0.153959
    10  C   -0.602724  -0.292832   0.218751  -1.264476  -0.962522  -0.301540
    11  C    0.518306  -0.646175   0.183348  -0.591475  -1.743236  -0.176209
    12  C   -0.900015  -0.006526  -1.400072   0.271164   0.741022  -0.212104
    13  C    0.203607  -0.187106  -0.372668  -0.036956  -1.427409   0.251309
    14  C   -1.130745  -0.485450   0.317827  -0.665397   0.066761  -0.179526
    15  H    0.378831  -0.079850  -0.000608   0.003361   0.005378   0.001582
    16  H   -0.013640   0.372002  -0.040958   0.034590  -0.001733  -0.000439
    17  H   -0.002413  -0.038475   0.407380  -0.050145  -0.000876   0.000353
    18  H    0.025158   0.013217  -0.089963   0.436378   0.012114  -0.002379
    19  H   -0.020018  -0.011717   0.051283  -0.043966  -0.068164   0.032744
    20  H    0.002153   0.001240  -0.005034   0.013552   0.406235  -0.077057
    21  H   -0.001038  -0.000442   0.000337   0.000503  -0.045837   0.374158
    22  H   -0.000254   0.000287  -0.000293  -0.001006   0.005154   0.001715
    23  H    0.000678  -0.002446  -0.000140   0.003087   0.015141   0.003265
    24  H    0.038167   0.013607   0.000093  -0.002957  -0.021174  -0.004209
    25  H    0.038167   0.013607   0.000093  -0.002957  -0.021174  -0.004209
               7          8          9         10         11         12
     1  C    0.009983   0.069627  -0.710998  -0.602724   0.518306  -0.900015
     2  C    0.033163  -0.043462  -0.449619  -0.292832  -0.646175  -0.006526
     3  C   -0.019534  -0.154511   0.067921   0.218751   0.183348  -1.400072
     4  C   -0.084371   0.100398  -0.770431  -1.264476  -0.591475   0.271164
     5  C   -0.693059   1.825008  -1.083411  -0.962522  -1.743236   0.741022
     6  C    0.300293  -0.438626  -0.153959  -0.301540  -0.176209  -0.212104
     7  C    6.333611   0.156777   0.082466   0.139462   0.180732  -0.228041
     8  C    0.156777   9.387517  -2.182204  -0.574210  -0.769172  -0.115169
     9  C    0.082466  -2.182204   7.907351   0.865293   1.456176  -1.006127
    10  C    0.139462  -0.574210   0.865293   7.177844   0.431225   0.213694
    11  C    0.180732  -0.769172   1.456176   0.431225  12.716448  -3.195403
    12  C   -0.228041  -0.115169  -1.006127   0.213694  -3.195403  13.675668
    13  C   -0.378004  -0.867979   0.541812  -0.076998   0.324145  -1.664902
    14  C    0.194199  -0.764448   1.076811   0.760345  -1.939320  -0.440321
    15  H   -0.002631  -0.001599   0.038881   0.007017  -0.035201   0.047777
    16  H    0.000513   0.003300   0.000228  -0.018918   0.036898  -0.030000
    17  H   -0.000231  -0.002498   0.002130   0.010363   0.011183   0.010483
    18  H    0.000354   0.010986  -0.026111   0.013293  -0.022583   0.007804
    19  H    0.003084  -0.060905   0.071656   0.412587   0.091041  -0.181715
    20  H    0.004380   0.053568  -0.030434   0.045483  -0.019589   0.031155
    21  H   -0.023840  -0.018437   0.002044   0.001941  -0.002685  -0.001511
    22  H    0.381776  -0.032343  -0.007898  -0.003594  -0.000828  -0.002185
    23  H   -0.043280   0.281604   0.079101  -0.004994  -0.010313   0.002608
    24  H    0.011773  -0.012220   0.375772   0.008468   0.033124  -0.043690
    25  H    0.011773  -0.012220   0.375772   0.008468   0.033124  -0.043690
              13         14         15         16         17         18
     1  C    0.203607  -1.130745   0.378831  -0.013640  -0.002413   0.025158
     2  C   -0.187106  -0.485450  -0.079850   0.372002  -0.038475   0.013217
     3  C   -0.372668   0.317827  -0.000608  -0.040958   0.407380  -0.089963
     4  C   -0.036956  -0.665397   0.003361   0.034590  -0.050145   0.436378
     5  C   -1.427409   0.066761   0.005378  -0.001733  -0.000876   0.012114
     6  C    0.251309  -0.179526   0.001582  -0.000439   0.000353  -0.002379
     7  C   -0.378004   0.194199  -0.002631   0.000513  -0.000231   0.000354
     8  C   -0.867979  -0.764448  -0.001599   0.003300  -0.002498   0.010986
     9  C    0.541812   1.076811   0.038881   0.000228   0.002130  -0.026111
    10  C   -0.076998   0.760345   0.007017  -0.018918   0.010363   0.013293
    11  C    0.324145  -1.939320  -0.035201   0.036898   0.011183  -0.022583
    12  C   -1.664902  -0.440321   0.047777  -0.030000   0.010483   0.007804
    13  C    9.036166   0.518719  -0.032938   0.007554  -0.009457   0.013510
    14  C    0.518719   8.212990   0.010810  -0.017535   0.004288  -0.050747
    15  H   -0.032938   0.010810   0.419597  -0.005081   0.001595   0.000140
    16  H    0.007554  -0.017535  -0.005081   0.394671  -0.006846   0.002700
    17  H   -0.009457   0.004288   0.001595  -0.006846   0.414061  -0.011715
    18  H    0.013510  -0.050747   0.000140   0.002700  -0.011715   0.434018
    19  H    0.022556   0.064948   0.000735  -0.000573   0.002436  -0.003423
    20  H    0.003460  -0.096051  -0.000224   0.000040  -0.000210   0.001264
    21  H    0.031923   0.026141   0.000028  -0.000007   0.000007  -0.000074
    22  H    0.002044  -0.007739  -0.000123   0.000008  -0.000005   0.000009
    23  H   -0.035792   0.012595   0.000651  -0.000157  -0.000026   0.000006
    24  H   -0.033930  -0.025497  -0.000822   0.000559  -0.000068   0.000015
    25  H   -0.033930  -0.025497  -0.000822   0.000559  -0.000068   0.000015
              19         20         21         22         23         24
     1  C   -0.020018   0.002153  -0.001038  -0.000254   0.000678   0.038167
     2  C   -0.011717   0.001240  -0.000442   0.000287  -0.002446   0.013607
     3  C    0.051283  -0.005034   0.000337  -0.000293  -0.000140   0.000093
     4  C   -0.043966   0.013552   0.000503  -0.001006   0.003087  -0.002957
     5  C   -0.068164   0.406235  -0.045837   0.005154   0.015141  -0.021174
     6  C    0.032744  -0.077057   0.374158   0.001715   0.003265  -0.004209
     7  C    0.003084   0.004380  -0.023840   0.381776  -0.043280   0.011773
     8  C   -0.060905   0.053568  -0.018437  -0.032343   0.281604  -0.012220
     9  C    0.071656  -0.030434   0.002044  -0.007898   0.079101   0.375772
    10  C    0.412587   0.045483   0.001941  -0.003594  -0.004994   0.008468
    11  C    0.091041  -0.019589  -0.002685  -0.000828  -0.010313   0.033124
    12  C   -0.181715   0.031155  -0.001511  -0.002185   0.002608  -0.043690
    13  C    0.022556   0.003460   0.031923   0.002044  -0.035792  -0.033930
    14  C    0.064948  -0.096051   0.026141  -0.007739   0.012595  -0.025497
    15  H    0.000735  -0.000224   0.000028  -0.000123   0.000651  -0.000822
    16  H   -0.000573   0.000040  -0.000007   0.000008  -0.000157   0.000559
    17  H    0.002436  -0.000210   0.000007  -0.000005  -0.000026  -0.000068
    18  H   -0.003423   0.001264  -0.000074   0.000009   0.000006   0.000015
    19  H    0.451810  -0.009836   0.000476  -0.000289  -0.000171   0.000678
    20  H   -0.009836   0.465204  -0.006889   0.001807  -0.001128   0.000439
    21  H    0.000476  -0.006889   0.433878  -0.004648  -0.000142  -0.000085
    22  H   -0.000289   0.001807  -0.004648   0.430978  -0.004694   0.000578
    23  H   -0.000171  -0.001128  -0.000142  -0.004694   0.474682  -0.000947
    24  H    0.000678   0.000439  -0.000085   0.000578  -0.000947   0.477062
    25  H    0.000678   0.000439  -0.000085   0.000578  -0.000947  -0.071988
              25
     1  C    0.038167
     2  C    0.013607
     3  C    0.000093
     4  C   -0.002957
     5  C   -0.021174
     6  C   -0.004209
     7  C    0.011773
     8  C   -0.012220
     9  C    0.375772
    10  C    0.008468
    11  C    0.033124
    12  C   -0.043690
    13  C   -0.033930
    14  C   -0.025497
    15  H   -0.000822
    16  H    0.000559
    17  H   -0.000068
    18  H    0.000015
    19  H    0.000678
    20  H    0.000439
    21  H   -0.000085
    22  H    0.000578
    23  H   -0.000947
    24  H   -0.071988
    25  H    0.477062
 Mulliken charges:
               1
     1  C   -0.036396
     2  C   -0.352671
     3  C   -0.395467
     4  C    0.085654
     5  C   -0.052670
     6  C   -0.326456
     7  C   -0.371348
     8  C    0.161219
     9  C   -0.522221
    10  C   -0.211426
    11  C   -0.863564
    12  C    0.470094
    13  C    0.201262
    14  C    0.561838
    15  H    0.243513
    16  H    0.282265
    17  H    0.258753
    18  H    0.236015
    19  H    0.194063
    20  H    0.216031
    21  H    0.234285
    22  H    0.240964
    23  H    0.231760
    24  H    0.257251
    25  H    0.257251
 Sum of Mulliken charges =   1.00000
 Mulliken charges with hydrogens summed into heavy atoms:
               1
     1  C    0.207118
     2  C   -0.070405
     3  C   -0.136714
     4  C    0.321669
     5  C    0.163361
     6  C   -0.092172
     7  C   -0.130383
     8  C    0.392979
     9  C   -0.007719
    10  C   -0.017363
    11  C   -0.863564
    12  C    0.470094
    13  C    0.201262
    14  C    0.561838
 Electronic spatial extent (au):  <R**2>=           2858.4145
 Charge=              1.0000 electrons
 Dipole moment (field-independent basis, Debye):
    X=             -2.4589    Y=             -4.2841    Z=              0.0000  Tot=              4.9397
 Quadrupole moment (field-independent basis, Debye-Ang):
   XX=            -53.0380   YY=            -32.0173   ZZ=            -83.7646
   XY=              9.5202   XZ=             -0.0000   YZ=              0.0000
 Traceless Quadrupole moment (field-independent basis, Debye-Ang):
   XX=              3.2353   YY=             24.2560   ZZ=            -27.4913
   XY=              9.5202   XZ=             -0.0000   YZ=              0.0000
 Octapole moment (field-independent basis, Debye-Ang**2):
  XXX=            -16.5116  YYY=            -34.0539  ZZZ=             -0.0000  XYY=            -13.9628
  XXY=            -21.3653  XXZ=             -0.0000  XZZ=             -6.2809  YZZ=             -5.9107
  YYZ=             -0.0000  XYZ=             -0.0000
 Hexadecapole moment (field-independent basis, Debye-Ang**3):
 XXXX=           -859.1971 YYYY=          -1933.4575 ZZZZ=            -98.7283 XXXY=           -295.3044
 XXXZ=              0.0000 YYYX=           -217.6695 YYYZ=             -0.0000 ZZZX=              0.0000
 ZZZY=             -0.0000 XXYY=           -460.9436 XXZZ=           -209.6752 YYZZ=           -523.8170
 XXYZ=             -0.0000 YYXZ=              0.0000 ZZXY=           -154.9506
 N-N= 7.832277181519D+02 E-N=-2.803357832306D+03  KE= 5.384886024519D+02
 Symmetry A'   KE= 5.236040799948D+02
 Symmetry A"   KE= 1.488452245703D+01
 Unable to Open any file for archive entry.
 1\1\GINC-GADI-CPU-CLX-2808\SP\RM062X TD-FC\6-311++G(d,p)\C14H11(1+)\TS
 1578\02-Aug-2022\0\\#n M062X/6-311++G(d,p) TD(NStates=1) EmpiricalDisp
 ersion=GD3 SP\\SP_8\\1,1\C,0,0.,2.312655,1.368431\C,0,0.,3.533508,0.67
 5989\C,0,0.,3.631861,-0.77383\C,0,0.,2.671156,-1.463538\C,0,0.,-2.3511
 56,-1.335538\C,0,0.,-3.775861,-0.51783\C,0,0.,-3.821508,0.803989\C,0,0
 .,-2.568655,1.368431\C,0,0.,-0.064,1.393369\C,0,0.,0.232,-1.489189\C,0
 ,0.,1.322055,0.713065\C,0,0.,1.317471,-0.790804\C,0,0.,-1.178055,0.537
 065\C,0,0.,-1.173471,-0.774804\H,0,0.,2.332071,2.451647\H,0,0.,4.44875
 3,1.259689\H,0,0.,4.641262,-1.184349\H,0,0.,2.64755,-2.546059\H,0,0.,0
 .2,-2.574266\H,0,0.,-2.50355,-2.418059\H,0,0.,-4.657262,-1.152349\H,0,
 0.,-4.736753,1.371689\H,0,0.,-2.412071,2.451647\H,0,-0.859585,-0.352,2
 .085787\H,0,0.859585,-0.352,2.085787\\Version=ES64L-G16RevC.01\State=1
 -A'\HF=-539.5168323\RMSD=4.494e-09\PG=CS [SG(C14H9),X(H2)]\\@
 The archive entry for this job was punched.


 WE ARE PERHAPS NOT FAR REMOVED FROM THE TIME WHEN WE SHALL BE ABLE TO SUBMIT
 THE BULK OF CHEMICAL PHENOMENA TO CALCULATION.

            -- JOSEPH LOUIS GAY-LUSSAC
               MEMOIRES DE LA SOCIETE D'ARCUEIL, 2, 207 (1808)
 Job cpu time:       0 days  0 hours 53 minutes 14.5 seconds.
 Elapsed time:       0 days  0 hours  1 minutes  6.7 seconds.
 File lengths (MBytes):  RWF=    459 Int=      0 D2E=      0 Chk=     15 Scr=      1
 Normal termination of Gaussian 16 at Tue Aug  2 13:10:05 2022.
