 Entering Gaussian System, Link 0=g16
 Initial command:
 /apps/gaussian/g16c01/g16/l1.exe "/jobfs/53803424.gadi-pbs/Gau-1859396.inp" -scrdir="/jobfs/53803424.gadi-pbs/"
 Entering Link 1 = /apps/gaussian/g16c01/g16/l1.exe PID=   1859397.
  
 Copyright (c) 1988-2019, Gaussian, Inc.  All Rights Reserved.
  
 This is part of the Gaussian(R) 16 program.  It is based on
 the Gaussian(R) 09 system (copyright 2009, Gaussian, Inc.),
 the Gaussian(R) 03 system (copyright 2003, Gaussian, Inc.),
 the Gaussian(R) 98 system (copyright 1998, Gaussian, Inc.),
 the Gaussian(R) 94 system (copyright 1995, Gaussian, Inc.),
 the Gaussian 92(TM) system (copyright 1992, Gaussian, Inc.),
 the Gaussian 90(TM) system (copyright 1990, Gaussian, Inc.),
 the Gaussian 88(TM) system (copyright 1988, Gaussian, Inc.),
 the Gaussian 86(TM) system (copyright 1986, Carnegie Mellon
 University), and the Gaussian 82(TM) system (copyright 1983,
 Carnegie Mellon University). Gaussian is a federally registered
 trademark of Gaussian, Inc.
  
 This software contains proprietary and confidential information,
 including trade secrets, belonging to Gaussian, Inc.
  
 This software is provided under written license and may be
 used, copied, transmitted, or stored only in accord with that
 written license.
  
 The following legend is applicable only to US Government
 contracts under FAR:
  
                    RESTRICTED RIGHTS LEGEND
  
 Use, reproduction and disclosure by the US Government is
 subject to restrictions as set forth in subparagraphs (a)
 and (c) of the Commercial Computer Software - Restricted
 Rights clause in FAR 52.227-19.
  
 Gaussian, Inc.
 340 Quinnipiac St., Bldg. 40, Wallingford CT 06492
  
  
 ---------------------------------------------------------------
 Warning -- This program may not be used in any manner that
 competes with the business of Gaussian, Inc. or will provide
 assistance to any competitor of Gaussian, Inc.  The licensee
 of this program is prohibited from giving any competitor of
 Gaussian, Inc. access to this program.  By using this program,
 the user acknowledges that Gaussian, Inc. is engaged in the
 business of creating and licensing software in the field of
 computational chemistry and represents and warrants to the
 licensee that it is not a competitor of Gaussian, Inc. and that
 it will not use this program in any manner prohibited above.
 ---------------------------------------------------------------
  

 Cite this work as:
 Gaussian 16, Revision C.01,
 M. J. Frisch, G. W. Trucks, H. B. Schlegel, G. E. Scuseria, 
 M. A. Robb, J. R. Cheeseman, G. Scalmani, V. Barone, 
 G. A. Petersson, H. Nakatsuji, X. Li, M. Caricato, A. V. Marenich, 
 J. Bloino, B. G. Janesko, R. Gomperts, B. Mennucci, H. P. Hratchian, 
 J. V. Ortiz, A. F. Izmaylov, J. L. Sonnenberg, D. Williams-Young, 
 F. Ding, F. Lipparini, F. Egidi, J. Goings, B. Peng, A. Petrone, 
 T. Henderson, D. Ranasinghe, V. G. Zakrzewski, J. Gao, N. Rega, 
 G. Zheng, W. Liang, M. Hada, M. Ehara, K. Toyota, R. Fukuda, 
 J. Hasegawa, M. Ishida, T. Nakajima, Y. Honda, O. Kitao, H. Nakai, 
 T. Vreven, K. Throssell, J. A. Montgomery, Jr., J. E. Peralta, 
 F. Ogliaro, M. J. Bearpark, J. J. Heyd, E. N. Brothers, K. N. Kudin, 
 V. N. Staroverov, T. A. Keith, R. Kobayashi, J. Normand, 
 K. Raghavachari, A. P. Rendell, J. C. Burant, S. S. Iyengar, 
 J. Tomasi, M. Cossi, J. M. Millam, M. Klene, C. Adamo, R. Cammi, 
 J. W. Ochterski, R. L. Martin, K. Morokuma, O. Farkas, 
 J. B. Foresman, and D. J. Fox, Gaussian, Inc., Wallingford CT, 2019.
 
 ******************************************
 Gaussian 16:  ES64L-G16RevC.01  3-Jul-2019
                 2-Aug-2022 
 ******************************************
 %NProcShared=48
 Will use up to   48 processors via shared memory.
 %mem = 190GB
 ---------------------------------------------------------------
 #n M062X/6-311++G(d,p) TD(NStates=1) EmpiricalDispersion=GD3 SP
 ---------------------------------------------------------------
 1/38=1,172=1/1;
 2/12=2,17=6,18=5,40=1/2;
 3/5=4,6=6,7=1111,11=9,25=1,30=1,74=-55,124=31/1,2,3,8;
 4//1;
 5/5=2,38=5/2;
 8/6=1,10=2,108=1/1;
 9/41=1,42=1,70=2/14;
 6/7=2,8=2,9=2,10=2/1;
 99/5=1,9=1/99;
 -----
 SP_14
 -----
 Symbolic Z-matrix:
 Charge =  1 Multiplicity = 1
 C                     0.        2.26865   1.36043 
 C                     0.        3.44951   0.55999 
 C                     0.        3.55786  -0.93783 
 C                     0.        2.74316  -1.51954 
 C                     0.       -2.18316  -1.29554 
 C                     0.       -3.80986  -0.48983 
 C                     0.       -3.95351   0.78399 
 C                     0.       -2.71666   1.36043 
 C                     0.       -0.112     1.45337 
 C                     0.        0.406    -1.42919 
 C                     0.        1.38806   0.83107 
 C                     0.        1.36347  -0.7448 
 C                     0.       -1.13605   0.52307 
 C                     0.       -1.11147  -0.7168 
 H                     0.        2.41807   2.44365 
 H                     0.        4.38475   1.11369 
 H                     0.        4.59526  -1.30035 
 H                     0.        2.59355  -2.60206 
 H                     0.        0.35     -2.51027 
 H                     0.       -2.34155  -2.37806 
 H                     0.       -4.62326  -1.24435 
 H                     0.       -4.88875   1.30969 
 H                     0.       -2.55807   2.44365 
 H                    -0.85959  -0.616     2.14579 
 H                     0.85959  -0.616     2.14579 
 
                          Input orientation:                          
 ---------------------------------------------------------------------
 Center     Atomic      Atomic             Coordinates (Angstroms)
 Number     Number       Type             X           Y           Z
 ---------------------------------------------------------------------
      1          6           0        0.000000    2.268655    1.360431
      2          6           0        0.000000    3.449508    0.559989
      3          6           0        0.000000    3.557861   -0.937830
      4          6           0        0.000000    2.743156   -1.519538
      5          6           0        0.000000   -2.183156   -1.295538
      6          6           0        0.000000   -3.809861   -0.489830
      7          6           0        0.000000   -3.953508    0.783989
      8          6           0        0.000000   -2.716655    1.360431
      9          6           0        0.000000   -0.112000    1.453369
     10          6           0        0.000000    0.406000   -1.429189
     11          6           0        0.000000    1.388055    0.831065
     12          6           0        0.000000    1.363471   -0.744804
     13          6           0        0.000000   -1.136055    0.523065
     14          6           0        0.000000   -1.111471   -0.716804
     15          1           0        0.000000    2.418071    2.443647
     16          1           0        0.000000    4.384753    1.113689
     17          1           0        0.000000    4.595262   -1.300349
     18          1           0        0.000000    2.593550   -2.602059
     19          1           0        0.000000    0.350000   -2.510266
     20          1           0        0.000000   -2.341550   -2.378059
     21          1           0        0.000000   -4.623262   -1.244349
     22          1           0        0.000000   -4.888753    1.309689
     23          1           0        0.000000   -2.558071    2.443647
     24          1           0       -0.859585   -0.616000    2.145787
     25          1           0        0.859585   -0.616000    2.145787
 ---------------------------------------------------------------------
                    Distance matrix (angstroms):
                    1          2          3          4          5
     1  C    0.000000
     2  C    1.426577   0.000000
     3  C    2.635158   1.501733   0.000000
     4  C    2.918796   2.196216   1.001064   0.000000
     5  C    5.183897   5.930420   5.752150   4.931402   0.000000
     6  C    6.353882   7.334886   7.381330   6.633425   1.815306
     7  C    6.248808   7.406404   7.706187   7.081776   2.731040
     8  C    4.985310   6.217899   6.682182   6.172824   2.709021
     9  C    2.382468   3.671848   4.380150   4.121904   3.441828
    10  C    3.354320   3.635900   3.189931   2.338902   2.592603
    11  C    1.027465   2.079200   2.799473   2.713233   4.156439
    12  C    2.291587   2.460495   2.202863   1.582322   3.589132
    13  C    3.506171   4.585712   4.916001   4.384120   2.098508
    14  C    3.967387   4.736320   4.674560   3.937325   1.217966
    15  H    1.093472   2.147564   3.568404   3.976495   5.928979
    16  H    2.130435   1.086861   2.211895   3.103019   6.995842
    17  H    3.534523   2.184859   1.098918   1.865031   6.778420
    18  H    3.975787   3.275853   1.923422   1.092810   4.952163
    19  H    4.320131   4.362730   3.572524   2.590123   2.809349
    20  H    5.935512   6.493726   6.072669   5.156675   1.094048
    21  H    7.367727   8.271956   8.186863   7.371556   2.440643
    22  H    7.157588   8.371896   8.740517   8.139445   3.755990
    23  H    4.946781   6.295965   6.988491   6.618900   3.757934
    24  H    3.110772   4.447696   5.260104   5.045535   3.877832
    25  H    3.110772   4.447696   5.260104   5.045535   3.877832
                    6          7          8          9         10
     6  C    0.000000
     7  C    1.281893   0.000000
     8  C    2.149085   1.364584   0.000000
     9  C    4.177343   3.899391   2.606313   0.000000
    10  C    4.319245   4.889117   4.187237   2.928731   0.000000
    11  C    5.363124   5.341770   4.138704   1.624016   2.464382
    12  C    5.179612   5.532402   4.591235   2.647448   1.176917
    13  C    2.859230   2.829509   1.788709   1.383530   2.487816
    14  C    2.707919   3.213962   2.625171   2.389266   1.676368
    15  H    6.884216   6.584184   5.247739   2.716967   4.364320
    16  H    8.350028   8.344777   7.105693   4.509564   4.721939
    17  H    8.444112   8.799201   7.780995   5.453556   4.191243
    18  H    6.742788   7.370840   6.625678   4.875089   2.482136
    19  H    4.624565   5.419621   4.938286   3.990469   1.082526
    20  H    2.391934   3.549219   3.757261   4.432915   2.906783
    21  H    1.109468   2.136054   3.228007   5.256345   5.032658
    22  H    2.098160   1.072867   2.172691   4.778913   5.961196
    23  H    3.189399   2.168342   1.094763   2.638923   4.876943
    24  H    4.229197   3.705717   2.401754   1.213402   3.816258
    25  H    4.229197   3.705717   2.401754   1.213402   3.816258
                   11         12         13         14         15
    11  C    0.000000
    12  C    1.576061   0.000000
    13  C    2.542832   2.802699   0.000000
    14  C    2.939988   2.475100   1.240113   0.000000
    15  H    1.913466   3.358333   4.039857   4.737733   0.000000
    16  H    3.009996   3.547131   5.552311   5.793029   2.374158
    17  H    3.850857   3.279192   6.014386   5.736491   4.331012
    18  H    3.638620   2.227665   4.865835   4.157086   5.048756
    19  H    3.498864   2.035677   3.377789   2.313526   5.368256
    20  H    4.920206   4.049037   3.141614   2.067090   6.775164
    21  H    6.359503   6.007538   3.909522   3.551194   7.948691
    22  H    6.295030   6.581128   3.834256   4.286553   7.394291
    23  H    4.262902   5.054178   2.389721   3.475788   4.976142
    24  H    2.546295   3.607313   1.908552   3.029654   3.167522
    25  H    2.546295   3.607313   1.908552   3.029654   3.167522
                   16         17         18         19         20
    16  H    0.000000
    17  H    2.423199   0.000000
    18  H    4.124947   2.387739   0.000000
    19  H    5.423309   4.414312   2.245427   0.000000
    20  H    7.578618   7.020030   4.940181   2.694795   0.000000
    21  H    9.311535   9.218694   7.343416   5.131850   2.547844
    22  H    9.275577   9.836607   8.443141   6.483563   4.481934
    23  H    7.069059   8.073889   7.210988   5.744400   4.826565
    24  H    5.177996   6.306504   5.795010   4.832274   4.917478
    25  H    5.177996   6.306504   5.795010   4.832274   4.917478
                   21         22         23         24         25
    21  H    0.000000
    22  H    2.567800   0.000000
    23  H    4.226858   2.591899   0.000000
    24  H    5.318840   4.437833   2.144585   0.000000
    25  H    5.318840   4.437833   2.144585   1.719170   0.000000
 Stoichiometry    C14H11(1+)
 Framework group  CS[SG(C14H9),X(H2)]
 Deg. of freedom    46
 Full point group                 CS      NOp   2
 Largest Abelian subgroup         CS      NOp   2
 Largest concise Abelian subgroup CS      NOp   2
                         Standard orientation:                         
 ---------------------------------------------------------------------
 Center     Atomic      Atomic             Coordinates (Angstroms)
 Number     Number       Type             X           Y           Z
 ---------------------------------------------------------------------
      1          6           0       -2.188200   -1.492454    0.000000
      2          6           0       -1.956859   -2.900148    0.000000
      3          6           0       -0.642607   -3.626746    0.000000
      4          6           0        0.227174   -3.131156    0.000000
      5          6           0        2.090092    1.434834    0.000000
      6          6           0        2.040977    3.249475    0.000000
      7          6           0        0.944872    3.914158    0.000000
      8          6           0       -0.097192    3.033140    0.000000
      9          6           0       -1.274040    0.707652    0.000000
     10          6           0        1.125439   -0.971623    0.000000
     11          6           0       -1.338295   -0.915092    0.000000
     12          6           0        0.102568   -1.553748    0.000000
     13          6           0        0.000000    1.247074    0.000000
     14          6           0        1.115224    0.704714    0.000000
     15          1           0       -3.234198   -1.173754    0.000000
     16          1           0       -2.851774   -3.516910    0.000000
     17          1           0       -0.748639   -4.720536    0.000000
     18          1           0        1.272621   -3.449392    0.000000
     19          1           0        2.130313   -1.374228    0.000000
     20          1           0        3.139225    1.124576    0.000000
     21          1           0        3.067086    3.671398    0.000000
     22          1           0        0.859922    4.983657    0.000000
     23          1           0       -1.147036    3.343517    0.000000
     24          1           0       -1.691213    1.455600    0.859585
     25          1           0       -1.691213    1.455600   -0.859585
 ---------------------------------------------------------------------
 Rotational constants (GHZ):           2.1586484           0.4392848           0.3657930
 Standard basis: 6-311++G(d,p) (5D, 7F)
 There are   299 symmetry adapted cartesian basis functions of A'  symmetry.
 There are   100 symmetry adapted cartesian basis functions of A"  symmetry.
 There are   285 symmetry adapted basis functions of A'  symmetry.
 There are   100 symmetry adapted basis functions of A"  symmetry.
   385 basis functions,   603 primitive gaussians,   399 cartesian basis functions
    47 alpha electrons       47 beta electrons
       nuclear repulsion energy       787.5285171374 Hartrees.
 NAtoms=   25 NActive=   25 NUniq=   24 SFac= 1.09D+00 NAtFMM=   60 NAOKFM=F Big=F
 Integral buffers will be    131072 words long.
 Regular integral format.
 Two-electron integral symmetry is turned on.
 Nuclear repulsion after empirical dispersion term =      787.5275706741 Hartrees.
 One-electron integrals computed using PRISM.
 NBasis=   385 RedAO= T EigKep=  1.29D-06  NBF=   285   100
 NBsUse=   379 1.00D-06 EigRej=  6.32D-07 NBFU=   279   100
 ExpMin= 3.60D-02 ExpMax= 4.56D+03 ExpMxC= 6.82D+02 IAcc=3 IRadAn=         5 AccDes= 0.00D+00
 Harris functional with IExCor= 1009 and IRadAn=       5 diagonalized for initial guess.
 HarFok:  IExCor= 1009 AccDes= 0.00D+00 IRadAn=         5 IDoV= 1 UseB2=F ITyADJ=14
 ICtDFT=  3500011 ScaDFX=  1.000000  1.000000  1.000000  1.000000
 FoFCou: FMM=F IPFlag=           0 FMFlag=      100000 FMFlg1=           0
         NFxFlg=           0 DoJE=T BraDBF=F KetDBF=T FulRan=T
         wScrn=  0.000000 ICntrl=       500 IOpCl=  0 I1Cent=   200000004 NGrid=           0
         NMat0=    1 NMatS0=      1 NMatT0=    0 NMatD0=    1 NMtDS0=    0 NMtDT0=    0
 Petite list used in FoFCou.
 Initial guess orbital symmetries:
       Occupied  (A') (A') (A') (A') (A') (A') (A') (A') (A') (A')
                 (A') (A') (A') (A') (A') (A') (A') (A') (A') (A')
                 (A') (A') (A') (A') (A') (A') (A') (A') (A') (A')
                 (A') (A") (A') (A") (A') (A') (A") (A') (A') (A')
                 (A') (A") (A") (A') (A") (A') (A")
       Virtual   (A") (A") (A") (A') (A") (A") (A') (A') (A') (A')
                 (A') (A') (A") (A') (A') (A") (A') (A') (A") (A')
                 (A') (A') (A") (A') (A') (A") (A') (A") (A') (A")
                 (A') (A') (A') (A') (A") (A') (A') (A') (A') (A")
                 (A") (A') (A") (A') (A') (A') (A') (A') (A') (A')
                 (A") (A") (A') (A") (A') (A') (A") (A') (A") (A')
                 (A') (A') (A') (A') (A") (A') (A') (A') (A") (A')
                 (A') (A') (A') (A') (A') (A') (A') (A') (A') (A')
                 (A') (A') (A') (A') (A') (A') (A') (A') (A') (A')
                 (A') (A') (A") (A') (A") (A') (A') (A") (A') (A')
                 (A') (A") (A') (A") (A") (A') (A') (A') (A") (A")
                 (A') (A") (A") (A') (A') (A") (A') (A') (A') (A")
                 (A") (A') (A') (A') (A") (A') (A") (A') (A') (A')
                 (A') (A') (A') (A') (A') (A') (A') (A') (A") (A')
                 (A') (A') (A') (A') (A") (A') (A') (A') (A') (A")
                 (A') (A') (A") (A') (A") (A') (A') (A") (A') (A")
                 (A") (A") (A') (A') (A") (A') (A") (A') (A') (A')
                 (A") (A') (A') (A') (A') (A') (A') (A") (A") (A')
                 (A") (A') (A') (A") (A') (A") (A') (A") (A') (A')
                 (A") (A") (A') (A') (A') (A') (A") (A') (A') (A")
                 (A") (A") (A') (A') (A") (A') (A") (A') (A') (A")
                 (A') (A') (A') (A") (A') (A') (A') (A') (A") (A')
                 (A") (A') (A") (A') (A") (A') (A') (A') (A") (A')
                 (A") (A') (A") (A') (A') (A") (A') (A") (A') (A')
                 (A") (A') (A') (A') (A') (A") (A') (A') (A') (A")
                 (A') (A') (A") (A') (A") (A') (A') (A") (A") (A')
                 (A') (A") (A') (A') (A') (A') (A") (A') (A") (A')
                 (A") (A') (A') (A') (A') (A") (A') (A") (A') (A')
                 (A') (A") (A') (A") (A") (A') (A") (A') (A') (A')
                 (A') (A') (A') (A') (A') (A') (A') (A") (A') (A')
                 (A') (A') (A') (A') (A') (A') (A') (A') (A') (A')
                 (A') (A') (A') (A') (A') (A') (A') (A') (A') (A')
                 (A') (A') (A') (A') (A') (A') (A') (A') (A') (A')
                 (A') (A')
 The electronic state of the initial guess is 1-A'.
 Requested convergence on RMS density matrix=1.00D-08 within 128 cycles.
 Requested convergence on MAX density matrix=1.00D-06.
 Requested convergence on             energy=1.00D-06.
 No special actions if energy rises.
 SCF Done:  E(RM062X) =  -538.878634328     A.U. after   19 cycles
            NFock= 19  Conv=0.71D-08     -V/T= 1.9961
 DoSCS=F DFT=T ScalE2(SS,OS)=  1.000000  1.000000
 ExpMin= 3.60D-02 ExpMax= 4.56D+03 ExpMxC= 6.82D+02 IAcc=3 IRadAn=         5 AccDes= 0.00D+00
 HarFok:  IExCor=  205 AccDes= 0.00D+00 IRadAn=         5 IDoV=-2 UseB2=F ITyADJ=14
 ICtDFT= 12500011 ScaDFX=  1.000000  1.000000  1.000000  1.000000
 Range of M.O.s used for correlation:    15   379
 NBasis=   385 NAE=    47 NBE=    47 NFC=    14 NFV=     0
 NROrb=    365 NOA=    33 NOB=    33 NVA=   332 NVB=   332

 **** Warning!!: The largest alpha MO coefficient is  0.21706813D+03


 **** Warning!!: The smallest alpha delta epsilon is  0.78941882D-01

 Orbital symmetries:
       Occupied  (A') (A') (A') (A') (A') (A') (A') (A') (A') (A')
                 (A') (A') (A') (A') (A') (A') (A') (A') (A') (A')
                 (A') (A') (A') (A') (A') (A') (A') (A') (A') (A')
                 (A') (A") (A') (A') (A") (A') (A') (A") (A') (A')
                 (A") (A') (A") (A') (A") (A') (A")
       Virtual   (A") (A") (A') (A") (A') (A') (A") (A') (A') (A')
                 (A") (A') (A") (A') (A') (A") (A') (A") (A') (A')
                 (A") (A') (A') (A") (A') (A') (A') (A') (A') (A")
                 (A') (A") (A') (A') (A") (A') (A') (A") (A') (A')
                 (A") (A') (A") (A') (A') (A') (A") (A') (A") (A')
                 (A") (A') (A') (A') (A') (A") (A') (A') (A") (A')
                 (A') (A') (A') (A") (A') (A') (A") (A') (A') (A')
                 (A') (A') (A') (A') (A') (A') (A') (A') (A') (A')
                 (A') (A') (A') (A') (A') (A') (A') (A') (A') (A')
                 (A") (A') (A") (A') (A') (A') (A') (A') (A") (A')
                 (A") (A') (A") (A') (A') (A") (A") (A') (A") (A')
                 (A') (A") (A') (A") (A') (A") (A') (A") (A") (A')
                 (A') (A') (A') (A") (A') (A") (A') (A') (A') (A')
                 (A') (A') (A') (A') (A') (A') (A') (A') (A') (A')
                 (A') (A') (A') (A') (A") (A') (A') (A') (A") (A')
                 (A') (A') (A") (A') (A") (A') (A") (A') (A") (A')
                 (A") (A') (A") (A') (A") (A") (A') (A") (A') (A')
                 (A") (A') (A') (A') (A') (A') (A') (A") (A') (A")
                 (A') (A") (A") (A') (A') (A") (A') (A") (A') (A')
                 (A") (A") (A') (A') (A") (A') (A') (A') (A") (A')
                 (A") (A") (A') (A') (A") (A') (A") (A') (A') (A")
                 (A') (A') (A') (A") (A') (A') (A') (A') (A") (A')
                 (A') (A") (A") (A') (A") (A') (A') (A') (A") (A')
                 (A") (A') (A') (A") (A') (A') (A") (A") (A') (A')
                 (A") (A') (A') (A') (A") (A') (A') (A') (A") (A')
                 (A') (A') (A') (A') (A') (A") (A') (A") (A') (A')
                 (A') (A') (A") (A') (A') (A") (A') (A') (A') (A")
                 (A') (A') (A") (A") (A") (A") (A') (A') (A') (A")
                 (A') (A") (A') (A") (A') (A") (A") (A') (A') (A')
                 (A') (A') (A') (A') (A') (A') (A') (A") (A') (A')
                 (A') (A') (A') (A') (A') (A') (A') (A') (A') (A')
                 (A') (A') (A') (A') (A') (A') (A') (A') (A') (A')
                 (A') (A') (A') (A') (A') (A') (A') (A') (A') (A')
                 (A') (A')
     4 initial guesses have been made.
 Convergence on wavefunction:    0.001000000000000
 Iteration     1 Dimension     4 NMult     0 NNew      4
 CISAX will form     4 AO SS matrices at one time.
 Iteration     2 Dimension     6 NMult     4 NNew      2
 Iteration     3 Dimension     8 NMult     6 NNew      2
 Iteration     4 Dimension    10 NMult     8 NNew      2
 Iteration     5 Dimension    12 NMult    10 NNew      2
 Iteration     6 Dimension    14 NMult    12 NNew      2
 ***********************************************************************
 Excited states from <AA,BB:AA,BB> singles matrix:
 ***********************************************************************
 
 Ground to excited state transition densities written to RWF  633
 Ground to excited state transition electric dipole moments (Au):
       state          X           Y           Z        Dip. S.      Osc.
         1         0.7658      1.9404      0.0000      4.3517      0.1092
 Ground to excited state transition velocity dipole moments (Au):
       state          X           Y           Z        Dip. S.      Osc.
         1        -0.0236     -0.0710     -0.0000      0.0056      0.0990
 Ground to excited state transition magnetic dipole moments (Au):
       state          X           Y           Z
         1         0.0000      0.0000      0.5306
 Ground to excited state transition velocity quadrupole moments (Au):
       state          XX          YY          ZZ          XY          XZ          YZ
         1         0.0181      0.0363     -0.0044      0.0636      0.0000      0.0000
 <0|del|b> * <b|rxdel|0> + <0|del|b> * <b|delr+rdel|0>
 Rotatory Strengths (R) in cgs (10**-40 erg-esu-cm/Gauss)
       state          XX          YY          ZZ    R(velocity)    E-M Angle
         1        -0.0000     -0.0000     -0.0000     -0.0000       90.00
 1/2[<0|r|b>*<b|rxdel|0> + (<0|rxdel|b>*<b|r|0>)*]
 Rotatory Strengths (R) in cgs (10**-40 erg-esu-cm/Gauss)
       state          XX          YY          ZZ     R(length)
         1        -0.0000     -0.0000     -0.0000     -0.0000
  1/2[<0|del|b>*<b|r|0> + (<0|r|b>*<b|del|0>)*] (Au)
       state          X           Y           Z        Dip. S.   Osc.(frdel)
         1        -0.0180     -0.1377     -0.0000      0.1557      0.1038

 Excitation energies and oscillator strengths:
 
 Excited State   1:      Singlet-A'     1.0243 eV 1210.43 nm  f=0.1092  <S**2>=0.000
      47 -> 48         0.73455
      47 <- 48        -0.22408
 This state for optimization and/or second-order correction.
 Total Energy, E(TD-HF/TD-DFT) =  -538.840992100    
 Copying the excited state density for this state as the 1-particle RhoCI density.
 SavETr:  write IOETrn=   770 NScale= 10 NData=  16 NLR=1 NState=    1 LETran=      28.

 **********************************************************************

            Population analysis using the SCF Density.

 **********************************************************************

 Orbital symmetries:
       Occupied  (A') (A') (A') (A') (A') (A') (A') (A') (A') (A')
                 (A') (A') (A') (A') (A') (A') (A') (A') (A') (A')
                 (A') (A') (A') (A') (A') (A') (A') (A') (A') (A')
                 (A') (A") (A') (A') (A") (A') (A') (A") (A') (A')
                 (A") (A') (A") (A') (A") (A') (A")
       Virtual   (A") (A") (A') (A") (A') (A') (A") (A') (A') (A')
                 (A") (A') (A") (A') (A') (A") (A') (A") (A') (A')
                 (A") (A') (A') (A") (A') (A') (A') (A') (A') (A")
                 (A') (A") (A') (A') (A") (A') (A') (A") (A') (A')
                 (A") (A') (A") (A') (A') (A') (A") (A') (A") (A')
                 (A") (A') (A') (A') (A') (A") (A') (A') (A") (A')
                 (A') (A') (A') (A") (A') (A') (A") (A') (A') (A')
                 (A') (A') (A') (A') (A') (A') (A') (A') (A') (A')
                 (A') (A') (A') (A') (A') (A') (A') (A') (A') (A')
                 (A") (A') (A") (A') (A') (A') (A') (A') (A") (A')
                 (A") (A') (A") (A') (A') (A") (A") (A') (A") (A')
                 (A') (A") (A') (A") (A') (A") (A') (A") (A") (A')
                 (A') (A') (A') (A") (A') (A") (A') (A') (A') (A')
                 (A') (A') (A') (A') (A') (A') (A') (A') (A') (A')
                 (A') (A') (A') (A') (A") (A') (A') (A') (A") (A')
                 (A') (A') (A") (A') (A") (A') (A") (A') (A") (A')
                 (A") (A') (A") (A') (A") (A") (A') (A") (A') (A')
                 (A") (A') (A') (A') (A') (A') (A') (A") (A') (A")
                 (A') (A") (A") (A') (A') (A") (A') (A") (A') (A')
                 (A") (A") (A') (A') (A") (A') (A') (A') (A") (A')
                 (A") (A") (A') (A') (A") (A') (A") (A') (A') (A")
                 (A') (A') (A') (A") (A') (A') (A') (A') (A") (A')
                 (A') (A") (A") (A') (A") (A') (A') (A') (A") (A')
                 (A") (A') (A') (A") (A') (A') (A") (A") (A') (A')
                 (A") (A') (A') (A') (A") (A') (A') (A') (A") (A')
                 (A') (A') (A') (A') (A') (A") (A') (A") (A') (A')
                 (A') (A') (A") (A') (A') (A") (A') (A') (A') (A")
                 (A') (A') (A") (A") (A") (A") (A') (A') (A') (A")
                 (A') (A") (A') (A") (A') (A") (A") (A') (A') (A')
                 (A') (A') (A') (A') (A') (A') (A') (A") (A') (A')
                 (A') (A') (A') (A') (A') (A') (A') (A') (A') (A')
                 (A') (A') (A') (A') (A') (A') (A') (A') (A') (A')
                 (A') (A') (A') (A') (A') (A') (A') (A') (A') (A')
                 (A') (A')
 The electronic state is 1-A'.
 Alpha  occ. eigenvalues --  -10.78446 -10.73665 -10.72561 -10.71343 -10.70985
 Alpha  occ. eigenvalues --  -10.70686 -10.70666 -10.69560 -10.69410 -10.69386
 Alpha  occ. eigenvalues --  -10.68581 -10.67937 -10.67316 -10.66887  -1.21230
 Alpha  occ. eigenvalues --   -1.14197  -1.13463  -1.07093  -1.04260  -1.02022
 Alpha  occ. eigenvalues --   -0.95871  -0.87780  -0.85916  -0.84713  -0.82682
 Alpha  occ. eigenvalues --   -0.77017  -0.76363  -0.74709  -0.73903  -0.70029
 Alpha  occ. eigenvalues --   -0.69736  -0.68931  -0.67120  -0.64480  -0.63931
 Alpha  occ. eigenvalues --   -0.62884  -0.62251  -0.60164  -0.58401  -0.57029
 Alpha  occ. eigenvalues --   -0.55508  -0.54172  -0.52987  -0.50835  -0.49226
 Alpha  occ. eigenvalues --   -0.46267  -0.35224
 Alpha virt. eigenvalues --   -0.27330  -0.16943  -0.11446  -0.10702  -0.10402
 Alpha virt. eigenvalues --   -0.09919  -0.08383  -0.07926  -0.07739  -0.07317
 Alpha virt. eigenvalues --   -0.07073  -0.06130  -0.05975  -0.05594  -0.05260
 Alpha virt. eigenvalues --   -0.05096  -0.04149  -0.03851  -0.03797  -0.03082
 Alpha virt. eigenvalues --   -0.02193  -0.02176  -0.01145  -0.01082  -0.00034
 Alpha virt. eigenvalues --    0.00109   0.00712   0.01070   0.01238   0.01739
 Alpha virt. eigenvalues --    0.01876   0.02162   0.02703   0.02946   0.02976
 Alpha virt. eigenvalues --    0.03672   0.03806   0.04183   0.05181   0.05511
 Alpha virt. eigenvalues --    0.05525   0.05682   0.05784   0.06023   0.06418
 Alpha virt. eigenvalues --    0.07061   0.07443   0.07690   0.07984   0.08213
 Alpha virt. eigenvalues --    0.08741   0.08753   0.09145   0.09596   0.10089
 Alpha virt. eigenvalues --    0.10339   0.10628   0.11175   0.11284   0.12085
 Alpha virt. eigenvalues --    0.12614   0.12675   0.13304   0.13640   0.14098
 Alpha virt. eigenvalues --    0.14405   0.16174   0.16818   0.17166   0.17242
 Alpha virt. eigenvalues --    0.18059   0.18522   0.19717   0.20526   0.20891
 Alpha virt. eigenvalues --    0.21577   0.22346   0.22833   0.23664   0.24275
 Alpha virt. eigenvalues --    0.24942   0.25546   0.26104   0.26916   0.28603
 Alpha virt. eigenvalues --    0.29964   0.31038   0.31771   0.32436   0.35648
 Alpha virt. eigenvalues --    0.36396   0.37749   0.38275   0.38951   0.39915
 Alpha virt. eigenvalues --    0.40363   0.41549   0.41953   0.42613   0.44005
 Alpha virt. eigenvalues --    0.44512   0.45293   0.45855   0.46277   0.47749
 Alpha virt. eigenvalues --    0.48108   0.49245   0.49948   0.50990   0.51486
 Alpha virt. eigenvalues --    0.51681   0.51872   0.52650   0.53582   0.54794
 Alpha virt. eigenvalues --    0.55911   0.55985   0.58736   0.59377   0.59456
 Alpha virt. eigenvalues --    0.59694   0.61895   0.63143   0.63305   0.63910
 Alpha virt. eigenvalues --    0.64061   0.65072   0.66977   0.67173   0.68378
 Alpha virt. eigenvalues --    0.70613   0.72626   0.73650   0.73895   0.74404
 Alpha virt. eigenvalues --    0.75236   0.75877   0.77052   0.77402   0.78029
 Alpha virt. eigenvalues --    0.78775   0.80324   0.81411   0.81864   0.82001
 Alpha virt. eigenvalues --    0.83087   0.84252   0.84616   0.85268   0.86750
 Alpha virt. eigenvalues --    0.88163   0.89553   0.89920   0.90330   0.94307
 Alpha virt. eigenvalues --    0.94346   0.96174   0.97506   1.00421   1.01994
 Alpha virt. eigenvalues --    1.03944   1.04735   1.04921   1.05140   1.07958
 Alpha virt. eigenvalues --    1.08182   1.09667   1.10840   1.12229   1.15342
 Alpha virt. eigenvalues --    1.15863   1.17379   1.18075   1.18448   1.24874
 Alpha virt. eigenvalues --    1.27508   1.30988   1.33505   1.34811   1.35017
 Alpha virt. eigenvalues --    1.37077   1.37729   1.39935   1.40722   1.41156
 Alpha virt. eigenvalues --    1.44829   1.46806   1.47565   1.48535   1.49923
 Alpha virt. eigenvalues --    1.51802   1.53079   1.54356   1.56440   1.56451
 Alpha virt. eigenvalues --    1.57008   1.57665   1.60351   1.60751   1.61823
 Alpha virt. eigenvalues --    1.62774   1.64506   1.65247   1.67428   1.69642
 Alpha virt. eigenvalues --    1.69794   1.70440   1.72149   1.73472   1.74868
 Alpha virt. eigenvalues --    1.76043   1.77182   1.78906   1.79074   1.79827
 Alpha virt. eigenvalues --    1.82808   1.84214   1.84624   1.86633   1.87480
 Alpha virt. eigenvalues --    1.89303   1.89985   1.90391   1.93817   1.95355
 Alpha virt. eigenvalues --    1.97002   1.98519   2.00256   2.01425   2.03839
 Alpha virt. eigenvalues --    2.04811   2.07351   2.10971   2.12750   2.15746
 Alpha virt. eigenvalues --    2.17962   2.18785   2.20012   2.21864   2.23859
 Alpha virt. eigenvalues --    2.25555   2.27201   2.30957   2.33401   2.34856
 Alpha virt. eigenvalues --    2.35820   2.37214   2.40644   2.43148   2.43334
 Alpha virt. eigenvalues --    2.43875   2.45285   2.50443   2.53223   2.55259
 Alpha virt. eigenvalues --    2.57806   2.58253   2.60322   2.60543   2.60904
 Alpha virt. eigenvalues --    2.62456   2.63732   2.64319   2.64440   2.65783
 Alpha virt. eigenvalues --    2.66170   2.66554   2.67454   2.68553   2.70458
 Alpha virt. eigenvalues --    2.70644   2.73185   2.73393   2.74427   2.77122
 Alpha virt. eigenvalues --    2.78917   2.79564   2.81880   2.82609   2.84958
 Alpha virt. eigenvalues --    2.90862   2.91070   2.93074   2.93176   2.98294
 Alpha virt. eigenvalues --    2.98915   3.01525   3.02391   3.06911   3.10437
 Alpha virt. eigenvalues --    3.12557   3.13794   3.17061   3.25547   3.30460
 Alpha virt. eigenvalues --    3.32443   3.36479   3.37119   3.41868   3.51674
 Alpha virt. eigenvalues --    3.53163   3.62613   3.65406   3.66897   3.71098
 Alpha virt. eigenvalues --    3.73965   3.76511   3.78722   3.84011   3.90550
 Alpha virt. eigenvalues --    3.94319   4.00967   4.03703   4.19134   4.19833
 Alpha virt. eigenvalues --    4.22942   4.37819   4.47509  23.39571  23.48956
 Alpha virt. eigenvalues --   23.54153  23.55445  23.68734  23.80106  23.90368
 Alpha virt. eigenvalues --   23.96736  24.35551  24.43058  24.80682  24.89598
 Alpha virt. eigenvalues --   25.60362  25.67965
          Condensed to atoms (all electrons):
               1          2          3          4          5          6
     1  C    6.925065   1.113664  -0.460130   0.148468  -0.090927  -0.048866
     2  C    1.113664   8.989773   0.576703  -0.336356  -0.198548  -0.023584
     3  C   -0.460130   0.576703   6.910495   0.648792  -0.007062   0.011635
     4  C    0.148468  -0.336356   0.648792  10.671133  -0.313563  -0.192515
     5  C   -0.090927  -0.198548  -0.007062  -0.313563   7.951383   1.411329
     6  C   -0.048866  -0.023584   0.011635  -0.192515   1.411329   7.584051
     7  C   -0.092513  -0.023699  -0.004613   0.212691  -1.762815  -2.257627
     8  C    0.218093   0.013508  -0.119546  -0.248511   2.314745   1.567994
     9  C   -0.345771  -1.278858   0.049992   0.679031  -0.583105   0.298645
    10  C   -0.135552  -0.623123   0.279241  -2.027386  -0.865965  -0.952309
    11  C    0.741595  -0.312166  -0.185090  -0.398418  -1.235507   0.237958
    12  C   -1.121792  -0.269950  -1.879469  -0.699167   0.264813  -0.730697
    13  C   -0.175612  -0.550438  -0.385303  -0.297447  -0.466507   0.399532
    14  C   -1.109961  -0.911505   0.548988  -2.129623  -0.545361  -1.341860
    15  H    0.393717  -0.061696   0.004360  -0.015229   0.004791   0.002992
    16  H   -0.014922   0.382077  -0.041569   0.042178  -0.003392  -0.000688
    17  H    0.002003  -0.037475   0.393439  -0.057275   0.001525   0.000551
    18  H    0.011985   0.030064  -0.024290   0.526410   0.000547  -0.004586
    19  H   -0.002110  -0.015983   0.032881  -0.162289  -0.021380   0.044302
    20  H   -0.000699   0.000647  -0.004120   0.018068   0.411229  -0.065433
    21  H   -0.001248  -0.000497   0.000235  -0.001747  -0.026713   0.339771
    22  H   -0.000060  -0.000111  -0.000053   0.001225  -0.011841  -0.019484
    23  H    0.011328   0.003068   0.000729  -0.011044   0.028153   0.066897
    24  H    0.042544   0.016177  -0.002147   0.004818  -0.025025  -0.009917
    25  H    0.042544   0.016177  -0.002147   0.004818  -0.025025  -0.009917
               7          8          9         10         11         12
     1  C   -0.092513   0.218093  -0.345771  -0.135552   0.741595  -1.121792
     2  C   -0.023699   0.013508  -1.278858  -0.623123  -0.312166  -0.269950
     3  C   -0.004613  -0.119546   0.049992   0.279241  -0.185090  -1.879469
     4  C    0.212691  -0.248511   0.679031  -2.027386  -0.398418  -0.699167
     5  C   -1.762815   2.314745  -0.583105  -0.865965  -1.235507   0.264813
     6  C   -2.257627   1.567994   0.298645  -0.952309   0.237958  -0.730697
     7  C   12.040746  -5.263508  -1.172315   0.789684  -0.776003   0.709596
     8  C   -5.263508  14.165042  -0.627106  -0.611245   0.306171  -0.622478
     9  C   -1.172315  -0.627106   9.665662  -0.301189   1.202644  -2.247959
    10  C    0.789684  -0.611245  -0.301189   8.694027  -0.003749   1.455755
    11  C   -0.776003   0.306171   1.202644  -0.003749  14.011340  -4.238139
    12  C    0.709596  -0.622478  -2.247959   1.455755  -4.238139  18.075873
    13  C    0.867654  -2.410731  -0.147055  -0.926274  -1.410916  -0.814483
    14  C    3.059372  -3.288835   0.302604   0.873978  -1.378990  -2.076539
    15  H   -0.005097   0.000679   0.006773   0.015547  -0.049719   0.072665
    16  H    0.000741   0.003042  -0.001656  -0.034741   0.044481  -0.020159
    17  H   -0.000166  -0.002107   0.001065   0.019328  -0.001444   0.011548
    18  H    0.003282   0.004937  -0.005142  -0.019336  -0.000599  -0.064608
    19  H   -0.007196  -0.046842   0.054908   0.425468   0.105235  -0.308511
    20  H   -0.025016   0.091450  -0.019389   0.079881  -0.025819   0.044575
    21  H    0.036859  -0.054170  -0.000663  -0.001648  -0.000167  -0.007439
    22  H    0.364028  -0.015521  -0.010141   0.004324  -0.008894   0.006813
    23  H   -0.222655   0.424104   0.147632  -0.020962   0.066769  -0.031163
    24  H    0.017875  -0.039700   0.380804   0.012741   0.044209  -0.021600
    25  H    0.017875  -0.039700   0.380804   0.012741   0.044209  -0.021600
              13         14         15         16         17         18
     1  C   -0.175612  -1.109961   0.393717  -0.014922   0.002003   0.011985
     2  C   -0.550438  -0.911505  -0.061696   0.382077  -0.037475   0.030064
     3  C   -0.385303   0.548988   0.004360  -0.041569   0.393439  -0.024290
     4  C   -0.297447  -2.129623  -0.015229   0.042178  -0.057275   0.526410
     5  C   -0.466507  -0.545361   0.004791  -0.003392   0.001525   0.000547
     6  C    0.399532  -1.341860   0.002992  -0.000688   0.000551  -0.004586
     7  C    0.867654   3.059372  -0.005097   0.000741  -0.000166   0.003282
     8  C   -2.410731  -3.288835   0.000679   0.003042  -0.002107   0.004937
     9  C   -0.147055   0.302604   0.006773  -0.001656   0.001065  -0.005142
    10  C   -0.926274   0.873978   0.015547  -0.034741   0.019328  -0.019336
    11  C   -1.410916  -1.378990  -0.049719   0.044481  -0.001444  -0.000599
    12  C   -0.814483  -2.076539   0.072665  -0.020159   0.011548  -0.064608
    13  C   11.449160   0.809173  -0.043851   0.008770  -0.007907   0.005246
    14  C    0.809173  12.695192   0.013042  -0.030092   0.015783  -0.112633
    15  H   -0.043851   0.013042   0.424177  -0.002114   0.001405  -0.000575
    16  H    0.008770  -0.030092  -0.002114   0.394786  -0.003595   0.003299
    17  H   -0.007907   0.015783   0.001405  -0.003595   0.416139  -0.014456
    18  H    0.005246  -0.112633  -0.000575   0.003299  -0.014456   0.435794
    19  H    0.035943   0.221917   0.001396  -0.000843   0.003774  -0.006931
    20  H    0.009789  -0.176301  -0.000303   0.000049  -0.000284   0.001678
    21  H    0.016877   0.040397   0.000059  -0.000010   0.000008  -0.000096
    22  H    0.021367   0.014712  -0.000132   0.000007  -0.000002   0.000015
    23  H   -0.109572  -0.074575   0.000914  -0.000196  -0.000017  -0.000161
    24  H   -0.078345  -0.015124  -0.000564   0.000554  -0.000069   0.000115
    25  H   -0.078345  -0.015124  -0.000564   0.000554  -0.000069   0.000115
              19         20         21         22         23         24
     1  C   -0.002110  -0.000699  -0.001248  -0.000060   0.011328   0.042544
     2  C   -0.015983   0.000647  -0.000497  -0.000111   0.003068   0.016177
     3  C    0.032881  -0.004120   0.000235  -0.000053   0.000729  -0.002147
     4  C   -0.162289   0.018068  -0.001747   0.001225  -0.011044   0.004818
     5  C   -0.021380   0.411229  -0.026713  -0.011841   0.028153  -0.025025
     6  C    0.044302  -0.065433   0.339771  -0.019484   0.066897  -0.009917
     7  C   -0.007196  -0.025016   0.036859   0.364028  -0.222655   0.017875
     8  C   -0.046842   0.091450  -0.054170  -0.015521   0.424104  -0.039700
     9  C    0.054908  -0.019389  -0.000663  -0.010141   0.147632   0.380804
    10  C    0.425468   0.079881  -0.001648   0.004324  -0.020962   0.012741
    11  C    0.105235  -0.025819  -0.000167  -0.008894   0.066769   0.044209
    12  C   -0.308511   0.044575  -0.007439   0.006813  -0.031163  -0.021600
    13  C    0.035943   0.009789   0.016877   0.021367  -0.109572  -0.078345
    14  C    0.221917  -0.176301   0.040397   0.014712  -0.074575  -0.015124
    15  H    0.001396  -0.000303   0.000059  -0.000132   0.000914  -0.000564
    16  H   -0.000843   0.000049  -0.000010   0.000007  -0.000196   0.000554
    17  H    0.003774  -0.000284   0.000008  -0.000002  -0.000017  -0.000069
    18  H   -0.006931   0.001678  -0.000096   0.000015  -0.000161   0.000115
    19  H    0.514062  -0.014396   0.000495  -0.000245   0.000317   0.000499
    20  H   -0.014396   0.461160  -0.002815   0.001514  -0.001585   0.000481
    21  H    0.000495  -0.002815   0.419325  -0.001168   0.000493  -0.000073
    22  H   -0.000245   0.001514  -0.001168   0.417717  -0.005251   0.000667
    23  H    0.000317  -0.001585   0.000493  -0.005251   0.498064  -0.000502
    24  H    0.000499   0.000481  -0.000073   0.000667  -0.000502   0.460893
    25  H    0.000499   0.000481  -0.000073   0.000667  -0.000502  -0.064099
              25
     1  C    0.042544
     2  C    0.016177
     3  C   -0.002147
     4  C    0.004818
     5  C   -0.025025
     6  C   -0.009917
     7  C    0.017875
     8  C   -0.039700
     9  C    0.380804
    10  C    0.012741
    11  C    0.044209
    12  C   -0.021600
    13  C   -0.078345
    14  C   -0.015124
    15  H   -0.000564
    16  H    0.000554
    17  H   -0.000069
    18  H    0.000115
    19  H    0.000499
    20  H    0.000481
    21  H   -0.000073
    22  H    0.000667
    23  H   -0.000502
    24  H   -0.064099
    25  H    0.460893
 Mulliken charges:
               1
     1  C   -0.050846
     2  C   -0.497870
     3  C   -0.341950
     4  C   -0.067065
     5  C   -0.205778
     6  C   -0.308171
     7  C   -0.507182
     8  C    0.280236
     9  C   -0.430217
    10  C   -0.139235
    11  C   -0.778991
    12  C    0.534113
    13  C    0.279274
    14  C    0.611364
    15  H    0.237326
    16  H    0.273439
    17  H    0.258295
    18  H    0.229922
    19  H    0.145028
    20  H    0.215160
    21  H    0.244004
    22  H    0.239849
    23  H    0.229717
    24  H    0.274788
    25  H    0.274788
 Sum of Mulliken charges =   1.00000
 Mulliken charges with hydrogens summed into heavy atoms:
               1
     1  C    0.186480
     2  C   -0.224432
     3  C   -0.083654
     4  C    0.162857
     5  C    0.009383
     6  C   -0.064167
     7  C   -0.267333
     8  C    0.509953
     9  C    0.119359
    10  C    0.005793
    11  C   -0.778991
    12  C    0.534113
    13  C    0.279274
    14  C    0.611364
 Electronic spatial extent (au):  <R**2>=           2873.2393
 Charge=              1.0000 electrons
 Dipole moment (field-independent basis, Debye):
    X=             -2.8843    Y=             -3.5228    Z=              0.0000  Tot=              4.5529
 Quadrupole moment (field-independent basis, Debye-Ang):
   XX=            -53.6654   YY=            -28.4678   ZZ=            -82.7836
   XY=             10.2874   XZ=             -0.0000   YZ=              0.0000
 Traceless Quadrupole moment (field-independent basis, Debye-Ang):
   XX=              1.3068   YY=             26.5045   ZZ=            -27.8113
   XY=             10.2874   XZ=             -0.0000   YZ=              0.0000
 Octapole moment (field-independent basis, Debye-Ang**2):
  XXX=            -15.3785  YYY=            -22.1722  ZZZ=              0.0000  XYY=            -10.6361
  XXY=            -18.9663  XXZ=              0.0000  XZZ=             -6.7056  YZZ=             -7.9375
  YYZ=              0.0000  XYZ=             -0.0000
 Hexadecapole moment (field-independent basis, Debye-Ang**3):
 XXXX=           -829.7493 YYYY=          -1935.6446 ZZZZ=            -96.8268 XXXY=           -279.7126
 XXXZ=             -0.0000 YYYX=           -201.1213 YYYZ=              0.0000 ZZZX=             -0.0000
 ZZZY=              0.0000 XXYY=           -467.6825 XXZZ=           -201.5634 YYZZ=           -526.1345
 XXYZ=              0.0000 YYXZ=             -0.0000 ZZXY=           -146.9457
 N-N= 7.875275706741D+02 E-N=-2.813182921648D+03  KE= 5.409617356188D+02
 Symmetry A'   KE= 5.255291378795D+02
 Symmetry A"   KE= 1.543259773925D+01
 Unable to Open any file for archive entry.
 1\1\GINC-GADI-CPU-CLX-2808\SP\RM062X TD-FC\6-311++G(d,p)\C14H11(1+)\TS
 1578\02-Aug-2022\0\\#n M062X/6-311++G(d,p) TD(NStates=1) EmpiricalDisp
 ersion=GD3 SP\\SP_14\\1,1\C,0,0.,2.268655,1.360431\C,0,0.,3.449508,0.5
 59989\C,0,0.,3.557861,-0.93783\C,0,0.,2.743156,-1.519538\C,0,0.,-2.183
 156,-1.295538\C,0,0.,-3.809861,-0.48983\C,0,0.,-3.953508,0.783989\C,0,
 0.,-2.716655,1.360431\C,0,0.,-0.112,1.453369\C,0,0.,0.406,-1.429189\C,
 0,0.,1.388055,0.831065\C,0,0.,1.363471,-0.744804\C,0,0.,-1.136055,0.52
 3065\C,0,0.,-1.111471,-0.716804\H,0,0.,2.418071,2.443647\H,0,0.,4.3847
 53,1.113689\H,0,0.,4.595262,-1.300349\H,0,0.,2.59355,-2.602059\H,0,0.,
 0.35,-2.510266\H,0,0.,-2.34155,-2.378059\H,0,0.,-4.623262,-1.244349\H,
 0,0.,-4.888753,1.309689\H,0,0.,-2.558071,2.443647\H,0,-0.859585,-0.616
 ,2.145787\H,0,0.859585,-0.616,2.145787\\Version=ES64L-G16RevC.01\State
 =1-A'\HF=-538.8786343\RMSD=7.073e-09\PG=CS [SG(C14H9),X(H2)]\\@
 The archive entry for this job was punched.


 FROM THE ASHES OF OUR DESPAIR GROW THE FLOWERS OF TOMORROW.
 Job cpu time:       0 days  0 hours 59 minutes 10.7 seconds.
 Elapsed time:       0 days  0 hours  1 minutes 15.3 seconds.
 File lengths (MBytes):  RWF=    460 Int=      0 D2E=      0 Chk=     15 Scr=      1
 Normal termination of Gaussian 16 at Tue Aug  2 13:32:39 2022.
