 Entering Gaussian System, Link 0=g16
 Initial command:
 /apps/gaussian/g16c01/g16/l1.exe "/jobfs/53803424.gadi-pbs/Gau-1854442.inp" -scrdir="/jobfs/53803424.gadi-pbs/"
 Entering Link 1 = /apps/gaussian/g16c01/g16/l1.exe PID=   1854443.
  
 Copyright (c) 1988-2019, Gaussian, Inc.  All Rights Reserved.
  
 This is part of the Gaussian(R) 16 program.  It is based on
 the Gaussian(R) 09 system (copyright 2009, Gaussian, Inc.),
 the Gaussian(R) 03 system (copyright 2003, Gaussian, Inc.),
 the Gaussian(R) 98 system (copyright 1998, Gaussian, Inc.),
 the Gaussian(R) 94 system (copyright 1995, Gaussian, Inc.),
 the Gaussian 92(TM) system (copyright 1992, Gaussian, Inc.),
 the Gaussian 90(TM) system (copyright 1990, Gaussian, Inc.),
 the Gaussian 88(TM) system (copyright 1988, Gaussian, Inc.),
 the Gaussian 86(TM) system (copyright 1986, Carnegie Mellon
 University), and the Gaussian 82(TM) system (copyright 1983,
 Carnegie Mellon University). Gaussian is a federally registered
 trademark of Gaussian, Inc.
  
 This software contains proprietary and confidential information,
 including trade secrets, belonging to Gaussian, Inc.
  
 This software is provided under written license and may be
 used, copied, transmitted, or stored only in accord with that
 written license.
  
 The following legend is applicable only to US Government
 contracts under FAR:
  
                    RESTRICTED RIGHTS LEGEND
  
 Use, reproduction and disclosure by the US Government is
 subject to restrictions as set forth in subparagraphs (a)
 and (c) of the Commercial Computer Software - Restricted
 Rights clause in FAR 52.227-19.
  
 Gaussian, Inc.
 340 Quinnipiac St., Bldg. 40, Wallingford CT 06492
  
  
 ---------------------------------------------------------------
 Warning -- This program may not be used in any manner that
 competes with the business of Gaussian, Inc. or will provide
 assistance to any competitor of Gaussian, Inc.  The licensee
 of this program is prohibited from giving any competitor of
 Gaussian, Inc. access to this program.  By using this program,
 the user acknowledges that Gaussian, Inc. is engaged in the
 business of creating and licensing software in the field of
 computational chemistry and represents and warrants to the
 licensee that it is not a competitor of Gaussian, Inc. and that
 it will not use this program in any manner prohibited above.
 ---------------------------------------------------------------
  

 Cite this work as:
 Gaussian 16, Revision C.01,
 M. J. Frisch, G. W. Trucks, H. B. Schlegel, G. E. Scuseria, 
 M. A. Robb, J. R. Cheeseman, G. Scalmani, V. Barone, 
 G. A. Petersson, H. Nakatsuji, X. Li, M. Caricato, A. V. Marenich, 
 J. Bloino, B. G. Janesko, R. Gomperts, B. Mennucci, H. P. Hratchian, 
 J. V. Ortiz, A. F. Izmaylov, J. L. Sonnenberg, D. Williams-Young, 
 F. Ding, F. Lipparini, F. Egidi, J. Goings, B. Peng, A. Petrone, 
 T. Henderson, D. Ranasinghe, V. G. Zakrzewski, J. Gao, N. Rega, 
 G. Zheng, W. Liang, M. Hada, M. Ehara, K. Toyota, R. Fukuda, 
 J. Hasegawa, M. Ishida, T. Nakajima, Y. Honda, O. Kitao, H. Nakai, 
 T. Vreven, K. Throssell, J. A. Montgomery, Jr., J. E. Peralta, 
 F. Ogliaro, M. J. Bearpark, J. J. Heyd, E. N. Brothers, K. N. Kudin, 
 V. N. Staroverov, T. A. Keith, R. Kobayashi, J. Normand, 
 K. Raghavachari, A. P. Rendell, J. C. Burant, S. S. Iyengar, 
 J. Tomasi, M. Cossi, J. M. Millam, M. Klene, C. Adamo, R. Cammi, 
 J. W. Ochterski, R. L. Martin, K. Morokuma, O. Farkas, 
 J. B. Foresman, and D. J. Fox, Gaussian, Inc., Wallingford CT, 2019.
 
 ******************************************
 Gaussian 16:  ES64L-G16RevC.01  3-Jul-2019
                 2-Aug-2022 
 ******************************************
 %NProcShared=48
 Will use up to   48 processors via shared memory.
 %mem = 190GB
 ---------------------------------------------------------------
 #n M062X/6-311++G(d,p) TD(NStates=1) EmpiricalDispersion=GD3 SP
 ---------------------------------------------------------------
 1/38=1,172=1/1;
 2/12=2,17=6,18=5,40=1/2;
 3/5=4,6=6,7=1111,11=9,25=1,30=1,74=-55,124=31/1,2,3,8;
 4//1;
 5/5=2,38=5/2;
 8/6=1,10=2,108=1/1;
 9/41=1,42=1,70=2/14;
 6/7=2,8=2,9=2,10=2/1;
 99/5=1,9=1/99;
 -----
 SP_12
 -----
 Symbolic Z-matrix:
 Charge =  1 Multiplicity = 1
 C                     0.        2.32666   1.35643 
 C                     0.        3.49751   0.54199 
 C                     0.        3.56586  -0.93983 
 C                     0.        2.67916  -1.50754 
 C                     0.       -2.19916  -1.31554 
 C                     0.       -3.78186  -0.55583 
 C                     0.       -3.92951   0.73399 
 C                     0.       -2.71066   1.35643 
 C                     0.       -0.096     1.48337 
 C                     0.        0.348    -1.39919 
 C                     0.        1.37606   0.83507 
 C                     0.        1.34147  -0.7168 
 C                     0.       -1.16005   0.57107 
 C                     0.       -1.12547  -0.6928 
 H                     0.        2.48607   2.43965 
 H                     0.        4.44275   1.07569 
 H                     0.        4.57726  -1.34835 
 H                     0.        2.52155  -2.59006 
 H                     0.        0.3      -2.47827 
 H                     0.       -2.30555  -2.39806 
 H                     0.       -4.60126  -1.30035 
 H                     0.       -4.87475   1.24369 
 H                     0.       -2.60607   2.43965 
 H                    -0.85959  -0.528     2.17579 
 H                     0.85959  -0.528     2.17579 
 
                          Input orientation:                          
 ---------------------------------------------------------------------
 Center     Atomic      Atomic             Coordinates (Angstroms)
 Number     Number       Type             X           Y           Z
 ---------------------------------------------------------------------
      1          6           0        0.000000    2.326655    1.356431
      2          6           0        0.000000    3.497508    0.541989
      3          6           0        0.000000    3.565861   -0.939830
      4          6           0        0.000000    2.679156   -1.507538
      5          6           0        0.000000   -2.199156   -1.315538
      6          6           0        0.000000   -3.781861   -0.555830
      7          6           0        0.000000   -3.929508    0.733989
      8          6           0        0.000000   -2.710655    1.356431
      9          6           0        0.000000   -0.096000    1.483369
     10          6           0        0.000000    0.348000   -1.399189
     11          6           0        0.000000    1.376055    0.835065
     12          6           0        0.000000    1.341471   -0.716804
     13          6           0        0.000000   -1.160055    0.571065
     14          6           0        0.000000   -1.125471   -0.692804
     15          1           0        0.000000    2.486071    2.439647
     16          1           0        0.000000    4.442753    1.075689
     17          1           0        0.000000    4.577262   -1.348349
     18          1           0        0.000000    2.521550   -2.590059
     19          1           0        0.000000    0.300000   -2.478266
     20          1           0        0.000000   -2.305550   -2.398059
     21          1           0        0.000000   -4.601262   -1.300349
     22          1           0        0.000000   -4.874753    1.243689
     23          1           0        0.000000   -2.606071    2.439647
     24          1           0       -0.859585   -0.528000    2.175787
     25          1           0        0.859585   -0.528000    2.175787
 ---------------------------------------------------------------------
                    Distance matrix (angstroms):
                    1          2          3          4          5
     1  C    0.000000
     2  C    1.426258   0.000000
     3  C    2.609300   1.483395   0.000000
     4  C    2.885581   2.206867   1.052871   0.000000
     5  C    5.255700   5.991860   5.777247   4.882089   0.000000
     6  C    6.400837   7.361686   7.357749   6.530734   1.755594
     7  C    6.287051   7.429497   7.679989   6.978459   2.682290
     8  C    5.037310   6.261358   6.683372   6.103473   2.720487
     9  C    2.425978   3.714767   4.391027   4.080075   3.501021
    10  C    3.392421   3.699672   3.250483   2.333673   2.548529
    11  C    1.084188   2.141601   2.818777   2.680646   4.172197
    12  C    2.295406   2.496609   2.235543   1.553918   3.590894
    13  C    3.574066   4.657654   4.961561   4.365791   2.153834
    14  C    4.014541   4.785044   4.697831   3.890884   1.241208
    15  H    1.094884   2.150375   3.547790   3.951905   6.004396
    16  H    2.134640   1.085506   2.198012   3.127832   7.059244
    17  H    3.518674   2.176981   1.090789   1.904770   6.776497
    18  H    3.951299   3.280582   1.952906   1.093934   4.889731
    19  H    4.337307   4.398409   3.610074   2.569571   2.756396
    20  H    5.962677   6.505334   6.049785   5.063627   1.087737
    21  H    7.419873   8.305678   8.175076   7.283366   2.402154
    22  H    7.202290   8.401615   8.718470   8.039328   3.702494
    23  H    5.050262   6.391775   7.036591   6.596506   3.777167
    24  H    3.091809   4.428645   5.215904   4.958994   3.964972
    25  H    3.091809   4.428645   5.215904   4.958994   3.964972
                    6          7          8          9         10
     6  C    0.000000
     7  C    1.298242   0.000000
     8  C    2.191854   1.368589   0.000000
     9  C    4.212351   3.906066   2.617735   0.000000
    10  C    4.215093   4.779908   4.116893   2.916552   0.000000
    11  C    5.342161   5.306526   4.119833   1.608491   2.459428
    12  C    5.125860   5.466994   4.551706   2.628133   1.205253
    13  C    2.853727   2.774241   1.738148   1.401610   2.481155
    14  C    2.659919   3.146166   2.590786   2.407393   1.634043
    15  H    6.946931   6.638443   5.308420   2.753463   4.394088
    16  H    8.384875   8.379231   7.158915   4.557026   4.784561
    17  H    8.396608   8.757926   7.773646   5.464248   4.229568
    18  H    6.623525   7.257096   6.553682   4.841940   2.478405
    19  H    4.511912   5.311056   4.875340   3.981378   1.080144
    20  H    2.360784   3.528026   3.776282   4.466273   2.835325
    21  H    1.107125   2.142378   3.260809   5.295892   4.950249
    22  H    2.105393   1.073910   2.167033   4.784760   5.853371
    23  H    3.217975   2.158878   1.088253   2.686061   4.843882
    24  H    4.334539   3.793142   2.484796   1.185307   3.779777
    25  H    4.334539   3.793142   2.484796   1.185307   3.779777
                   11         12         13         14         15
    11  C    0.000000
    12  C    1.552254   0.000000
    13  C    2.549814   2.813581   0.000000
    14  C    2.931214   2.467059   1.264342   0.000000
    15  H    1.951107   3.357572   4.097052   4.780741   0.000000
    16  H    3.076124   3.582036   5.625487   5.842319   2.385160
    17  H    3.874922   3.296846   6.049872   5.740288   4.326892
    18  H    3.611597   2.213972   4.852517   4.111002   5.029831
    19  H    3.483684   2.046316   3.380855   2.284697   5.381893
    20  H    4.899725   4.015891   3.182429   2.073760   6.809040
    21  H    6.347307   5.971315   3.917154   3.528489   8.013605
    22  H    6.264150   6.518050   3.775103   4.219848   7.457348
    23  H    4.293252   5.054332   2.362744   3.464740   5.092142
    24  H    2.482307   3.549773   1.927048   3.053633   3.145335
    25  H    2.482307   3.549773   1.927048   3.053633   3.145335
                   16         17         18         19         20
    16  H    0.000000
    17  H    2.427767   0.000000
    18  H    4.138687   2.401624   0.000000
    19  H    5.458296   4.423989   2.224361   0.000000
    20  H    7.589896   6.962398   4.830917   2.606784   0.000000
    21  H    9.350923   9.178650   7.238633   5.040819   2.544653
    22  H    9.319020   9.800982   8.330842   6.374246   4.456807
    23  H    7.179575   8.120910   7.182649   5.712365   4.847031
    24  H    5.163089   6.262757   5.722930   4.804652   4.981831
    25  H    5.163089   6.262757   5.722930   4.804652   4.981831
                   21         22         23         24         25
    21  H    0.000000
    22  H    2.558696   0.000000
    23  H    4.238910   2.564612   0.000000
    24  H    5.423456   4.527908   2.264263   0.000000
    25  H    5.423456   4.527908   2.264263   1.719170   0.000000
 Stoichiometry    C14H11(1+)
 Framework group  CS[SG(C14H9),X(H2)]
 Deg. of freedom    46
 Full point group                 CS      NOp   2
 Largest Abelian subgroup         CS      NOp   2
 Largest concise Abelian subgroup CS      NOp   2
                         Standard orientation:                         
 ---------------------------------------------------------------------
 Center     Atomic      Atomic             Coordinates (Angstroms)
 Number     Number       Type             X           Y           Z
 ---------------------------------------------------------------------
      1          6           0       -2.249022   -1.487523    0.000000
      2          6           0       -2.037703   -2.898039    0.000000
      3          6           0       -0.739582   -3.615911    0.000000
      4          6           0        0.162252   -3.072557    0.000000
      5          6           0        2.151713    1.385788    0.000000
      6          6           0        2.171954    3.141266    0.000000
      7          6           0        1.081090    3.845147    0.000000
      8          6           0       -0.016987    3.028284    0.000000
      9          6           0       -1.289338    0.740565    0.000000
     10          6           0        1.098057   -0.934731    0.000000
     11          6           0       -1.360421   -0.866354    0.000000
     12          6           0        0.046111   -1.522985    0.000000
     13          6           0        0.000000    1.290218    0.000000
     14          6           0        1.117699    0.699194    0.000000
     15          1           0       -3.290732   -1.150461    0.000000
     16          1           0       -2.934989   -3.508942    0.000000
     17          1           0       -0.821508   -4.703619    0.000000
     18          1           0        1.202537   -3.410933    0.000000
     19          1           0        2.086688   -1.369840    0.000000
     20          1           0        3.169306    1.001502    0.000000
     21          1           0        3.202471    3.545939    0.000000
     22          1           0        1.042997    4.918381    0.000000
     23          1           0       -1.034401    3.414501    0.000000
     24          1           0       -1.718652    1.434652    0.859585
     25          1           0       -1.718652    1.434652   -0.859585
 ---------------------------------------------------------------------
 Rotational constants (GHZ):           2.1496602           0.4403689           0.3662844
 Standard basis: 6-311++G(d,p) (5D, 7F)
 There are   299 symmetry adapted cartesian basis functions of A'  symmetry.
 There are   100 symmetry adapted cartesian basis functions of A"  symmetry.
 There are   285 symmetry adapted basis functions of A'  symmetry.
 There are   100 symmetry adapted basis functions of A"  symmetry.
   385 basis functions,   603 primitive gaussians,   399 cartesian basis functions
    47 alpha electrons       47 beta electrons
       nuclear repulsion energy       785.5113816495 Hartrees.
 NAtoms=   25 NActive=   25 NUniq=   24 SFac= 1.09D+00 NAtFMM=   60 NAOKFM=F Big=F
 Integral buffers will be    131072 words long.
 Regular integral format.
 Two-electron integral symmetry is turned on.
 Nuclear repulsion after empirical dispersion term =      785.5104255139 Hartrees.
 One-electron integrals computed using PRISM.
 NBasis=   385 RedAO= T EigKep=  1.26D-06  NBF=   285   100
 NBsUse=   379 1.00D-06 EigRej=  6.62D-07 NBFU=   279   100
 ExpMin= 3.60D-02 ExpMax= 4.56D+03 ExpMxC= 6.82D+02 IAcc=3 IRadAn=         5 AccDes= 0.00D+00
 Harris functional with IExCor= 1009 and IRadAn=       5 diagonalized for initial guess.
 HarFok:  IExCor= 1009 AccDes= 0.00D+00 IRadAn=         5 IDoV= 1 UseB2=F ITyADJ=14
 ICtDFT=  3500011 ScaDFX=  1.000000  1.000000  1.000000  1.000000
 FoFCou: FMM=F IPFlag=           0 FMFlag=      100000 FMFlg1=           0
         NFxFlg=           0 DoJE=T BraDBF=F KetDBF=T FulRan=T
         wScrn=  0.000000 ICntrl=       500 IOpCl=  0 I1Cent=   200000004 NGrid=           0
         NMat0=    1 NMatS0=      1 NMatT0=    0 NMatD0=    1 NMtDS0=    0 NMtDT0=    0
 Petite list used in FoFCou.
 Initial guess orbital symmetries:
       Occupied  (A') (A') (A') (A') (A') (A') (A') (A') (A') (A')
                 (A') (A') (A') (A') (A') (A') (A') (A') (A') (A')
                 (A') (A') (A') (A') (A') (A') (A') (A') (A') (A')
                 (A') (A') (A") (A') (A') (A") (A') (A") (A') (A')
                 (A') (A") (A') (A") (A") (A') (A")
       Virtual   (A") (A") (A") (A") (A') (A") (A') (A') (A') (A')
                 (A') (A') (A") (A') (A") (A') (A') (A") (A') (A')
                 (A') (A') (A") (A') (A') (A") (A') (A") (A') (A")
                 (A') (A') (A') (A') (A") (A') (A') (A') (A") (A')
                 (A") (A') (A") (A') (A') (A') (A') (A') (A') (A")
                 (A') (A") (A') (A") (A') (A') (A") (A') (A") (A')
                 (A') (A') (A') (A') (A') (A") (A') (A') (A") (A')
                 (A') (A') (A') (A') (A') (A') (A') (A') (A') (A')
                 (A') (A') (A') (A') (A') (A') (A') (A') (A') (A')
                 (A') (A') (A') (A") (A') (A") (A') (A') (A") (A')
                 (A') (A") (A') (A") (A') (A') (A") (A') (A") (A")
                 (A') (A") (A") (A') (A') (A') (A") (A') (A') (A")
                 (A") (A') (A') (A') (A") (A') (A') (A") (A') (A')
                 (A') (A') (A') (A') (A') (A') (A') (A') (A") (A')
                 (A') (A') (A') (A') (A") (A') (A') (A') (A') (A')
                 (A") (A') (A") (A') (A") (A') (A') (A") (A') (A")
                 (A") (A') (A") (A') (A") (A') (A") (A') (A') (A')
                 (A") (A') (A') (A') (A') (A') (A') (A") (A") (A')
                 (A') (A") (A') (A") (A') (A') (A") (A') (A") (A')
                 (A") (A') (A") (A') (A') (A') (A') (A") (A') (A")
                 (A") (A') (A") (A') (A") (A') (A") (A') (A') (A")
                 (A') (A') (A") (A') (A') (A') (A') (A') (A") (A")
                 (A') (A") (A') (A') (A") (A') (A') (A') (A") (A')
                 (A") (A') (A") (A') (A') (A") (A') (A") (A') (A")
                 (A') (A') (A') (A') (A') (A") (A') (A') (A') (A")
                 (A') (A') (A') (A") (A") (A') (A') (A") (A') (A")
                 (A') (A") (A') (A') (A') (A') (A') (A") (A') (A")
                 (A') (A") (A') (A') (A') (A") (A') (A") (A') (A')
                 (A') (A") (A") (A') (A') (A") (A") (A') (A') (A')
                 (A') (A') (A') (A') (A') (A') (A') (A') (A') (A")
                 (A') (A') (A') (A') (A') (A') (A') (A') (A') (A')
                 (A') (A') (A') (A') (A') (A') (A') (A') (A') (A')
                 (A') (A') (A') (A') (A') (A') (A') (A') (A') (A')
                 (A') (A')
 The electronic state of the initial guess is 1-A'.
 Requested convergence on RMS density matrix=1.00D-08 within 128 cycles.
 Requested convergence on MAX density matrix=1.00D-06.
 Requested convergence on             energy=1.00D-06.
 No special actions if energy rises.
 SCF Done:  E(RM062X) =  -539.147915566     A.U. after   17 cycles
            NFock= 17  Conv=0.89D-08     -V/T= 1.9985
 DoSCS=F DFT=T ScalE2(SS,OS)=  1.000000  1.000000
 ExpMin= 3.60D-02 ExpMax= 4.56D+03 ExpMxC= 6.82D+02 IAcc=3 IRadAn=         5 AccDes= 0.00D+00
 HarFok:  IExCor=  205 AccDes= 0.00D+00 IRadAn=         5 IDoV=-2 UseB2=F ITyADJ=14
 ICtDFT= 12500011 ScaDFX=  1.000000  1.000000  1.000000  1.000000
 Range of M.O.s used for correlation:    15   379
 NBasis=   385 NAE=    47 NBE=    47 NFC=    14 NFV=     0
 NROrb=    365 NOA=    33 NOB=    33 NVA=   332 NVB=   332

 **** Warning!!: The largest alpha MO coefficient is  0.19027042D+03


 **** Warning!!: The smallest alpha delta epsilon is  0.86510148D-01

 Orbital symmetries:
       Occupied  (A') (A') (A') (A') (A') (A') (A') (A') (A') (A')
                 (A') (A') (A') (A') (A') (A') (A') (A') (A') (A')
                 (A') (A') (A') (A') (A') (A') (A') (A') (A') (A')
                 (A') (A") (A') (A') (A") (A') (A') (A') (A") (A')
                 (A") (A') (A") (A') (A") (A') (A")
       Virtual   (A") (A") (A') (A") (A') (A') (A") (A') (A') (A")
                 (A') (A") (A') (A') (A") (A') (A") (A') (A') (A')
                 (A") (A') (A') (A") (A') (A') (A') (A') (A') (A")
                 (A") (A') (A") (A') (A') (A') (A') (A") (A') (A")
                 (A') (A") (A') (A') (A') (A") (A') (A') (A") (A")
                 (A') (A') (A') (A') (A') (A") (A') (A") (A') (A')
                 (A') (A') (A') (A") (A') (A') (A") (A') (A') (A')
                 (A') (A') (A') (A') (A') (A') (A') (A') (A') (A')
                 (A') (A') (A') (A') (A') (A') (A') (A') (A') (A')
                 (A") (A') (A") (A') (A') (A') (A') (A') (A") (A')
                 (A") (A') (A") (A') (A') (A") (A") (A') (A') (A")
                 (A') (A") (A') (A") (A') (A") (A') (A") (A') (A")
                 (A') (A') (A') (A") (A') (A") (A') (A') (A') (A')
                 (A') (A') (A') (A') (A') (A') (A') (A') (A') (A')
                 (A') (A') (A') (A") (A') (A') (A') (A') (A") (A')
                 (A') (A') (A") (A') (A') (A") (A') (A") (A") (A')
                 (A") (A') (A") (A') (A") (A') (A") (A") (A') (A')
                 (A") (A') (A') (A') (A') (A') (A') (A") (A') (A")
                 (A') (A") (A') (A") (A') (A") (A') (A") (A') (A')
                 (A") (A") (A') (A') (A') (A") (A') (A') (A") (A')
                 (A") (A') (A") (A') (A") (A') (A") (A') (A') (A")
                 (A') (A') (A') (A") (A') (A') (A') (A') (A") (A')
                 (A") (A") (A') (A') (A") (A') (A') (A') (A") (A')
                 (A") (A') (A') (A") (A') (A') (A") (A") (A') (A")
                 (A') (A') (A') (A') (A") (A') (A') (A') (A') (A")
                 (A') (A') (A') (A') (A') (A") (A') (A') (A") (A')
                 (A') (A') (A") (A') (A") (A') (A') (A') (A') (A')
                 (A") (A') (A") (A") (A") (A') (A") (A') (A') (A")
                 (A') (A") (A") (A') (A') (A") (A') (A") (A') (A')
                 (A') (A') (A') (A') (A') (A') (A') (A') (A") (A')
                 (A') (A') (A') (A') (A') (A') (A') (A') (A') (A')
                 (A') (A') (A') (A') (A') (A') (A') (A') (A') (A')
                 (A') (A') (A') (A') (A') (A') (A') (A') (A') (A')
                 (A') (A')
     4 initial guesses have been made.
 Convergence on wavefunction:    0.001000000000000
 Iteration     1 Dimension     4 NMult     0 NNew      4
 CISAX will form     4 AO SS matrices at one time.
 Iteration     2 Dimension     6 NMult     4 NNew      2
 Iteration     3 Dimension     8 NMult     6 NNew      2
 Iteration     4 Dimension    10 NMult     8 NNew      2
 Iteration     5 Dimension    12 NMult    10 NNew      2
 Iteration     6 Dimension    14 NMult    12 NNew      2
 ***********************************************************************
 Excited states from <AA,BB:AA,BB> singles matrix:
 ***********************************************************************
 
 Ground to excited state transition densities written to RWF  633
 Ground to excited state transition electric dipole moments (Au):
       state          X           Y           Z        Dip. S.      Osc.
         1         0.6007      1.6304     -0.0000      3.0190      0.0745
 Ground to excited state transition velocity dipole moments (Au):
       state          X           Y           Z        Dip. S.      Osc.
         1        -0.0169     -0.0583      0.0000      0.0037      0.0663
 Ground to excited state transition magnetic dipole moments (Au):
       state          X           Y           Z
         1         0.0000      0.0000      0.4137
 Ground to excited state transition velocity quadrupole moments (Au):
       state          XX          YY          ZZ          XY          XZ          YZ
         1         0.0176      0.0251     -0.0042      0.0539     -0.0000      0.0000
 <0|del|b> * <b|rxdel|0> + <0|del|b> * <b|delr+rdel|0>
 Rotatory Strengths (R) in cgs (10**-40 erg-esu-cm/Gauss)
       state          XX          YY          ZZ    R(velocity)    E-M Angle
         1         0.0000      0.0000      0.0000      0.0000       90.00
 1/2[<0|r|b>*<b|rxdel|0> + (<0|rxdel|b>*<b|r|0>)*]
 Rotatory Strengths (R) in cgs (10**-40 erg-esu-cm/Gauss)
       state          XX          YY          ZZ     R(length)
         1        -0.0000     -0.0000      0.0000     -0.0000
  1/2[<0|del|b>*<b|r|0> + (<0|r|b>*<b|del|0>)*] (Au)
       state          X           Y           Z        Dip. S.   Osc.(frdel)
         1        -0.0101     -0.0950     -0.0000      0.1052      0.0701

 Excitation energies and oscillator strengths:
 
 Excited State   1:      Singlet-A'     1.0069 eV 1231.39 nm  f=0.0745  <S**2>=0.000
      47 -> 48         0.71451
      47 <- 48        -0.13700
 This state for optimization and/or second-order correction.
 Total Energy, E(TD-HF/TD-DFT) =  -539.110913951    
 Copying the excited state density for this state as the 1-particle RhoCI density.
 SavETr:  write IOETrn=   770 NScale= 10 NData=  16 NLR=1 NState=    1 LETran=      28.

 **********************************************************************

            Population analysis using the SCF Density.

 **********************************************************************

 Orbital symmetries:
       Occupied  (A') (A') (A') (A') (A') (A') (A') (A') (A') (A')
                 (A') (A') (A') (A') (A') (A') (A') (A') (A') (A')
                 (A') (A') (A') (A') (A') (A') (A') (A') (A') (A')
                 (A') (A") (A') (A') (A") (A') (A') (A') (A") (A')
                 (A") (A') (A") (A') (A") (A') (A")
       Virtual   (A") (A") (A') (A") (A') (A') (A") (A') (A') (A")
                 (A') (A") (A') (A') (A") (A') (A") (A') (A') (A')
                 (A") (A') (A') (A") (A') (A') (A') (A') (A') (A")
                 (A") (A') (A") (A') (A') (A') (A') (A") (A') (A")
                 (A') (A") (A') (A') (A') (A") (A') (A') (A") (A")
                 (A') (A') (A') (A') (A') (A") (A') (A") (A') (A')
                 (A') (A') (A') (A") (A') (A') (A") (A') (A') (A')
                 (A') (A') (A') (A') (A') (A') (A') (A') (A') (A')
                 (A') (A') (A') (A') (A') (A') (A') (A') (A') (A')
                 (A") (A') (A") (A') (A') (A') (A') (A') (A") (A')
                 (A") (A') (A") (A') (A') (A") (A") (A') (A') (A")
                 (A') (A") (A') (A") (A') (A") (A') (A") (A') (A")
                 (A') (A') (A') (A") (A') (A") (A') (A') (A') (A')
                 (A') (A') (A') (A') (A') (A') (A') (A') (A') (A')
                 (A') (A') (A') (A") (A') (A') (A') (A') (A") (A')
                 (A') (A') (A") (A') (A') (A") (A') (A") (A") (A')
                 (A") (A') (A") (A') (A") (A') (A") (A") (A') (A')
                 (A") (A') (A') (A') (A') (A') (A') (A") (A') (A")
                 (A') (A") (A') (A") (A') (A") (A') (A") (A') (A')
                 (A") (A") (A') (A') (A') (A") (A') (A') (A") (A')
                 (A") (A') (A") (A') (A") (A') (A") (A') (A') (A")
                 (A') (A') (A') (A") (A') (A') (A') (A') (A") (A')
                 (A") (A") (A') (A') (A") (A') (A') (A') (A") (A')
                 (A") (A') (A') (A") (A') (A') (A") (A") (A') (A")
                 (A') (A') (A') (A') (A") (A') (A') (A') (A') (A")
                 (A') (A') (A') (A') (A') (A") (A') (A') (A") (A')
                 (A') (A') (A") (A') (A") (A') (A') (A') (A') (A')
                 (A") (A') (A") (A") (A") (A') (A") (A') (A') (A")
                 (A') (A") (A") (A') (A') (A") (A') (A") (A') (A')
                 (A') (A') (A') (A') (A') (A') (A') (A') (A") (A')
                 (A') (A') (A') (A') (A') (A') (A') (A') (A') (A')
                 (A') (A') (A') (A') (A') (A') (A') (A') (A') (A')
                 (A') (A') (A') (A') (A') (A') (A') (A') (A') (A')
                 (A') (A')
 The electronic state is 1-A'.
 Alpha  occ. eigenvalues --  -10.79009 -10.74598 -10.72303 -10.71992 -10.71607
 Alpha  occ. eigenvalues --  -10.70725 -10.70539 -10.70406 -10.69810 -10.69174
 Alpha  occ. eigenvalues --  -10.68796 -10.67878 -10.67488 -10.66445  -1.20914
 Alpha  occ. eigenvalues --   -1.13598  -1.12647  -1.06902  -1.03188  -1.01446
 Alpha  occ. eigenvalues --   -0.96081  -0.88004  -0.86080  -0.84370  -0.83584
 Alpha  occ. eigenvalues --   -0.77493  -0.76536  -0.74602  -0.73637  -0.69858
 Alpha  occ. eigenvalues --   -0.69245  -0.68541  -0.66670  -0.64575  -0.63612
 Alpha  occ. eigenvalues --   -0.63254  -0.62915  -0.59225  -0.58936  -0.56536
 Alpha  occ. eigenvalues --   -0.55452  -0.54861  -0.52572  -0.52085  -0.48101
 Alpha  occ. eigenvalues --   -0.47475  -0.36023
 Alpha virt. eigenvalues --   -0.27372  -0.15963  -0.11580  -0.11546  -0.10403
 Alpha virt. eigenvalues --   -0.09893  -0.09302  -0.07847  -0.07746  -0.07451
 Alpha virt. eigenvalues --   -0.07331  -0.06050  -0.05961  -0.05440  -0.05252
 Alpha virt. eigenvalues --   -0.04613  -0.04004  -0.03699  -0.03227  -0.02136
 Alpha virt. eigenvalues --   -0.02060  -0.01655  -0.01034  -0.00884   0.00233
 Alpha virt. eigenvalues --    0.00609   0.01006   0.01193   0.01497   0.01622
 Alpha virt. eigenvalues --    0.02083   0.02428   0.02847   0.02890   0.03354
 Alpha virt. eigenvalues --    0.03605   0.03848   0.04226   0.05403   0.05483
 Alpha virt. eigenvalues --    0.05696   0.05784   0.05983   0.06194   0.06760
 Alpha virt. eigenvalues --    0.07401   0.07465   0.07977   0.07995   0.08263
 Alpha virt. eigenvalues --    0.08349   0.08766   0.09347   0.10009   0.10194
 Alpha virt. eigenvalues --    0.10268   0.10887   0.11375   0.11390   0.12139
 Alpha virt. eigenvalues --    0.12751   0.12887   0.13314   0.13546   0.14091
 Alpha virt. eigenvalues --    0.14248   0.16059   0.16785   0.17067   0.17368
 Alpha virt. eigenvalues --    0.18173   0.18746   0.19869   0.20400   0.20893
 Alpha virt. eigenvalues --    0.21471   0.22193   0.22841   0.23684   0.24253
 Alpha virt. eigenvalues --    0.25126   0.25816   0.26107   0.26912   0.28435
 Alpha virt. eigenvalues --    0.29718   0.30890   0.31824   0.32361   0.35734
 Alpha virt. eigenvalues --    0.36843   0.37852   0.38605   0.38815   0.39709
 Alpha virt. eigenvalues --    0.40061   0.41785   0.42139   0.43174   0.43857
 Alpha virt. eigenvalues --    0.44007   0.44829   0.46381   0.46403   0.47386
 Alpha virt. eigenvalues --    0.48275   0.48969   0.49167   0.51334   0.51418
 Alpha virt. eigenvalues --    0.51451   0.52258   0.52568   0.53850   0.54563
 Alpha virt. eigenvalues --    0.55613   0.55935   0.58512   0.58822   0.59248
 Alpha virt. eigenvalues --    0.59603   0.61718   0.62611   0.63224   0.63475
 Alpha virt. eigenvalues --    0.64011   0.65046   0.66584   0.67388   0.67553
 Alpha virt. eigenvalues --    0.70171   0.72116   0.73653   0.73882   0.74263
 Alpha virt. eigenvalues --    0.75090   0.75653   0.76940   0.77368   0.78223
 Alpha virt. eigenvalues --    0.79129   0.80153   0.80911   0.81455   0.81870
 Alpha virt. eigenvalues --    0.82836   0.83769   0.84486   0.84639   0.86126
 Alpha virt. eigenvalues --    0.88141   0.89217   0.90118   0.90539   0.92865
 Alpha virt. eigenvalues --    0.94495   0.95714   0.95984   0.99097   1.01338
 Alpha virt. eigenvalues --    1.02316   1.02596   1.03951   1.04540   1.07295
 Alpha virt. eigenvalues --    1.07568   1.08096   1.09024   1.09180   1.13054
 Alpha virt. eigenvalues --    1.15006   1.18098   1.18765   1.19338   1.26044
 Alpha virt. eigenvalues --    1.29596   1.31358   1.34332   1.34513   1.36208
 Alpha virt. eigenvalues --    1.37456   1.38871   1.39136   1.39939   1.40719
 Alpha virt. eigenvalues --    1.44846   1.45951   1.47422   1.47597   1.49430
 Alpha virt. eigenvalues --    1.50991   1.53330   1.53943   1.56070   1.56231
 Alpha virt. eigenvalues --    1.56864   1.57296   1.59343   1.60022   1.60463
 Alpha virt. eigenvalues --    1.63327   1.64753   1.65189   1.66666   1.69029
 Alpha virt. eigenvalues --    1.69367   1.71104   1.71835   1.74329   1.74728
 Alpha virt. eigenvalues --    1.76145   1.76948   1.79248   1.79360   1.80016
 Alpha virt. eigenvalues --    1.82726   1.83347   1.84826   1.85601   1.87539
 Alpha virt. eigenvalues --    1.89017   1.89214   1.89297   1.93195   1.93880
 Alpha virt. eigenvalues --    1.96132   1.97086   1.99887   2.00081   2.03008
 Alpha virt. eigenvalues --    2.03151   2.06099   2.09649   2.11819   2.15061
 Alpha virt. eigenvalues --    2.18067   2.18679   2.19942   2.21403   2.23548
 Alpha virt. eigenvalues --    2.24835   2.28163   2.29440   2.32522   2.32539
 Alpha virt. eigenvalues --    2.35755   2.37716   2.39660   2.42030   2.43201
 Alpha virt. eigenvalues --    2.43435   2.44818   2.50251   2.52709   2.54420
 Alpha virt. eigenvalues --    2.57059   2.57696   2.59703   2.60037   2.60722
 Alpha virt. eigenvalues --    2.62457   2.62995   2.63502   2.64363   2.65410
 Alpha virt. eigenvalues --    2.65611   2.66423   2.66806   2.67990   2.70047
 Alpha virt. eigenvalues --    2.70367   2.72847   2.73536   2.75022   2.76740
 Alpha virt. eigenvalues --    2.78164   2.78860   2.81404   2.84323   2.84714
 Alpha virt. eigenvalues --    2.86879   2.90102   2.93133   2.95358   2.96421
 Alpha virt. eigenvalues --    2.98888   3.01542   3.01665   3.05121   3.08092
 Alpha virt. eigenvalues --    3.10116   3.14948   3.16439   3.25006   3.30303
 Alpha virt. eigenvalues --    3.34183   3.35139   3.40584   3.44044   3.51267
 Alpha virt. eigenvalues --    3.54420   3.63343   3.64626   3.71682   3.72665
 Alpha virt. eigenvalues --    3.74797   3.77292   3.80937   3.86034   3.90296
 Alpha virt. eigenvalues --    3.96404   4.01696   4.05944   4.18410   4.22894
 Alpha virt. eigenvalues --    4.28583   4.43259   4.49516  23.41748  23.48172
 Alpha virt. eigenvalues --   23.51709  23.56187  23.59243  23.80376  23.88892
 Alpha virt. eigenvalues --   23.96701  24.27878  24.36968  24.67759  24.73629
 Alpha virt. eigenvalues --   25.35454  25.49917
          Condensed to atoms (all electrons):
               1          2          3          4          5          6
     1  C    7.110700   1.139362  -0.552061   0.612810  -0.103932  -0.063715
     2  C    1.139362   8.432073   0.524191  -0.143809  -0.179085  -0.022436
     3  C   -0.552061   0.524191   6.983060   0.524483  -0.020261   0.017073
     4  C    0.612810  -0.143809   0.524483  12.149542  -0.533956  -0.258242
     5  C   -0.103932  -0.179085  -0.020261  -0.533956   8.278301   1.421280
     6  C   -0.063715  -0.022436   0.017073  -0.258242   1.421280   7.795243
     7  C   -0.048588  -0.017525  -0.005952   0.244535  -1.843406  -2.205324
     8  C    0.282951   0.035260  -0.121388  -0.331031   2.620638   1.652290
     9  C   -0.350150  -1.061342   0.154333   0.727255  -0.567449   0.357755
    10  C   -0.392758  -0.635652   0.283076  -2.655826  -1.051094  -1.124458
    11  C    0.518283  -0.247510  -0.030582  -1.178255  -1.115909   0.339366
    12  C   -1.238630  -0.479068  -2.016921  -0.448322   0.089118  -0.932645
    13  C    0.008096  -0.405794  -0.394477  -0.585656  -0.498112   0.715071
    14  C   -1.345102  -0.844721   0.658903  -2.466023  -0.673410  -1.627753
    15  H    0.384009  -0.072121   0.001732  -0.008029   0.005505   0.002391
    16  H   -0.010064   0.382944  -0.043425   0.049788  -0.003633  -0.000714
    17  H   -0.002457  -0.037067   0.396316  -0.070238   0.001852   0.000655
    18  H    0.021738   0.028749  -0.036777   0.550528  -0.003483  -0.006340
    19  H   -0.013873  -0.018901   0.043156  -0.185281  -0.015172   0.057894
    20  H    0.001075   0.001388  -0.005004   0.024210   0.418107  -0.088485
    21  H   -0.001400  -0.000519   0.000367  -0.002203  -0.026909   0.335143
    22  H   -0.000077  -0.000074  -0.000089   0.001241  -0.010542  -0.015386
    23  H    0.008719   0.002353   0.000778  -0.011241   0.030188   0.062003
    24  H    0.042183   0.015529  -0.001755   0.004532  -0.021072  -0.008608
    25  H    0.042183   0.015529  -0.001755   0.004532  -0.021072  -0.008608
               7          8          9         10         11         12
     1  C   -0.048588   0.282951  -0.350150  -0.392758   0.518283  -1.238630
     2  C   -0.017525   0.035260  -1.061342  -0.635652  -0.247510  -0.479068
     3  C   -0.005952  -0.121388   0.154333   0.283076  -0.030582  -2.016921
     4  C    0.244535  -0.331031   0.727255  -2.655826  -1.178255  -0.448322
     5  C   -1.843406   2.620638  -0.567449  -1.051094  -1.115909   0.089118
     6  C   -2.205324   1.652290   0.357755  -1.124458   0.339366  -0.932645
     7  C   11.285167  -4.767501  -1.071495   0.896056  -0.844912   0.818370
     8  C   -4.767501  14.002926  -0.695788  -0.950062   0.542190  -0.826240
     9  C   -1.071495  -0.695788   9.426225  -0.247760   0.949140  -2.279106
    10  C    0.896056  -0.950062  -0.247760   9.045711   0.286227   1.680328
    11  C   -0.844912   0.542190   0.949140   0.286227  14.354634  -4.562234
    12  C    0.818370  -0.826240  -2.279106   1.680328  -4.562234  18.883517
    13  C    0.472395  -2.129412   0.021319  -0.875007  -1.026553  -1.413987
    14  C    3.336953  -3.864837   0.150167   1.362626  -1.483969  -1.520889
    15  H   -0.004447   0.001027   0.014878   0.011228  -0.040513   0.073167
    16  H    0.000795   0.002610   0.000845  -0.033029   0.031868  -0.024057
    17  H   -0.000251  -0.001906  -0.000618   0.024358  -0.005661   0.027032
    18  H    0.003877   0.004362  -0.006063  -0.022989  -0.021862  -0.048317
    19  H   -0.011458  -0.046800   0.060754   0.421687   0.123886  -0.323656
    20  H   -0.010535   0.079858  -0.023254   0.096073  -0.030579   0.059190
    21  H    0.041408  -0.057619  -0.000836  -0.001299  -0.000137  -0.007978
    22  H    0.357784  -0.016359  -0.006779   0.003944  -0.008668   0.006576
    23  H   -0.197530   0.432406   0.120793  -0.020383   0.064272  -0.034587
    24  H    0.015610  -0.030754   0.378491   0.012016   0.032074  -0.022608
    25  H    0.015610  -0.030754   0.378491   0.012016   0.032074  -0.022608
              13         14         15         16         17         18
     1  C    0.008096  -1.345102   0.384009  -0.010064  -0.002457   0.021738
     2  C   -0.405794  -0.844721  -0.072121   0.382944  -0.037067   0.028749
     3  C   -0.394477   0.658903   0.001732  -0.043425   0.396316  -0.036777
     4  C   -0.585656  -2.466023  -0.008029   0.049788  -0.070238   0.550528
     5  C   -0.498112  -0.673410   0.005505  -0.003633   0.001852  -0.003483
     6  C    0.715071  -1.627753   0.002391  -0.000714   0.000655  -0.006340
     7  C    0.472395   3.336953  -0.004447   0.000795  -0.000251   0.003877
     8  C   -2.129412  -3.864837   0.001027   0.002610  -0.001906   0.004362
     9  C    0.021319   0.150167   0.014878   0.000845  -0.000618  -0.006063
    10  C   -0.875007   1.362626   0.011228  -0.033029   0.024358  -0.022989
    11  C   -1.026553  -1.483969  -0.040513   0.031868  -0.005661  -0.021862
    12  C   -1.413987  -1.520889   0.073167  -0.024057   0.027032  -0.048317
    13  C   11.328806   0.879030  -0.037776   0.007981  -0.006951  -0.001233
    14  C    0.879030  12.962091   0.010619  -0.028664   0.016824  -0.115402
    15  H   -0.037776   0.010619   0.417637  -0.003108   0.001624  -0.000373
    16  H    0.007981  -0.028664  -0.003108   0.390474  -0.003928   0.003158
    17  H   -0.006951   0.016824   0.001624  -0.003928   0.409074  -0.013283
    18  H   -0.001233  -0.115402  -0.000373   0.003158  -0.013283   0.432476
    19  H    0.051283   0.221053   0.001266  -0.000924   0.004168  -0.008507
    20  H   -0.009036  -0.179840  -0.000265   0.000051  -0.000316   0.002021
    21  H    0.011296   0.053208   0.000053  -0.000011   0.000011  -0.000123
    22  H    0.020060   0.012067  -0.000116   0.000007  -0.000003   0.000015
    23  H   -0.095071  -0.074449   0.000593  -0.000166  -0.000010  -0.000163
    24  H   -0.069150  -0.015986  -0.000536   0.000492  -0.000069   0.000097
    25  H   -0.069150  -0.015986  -0.000536   0.000492  -0.000069   0.000097
              19         20         21         22         23         24
     1  C   -0.013873   0.001075  -0.001400  -0.000077   0.008719   0.042183
     2  C   -0.018901   0.001388  -0.000519  -0.000074   0.002353   0.015529
     3  C    0.043156  -0.005004   0.000367  -0.000089   0.000778  -0.001755
     4  C   -0.185281   0.024210  -0.002203   0.001241  -0.011241   0.004532
     5  C   -0.015172   0.418107  -0.026909  -0.010542   0.030188  -0.021072
     6  C    0.057894  -0.088485   0.335143  -0.015386   0.062003  -0.008608
     7  C   -0.011458  -0.010535   0.041408   0.357784  -0.197530   0.015610
     8  C   -0.046800   0.079858  -0.057619  -0.016359   0.432406  -0.030754
     9  C    0.060754  -0.023254  -0.000836  -0.006779   0.120793   0.378491
    10  C    0.421687   0.096073  -0.001299   0.003944  -0.020383   0.012016
    11  C    0.123886  -0.030579  -0.000137  -0.008668   0.064272   0.032074
    12  C   -0.323656   0.059190  -0.007978   0.006576  -0.034587  -0.022608
    13  C    0.051283  -0.009036   0.011296   0.020060  -0.095071  -0.069150
    14  C    0.221053  -0.179840   0.053208   0.012067  -0.074449  -0.015986
    15  H    0.001266  -0.000265   0.000053  -0.000116   0.000593  -0.000536
    16  H   -0.000924   0.000051  -0.000011   0.000007  -0.000166   0.000492
    17  H    0.004168  -0.000316   0.000011  -0.000003  -0.000010  -0.000069
    18  H   -0.008507   0.002021  -0.000123   0.000015  -0.000163   0.000097
    19  H    0.511517  -0.016408   0.000676  -0.000334   0.000362   0.000413
    20  H   -0.016408   0.474079  -0.004131   0.001580  -0.001500   0.000492
    21  H    0.000676  -0.004131   0.420766  -0.001017   0.000503  -0.000125
    22  H   -0.000334   0.001580  -0.001017   0.424730  -0.005827   0.000703
    23  H    0.000362  -0.001500   0.000503  -0.005827   0.491060  -0.000590
    24  H    0.000413   0.000492  -0.000125   0.000703  -0.000590   0.462472
    25  H    0.000413   0.000492  -0.000125   0.000703  -0.000590  -0.064358
              25
     1  C    0.042183
     2  C    0.015529
     3  C   -0.001755
     4  C    0.004532
     5  C   -0.021072
     6  C   -0.008608
     7  C    0.015610
     8  C   -0.030754
     9  C    0.378491
    10  C    0.012016
    11  C    0.032074
    12  C   -0.022608
    13  C   -0.069150
    14  C   -0.015986
    15  H   -0.000536
    16  H    0.000492
    17  H   -0.000069
    18  H    0.000097
    19  H    0.000413
    20  H    0.000492
    21  H   -0.000125
    22  H    0.000703
    23  H   -0.000590
    24  H   -0.064358
    25  H    0.462472
 Mulliken charges:
               1
     1  C   -0.049304
     2  C   -0.411755
     3  C   -0.357022
     4  C   -0.015344
     5  C   -0.176493
     6  C   -0.393451
     7  C   -0.459635
     8  C    0.213931
     9  C   -0.429808
    10  C   -0.125027
    11  C   -0.676669
    12  C    0.564556
    13  C    0.102028
    14  C    0.593490
    15  H    0.242089
    16  H    0.280219
    17  H    0.260913
    18  H    0.237797
    19  H    0.142787
    20  H    0.210737
    21  H    0.241002
    22  H    0.235861
    23  H    0.228079
    24  H    0.270509
    25  H    0.270509
 Sum of Mulliken charges =   1.00000
 Mulliken charges with hydrogens summed into heavy atoms:
               1
     1  C    0.192785
     2  C   -0.131536
     3  C   -0.096109
     4  C    0.222453
     5  C    0.034244
     6  C   -0.152449
     7  C   -0.223774
     8  C    0.442011
     9  C    0.111211
    10  C    0.017760
    11  C   -0.676669
    12  C    0.564556
    13  C    0.102028
    14  C    0.593490
 Electronic spatial extent (au):  <R**2>=           2870.2470
 Charge=              1.0000 electrons
 Dipole moment (field-independent basis, Debye):
    X=             -3.2332    Y=             -4.5215    Z=              0.0000  Tot=              5.5585
 Quadrupole moment (field-independent basis, Debye-Ang):
   XX=            -52.8888   YY=            -29.4590   ZZ=            -83.1597
   XY=             11.1009   XZ=              0.0000   YZ=             -0.0000
 Traceless Quadrupole moment (field-independent basis, Debye-Ang):
   XX=              2.2804   YY=             25.7101   ZZ=            -27.9905
   XY=             11.1009   XZ=              0.0000   YZ=             -0.0000
 Octapole moment (field-independent basis, Debye-Ang**2):
  XXX=            -19.3638  YYY=            -36.1079  ZZZ=             -0.0000  XYY=            -14.7143
  XXY=            -21.9302  XXZ=              0.0000  XZZ=             -7.1749  YZZ=             -8.0437
  YYZ=              0.0000  XYZ=              0.0000
 Hexadecapole moment (field-independent basis, Debye-Ang**3):
 XXXX=           -877.0664 YYYY=          -1902.9229 ZZZZ=            -97.5831 XXXY=           -298.6413
 XXXZ=             -0.0000 YYYX=           -215.7183 YYYZ=             -0.0000 ZZZX=             -0.0000
 ZZZY=              0.0000 XXYY=           -457.3143 XXZZ=           -213.4799 YYZZ=           -516.1286
 XXYZ=             -0.0000 YYXZ=              0.0000 ZZXY=           -158.6945
 N-N= 7.855104255139D+02 E-N=-2.808720319517D+03  KE= 5.399830433003D+02
 Symmetry A'   KE= 5.247707704720D+02
 Symmetry A"   KE= 1.521227282827D+01
 Unable to Open any file for archive entry.
 1\1\GINC-GADI-CPU-CLX-2808\SP\RM062X TD-FC\6-311++G(d,p)\C14H11(1+)\TS
 1578\02-Aug-2022\0\\#n M062X/6-311++G(d,p) TD(NStates=1) EmpiricalDisp
 ersion=GD3 SP\\SP_12\\1,1\C,0,0.,2.326655,1.356431\C,0,0.,3.497508,0.5
 41989\C,0,0.,3.565861,-0.93983\C,0,0.,2.679156,-1.507538\C,0,0.,-2.199
 156,-1.315538\C,0,0.,-3.781861,-0.55583\C,0,0.,-3.929508,0.733989\C,0,
 0.,-2.710655,1.356431\C,0,0.,-0.096,1.483369\C,0,0.,0.348,-1.399189\C,
 0,0.,1.376055,0.835065\C,0,0.,1.341471,-0.716804\C,0,0.,-1.160055,0.57
 1065\C,0,0.,-1.125471,-0.692804\H,0,0.,2.486071,2.439647\H,0,0.,4.4427
 53,1.075689\H,0,0.,4.577262,-1.348349\H,0,0.,2.52155,-2.590059\H,0,0.,
 0.3,-2.478266\H,0,0.,-2.30555,-2.398059\H,0,0.,-4.601262,-1.300349\H,0
 ,0.,-4.874753,1.243689\H,0,0.,-2.606071,2.439647\H,0,-0.859585,-0.528,
 2.175787\H,0,0.859585,-0.528,2.175787\\Version=ES64L-G16RevC.01\State=
 1-A'\HF=-539.1479156\RMSD=8.868e-09\PG=CS [SG(C14H9),X(H2)]\\@
 The archive entry for this job was punched.


 WE ARE PERHAPS NOT FAR REMOVED FROM THE TIME WHEN WE SHALL BE ABLE TO SUBMIT
 THE BULK OF CHEMICAL PHENOMENA TO CALCULATION.

            -- JOSEPH LOUIS GAY-LUSSAC
               MEMOIRES DE LA SOCIETE D'ARCUEIL, 2, 207 (1808)
 Job cpu time:       0 days  0 hours 53 minutes 54.6 seconds.
 Elapsed time:       0 days  0 hours  1 minutes  7.7 seconds.
 File lengths (MBytes):  RWF=    460 Int=      0 D2E=      0 Chk=     15 Scr=      1
 Normal termination of Gaussian 16 at Tue Aug  2 13:22:59 2022.
