 Entering Gaussian System, Link 0=g16
 Initial command:
 /apps/gaussian/g16c01/g16/l1.exe "/jobfs/53803424.gadi-pbs/Gau-1804775.inp" -scrdir="/jobfs/53803424.gadi-pbs/"
 Entering Link 1 = /apps/gaussian/g16c01/g16/l1.exe PID=   1804776.
  
 Copyright (c) 1988-2019, Gaussian, Inc.  All Rights Reserved.
  
 This is part of the Gaussian(R) 16 program.  It is based on
 the Gaussian(R) 09 system (copyright 2009, Gaussian, Inc.),
 the Gaussian(R) 03 system (copyright 2003, Gaussian, Inc.),
 the Gaussian(R) 98 system (copyright 1998, Gaussian, Inc.),
 the Gaussian(R) 94 system (copyright 1995, Gaussian, Inc.),
 the Gaussian 92(TM) system (copyright 1992, Gaussian, Inc.),
 the Gaussian 90(TM) system (copyright 1990, Gaussian, Inc.),
 the Gaussian 88(TM) system (copyright 1988, Gaussian, Inc.),
 the Gaussian 86(TM) system (copyright 1986, Carnegie Mellon
 University), and the Gaussian 82(TM) system (copyright 1983,
 Carnegie Mellon University). Gaussian is a federally registered
 trademark of Gaussian, Inc.
  
 This software contains proprietary and confidential information,
 including trade secrets, belonging to Gaussian, Inc.
  
 This software is provided under written license and may be
 used, copied, transmitted, or stored only in accord with that
 written license.
  
 The following legend is applicable only to US Government
 contracts under FAR:
  
                    RESTRICTED RIGHTS LEGEND
  
 Use, reproduction and disclosure by the US Government is
 subject to restrictions as set forth in subparagraphs (a)
 and (c) of the Commercial Computer Software - Restricted
 Rights clause in FAR 52.227-19.
  
 Gaussian, Inc.
 340 Quinnipiac St., Bldg. 40, Wallingford CT 06492
  
  
 ---------------------------------------------------------------
 Warning -- This program may not be used in any manner that
 competes with the business of Gaussian, Inc. or will provide
 assistance to any competitor of Gaussian, Inc.  The licensee
 of this program is prohibited from giving any competitor of
 Gaussian, Inc. access to this program.  By using this program,
 the user acknowledges that Gaussian, Inc. is engaged in the
 business of creating and licensing software in the field of
 computational chemistry and represents and warrants to the
 licensee that it is not a competitor of Gaussian, Inc. and that
 it will not use this program in any manner prohibited above.
 ---------------------------------------------------------------
  

 Cite this work as:
 Gaussian 16, Revision C.01,
 M. J. Frisch, G. W. Trucks, H. B. Schlegel, G. E. Scuseria, 
 M. A. Robb, J. R. Cheeseman, G. Scalmani, V. Barone, 
 G. A. Petersson, H. Nakatsuji, X. Li, M. Caricato, A. V. Marenich, 
 J. Bloino, B. G. Janesko, R. Gomperts, B. Mennucci, H. P. Hratchian, 
 J. V. Ortiz, A. F. Izmaylov, J. L. Sonnenberg, D. Williams-Young, 
 F. Ding, F. Lipparini, F. Egidi, J. Goings, B. Peng, A. Petrone, 
 T. Henderson, D. Ranasinghe, V. G. Zakrzewski, J. Gao, N. Rega, 
 G. Zheng, W. Liang, M. Hada, M. Ehara, K. Toyota, R. Fukuda, 
 J. Hasegawa, M. Ishida, T. Nakajima, Y. Honda, O. Kitao, H. Nakai, 
 T. Vreven, K. Throssell, J. A. Montgomery, Jr., J. E. Peralta, 
 F. Ogliaro, M. J. Bearpark, J. J. Heyd, E. N. Brothers, K. N. Kudin, 
 V. N. Staroverov, T. A. Keith, R. Kobayashi, J. Normand, 
 K. Raghavachari, A. P. Rendell, J. C. Burant, S. S. Iyengar, 
 J. Tomasi, M. Cossi, J. M. Millam, M. Klene, C. Adamo, R. Cammi, 
 J. W. Ochterski, R. L. Martin, K. Morokuma, O. Farkas, 
 J. B. Foresman, and D. J. Fox, Gaussian, Inc., Wallingford CT, 2019.
 
 ******************************************
 Gaussian 16:  ES64L-G16RevC.01  3-Jul-2019
                 2-Aug-2022 
 ******************************************
 %NProcShared=48
 Will use up to   48 processors via shared memory.
 %mem = 190GB
 ---------------------------------------------------------------
 #n M062X/6-311++G(d,p) TD(NStates=1) EmpiricalDispersion=GD3 SP
 ---------------------------------------------------------------
 1/38=1,172=1/1;
 2/12=2,17=6,18=5,40=1/2;
 3/5=4,6=6,7=1111,11=9,25=1,30=1,74=-55,124=31/1,2,3,8;
 4//1;
 5/5=2,38=5/2;
 8/6=1,10=2,108=1/1;
 9/41=1,42=1,70=2/14;
 6/7=2,8=2,9=2,10=2/1;
 99/5=1,9=1/99;
 ------
 SP_-12
 ------
 Symbolic Z-matrix:
 Charge =  1 Multiplicity = 1
 C                     0.        2.60666   1.37243 
 C                     0.        3.88151   0.86999 
 C                     0.        3.82186  -0.41983 
 C                     0.        2.29516  -1.29954 
 C                     0.       -2.77516  -1.49154 
 C                     0.       -3.60586  -0.80383 
 C                     0.       -3.44951   0.67799 
 C                     0.       -2.22266   1.37243 
 C                     0.        0.096     1.36337 
 C                     0.       -0.348    -1.51919 
 C                     0.        1.13605   0.46707 
 C                     0.        1.14147  -0.7968 
 C                     0.       -1.35206   0.73107 
 C                     0.       -1.35747  -0.8208 
 H                     0.        2.37407   2.45565 
 H                     0.        4.78675   1.45169 
 H                     0.        4.68126  -1.09235 
 H                     0.        2.52155  -2.38206 
 H                     0.       -0.3      -2.60627 
 H                     0.       -2.73755  -2.57406 
 H                     0.       -4.65726  -1.14035 
 H                     0.       -4.35475   1.28369 
 H                     0.       -2.25407   2.45565 
 H                    -0.85959   0.528     2.05579 
 H                     0.85959   0.528     2.05579 
 
                          Input orientation:                          
 ---------------------------------------------------------------------
 Center     Atomic      Atomic             Coordinates (Angstroms)
 Number     Number       Type             X           Y           Z
 ---------------------------------------------------------------------
      1          6           0        0.000000    2.606655    1.372431
      2          6           0        0.000000    3.881508    0.869989
      3          6           0        0.000000    3.821861   -0.419830
      4          6           0        0.000000    2.295156   -1.299538
      5          6           0        0.000000   -2.775156   -1.491538
      6          6           0        0.000000   -3.605861   -0.803830
      7          6           0        0.000000   -3.449508    0.677989
      8          6           0        0.000000   -2.222655    1.372431
      9          6           0        0.000000    0.096000    1.363369
     10          6           0        0.000000   -0.348000   -1.519189
     11          6           0        0.000000    1.136055    0.467065
     12          6           0        0.000000    1.141471   -0.796804
     13          6           0        0.000000   -1.352055    0.731065
     14          6           0        0.000000   -1.357471   -0.820804
     15          1           0        0.000000    2.374071    2.455647
     16          1           0        0.000000    4.786753    1.451689
     17          1           0        0.000000    4.681262   -1.092349
     18          1           0        0.000000    2.521550   -2.382059
     19          1           0        0.000000   -0.300000   -2.606266
     20          1           0        0.000000   -2.737550   -2.574059
     21          1           0        0.000000   -4.657262   -1.140349
     22          1           0        0.000000   -4.354753    1.283689
     23          1           0        0.000000   -2.254071    2.455647
     24          1           0       -0.859585    0.528000    2.055787
     25          1           0        0.859585    0.528000    2.055787
 ---------------------------------------------------------------------
                    Distance matrix (angstroms):
                    1          2          3          4          5
     1  C    0.000000
     2  C    1.370291   0.000000
     3  C    2.165393   1.291197   0.000000
     4  C    2.690065   2.687631   1.762020   0.000000
     5  C    6.096409   7.063143   6.683501   5.073946   0.000000
     6  C    6.582664   7.672181   7.437641   5.921801   1.078431
     7  C    6.095848   7.333530   7.353775   6.075506   2.271915
     8  C    4.829310   6.124806   6.304631   5.248813   2.916775
     9  C    2.510671   3.817525   4.130598   3.453601   4.048954
    10  C    4.134181   4.857665   4.312346   2.652267   2.427313
    11  C    1.726949   2.774862   2.828451   2.112913   4.374208
    12  C    2.617698   3.207180   2.706769   1.258464   3.977766
    13  C    4.010329   5.235407   5.300374   4.174386   2.639163
    14  C    4.530406   5.505060   5.194830   3.683866   1.568348
    15  H    1.107904   2.187848   3.219389   3.756014   6.488051
    16  H    2.181538   1.076031   2.105612   3.711779   8.114496
    17  H    3.221666   2.119051   1.091262   2.395084   7.467096
    18  H    3.755454   3.524954   2.353965   1.105941   5.371045
    19  H    4.927339   5.437771   4.665859   2.905576   2.714593
    20  H    6.643441   7.461461   6.904098   5.191583   1.083174
    21  H    7.686257   8.772232   8.509681   6.954240   1.914590
    22  H    6.961974   8.246644   8.352185   7.134028   3.193276
    23  H    4.979961   6.337163   6.722003   5.898888   3.981432
    24  H    2.350887   3.659374   4.209167   3.888436   4.922727
    25  H    2.350887   3.659374   4.209167   3.888436   4.922727
                    6          7          8          9         10
     6  C    0.000000
     7  C    1.490045   0.000000
     8  C    2.578637   1.409758   0.000000
     9  C    4.289583   3.611146   2.318673   0.000000
    10  C    3.335475   3.800913   3.446128   2.916552   0.000000
    11  C    4.909271   4.590411   3.478595   1.372980   2.479440
    12  C    4.747337   4.822043   4.002865   2.399866   1.655404
    13  C    2.726819   2.098124   1.081339   1.580086   2.464096
    14  C    2.248454   2.573519   2.357716   2.623583   1.227507
    15  H    6.810564   6.088854   4.722631   2.526396   4.817571
    16  H    8.690416   8.272521   7.009856   4.691584   5.932268
    17  H    8.292144   8.321269   7.330703   5.201459   5.047343
    18  H    6.327399   6.709503   6.050097   4.462233   2.996475
    19  H    3.765301   4.550355   4.418895   3.989338   1.088136
    20  H    1.971719   3.329069   3.979937   4.851015   2.612030
    21  H    1.103943   2.182893   3.498768   5.372346   4.325882
    22  H    2.217786   1.089193   2.133944   4.451466   4.889805
    23  H    3.528672   2.142227   1.083671   2.591506   4.408223
    24  H    5.099520   4.296252   2.961750   1.185307   3.779777
    25  H    5.099520   4.296252   2.961750   1.185307   3.779777
                   11         12         13         14         15
    11  C    0.000000
    12  C    1.263881   0.000000
    13  C    2.502077   2.924390   0.000000
    14  C    2.806471   2.499057   1.551878   0.000000
    15  H    2.342465   3.478181   4.105874   4.965837   0.000000
    16  H    3.781148   4.282966   6.180960   6.551009   2.613229
    17  H    3.873018   3.552107   6.302837   6.044835   4.232187
    18  H    3.168139   2.101821   4.969543   4.181426   4.839953
    19  H    3.392288   2.313437   3.499228   2.075119   5.724825
    20  H    4.924759   4.266783   3.583775   2.231260   7.171235
    21  H    6.012179   5.808901   3.798234   3.315227   7.897521
    22  H    5.551202   5.876813   3.053128   3.662320   6.830121
    23  H    3.930320   4.701930   1.946231   3.396914   4.628142
    24  H    1.905952   3.041794   2.455276   3.545231   2.075272
    25  H    1.905952   3.041794   2.455276   3.545231   2.075272
                   16         17         18         19         20
    16  H    0.000000
    17  H    2.546224   0.000000
    18  H    4.452951   2.515494   0.000000
    19  H    6.507077   5.206238   2.830444   0.000000
    20  H    8.533568   7.565331   5.262604   2.437763   0.000000
    21  H    9.793267   9.338647   7.285409   4.597243   2.396001
    22  H    9.143050   9.343186   7.792384   5.618965   4.183009
    23  H    7.112041   7.790194   6.797790   5.425989   5.052890
    24  H    4.386433   5.281972   4.940405   4.812402   5.730460
    25  H    4.386433   5.281972   4.940405   4.812402   5.730460
                   21         22         23         24         25
    21  H    0.000000
    22  H    2.442841   0.000000
    23  H    4.325103   2.405483   0.000000
    24  H    6.151513   5.017599   2.939165   0.000000
    25  H    6.151513   5.017599   2.939165   1.719170   0.000000
 Stoichiometry    C14H11(1+)
 Framework group  CS[SG(C14H9),X(H2)]
 Deg. of freedom    46
 Full point group                 CS      NOp   2
 Largest Abelian subgroup         CS      NOp   2
 Largest concise Abelian subgroup CS      NOp   2
                         Standard orientation:                         
 ---------------------------------------------------------------------
 Center     Atomic      Atomic             Coordinates (Angstroms)
 Number     Number       Type             X           Y           Z
 ---------------------------------------------------------------------
      1          6           0        0.278802    2.928740    0.000000
      2          6           0       -0.670290    3.917134    0.000000
      3          6           0       -1.840746    3.371953    0.000000
      4          6           0       -2.074500    1.625507    0.000000
      5          6           0       -0.325880   -3.137607    0.000000
      6          6           0        0.625856   -3.644769    0.000000
      7          6           0        1.937178   -2.937191    0.000000
      8          6           0        2.113471   -1.538499    0.000000
      9          6           0        1.224225    0.602876    0.000000
     10          6           0       -1.273541   -0.902928    0.000000
     11          6           0       -0.000000    1.224446    0.000000
     12          6           0       -1.171170    0.749308    0.000000
     13          6           0        1.189447   -0.976828    0.000000
     14          6           0       -0.244015   -1.571397    0.000000
     15          1           0        1.369165    3.125111    0.000000
     16          1           0       -0.476107    4.975499    0.000000
     17          1           0       -2.789333    3.911430    0.000000
     18          1           0       -3.161868    1.423675    0.000000
     19          1           0       -2.297351   -1.271510    0.000000
     20          1           0       -1.341527   -3.514073    0.000000
     21          1           0        0.713997   -4.745187    0.000000
     22          1           0        2.841372   -3.544459    0.000000
     23          1           0        3.127409   -1.156043    0.000000
     24          1           0        1.700612    1.265539    0.859585
     25          1           0        1.700612    1.265539   -0.859585
 ---------------------------------------------------------------------
 Rotational constants (GHZ):           2.1485168           0.4413935           0.3669596
 Standard basis: 6-311++G(d,p) (5D, 7F)
 There are   299 symmetry adapted cartesian basis functions of A'  symmetry.
 There are   100 symmetry adapted cartesian basis functions of A"  symmetry.
 There are   285 symmetry adapted basis functions of A'  symmetry.
 There are   100 symmetry adapted basis functions of A"  symmetry.
   385 basis functions,   603 primitive gaussians,   399 cartesian basis functions
    47 alpha electrons       47 beta electrons
       nuclear repulsion energy       785.4530208082 Hartrees.
 NAtoms=   25 NActive=   25 NUniq=   24 SFac= 1.09D+00 NAtFMM=   60 NAOKFM=F Big=F
 Integral buffers will be    131072 words long.
 Regular integral format.
 Two-electron integral symmetry is turned on.
 Nuclear repulsion after empirical dispersion term =      785.4520677177 Hartrees.
 One-electron integrals computed using PRISM.
 NBasis=   385 RedAO= T EigKep=  1.01D-06  NBF=   285   100
 NBsUse=   379 1.00D-06 EigRej=  7.21D-07 NBFU=   279   100
 ExpMin= 3.60D-02 ExpMax= 4.56D+03 ExpMxC= 6.82D+02 IAcc=3 IRadAn=         5 AccDes= 0.00D+00
 Harris functional with IExCor= 1009 and IRadAn=       5 diagonalized for initial guess.
 HarFok:  IExCor= 1009 AccDes= 0.00D+00 IRadAn=         5 IDoV= 1 UseB2=F ITyADJ=14
 ICtDFT=  3500011 ScaDFX=  1.000000  1.000000  1.000000  1.000000
 FoFCou: FMM=F IPFlag=           0 FMFlag=      100000 FMFlg1=           0
         NFxFlg=           0 DoJE=T BraDBF=F KetDBF=T FulRan=T
         wScrn=  0.000000 ICntrl=       500 IOpCl=  0 I1Cent=   200000004 NGrid=           0
         NMat0=    1 NMatS0=      1 NMatT0=    0 NMatD0=    1 NMtDS0=    0 NMtDT0=    0
 Petite list used in FoFCou.
 Initial guess orbital symmetries:
       Occupied  (A') (A') (A') (A') (A') (A') (A') (A') (A') (A')
                 (A') (A') (A') (A') (A') (A') (A') (A') (A') (A')
                 (A') (A') (A') (A') (A') (A') (A') (A') (A') (A')
                 (A') (A') (A") (A') (A') (A") (A') (A") (A') (A')
                 (A') (A") (A") (A') (A") (A') (A")
       Virtual   (A") (A") (A") (A") (A') (A") (A') (A') (A') (A')
                 (A') (A") (A') (A') (A") (A') (A') (A") (A') (A')
                 (A') (A') (A") (A') (A') (A") (A') (A") (A') (A")
                 (A') (A') (A') (A') (A") (A') (A') (A') (A") (A')
                 (A") (A') (A") (A') (A') (A') (A') (A') (A') (A')
                 (A") (A') (A") (A") (A') (A') (A') (A") (A") (A')
                 (A') (A') (A') (A') (A") (A') (A') (A') (A") (A')
                 (A') (A') (A') (A') (A') (A') (A') (A') (A') (A')
                 (A') (A') (A') (A') (A') (A') (A') (A') (A') (A')
                 (A') (A') (A') (A") (A') (A') (A") (A') (A") (A')
                 (A') (A") (A') (A') (A") (A") (A') (A") (A') (A')
                 (A") (A") (A') (A") (A') (A") (A') (A') (A') (A")
                 (A") (A') (A') (A") (A') (A') (A") (A') (A') (A')
                 (A') (A') (A') (A') (A') (A') (A') (A') (A") (A')
                 (A') (A') (A') (A') (A") (A') (A') (A') (A') (A')
                 (A') (A") (A") (A') (A") (A') (A') (A') (A") (A")
                 (A') (A") (A') (A") (A") (A') (A") (A') (A') (A')
                 (A") (A') (A') (A') (A') (A') (A') (A") (A") (A')
                 (A') (A") (A') (A") (A') (A') (A") (A") (A') (A')
                 (A") (A') (A") (A') (A') (A') (A") (A') (A') (A")
                 (A') (A") (A") (A') (A") (A") (A') (A') (A') (A")
                 (A') (A') (A') (A") (A') (A') (A') (A") (A') (A")
                 (A') (A') (A") (A') (A") (A') (A') (A') (A") (A')
                 (A") (A') (A") (A') (A') (A") (A') (A") (A') (A")
                 (A') (A') (A') (A') (A') (A") (A') (A') (A') (A")
                 (A') (A') (A') (A") (A") (A') (A') (A") (A') (A")
                 (A') (A') (A") (A') (A') (A') (A") (A') (A") (A')
                 (A') (A') (A") (A') (A") (A') (A') (A') (A") (A')
                 (A') (A") (A') (A") (A') (A") (A") (A') (A') (A')
                 (A') (A') (A') (A') (A') (A') (A') (A') (A') (A")
                 (A') (A') (A') (A') (A') (A') (A') (A') (A') (A')
                 (A') (A') (A') (A') (A') (A') (A') (A') (A') (A')
                 (A') (A') (A') (A') (A') (A') (A') (A') (A') (A')
                 (A') (A')
 The electronic state of the initial guess is 1-A'.
 Requested convergence on RMS density matrix=1.00D-08 within 128 cycles.
 Requested convergence on MAX density matrix=1.00D-06.
 Requested convergence on             energy=1.00D-06.
 No special actions if energy rises.
 SCF Done:  E(RM062X) =  -539.173062170     A.U. after   17 cycles
            NFock= 17  Conv=0.44D-08     -V/T= 1.9989
 DoSCS=F DFT=T ScalE2(SS,OS)=  1.000000  1.000000
 ExpMin= 3.60D-02 ExpMax= 4.56D+03 ExpMxC= 6.82D+02 IAcc=3 IRadAn=         5 AccDes= 0.00D+00
 HarFok:  IExCor=  205 AccDes= 0.00D+00 IRadAn=         5 IDoV=-2 UseB2=F ITyADJ=14
 ICtDFT= 12500011 ScaDFX=  1.000000  1.000000  1.000000  1.000000
 Range of M.O.s used for correlation:    15   379
 NBasis=   385 NAE=    47 NBE=    47 NFC=    14 NFV=     0
 NROrb=    365 NOA=    33 NOB=    33 NVA=   332 NVB=   332

 **** Warning!!: The largest alpha MO coefficient is  0.19768994D+03


 **** Warning!!: The smallest alpha delta epsilon is  0.88626658D-01

 Orbital symmetries:
       Occupied  (A') (A') (A') (A') (A') (A') (A') (A') (A') (A')
                 (A') (A') (A') (A') (A') (A') (A') (A') (A') (A')
                 (A') (A') (A') (A') (A') (A') (A') (A') (A') (A')
                 (A') (A") (A') (A') (A') (A") (A') (A') (A") (A')
                 (A') (A") (A") (A') (A") (A') (A")
       Virtual   (A") (A") (A") (A') (A') (A') (A") (A') (A') (A")
                 (A') (A") (A') (A') (A") (A') (A") (A') (A') (A')
                 (A') (A") (A") (A') (A') (A') (A') (A') (A') (A")
                 (A") (A') (A") (A') (A') (A') (A") (A') (A') (A")
                 (A') (A") (A') (A') (A') (A") (A') (A") (A') (A")
                 (A') (A') (A') (A") (A') (A') (A') (A") (A') (A')
                 (A') (A') (A") (A') (A') (A') (A") (A') (A') (A')
                 (A') (A') (A') (A') (A') (A') (A') (A') (A') (A')
                 (A') (A') (A') (A') (A') (A') (A') (A') (A') (A')
                 (A") (A') (A') (A') (A") (A') (A') (A') (A") (A')
                 (A") (A') (A') (A") (A') (A') (A") (A") (A") (A')
                 (A") (A') (A') (A") (A') (A') (A") (A") (A") (A')
                 (A') (A') (A") (A') (A") (A') (A') (A') (A') (A')
                 (A') (A') (A') (A') (A') (A') (A') (A') (A') (A')
                 (A') (A') (A') (A') (A") (A') (A') (A') (A") (A')
                 (A') (A') (A') (A") (A') (A") (A") (A') (A') (A")
                 (A") (A') (A") (A') (A') (A") (A") (A") (A') (A')
                 (A") (A') (A') (A') (A') (A') (A') (A") (A') (A")
                 (A') (A") (A') (A") (A') (A") (A') (A") (A') (A")
                 (A') (A") (A') (A') (A") (A') (A') (A') (A") (A')
                 (A') (A") (A") (A') (A") (A') (A") (A') (A') (A")
                 (A') (A') (A') (A') (A") (A') (A') (A") (A') (A')
                 (A") (A') (A") (A') (A") (A') (A') (A") (A') (A')
                 (A") (A') (A") (A') (A') (A') (A") (A") (A') (A")
                 (A') (A') (A') (A') (A") (A') (A') (A') (A') (A")
                 (A') (A') (A') (A') (A') (A") (A') (A") (A') (A')
                 (A') (A') (A") (A') (A") (A') (A') (A') (A') (A')
                 (A") (A") (A') (A") (A") (A') (A") (A') (A") (A')
                 (A') (A") (A') (A") (A') (A") (A") (A') (A') (A')
                 (A') (A') (A') (A') (A') (A') (A') (A') (A") (A')
                 (A') (A') (A') (A') (A') (A') (A') (A') (A') (A')
                 (A') (A') (A') (A') (A') (A') (A') (A') (A') (A')
                 (A') (A') (A') (A') (A') (A') (A') (A') (A') (A')
                 (A') (A')
     4 initial guesses have been made.
 Convergence on wavefunction:    0.001000000000000
 Iteration     1 Dimension     4 NMult     0 NNew      4
 CISAX will form     4 AO SS matrices at one time.
 Iteration     2 Dimension     6 NMult     4 NNew      2
 Iteration     3 Dimension     8 NMult     6 NNew      2
 Iteration     4 Dimension    10 NMult     8 NNew      2
 Iteration     5 Dimension    12 NMult    10 NNew      2
 Iteration     6 Dimension    14 NMult    12 NNew      2
 ***********************************************************************
 Excited states from <AA,BB:AA,BB> singles matrix:
 ***********************************************************************
 
 Ground to excited state transition densities written to RWF  633
 Ground to excited state transition electric dipole moments (Au):
       state          X           Y           Z        Dip. S.      Osc.
         1        -0.5573      1.8270      0.0000      3.6486      0.0996
 Ground to excited state transition velocity dipole moments (Au):
       state          X           Y           Z        Dip. S.      Osc.
         1         0.0164     -0.0713     -0.0000      0.0054      0.0872
 Ground to excited state transition magnetic dipole moments (Au):
       state          X           Y           Z
         1        -0.0000     -0.0000     -0.4730
 Ground to excited state transition velocity quadrupole moments (Au):
       state          XX          YY          ZZ          XY          XZ          YZ
         1         0.0214      0.0313     -0.0050     -0.0569     -0.0000     -0.0000
 <0|del|b> * <b|rxdel|0> + <0|del|b> * <b|delr+rdel|0>
 Rotatory Strengths (R) in cgs (10**-40 erg-esu-cm/Gauss)
       state          XX          YY          ZZ    R(velocity)    E-M Angle
         1         0.0000      0.0000      0.0000      0.0000       90.00
 1/2[<0|r|b>*<b|rxdel|0> + (<0|rxdel|b>*<b|r|0>)*]
 Rotatory Strengths (R) in cgs (10**-40 erg-esu-cm/Gauss)
       state          XX          YY          ZZ     R(length)
         1        -0.0000      0.0000      0.0000      0.0000
  1/2[<0|del|b>*<b|r|0> + (<0|r|b>*<b|del|0>)*] (Au)
       state          X           Y           Z        Dip. S.   Osc.(frdel)
         1        -0.0091     -0.1303     -0.0000      0.1394      0.0929

 Excitation energies and oscillator strengths:
 
 Excited State   1:      Singlet-A'     1.1144 eV 1112.52 nm  f=0.0996  <S**2>=0.000
      47 -> 48         0.71652
      47 <- 48        -0.15653
 This state for optimization and/or second-order correction.
 Total Energy, E(TD-HF/TD-DFT) =  -539.132107051    
 Copying the excited state density for this state as the 1-particle RhoCI density.
 SavETr:  write IOETrn=   770 NScale= 10 NData=  16 NLR=1 NState=    1 LETran=      28.

 **********************************************************************

            Population analysis using the SCF Density.

 **********************************************************************

 Orbital symmetries:
       Occupied  (A') (A') (A') (A') (A') (A') (A') (A') (A') (A')
                 (A') (A') (A') (A') (A') (A') (A') (A') (A') (A')
                 (A') (A') (A') (A') (A') (A') (A') (A') (A') (A')
                 (A') (A") (A') (A') (A') (A") (A') (A') (A") (A')
                 (A') (A") (A") (A') (A") (A') (A")
       Virtual   (A") (A") (A") (A') (A') (A') (A") (A') (A') (A")
                 (A') (A") (A') (A') (A") (A') (A") (A') (A') (A')
                 (A') (A") (A") (A') (A') (A') (A') (A') (A') (A")
                 (A") (A') (A") (A') (A') (A') (A") (A') (A') (A")
                 (A') (A") (A') (A') (A') (A") (A') (A") (A') (A")
                 (A') (A') (A') (A") (A') (A') (A') (A") (A') (A')
                 (A') (A') (A") (A') (A') (A') (A") (A') (A') (A')
                 (A') (A') (A') (A') (A') (A') (A') (A') (A') (A')
                 (A') (A') (A') (A') (A') (A') (A') (A') (A') (A')
                 (A") (A') (A') (A') (A") (A') (A') (A') (A") (A')
                 (A") (A') (A') (A") (A') (A') (A") (A") (A") (A')
                 (A") (A') (A') (A") (A') (A') (A") (A") (A") (A')
                 (A') (A') (A") (A') (A") (A') (A') (A') (A') (A')
                 (A') (A') (A') (A') (A') (A') (A') (A') (A') (A')
                 (A') (A') (A') (A') (A") (A') (A') (A') (A") (A')
                 (A') (A') (A') (A") (A') (A") (A") (A') (A') (A")
                 (A") (A') (A") (A') (A') (A") (A") (A") (A') (A')
                 (A") (A') (A') (A') (A') (A') (A') (A") (A') (A")
                 (A') (A") (A') (A") (A') (A") (A') (A") (A') (A")
                 (A') (A") (A') (A') (A") (A') (A') (A') (A") (A')
                 (A') (A") (A") (A') (A") (A') (A") (A') (A') (A")
                 (A') (A') (A') (A') (A") (A') (A') (A") (A') (A')
                 (A") (A') (A") (A') (A") (A') (A') (A") (A') (A')
                 (A") (A') (A") (A') (A') (A') (A") (A") (A') (A")
                 (A') (A') (A') (A') (A") (A') (A') (A') (A') (A")
                 (A') (A') (A') (A') (A') (A") (A') (A") (A') (A')
                 (A') (A') (A") (A') (A") (A') (A') (A') (A') (A')
                 (A") (A") (A') (A") (A") (A') (A") (A') (A") (A')
                 (A') (A") (A') (A") (A') (A") (A") (A') (A') (A')
                 (A') (A') (A') (A') (A') (A') (A') (A') (A") (A')
                 (A') (A') (A') (A') (A') (A') (A') (A') (A') (A')
                 (A') (A') (A') (A') (A') (A') (A') (A') (A') (A')
                 (A') (A') (A') (A') (A') (A') (A') (A') (A') (A')
                 (A') (A')
 The electronic state is 1-A'.
 Alpha  occ. eigenvalues --  -10.78023 -10.73827 -10.72964 -10.72371 -10.71635
 Alpha  occ. eigenvalues --  -10.70981 -10.70438 -10.70194 -10.69628 -10.69156
 Alpha  occ. eigenvalues --  -10.69111 -10.68855 -10.68486 -10.66839  -1.20457
 Alpha  occ. eigenvalues --   -1.13581  -1.12263  -1.06768  -1.03658  -1.02089
 Alpha  occ. eigenvalues --   -0.95717  -0.87859  -0.85980  -0.84571  -0.83214
 Alpha  occ. eigenvalues --   -0.77719  -0.76266  -0.74317  -0.73183  -0.69971
 Alpha  occ. eigenvalues --   -0.69360  -0.68601  -0.66947  -0.64398  -0.63828
 Alpha  occ. eigenvalues --   -0.63550  -0.62699  -0.59352  -0.58520  -0.56473
 Alpha  occ. eigenvalues --   -0.54994  -0.54935  -0.52718  -0.51701  -0.48497
 Alpha  occ. eigenvalues --   -0.47929  -0.35923
 Alpha virt. eigenvalues --   -0.27061  -0.16397  -0.12068  -0.11540  -0.10295
 Alpha virt. eigenvalues --   -0.09795  -0.09263  -0.07901  -0.07651  -0.07408
 Alpha virt. eigenvalues --   -0.07327  -0.06034  -0.05886  -0.05546  -0.05436
 Alpha virt. eigenvalues --   -0.04768  -0.04041  -0.03692  -0.03337  -0.02510
 Alpha virt. eigenvalues --   -0.01981  -0.01857  -0.01025  -0.00534   0.00175
 Alpha virt. eigenvalues --    0.00288   0.00985   0.01298   0.01533   0.01549
 Alpha virt. eigenvalues --    0.02242   0.02437   0.02805   0.02992   0.03205
 Alpha virt. eigenvalues --    0.03658   0.03851   0.03924   0.05117   0.05218
 Alpha virt. eigenvalues --    0.05592   0.05718   0.05781   0.06176   0.07024
 Alpha virt. eigenvalues --    0.07565   0.07665   0.07752   0.07946   0.08377
 Alpha virt. eigenvalues --    0.08512   0.08934   0.09251   0.09729   0.09816
 Alpha virt. eigenvalues --    0.09967   0.11131   0.11148   0.11250   0.12204
 Alpha virt. eigenvalues --    0.12664   0.12734   0.13514   0.13580   0.14150
 Alpha virt. eigenvalues --    0.14644   0.15793   0.16852   0.17152   0.17335
 Alpha virt. eigenvalues --    0.17839   0.18349   0.19777   0.20549   0.20887
 Alpha virt. eigenvalues --    0.21481   0.22191   0.22789   0.23594   0.24538
 Alpha virt. eigenvalues --    0.24819   0.25530   0.26244   0.27179   0.28721
 Alpha virt. eigenvalues --    0.29477   0.30310   0.31285   0.31836   0.34995
 Alpha virt. eigenvalues --    0.37484   0.37767   0.38294   0.39069   0.39117
 Alpha virt. eigenvalues --    0.40573   0.41505   0.42564   0.43110   0.44308
 Alpha virt. eigenvalues --    0.44434   0.44925   0.45528   0.46188   0.47704
 Alpha virt. eigenvalues --    0.48016   0.48318   0.48930   0.51006   0.51243
 Alpha virt. eigenvalues --    0.52152   0.52328   0.52524   0.53591   0.54821
 Alpha virt. eigenvalues --    0.55252   0.55313   0.58720   0.58883   0.59207
 Alpha virt. eigenvalues --    0.59595   0.61747   0.62393   0.62511   0.63607
 Alpha virt. eigenvalues --    0.64712   0.65140   0.66754   0.66983   0.67209
 Alpha virt. eigenvalues --    0.70006   0.72337   0.73098   0.73704   0.74433
 Alpha virt. eigenvalues --    0.75335   0.75843   0.76571   0.77327   0.78003
 Alpha virt. eigenvalues --    0.78758   0.80322   0.81725   0.81873   0.82105
 Alpha virt. eigenvalues --    0.82269   0.83261   0.84419   0.84879   0.86203
 Alpha virt. eigenvalues --    0.87700   0.89101   0.90335   0.90936   0.93637
 Alpha virt. eigenvalues --    0.94553   0.95246   0.96240   0.98921   0.99113
 Alpha virt. eigenvalues --    1.01618   1.02449   1.03622   1.03908   1.06356
 Alpha virt. eigenvalues --    1.06523   1.07786   1.08458   1.08637   1.12445
 Alpha virt. eigenvalues --    1.15713   1.16371   1.17590   1.19419   1.26858
 Alpha virt. eigenvalues --    1.28933   1.30415   1.33343   1.34755   1.36651
 Alpha virt. eigenvalues --    1.37076   1.38309   1.39087   1.40123   1.40997
 Alpha virt. eigenvalues --    1.44697   1.46370   1.46863   1.47438   1.50204
 Alpha virt. eigenvalues --    1.50594   1.53367   1.53475   1.55155   1.56066
 Alpha virt. eigenvalues --    1.56750   1.57195   1.59286   1.60131   1.60741
 Alpha virt. eigenvalues --    1.62894   1.64068   1.64375   1.66821   1.68507
 Alpha virt. eigenvalues --    1.70180   1.70691   1.72878   1.73529   1.74957
 Alpha virt. eigenvalues --    1.75839   1.77437   1.77704   1.79499   1.80033
 Alpha virt. eigenvalues --    1.83202   1.83783   1.83936   1.85480   1.86883
 Alpha virt. eigenvalues --    1.87837   1.88756   1.89886   1.92822   1.94368
 Alpha virt. eigenvalues --    1.96306   1.97224   1.99185   2.00398   2.02183
 Alpha virt. eigenvalues --    2.03088   2.07026   2.11160   2.12234   2.15127
 Alpha virt. eigenvalues --    2.16393   2.17430   2.19268   2.20487   2.22556
 Alpha virt. eigenvalues --    2.23901   2.28438   2.28731   2.31681   2.32892
 Alpha virt. eigenvalues --    2.35489   2.36708   2.39057   2.41945   2.42272
 Alpha virt. eigenvalues --    2.42302   2.44369   2.49363   2.52961   2.55496
 Alpha virt. eigenvalues --    2.57543   2.57832   2.59369   2.59713   2.61167
 Alpha virt. eigenvalues --    2.62534   2.64170   2.64236   2.64656   2.65629
 Alpha virt. eigenvalues --    2.65720   2.65957   2.67447   2.68696   2.69932
 Alpha virt. eigenvalues --    2.70172   2.73698   2.74007   2.74455   2.76936
 Alpha virt. eigenvalues --    2.77137   2.78091   2.78461   2.85054   2.85075
 Alpha virt. eigenvalues --    2.85505   2.90344   2.92648   2.92930   2.93111
 Alpha virt. eigenvalues --    2.98928   3.01077   3.03296   3.05408   3.09134
 Alpha virt. eigenvalues --    3.10741   3.15998   3.18245   3.27116   3.29765
 Alpha virt. eigenvalues --    3.30934   3.37106   3.41417   3.45285   3.52032
 Alpha virt. eigenvalues --    3.55801   3.60828   3.63430   3.70329   3.71838
 Alpha virt. eigenvalues --    3.73173   3.75829   3.80209   3.84275   3.89373
 Alpha virt. eigenvalues --    3.95085   4.02120   4.03931   4.17548   4.24708
 Alpha virt. eigenvalues --    4.27622   4.44449   4.47862  23.40766  23.48282
 Alpha virt. eigenvalues --   23.52379  23.55772  23.57742  23.82802  23.93957
 Alpha virt. eigenvalues --   23.95323  24.25907  24.39508  24.61291  24.62964
 Alpha virt. eigenvalues --   25.37339  25.39369
          Condensed to atoms (all electrons):
               1          2          3          4          5          6
     1  C   13.105327  -4.189566   1.103050   2.236752  -0.223276  -0.156260
     2  C   -4.189566  11.153066  -1.537864  -1.398910   0.206797  -0.003006
     3  C    1.103050  -1.537864   6.977100   1.217679  -0.128816   0.004939
     4  C    2.236752  -1.398910   1.217679   8.179433   0.162506  -0.044242
     5  C   -0.223276   0.206797  -0.128816   0.162506  11.160705   0.920362
     6  C   -0.156260  -0.003006   0.004939  -0.044242   0.920362   6.886236
     7  C   -0.005847  -0.046036  -0.008372  -0.172497  -1.356692   0.890624
     8  C    0.189354  -0.249330  -0.013535  -0.109063  -0.375655  -0.471606
     9  C   -1.164162  -0.993272   0.119232  -0.904223   1.390796  -0.105947
    10  C   -0.909724   0.856155  -0.659965  -0.790379  -1.445688   0.206860
    11  C   -1.248256   0.036864   0.354218  -0.910988  -0.417027  -0.494034
    12  C   -3.012103   3.007030  -1.231576  -0.542560  -1.714693   0.208117
    13  C    0.272865  -1.020495   0.217211  -1.631470   0.092151  -0.018754
    14  C   -0.660526   0.567578  -0.504972   0.581603  -2.560537  -1.762075
    15  H    0.398232  -0.227508   0.052424   0.020859  -0.011416   0.000548
    16  H   -0.001146   0.347204  -0.005261  -0.005236   0.001121  -0.000080
    17  H   -0.069006   0.047644   0.352348  -0.035139  -0.001008   0.000045
    18  H    0.084458  -0.031860  -0.046894   0.393387   0.008319  -0.004584
    19  H   -0.039490  -0.010125   0.033447  -0.059897  -0.161625   0.026879
    20  H    0.005325   0.002407  -0.002843   0.009712   0.532183  -0.032526
    21  H   -0.002391  -0.000049   0.000273  -0.000733  -0.033626   0.390174
    22  H    0.003999   0.000169  -0.000340  -0.001943   0.020457  -0.034465
    23  H    0.000480  -0.005212   0.002879   0.003697  -0.005030  -0.003333
    24  H   -0.034840   0.012830  -0.006179  -0.026245   0.001188  -0.000951
    25  H   -0.034840   0.012830  -0.006179  -0.026245   0.001188  -0.000951
               7          8          9         10         11         12
     1  C   -0.005847   0.189354  -1.164162  -0.909724  -1.248256  -3.012103
     2  C   -0.046036  -0.249330  -0.993272   0.856155   0.036864   3.007030
     3  C   -0.008372  -0.013535   0.119232  -0.659965   0.354218  -1.231576
     4  C   -0.172497  -0.109063  -0.904223  -0.790379  -0.910988  -0.542560
     5  C   -1.356692  -0.375655   1.390796  -1.445688  -0.417027  -1.714693
     6  C    0.890624  -0.471606  -0.105947   0.206860  -0.494034   0.208117
     7  C    8.916162   1.236703  -2.010394  -0.272385  -0.562448  -0.573834
     8  C    1.236703   7.276423  -1.137356  -0.292271  -0.310617  -1.098454
     9  C   -2.010394  -1.137356  11.190971   0.000775   0.482351   0.123219
    10  C   -0.272385  -0.292271   0.000775   7.811663  -0.945072   1.216924
    11  C   -0.562448  -0.310617   0.482351  -0.945072  11.309080   0.874382
    12  C   -0.573834  -1.098454   0.123219   1.216924   0.874382  11.391538
    13  C   -0.524258   1.529022   1.239604  -0.546172  -1.174951  -2.609057
    14  C    0.703337  -0.610221  -2.802052   1.497250  -1.096383  -0.472640
    15  H    0.006073   0.026826   0.169006  -0.025043  -0.101134  -0.095827
    16  H   -0.000298  -0.001209  -0.007871   0.004041   0.010961   0.006906
    17  H   -0.000238  -0.001010  -0.006284   0.001764   0.016112   0.044477
    18  H    0.000286   0.000088  -0.021973   0.022159   0.050516  -0.124904
    19  H    0.000197   0.007463   0.038696   0.394676   0.064388   0.153027
    20  H    0.007308   0.011060  -0.000819  -0.017450   0.004804  -0.091417
    21  H   -0.032780   0.002538   0.006304   0.008946  -0.010203   0.005821
    22  H    0.372180  -0.014560  -0.014028  -0.021899   0.007544  -0.019694
    23  H   -0.084509   0.382349   0.058705   0.011491  -0.035239   0.010141
    24  H    0.013104   0.043439   0.384809   0.007786  -0.068624  -0.021593
    25  H    0.013104   0.043439   0.384809   0.007786  -0.068624  -0.021593
              13         14         15         16         17         18
     1  C    0.272865  -0.660526   0.398232  -0.001146  -0.069006   0.084458
     2  C   -1.020495   0.567578  -0.227508   0.347204   0.047644  -0.031860
     3  C    0.217211  -0.504972   0.052424  -0.005261   0.352348  -0.046894
     4  C   -1.631470   0.581603   0.020859  -0.005236  -0.035139   0.393387
     5  C    0.092151  -2.560537  -0.011416   0.001121  -0.001008   0.008319
     6  C   -0.018754  -1.762075   0.000548  -0.000080   0.000045  -0.004584
     7  C   -0.524258   0.703337   0.006073  -0.000298  -0.000238   0.000286
     8  C    1.529022  -0.610221   0.026826  -0.001209  -0.001010   0.000088
     9  C    1.239604  -2.802052   0.169006  -0.007871  -0.006284  -0.021973
    10  C   -0.546172   1.497250  -0.025043   0.004041   0.001764   0.022159
    11  C   -1.174951  -1.096383  -0.101134   0.010961   0.016112   0.050516
    12  C   -2.609057  -0.472640  -0.095827   0.006906   0.044477  -0.124904
    13  C   15.964081  -5.255283   0.084597  -0.009012  -0.001583  -0.013742
    14  C   -5.255283  18.140916  -0.023143   0.005080  -0.003786   0.019435
    15  H    0.084597  -0.023143   0.494107  -0.005270   0.000162  -0.001529
    16  H   -0.009012   0.005080  -0.005270   0.417439  -0.001232   0.001451
    17  H   -0.001583  -0.003786   0.000162  -0.001232   0.425936  -0.003259
    18  H   -0.013742   0.019435  -0.001529   0.001451  -0.003259   0.455054
    19  H    0.107016  -0.201554   0.000393  -0.000242   0.000132  -0.009761
    20  H    0.017098  -0.091551  -0.000169   0.000015  -0.000046   0.001021
    21  H    0.021487  -0.018385  -0.000027  -0.000002   0.000003  -0.000203
    22  H    0.040637  -0.006724  -0.000158   0.000005  -0.000005   0.000040
    23  H   -0.053401   0.054408   0.001064  -0.000166   0.000050  -0.000300
    24  H    0.066413  -0.037823  -0.000550   0.000591  -0.000031   0.000500
    25  H    0.066413  -0.037823  -0.000550   0.000591  -0.000031   0.000500
              19         20         21         22         23         24
     1  C   -0.039490   0.005325  -0.002391   0.003999   0.000480  -0.034840
     2  C   -0.010125   0.002407  -0.000049   0.000169  -0.005212   0.012830
     3  C    0.033447  -0.002843   0.000273  -0.000340   0.002879  -0.006179
     4  C   -0.059897   0.009712  -0.000733  -0.001943   0.003697  -0.026245
     5  C   -0.161625   0.532183  -0.033626   0.020457  -0.005030   0.001188
     6  C    0.026879  -0.032526   0.390174  -0.034465  -0.003333  -0.000951
     7  C    0.000197   0.007308  -0.032780   0.372180  -0.084509   0.013104
     8  C    0.007463   0.011060   0.002538  -0.014560   0.382349   0.043439
     9  C    0.038696  -0.000819   0.006304  -0.014028   0.058705   0.384809
    10  C    0.394676  -0.017450   0.008946  -0.021899   0.011491   0.007786
    11  C    0.064388   0.004804  -0.010203   0.007544  -0.035239  -0.068624
    12  C    0.153027  -0.091417   0.005821  -0.019694   0.010141  -0.021593
    13  C    0.107016   0.017098   0.021487   0.040637  -0.053401   0.066413
    14  C   -0.201554  -0.091551  -0.018385  -0.006724   0.054408  -0.037823
    15  H    0.000393  -0.000169  -0.000027  -0.000158   0.001064  -0.000550
    16  H   -0.000242   0.000015  -0.000002   0.000005  -0.000166   0.000591
    17  H    0.000132  -0.000046   0.000003  -0.000005   0.000050  -0.000031
    18  H   -0.009761   0.001021  -0.000203   0.000040  -0.000300   0.000500
    19  H    0.476308  -0.005647   0.002523  -0.000439   0.001073   0.000606
    20  H   -0.005647   0.434203  -0.012008   0.002704  -0.000245   0.000113
    21  H    0.002523  -0.012008   0.417918  -0.005780   0.001340  -0.000070
    22  H   -0.000439   0.002704  -0.005780   0.392675  -0.002599   0.000571
    23  H    0.001073  -0.000245   0.001340  -0.002599   0.423542  -0.000793
    24  H    0.000606   0.000113  -0.000070   0.000571  -0.000793   0.464983
    25  H    0.000606   0.000113  -0.000070   0.000571  -0.000793  -0.066011
              25
     1  C   -0.034840
     2  C    0.012830
     3  C   -0.006179
     4  C   -0.026245
     5  C    0.001188
     6  C   -0.000951
     7  C    0.013104
     8  C    0.043439
     9  C    0.384809
    10  C    0.007786
    11  C   -0.068624
    12  C   -0.021593
    13  C    0.066413
    14  C   -0.037823
    15  H   -0.000550
    16  H    0.000591
    17  H   -0.000031
    18  H    0.000500
    19  H    0.000606
    20  H    0.000113
    21  H   -0.000070
    22  H    0.000571
    23  H   -0.000793
    24  H   -0.066011
    25  H    0.464983
 Mulliken charges:
               1
     1  C    0.351595
     2  C   -0.537340
     3  C   -0.282006
     4  C   -0.145856
     5  C   -0.062683
     6  C   -0.401968
     7  C   -0.508490
     8  C   -0.063815
     9  C   -0.420894
    10  C   -0.122226
    11  C    0.232381
    12  C    0.588362
    13  C   -0.860418
    14  C    0.575871
    15  H    0.238035
    16  H    0.241621
    17  H    0.233984
    18  H    0.221797
    19  H    0.181352
    20  H    0.226655
    21  H    0.259000
    22  H    0.281086
    23  H    0.240402
    24  H    0.266778
    25  H    0.266778
 Sum of Mulliken charges =   1.00000
 Mulliken charges with hydrogens summed into heavy atoms:
               1
     1  C    0.589630
     2  C   -0.295719
     3  C   -0.048022
     4  C    0.075941
     5  C    0.163971
     6  C   -0.142968
     7  C   -0.227404
     8  C    0.176587
     9  C    0.112662
    10  C    0.059126
    11  C    0.232381
    12  C    0.588362
    13  C   -0.860418
    14  C    0.575871
 Electronic spatial extent (au):  <R**2>=           2865.7225
 Charge=              1.0000 electrons
 Dipole moment (field-independent basis, Debye):
    X=              2.7339    Y=             -3.9367    Z=             -0.0000  Tot=              4.7928
 Quadrupole moment (field-independent basis, Debye-Ang):
   XX=            -54.2134   YY=            -29.3424   ZZ=            -83.2748
   XY=             -8.7934   XZ=             -0.0000   YZ=             -0.0000
 Traceless Quadrupole moment (field-independent basis, Debye-Ang):
   XX=              1.3968   YY=             26.2678   ZZ=            -27.6646
   XY=             -8.7934   XZ=             -0.0000   YZ=             -0.0000
 Octapole moment (field-independent basis, Debye-Ang**2):
  XXX=             15.2701  YYY=            -25.9868  ZZZ=             -0.0000  XYY=             12.6386
  XXY=            -21.3034  XXZ=             -0.0000  XZZ=              6.5003  YZZ=             -7.2843
  YYZ=             -0.0000  XYZ=             -0.0000
 Hexadecapole moment (field-independent basis, Debye-Ang**3):
 XXXX=           -790.1556 YYYY=          -1971.1367 ZZZZ=            -97.7629 XXXY=            258.5906
 XXXZ=             -0.0000 YYYX=            186.9418 YYYZ=             -0.0000 ZZZX=             -0.0000
 ZZZY=             -0.0000 XXYY=           -471.9741 XXZZ=           -192.3431 YYZZ=           -538.9453
 XXYZ=             -0.0000 YYXZ=             -0.0000 ZZXY=            134.9460
 N-N= 7.854520677177D+02 E-N=-2.808432120310D+03  KE= 5.397638843191D+02
 Symmetry A'   KE= 5.245797752725D+02
 Symmetry A"   KE= 1.518410904659D+01
 Unable to Open any file for archive entry.
 1\1\GINC-GADI-CPU-CLX-2808\SP\RM062X TD-FC\6-311++G(d,p)\C14H11(1+)\TS
 1578\02-Aug-2022\0\\#n M062X/6-311++G(d,p) TD(NStates=1) EmpiricalDisp
 ersion=GD3 SP\\SP_-12\\1,1\C,0,0.,2.606655,1.372431\C,0,0.,3.881508,0.
 869989\C,0,0.,3.821861,-0.41983\C,0,0.,2.295156,-1.299538\C,0,0.,-2.77
 5156,-1.491538\C,0,0.,-3.605861,-0.80383\C,0,0.,-3.449508,0.677989\C,0
 ,0.,-2.222655,1.372431\C,0,0.,0.096,1.363369\C,0,0.,-0.348,-1.519189\C
 ,0,0.,1.136055,0.467065\C,0,0.,1.141471,-0.796804\C,0,0.,-1.352055,0.7
 31065\C,0,0.,-1.357471,-0.820804\H,0,0.,2.374071,2.455647\H,0,0.,4.786
 753,1.451689\H,0,0.,4.681262,-1.092349\H,0,0.,2.52155,-2.382059\H,0,0.
 ,-0.3,-2.606266\H,0,0.,-2.73755,-2.574059\H,0,0.,-4.657262,-1.140349\H
 ,0,0.,-4.354753,1.283689\H,0,0.,-2.254071,2.455647\H,0,-0.859585,0.528
 ,2.055787\H,0,0.859585,0.528,2.055787\\Version=ES64L-G16RevC.01\State=
 1-A'\HF=-539.1730622\RMSD=4.432e-09\PG=CS [SG(C14H9),X(H2)]\\@
 The archive entry for this job was punched.


 Cherishing children is the mark of a civilized society.
 -- Joan Ganz Cooney
 Job cpu time:       0 days  0 hours 54 minutes 29.1 seconds.
 Elapsed time:       0 days  0 hours  1 minutes  8.2 seconds.
 File lengths (MBytes):  RWF=    460 Int=      0 D2E=      0 Chk=     15 Scr=      1
 Normal termination of Gaussian 16 at Tue Aug  2 11:54:56 2022.
