 Entering Gaussian System, Link 0=g16
 Initial command:
 /apps/gaussian/g16c01/g16/l1.exe "/jobfs/53803424.gadi-pbs/Gau-1804160.inp" -scrdir="/jobfs/53803424.gadi-pbs/"
 Entering Link 1 = /apps/gaussian/g16c01/g16/l1.exe PID=   1804161.
  
 Copyright (c) 1988-2019, Gaussian, Inc.  All Rights Reserved.
  
 This is part of the Gaussian(R) 16 program.  It is based on
 the Gaussian(R) 09 system (copyright 2009, Gaussian, Inc.),
 the Gaussian(R) 03 system (copyright 2003, Gaussian, Inc.),
 the Gaussian(R) 98 system (copyright 1998, Gaussian, Inc.),
 the Gaussian(R) 94 system (copyright 1995, Gaussian, Inc.),
 the Gaussian 92(TM) system (copyright 1992, Gaussian, Inc.),
 the Gaussian 90(TM) system (copyright 1990, Gaussian, Inc.),
 the Gaussian 88(TM) system (copyright 1988, Gaussian, Inc.),
 the Gaussian 86(TM) system (copyright 1986, Carnegie Mellon
 University), and the Gaussian 82(TM) system (copyright 1983,
 Carnegie Mellon University). Gaussian is a federally registered
 trademark of Gaussian, Inc.
  
 This software contains proprietary and confidential information,
 including trade secrets, belonging to Gaussian, Inc.
  
 This software is provided under written license and may be
 used, copied, transmitted, or stored only in accord with that
 written license.
  
 The following legend is applicable only to US Government
 contracts under FAR:
  
                    RESTRICTED RIGHTS LEGEND
  
 Use, reproduction and disclosure by the US Government is
 subject to restrictions as set forth in subparagraphs (a)
 and (c) of the Commercial Computer Software - Restricted
 Rights clause in FAR 52.227-19.
  
 Gaussian, Inc.
 340 Quinnipiac St., Bldg. 40, Wallingford CT 06492
  
  
 ---------------------------------------------------------------
 Warning -- This program may not be used in any manner that
 competes with the business of Gaussian, Inc. or will provide
 assistance to any competitor of Gaussian, Inc.  The licensee
 of this program is prohibited from giving any competitor of
 Gaussian, Inc. access to this program.  By using this program,
 the user acknowledges that Gaussian, Inc. is engaged in the
 business of creating and licensing software in the field of
 computational chemistry and represents and warrants to the
 licensee that it is not a competitor of Gaussian, Inc. and that
 it will not use this program in any manner prohibited above.
 ---------------------------------------------------------------
  

 Cite this work as:
 Gaussian 16, Revision C.01,
 M. J. Frisch, G. W. Trucks, H. B. Schlegel, G. E. Scuseria, 
 M. A. Robb, J. R. Cheeseman, G. Scalmani, V. Barone, 
 G. A. Petersson, H. Nakatsuji, X. Li, M. Caricato, A. V. Marenich, 
 J. Bloino, B. G. Janesko, R. Gomperts, B. Mennucci, H. P. Hratchian, 
 J. V. Ortiz, A. F. Izmaylov, J. L. Sonnenberg, D. Williams-Young, 
 F. Ding, F. Lipparini, F. Egidi, J. Goings, B. Peng, A. Petrone, 
 T. Henderson, D. Ranasinghe, V. G. Zakrzewski, J. Gao, N. Rega, 
 G. Zheng, W. Liang, M. Hada, M. Ehara, K. Toyota, R. Fukuda, 
 J. Hasegawa, M. Ishida, T. Nakajima, Y. Honda, O. Kitao, H. Nakai, 
 T. Vreven, K. Throssell, J. A. Montgomery, Jr., J. E. Peralta, 
 F. Ogliaro, M. J. Bearpark, J. J. Heyd, E. N. Brothers, K. N. Kudin, 
 V. N. Staroverov, T. A. Keith, R. Kobayashi, J. Normand, 
 K. Raghavachari, A. P. Rendell, J. C. Burant, S. S. Iyengar, 
 J. Tomasi, M. Cossi, J. M. Millam, M. Klene, C. Adamo, R. Cammi, 
 J. W. Ochterski, R. L. Martin, K. Morokuma, O. Farkas, 
 J. B. Foresman, and D. J. Fox, Gaussian, Inc., Wallingford CT, 2019.
 
 ******************************************
 Gaussian 16:  ES64L-G16RevC.01  3-Jul-2019
                 2-Aug-2022 
 ******************************************
 %NProcShared=48
 Will use up to   48 processors via shared memory.
 %mem = 190GB
 ---------------------------------------------------------------
 #n M062X/6-311++G(d,p) TD(NStates=1) EmpiricalDispersion=GD3 SP
 ---------------------------------------------------------------
 1/38=1,172=1/1;
 2/12=2,17=6,18=5,40=1/2;
 3/5=4,6=6,7=1111,11=9,25=1,30=1,74=-55,124=31/1,2,3,8;
 4//1;
 5/5=2,38=5/2;
 8/6=1,10=2,108=1/1;
 9/41=1,42=1,70=2/14;
 6/7=2,8=2,9=2,10=2/1;
 99/5=1,9=1/99;
 ------
 SP_-12
 ------
 Symbolic Z-matrix:
 Charge =  1 Multiplicity = 1
 C                     0.        2.63266   1.36843 
 C                     0.        3.89351   0.83599 
 C                     0.        3.81186  -0.45383 
 C                     0.        2.27116  -1.30354 
 C                     0.       -2.75116  -1.49554 
 C                     0.       -3.59586  -0.83783 
 C                     0.       -3.46151   0.64399 
 C                     0.       -2.24866   1.36843 
 C                     0.        0.096     1.39337 
 C                     0.       -0.348    -1.48919 
 C                     0.        1.14206   0.49307 
 C                     0.        1.13747  -0.7708 
 C                     0.       -1.35806   0.75707 
 C                     0.       -1.35347  -0.7948 
 H                     0.        2.43207   2.45165 
 H                     0.        4.80875   1.39969 
 H                     0.        4.66126  -1.14435 
 H                     0.        2.46755  -2.38606 
 H                     0.       -0.3      -2.57427 
 H                     0.       -2.68355  -2.57806 
 H                     0.       -4.63726  -1.19235 
 H                     0.       -4.37675   1.23169 
 H                     0.       -2.31207   2.45165 
 H                    -0.85959   0.528     2.08579 
 H                     0.85959   0.528     2.08579 
 
                          Input orientation:                          
 ---------------------------------------------------------------------
 Center     Atomic      Atomic             Coordinates (Angstroms)
 Number     Number       Type             X           Y           Z
 ---------------------------------------------------------------------
      1          6           0        0.000000    2.632655    1.368431
      2          6           0        0.000000    3.893508    0.835989
      3          6           0        0.000000    3.811861   -0.453830
      4          6           0        0.000000    2.271156   -1.303538
      5          6           0        0.000000   -2.751156   -1.495538
      6          6           0        0.000000   -3.595861   -0.837830
      7          6           0        0.000000   -3.461508    0.643989
      8          6           0        0.000000   -2.248655    1.368431
      9          6           0        0.000000    0.096000    1.393369
     10          6           0        0.000000   -0.348000   -1.489189
     11          6           0        0.000000    1.142055    0.493065
     12          6           0        0.000000    1.137471   -0.770804
     13          6           0        0.000000   -1.358055    0.757065
     14          6           0        0.000000   -1.353471   -0.794804
     15          1           0        0.000000    2.432071    2.451647
     16          1           0        0.000000    4.808753    1.399689
     17          1           0        0.000000    4.661262   -1.144349
     18          1           0        0.000000    2.467550   -2.386059
     19          1           0        0.000000   -0.300000   -2.574266
     20          1           0        0.000000   -2.683550   -2.578059
     21          1           0        0.000000   -4.637262   -1.192349
     22          1           0        0.000000   -4.376753    1.231689
     23          1           0        0.000000   -2.312071    2.451647
     24          1           0       -0.859585    0.528000    2.085787
     25          1           0        0.859585    0.528000    2.085787
 ---------------------------------------------------------------------
                    Distance matrix (angstroms):
                    1          2          3          4          5
     1  C    0.000000
     2  C    1.368665   0.000000
     3  C    2.170521   1.292401   0.000000
     4  C    2.696312   2.685070   1.759482   0.000000
     5  C    6.098175   7.041845   6.645175   5.025981   0.000000
     6  C    6.607723   7.674133   7.417668   5.885471   1.070564
     7  C    6.137071   7.357522   7.355753   6.054444   2.254368
     8  C    4.881310   6.165198   6.328546   5.250534   2.907718
     9  C    2.536778   3.838195   4.149671   3.464767   4.056116
    10  C    4.129200   4.837028   4.286772   2.625727   2.403164
    11  C    1.728628   2.772741   2.832750   2.121945   4.371685
    12  C    2.609962   3.190223   2.693109   1.252616   3.955586
    13  C    4.037268   5.252156   5.309830   4.173399   2.648575
    14  C    4.535282   5.494568   5.176574   3.660155   1.563506
    15  H    1.101631   2.178566   3.216460   3.758631   6.515068
    16  H    2.176322   1.074910   2.104596   3.707672   8.095342
    17  H    3.229444   2.123955   1.094668   2.395401   7.420733
    18  H    3.758119   3.523485   2.353865   1.100192   5.294140
    19  H    4.913789   5.405122   4.626408   2.868029   2.678025
    20  H    6.620938   7.410359   6.833938   5.116006   1.084630
    21  H    7.707742   8.768591   8.481338   6.909313   1.910319
    22  H    7.010742   8.279722   8.360285   7.114919   3.174954
    23  H    5.061983   6.412454   6.778225   5.925148   3.971532
    24  H    2.383917   3.691548   4.239373   3.907045   4.931292
    25  H    2.383917   3.691548   4.239373   3.907045   4.931292
                    6          7          8          9         10
     6  C    0.000000
     7  C    1.487897   0.000000
     8  C    2.585063   1.412738   0.000000
     9  C    4.313709   3.635579   2.344788   0.000000
    10  C    3.312532   3.774173   3.431979   2.916552   0.000000
    11  C    4.921293   4.606036   3.501882   1.380137   2.479838
    12  C    4.733807   4.811678   4.005268   2.401730   1.650061
    13  C    2.747993   2.106490   1.080248   1.587186   2.462898
    14  C    2.242803   2.552243   2.341141   2.624703   1.221942
    15  H    6.867068   6.164568   4.804431   2.564601   4.822757
    16  H    8.697358   8.304715   7.057477   4.712757   5.910814
    17  H    8.262810   8.317304   7.352620   5.223182   5.021117
    18  H    6.257952   6.658447   6.028166   4.461875   2.954945
    19  H    3.725307   4.511352   4.397967   3.987348   1.086138
    20  H    1.964869   3.314636   3.970380   4.847488   2.576904
    21  H    1.100091   2.180490   3.501862   5.393487   4.299521
    22  H    2.211945   1.087688   2.132487   4.475674   4.861484
    23  H    3.531115   2.142156   1.085071   2.630353   4.403154
    24  H    5.127636   4.328261   2.993877   1.185307   3.779777
    25  H    5.127636   4.328261   2.993877   1.185307   3.779777
                   11         12         13         14         15
    11  C    0.000000
    12  C    1.263877   0.000000
    13  C    2.514010   2.926095   0.000000
    14  C    2.808248   2.491058   1.551876   0.000000
    15  H    2.345247   3.472777   4.151706   4.986960   0.000000
    16  H    3.777121   4.264898   6.200201   6.541315   2.599083
    17  H    3.881487   3.543535   6.312492   6.024881   4.230896
    18  H    3.169589   2.092405   4.951210   4.139118   4.837836
    19  H    3.389401   2.306252   3.495318   2.067918   5.720491
    20  H    4.905819   4.226863   3.588870   2.224659   7.174087
    21  H    6.020060   5.790099   3.814894   3.307767   7.953249
    22  H    5.568016   5.866570   3.055782   3.639630   6.917252
    23  H    3.970772   4.720543   1.944673   3.385020   4.744142
    24  H    1.911207   3.044742   2.462030   3.546354   2.120902
    25  H    1.911207   3.044742   2.462030   3.546354   2.120902
                   16         17         18         19         20
    16  H    0.000000
    17  H    2.548310   0.000000
    18  H    4.451193   2.520757   0.000000
    19  H    6.472378   5.163214   2.773942   0.000000
    20  H    8.482752   7.483434   5.154677   2.383553   0.000000
    21  H    9.795196   9.298648   7.204394   4.552091   2.395242
    22  H    9.187042   9.345120   7.741614   5.577204   4.169067
    23  H    7.198107   7.845926   6.800601   5.413708   5.043406
    24  H    4.419781   5.315686   4.949560   4.810464   5.727512
    25  H    4.419781   5.315686   4.949560   4.810464   5.727512
                   21         22         23         24         25
    21  H    0.000000
    22  H    2.437996   0.000000
    23  H    4.322640   2.398168   0.000000
    24  H    6.177782   5.052224   2.989773   0.000000
    25  H    6.177782   5.052224   2.989773   1.719170   0.000000
 Stoichiometry    C14H11(1+)
 Framework group  CS[SG(C14H9),X(H2)]
 Deg. of freedom    46
 Full point group                 CS      NOp   2
 Largest Abelian subgroup         CS      NOp   2
 Largest concise Abelian subgroup CS      NOp   2
                         Standard orientation:                         
 ---------------------------------------------------------------------
 Center     Atomic      Atomic             Coordinates (Angstroms)
 Number     Number       Type             X           Y           Z
 ---------------------------------------------------------------------
      1          6           0        0.212568    2.955823    0.000000
      2          6           0       -0.776175    3.902202    0.000000
      3          6           0       -1.927892    3.315816    0.000000
      4          6           0       -2.097037    1.564484    0.000000
      5          6           0       -0.281883   -3.122274    0.000000
      6          6           0        0.656849   -3.636947    0.000000
      7          6           0        1.963929   -2.926045    0.000000
      8          6           0        2.148074   -1.525360    0.000000
      9          6           0        1.241280    0.636989    0.000000
     10          6           0       -1.228939   -0.913590    0.000000
     11          6           0        0.000000    1.240315    0.000000
     12          6           0       -1.158450    0.734965    0.000000
     13          6           0        1.233688   -0.950179    0.000000
     14          6           0       -0.192790   -1.561308    0.000000
     15          1           0        1.286525    3.201191    0.000000
     16          1           0       -0.621589    4.965938    0.000000
     17          1           0       -2.898607    3.821791    0.000000
     18          1           0       -3.168696    1.315545    0.000000
     19          1           0       -2.244103   -1.299772    0.000000
     20          1           0       -1.302475   -3.489444    0.000000
     21          1           0        0.744320   -4.733555    0.000000
     22          1           0        2.866362   -3.533235    0.000000
     23          1           0        3.167643   -1.154068    0.000000
     24          1           0        1.705646    1.308131    0.859585
     25          1           0        1.705646    1.308131   -0.859585
 ---------------------------------------------------------------------
 Rotational constants (GHZ):           2.1521893           0.4411973           0.3669309
 Standard basis: 6-311++G(d,p) (5D, 7F)
 There are   299 symmetry adapted cartesian basis functions of A'  symmetry.
 There are   100 symmetry adapted cartesian basis functions of A"  symmetry.
 There are   285 symmetry adapted basis functions of A'  symmetry.
 There are   100 symmetry adapted basis functions of A"  symmetry.
   385 basis functions,   603 primitive gaussians,   399 cartesian basis functions
    47 alpha electrons       47 beta electrons
       nuclear repulsion energy       785.7365124340 Hartrees.
 NAtoms=   25 NActive=   25 NUniq=   24 SFac= 1.09D+00 NAtFMM=   60 NAOKFM=F Big=F
 Integral buffers will be    131072 words long.
 Regular integral format.
 Two-electron integral symmetry is turned on.
 Nuclear repulsion after empirical dispersion term =      785.7355589608 Hartrees.
 One-electron integrals computed using PRISM.
 NBasis=   385 RedAO= T EigKep=  1.07D-06  NBF=   285   100
 NBsUse=   379 1.00D-06 EigRej=  6.99D-07 NBFU=   279   100
 ExpMin= 3.60D-02 ExpMax= 4.56D+03 ExpMxC= 6.82D+02 IAcc=3 IRadAn=         5 AccDes= 0.00D+00
 Harris functional with IExCor= 1009 and IRadAn=       5 diagonalized for initial guess.
 HarFok:  IExCor= 1009 AccDes= 0.00D+00 IRadAn=         5 IDoV= 1 UseB2=F ITyADJ=14
 ICtDFT=  3500011 ScaDFX=  1.000000  1.000000  1.000000  1.000000
 FoFCou: FMM=F IPFlag=           0 FMFlag=      100000 FMFlg1=           0
         NFxFlg=           0 DoJE=T BraDBF=F KetDBF=T FulRan=T
         wScrn=  0.000000 ICntrl=       500 IOpCl=  0 I1Cent=   200000004 NGrid=           0
         NMat0=    1 NMatS0=      1 NMatT0=    0 NMatD0=    1 NMtDS0=    0 NMtDT0=    0
 Petite list used in FoFCou.
 Initial guess orbital symmetries:
       Occupied  (A') (A') (A') (A') (A') (A') (A') (A') (A') (A')
                 (A') (A') (A') (A') (A') (A') (A') (A') (A') (A')
                 (A') (A') (A') (A') (A') (A') (A') (A') (A') (A')
                 (A') (A') (A") (A') (A') (A") (A') (A") (A') (A')
                 (A') (A") (A") (A') (A") (A') (A")
       Virtual   (A") (A") (A") (A") (A') (A") (A') (A') (A') (A')
                 (A') (A") (A') (A') (A") (A') (A') (A") (A') (A')
                 (A') (A') (A") (A') (A') (A") (A') (A") (A') (A")
                 (A') (A') (A') (A') (A") (A') (A') (A') (A") (A')
                 (A") (A') (A") (A') (A') (A') (A') (A') (A') (A')
                 (A") (A') (A") (A") (A') (A') (A') (A") (A") (A')
                 (A') (A') (A') (A') (A") (A') (A') (A') (A") (A')
                 (A') (A') (A') (A') (A') (A') (A') (A') (A') (A')
                 (A') (A') (A') (A') (A') (A') (A') (A') (A') (A')
                 (A') (A') (A') (A") (A') (A") (A') (A') (A") (A')
                 (A') (A") (A') (A') (A") (A") (A') (A") (A') (A')
                 (A") (A") (A') (A") (A') (A") (A') (A') (A') (A")
                 (A") (A') (A') (A') (A") (A') (A") (A') (A') (A')
                 (A') (A') (A') (A') (A') (A') (A') (A') (A") (A')
                 (A') (A') (A') (A') (A") (A') (A') (A') (A') (A')
                 (A') (A") (A") (A') (A") (A') (A') (A') (A") (A")
                 (A') (A") (A') (A") (A") (A') (A") (A') (A') (A')
                 (A") (A') (A') (A') (A') (A') (A') (A") (A') (A")
                 (A') (A") (A') (A") (A') (A') (A") (A") (A') (A')
                 (A") (A') (A") (A') (A') (A') (A") (A') (A') (A")
                 (A") (A') (A") (A') (A") (A") (A') (A') (A') (A")
                 (A') (A') (A') (A") (A') (A') (A') (A") (A') (A")
                 (A') (A') (A") (A') (A") (A') (A') (A') (A") (A')
                 (A") (A') (A") (A') (A') (A") (A') (A") (A') (A")
                 (A') (A') (A') (A') (A') (A") (A') (A') (A') (A")
                 (A') (A') (A') (A") (A") (A') (A') (A") (A') (A")
                 (A') (A') (A") (A') (A') (A') (A') (A") (A") (A')
                 (A') (A") (A') (A') (A") (A') (A') (A') (A") (A')
                 (A') (A") (A") (A') (A') (A") (A") (A') (A') (A')
                 (A') (A') (A') (A') (A') (A') (A') (A') (A') (A")
                 (A') (A') (A') (A') (A') (A') (A') (A') (A') (A')
                 (A') (A') (A') (A') (A') (A') (A') (A') (A') (A')
                 (A') (A') (A') (A') (A') (A') (A') (A') (A') (A')
                 (A') (A')
 The electronic state of the initial guess is 1-A'.
 Requested convergence on RMS density matrix=1.00D-08 within 128 cycles.
 Requested convergence on MAX density matrix=1.00D-06.
 Requested convergence on             energy=1.00D-06.
 No special actions if energy rises.
 SCF Done:  E(RM062X) =  -539.165680788     A.U. after   17 cycles
            NFock= 17  Conv=0.49D-08     -V/T= 1.9987
 DoSCS=F DFT=T ScalE2(SS,OS)=  1.000000  1.000000
 ExpMin= 3.60D-02 ExpMax= 4.56D+03 ExpMxC= 6.82D+02 IAcc=3 IRadAn=         5 AccDes= 0.00D+00
 HarFok:  IExCor=  205 AccDes= 0.00D+00 IRadAn=         5 IDoV=-2 UseB2=F ITyADJ=14
 ICtDFT= 12500011 ScaDFX=  1.000000  1.000000  1.000000  1.000000
 Range of M.O.s used for correlation:    15   379
 NBasis=   385 NAE=    47 NBE=    47 NFC=    14 NFV=     0
 NROrb=    365 NOA=    33 NOB=    33 NVA=   332 NVB=   332

 **** Warning!!: The largest alpha MO coefficient is  0.21342996D+03


 **** Warning!!: The smallest alpha delta epsilon is  0.88068129D-01

 Orbital symmetries:
       Occupied  (A') (A') (A') (A') (A') (A') (A') (A') (A') (A')
                 (A') (A') (A') (A') (A') (A') (A') (A') (A') (A')
                 (A') (A') (A') (A') (A') (A') (A') (A') (A') (A')
                 (A') (A") (A') (A') (A') (A") (A') (A') (A") (A')
                 (A") (A') (A") (A') (A") (A') (A")
       Virtual   (A") (A") (A") (A') (A') (A') (A") (A') (A') (A")
                 (A') (A") (A') (A') (A") (A') (A") (A') (A') (A')
                 (A') (A") (A") (A') (A') (A') (A') (A') (A') (A")
                 (A") (A') (A") (A') (A') (A') (A') (A") (A') (A")
                 (A') (A") (A') (A') (A') (A") (A') (A") (A') (A")
                 (A') (A') (A') (A') (A") (A') (A') (A") (A') (A')
                 (A') (A') (A') (A") (A') (A') (A") (A') (A') (A')
                 (A') (A') (A') (A') (A') (A') (A') (A') (A') (A')
                 (A') (A') (A') (A') (A') (A') (A') (A') (A') (A')
                 (A") (A') (A') (A") (A') (A') (A') (A') (A") (A')
                 (A") (A') (A') (A") (A') (A') (A") (A") (A") (A')
                 (A') (A") (A') (A") (A') (A') (A") (A") (A") (A')
                 (A') (A') (A') (A") (A") (A') (A') (A') (A') (A')
                 (A') (A') (A') (A') (A') (A') (A') (A') (A') (A')
                 (A') (A') (A') (A') (A") (A') (A') (A') (A") (A')
                 (A') (A') (A') (A") (A') (A") (A") (A') (A") (A')
                 (A") (A') (A") (A') (A') (A") (A") (A") (A') (A')
                 (A") (A') (A') (A') (A') (A') (A') (A") (A') (A")
                 (A') (A") (A') (A") (A') (A") (A') (A") (A') (A')
                 (A") (A") (A') (A') (A") (A') (A') (A') (A") (A')
                 (A') (A") (A") (A') (A") (A') (A") (A') (A') (A")
                 (A') (A') (A') (A') (A") (A') (A') (A") (A') (A')
                 (A") (A') (A") (A') (A") (A') (A') (A") (A') (A')
                 (A") (A') (A") (A') (A') (A') (A") (A") (A') (A")
                 (A') (A') (A') (A') (A") (A') (A') (A') (A') (A")
                 (A') (A') (A') (A') (A') (A") (A') (A") (A') (A')
                 (A') (A') (A") (A') (A") (A') (A') (A') (A') (A')
                 (A") (A') (A") (A") (A") (A') (A") (A') (A") (A')
                 (A') (A") (A") (A') (A') (A") (A") (A') (A') (A')
                 (A') (A') (A') (A') (A') (A') (A') (A') (A") (A')
                 (A') (A') (A') (A') (A') (A') (A') (A') (A') (A')
                 (A') (A') (A') (A') (A') (A') (A') (A') (A') (A')
                 (A') (A') (A') (A') (A') (A') (A') (A') (A') (A')
                 (A') (A')
     4 initial guesses have been made.
 Convergence on wavefunction:    0.001000000000000
 Iteration     1 Dimension     4 NMult     0 NNew      4
 CISAX will form     4 AO SS matrices at one time.
 Iteration     2 Dimension     6 NMult     4 NNew      2
 Iteration     3 Dimension     8 NMult     6 NNew      2
 Iteration     4 Dimension    10 NMult     8 NNew      2
 Iteration     5 Dimension    12 NMult    10 NNew      2
 Iteration     6 Dimension    14 NMult    12 NNew      2
 ***********************************************************************
 Excited states from <AA,BB:AA,BB> singles matrix:
 ***********************************************************************
 
 Ground to excited state transition densities written to RWF  633
 Ground to excited state transition electric dipole moments (Au):
       state          X           Y           Z        Dip. S.      Osc.
         1        -0.5729      1.7813     -0.0000      3.5012      0.0933
 Ground to excited state transition velocity dipole moments (Au):
       state          X           Y           Z        Dip. S.      Osc.
         1         0.0167     -0.0681      0.0000      0.0049      0.0819
 Ground to excited state transition magnetic dipole moments (Au):
       state          X           Y           Z
         1         0.0000      0.0000     -0.4562
 Ground to excited state transition velocity quadrupole moments (Au):
       state          XX          YY          ZZ          XY          XZ          YZ
         1         0.0205      0.0298     -0.0049     -0.0564      0.0000      0.0000
 <0|del|b> * <b|rxdel|0> + <0|del|b> * <b|delr+rdel|0>
 Rotatory Strengths (R) in cgs (10**-40 erg-esu-cm/Gauss)
       state          XX          YY          ZZ    R(velocity)    E-M Angle
         1        -0.0000     -0.0000     -0.0000     -0.0000       90.00
 1/2[<0|r|b>*<b|rxdel|0> + (<0|rxdel|b>*<b|r|0>)*]
 Rotatory Strengths (R) in cgs (10**-40 erg-esu-cm/Gauss)
       state          XX          YY          ZZ     R(length)
         1         0.0000     -0.0000     -0.0000     -0.0000
  1/2[<0|del|b>*<b|r|0> + (<0|r|b>*<b|del|0>)*] (Au)
       state          X           Y           Z        Dip. S.   Osc.(frdel)
         1        -0.0096     -0.1213     -0.0000      0.1308      0.0872

 Excitation energies and oscillator strengths:
 
 Excited State   1:      Singlet-A'     1.0880 eV 1139.56 nm  f=0.0933  <S**2>=0.000
      47 -> 48         0.71618
      47 <- 48        -0.15229
 This state for optimization and/or second-order correction.
 Total Energy, E(TD-HF/TD-DFT) =  -539.125697667    
 Copying the excited state density for this state as the 1-particle RhoCI density.
 SavETr:  write IOETrn=   770 NScale= 10 NData=  16 NLR=1 NState=    1 LETran=      28.

 **********************************************************************

            Population analysis using the SCF Density.

 **********************************************************************

 Orbital symmetries:
       Occupied  (A') (A') (A') (A') (A') (A') (A') (A') (A') (A')
                 (A') (A') (A') (A') (A') (A') (A') (A') (A') (A')
                 (A') (A') (A') (A') (A') (A') (A') (A') (A') (A')
                 (A') (A") (A') (A') (A') (A") (A') (A') (A") (A')
                 (A") (A') (A") (A') (A") (A') (A")
       Virtual   (A") (A") (A") (A') (A') (A') (A") (A') (A') (A")
                 (A') (A") (A') (A') (A") (A') (A") (A') (A') (A')
                 (A') (A") (A") (A') (A') (A') (A') (A') (A') (A")
                 (A") (A') (A") (A') (A') (A') (A') (A") (A') (A")
                 (A') (A") (A') (A') (A') (A") (A') (A") (A') (A")
                 (A') (A') (A') (A') (A") (A') (A') (A") (A') (A')
                 (A') (A') (A') (A") (A') (A') (A") (A') (A') (A')
                 (A') (A') (A') (A') (A') (A') (A') (A') (A') (A')
                 (A') (A') (A') (A') (A') (A') (A') (A') (A') (A')
                 (A") (A') (A') (A") (A') (A') (A') (A') (A") (A')
                 (A") (A') (A') (A") (A') (A') (A") (A") (A") (A')
                 (A') (A") (A') (A") (A') (A') (A") (A") (A") (A')
                 (A') (A') (A') (A") (A") (A') (A') (A') (A') (A')
                 (A') (A') (A') (A') (A') (A') (A') (A') (A') (A')
                 (A') (A') (A') (A') (A") (A') (A') (A') (A") (A')
                 (A') (A') (A') (A") (A') (A") (A") (A') (A") (A')
                 (A") (A') (A") (A') (A') (A") (A") (A") (A') (A')
                 (A") (A') (A') (A') (A') (A') (A') (A") (A') (A")
                 (A') (A") (A') (A") (A') (A") (A') (A") (A') (A')
                 (A") (A") (A') (A') (A") (A') (A') (A') (A") (A')
                 (A') (A") (A") (A') (A") (A') (A") (A') (A') (A")
                 (A') (A') (A') (A') (A") (A') (A') (A") (A') (A')
                 (A") (A') (A") (A') (A") (A') (A') (A") (A') (A')
                 (A") (A') (A") (A') (A') (A') (A") (A") (A') (A")
                 (A') (A') (A') (A') (A") (A') (A') (A') (A') (A")
                 (A') (A') (A') (A') (A') (A") (A') (A") (A') (A')
                 (A') (A') (A") (A') (A") (A') (A') (A') (A') (A')
                 (A") (A') (A") (A") (A") (A') (A") (A') (A") (A')
                 (A') (A") (A") (A') (A') (A") (A") (A') (A') (A')
                 (A') (A') (A') (A') (A') (A') (A') (A') (A") (A')
                 (A') (A') (A') (A') (A') (A') (A') (A') (A') (A')
                 (A') (A') (A') (A') (A') (A') (A') (A') (A') (A')
                 (A') (A') (A') (A') (A') (A') (A') (A') (A') (A')
                 (A') (A')
 The electronic state is 1-A'.
 Alpha  occ. eigenvalues --  -10.78265 -10.74001 -10.72717 -10.72168 -10.71789
 Alpha  occ. eigenvalues --  -10.70894 -10.70422 -10.70054 -10.69778 -10.69131
 Alpha  occ. eigenvalues --  -10.69004 -10.68558 -10.68206 -10.66704  -1.20606
 Alpha  occ. eigenvalues --   -1.13533  -1.12468  -1.06812  -1.03565  -1.01939
 Alpha  occ. eigenvalues --   -0.95836  -0.87909  -0.86025  -0.84537  -0.83328
 Alpha  occ. eigenvalues --   -0.77666  -0.76365  -0.74435  -0.73350  -0.69921
 Alpha  occ. eigenvalues --   -0.69380  -0.68588  -0.66884  -0.64436  -0.63707
 Alpha  occ. eigenvalues --   -0.63592  -0.62815  -0.59345  -0.58669  -0.56489
 Alpha  occ. eigenvalues --   -0.55089  -0.54958  -0.52695  -0.51819  -0.48414
 Alpha  occ. eigenvalues --   -0.47829  -0.35951
 Alpha virt. eigenvalues --   -0.27144  -0.16259  -0.11931  -0.11542  -0.10323
 Alpha virt. eigenvalues --   -0.09820  -0.09250  -0.07881  -0.07671  -0.07410
 Alpha virt. eigenvalues --   -0.07320  -0.06034  -0.05896  -0.05511  -0.05385
 Alpha virt. eigenvalues --   -0.04726  -0.04034  -0.03684  -0.03283  -0.02315
 Alpha virt. eigenvalues --   -0.01954  -0.01914  -0.00989  -0.00665   0.00235
 Alpha virt. eigenvalues --    0.00355   0.00979   0.01274   0.01513   0.01575
 Alpha virt. eigenvalues --    0.02205   0.02491   0.02831   0.02954   0.03251
 Alpha virt. eigenvalues --    0.03670   0.03897   0.03967   0.05217   0.05304
 Alpha virt. eigenvalues --    0.05657   0.05731   0.05829   0.06216   0.06974
 Alpha virt. eigenvalues --    0.07518   0.07617   0.07819   0.07969   0.08359
 Alpha virt. eigenvalues --    0.08491   0.09037   0.09201   0.09857   0.09881
 Alpha virt. eigenvalues --    0.10042   0.11138   0.11201   0.11231   0.12175
 Alpha virt. eigenvalues --    0.12752   0.12789   0.13451   0.13554   0.14132
 Alpha virt. eigenvalues --    0.14534   0.15906   0.16852   0.17192   0.17281
 Alpha virt. eigenvalues --    0.17942   0.18518   0.19819   0.20614   0.20748
 Alpha virt. eigenvalues --    0.21475   0.22216   0.22819   0.23733   0.24652
 Alpha virt. eigenvalues --    0.24698   0.25624   0.26274   0.27185   0.28642
 Alpha virt. eigenvalues --    0.29718   0.30356   0.31426   0.32015   0.35236
 Alpha virt. eigenvalues --    0.37312   0.37860   0.38364   0.38999   0.39312
 Alpha virt. eigenvalues --    0.40362   0.41654   0.42415   0.43124   0.44143
 Alpha virt. eigenvalues --    0.44309   0.44942   0.45770   0.46241   0.47683
 Alpha virt. eigenvalues --    0.48162   0.48319   0.48936   0.51114   0.51317
 Alpha virt. eigenvalues --    0.52145   0.52173   0.52580   0.53653   0.54686
 Alpha virt. eigenvalues --    0.55396   0.55419   0.58728   0.58941   0.59132
 Alpha virt. eigenvalues --    0.59597   0.61946   0.62326   0.62621   0.63744
 Alpha virt. eigenvalues --    0.64473   0.65120   0.66959   0.67050   0.67294
 Alpha virt. eigenvalues --    0.69921   0.72526   0.73190   0.73817   0.74358
 Alpha virt. eigenvalues --    0.75306   0.75786   0.76723   0.77390   0.78109
 Alpha virt. eigenvalues --    0.78902   0.80292   0.81438   0.81866   0.81967
 Alpha virt. eigenvalues --    0.82508   0.83290   0.84526   0.84787   0.86137
 Alpha virt. eigenvalues --    0.87777   0.89155   0.90348   0.90796   0.93556
 Alpha virt. eigenvalues --    0.94510   0.95448   0.96223   0.99180   0.99641
 Alpha virt. eigenvalues --    1.01748   1.02798   1.03712   1.04282   1.06554
 Alpha virt. eigenvalues --    1.06736   1.07968   1.08604   1.08958   1.12329
 Alpha virt. eigenvalues --    1.15551   1.17090   1.17850   1.19229   1.26758
 Alpha virt. eigenvalues --    1.29343   1.30718   1.33708   1.34520   1.36623
 Alpha virt. eigenvalues --    1.37182   1.38452   1.39499   1.40109   1.40743
 Alpha virt. eigenvalues --    1.44778   1.46658   1.47090   1.47478   1.50029
 Alpha virt. eigenvalues --    1.50468   1.53379   1.53667   1.55320   1.56305
 Alpha virt. eigenvalues --    1.56851   1.57104   1.59462   1.60160   1.60685
 Alpha virt. eigenvalues --    1.63223   1.63991   1.64548   1.66872   1.68686
 Alpha virt. eigenvalues --    1.69930   1.70930   1.72692   1.73728   1.74989
 Alpha virt. eigenvalues --    1.75932   1.77604   1.78163   1.79409   1.79891
 Alpha virt. eigenvalues --    1.83100   1.83891   1.84478   1.85156   1.87187
 Alpha virt. eigenvalues --    1.88145   1.88918   1.89783   1.93175   1.94373
 Alpha virt. eigenvalues --    1.96515   1.97055   1.99473   2.00651   2.02133
 Alpha virt. eigenvalues --    2.03224   2.06744   2.11401   2.11831   2.15327
 Alpha virt. eigenvalues --    2.16769   2.17850   2.19573   2.20818   2.22905
 Alpha virt. eigenvalues --    2.24362   2.28455   2.29078   2.31830   2.32986
 Alpha virt. eigenvalues --    2.35925   2.36981   2.39290   2.42352   2.42571
 Alpha virt. eigenvalues --    2.42623   2.44451   2.49583   2.53091   2.55255
 Alpha virt. eigenvalues --    2.57447   2.58013   2.59592   2.59949   2.61248
 Alpha virt. eigenvalues --    2.62724   2.63927   2.64013   2.64533   2.65579
 Alpha virt. eigenvalues --    2.65917   2.66032   2.67338   2.68511   2.70048
 Alpha virt. eigenvalues --    2.70223   2.73374   2.73759   2.74592   2.76913
 Alpha virt. eigenvalues --    2.77395   2.78235   2.79531   2.84973   2.85536
 Alpha virt. eigenvalues --    2.85819   2.90357   2.93019   2.93329   2.94023
 Alpha virt. eigenvalues --    2.98979   3.01301   3.02984   3.05547   3.09013
 Alpha virt. eigenvalues --    3.10882   3.15896   3.17758   3.27635   3.29460
 Alpha virt. eigenvalues --    3.31905   3.36577   3.41169   3.44969   3.51981
 Alpha virt. eigenvalues --    3.56163   3.61800   3.63649   3.71029   3.72715
 Alpha virt. eigenvalues --    3.73143   3.76383   3.80471   3.84846   3.89732
 Alpha virt. eigenvalues --    3.95548   4.02132   4.04419   4.18120   4.24512
 Alpha virt. eigenvalues --    4.28072   4.44485   4.48216  23.41020  23.48430
 Alpha virt. eigenvalues --   23.52302  23.55961  23.58167  23.82409  23.92802
 Alpha virt. eigenvalues --   23.96043  24.26698  24.39193  24.63927  24.64818
 Alpha virt. eigenvalues --   25.38116  25.42571
          Condensed to atoms (all electrons):
               1          2          3          4          5          6
     1  C   13.734494  -4.695861   1.312905   2.393930  -0.280349  -0.141425
     2  C   -4.695861  11.446849  -1.748232  -1.584455   0.227036  -0.005294
     3  C    1.312905  -1.748232   7.152715   1.282311  -0.157764   0.007742
     4  C    2.393930  -1.584455   1.282311   8.140551  -0.040224  -0.039351
     5  C   -0.280349   0.227036  -0.157764  -0.040224  11.424322   0.832816
     6  C   -0.141425  -0.005294   0.007742  -0.039351   0.832816   6.814937
     7  C    0.017488  -0.043567  -0.011008  -0.159585  -1.111467   0.781800
     8  C    0.253787  -0.190527  -0.027105  -0.068275  -0.018431  -0.497397
     9  C   -0.868204  -1.169728   0.223465  -0.808243   1.181782  -0.038904
    10  C   -0.870032   0.792318  -0.714576  -0.893659  -1.846696   0.233657
    11  C   -1.779443   0.480487   0.321376  -0.764576  -0.342010  -0.461842
    12  C   -3.454129   3.198047  -1.343633  -0.644998  -1.729020   0.336533
    13  C    0.480879  -0.994351   0.235824  -1.437933  -0.137881  -0.092646
    14  C   -0.759389   0.650001  -0.593573   0.478274  -2.285590  -1.704277
    15  H    0.418187  -0.226779   0.055798   0.024819  -0.011950   0.000703
    16  H   -0.008979   0.354050  -0.008470  -0.007685   0.001251  -0.000093
    17  H   -0.064269   0.042592   0.347771  -0.032707  -0.001255   0.000123
    18  H    0.086826  -0.030717  -0.052555   0.402133   0.010339  -0.004470
    19  H   -0.040198  -0.009703   0.038279  -0.043468  -0.153639   0.030556
    20  H    0.004670   0.003003  -0.003565   0.006462   0.539805  -0.034203
    21  H   -0.002274  -0.000105   0.000348  -0.000250  -0.043269   0.391499
    22  H    0.003679   0.000356  -0.000441  -0.002201   0.026018  -0.033814
    23  H    0.000561  -0.005053   0.002843   0.004429  -0.006439  -0.000989
    24  H   -0.035152   0.014935  -0.007421  -0.025140   0.002883  -0.001363
    25  H   -0.035152   0.014935  -0.007421  -0.025140   0.002883  -0.001363
               7          8          9         10         11         12
     1  C    0.017488   0.253787  -0.868204  -0.870032  -1.779443  -3.454129
     2  C   -0.043567  -0.190527  -1.169728   0.792318   0.480487   3.198047
     3  C   -0.011008  -0.027105   0.223465  -0.714576   0.321376  -1.343633
     4  C   -0.159585  -0.068275  -0.808243  -0.893659  -0.764576  -0.644998
     5  C   -1.111467  -0.018431   1.181782  -1.846696  -0.342010  -1.729020
     6  C    0.781800  -0.497397  -0.038904   0.233657  -0.461842   0.336533
     7  C    8.853736   1.076670  -1.747054  -0.315068  -0.574640  -0.650518
     8  C    1.076670   7.055830  -0.722176  -0.275940  -0.255641  -1.142408
     9  C   -1.747054  -0.722176  10.692077  -0.101753   0.237148   0.087403
    10  C   -0.315068  -0.275940  -0.101753   7.953918  -0.789643   1.253580
    11  C   -0.574640  -0.255641   0.237148  -0.789643  11.376142   0.980107
    12  C   -0.650518  -1.142408   0.087403   1.253580   0.980107  11.695546
    13  C   -0.354814   1.306099   1.238875  -0.239950  -1.444109  -2.397492
    14  C    0.430469  -0.927490  -2.754113   1.515469  -1.050189  -0.638708
    15  H    0.005301   0.020412   0.165906  -0.021183  -0.115633  -0.091013
    16  H   -0.000275  -0.000889  -0.009517   0.003497   0.016229   0.009843
    17  H   -0.000296  -0.001028  -0.003980   0.001020   0.016321   0.044820
    18  H    0.000552   0.000694  -0.020602   0.037086   0.040056  -0.143805
    19  H   -0.004509  -0.001008   0.049126   0.414594   0.048981   0.153356
    20  H    0.012546   0.014601  -0.001962  -0.020736   0.004548  -0.095556
    21  H   -0.033904   0.002186   0.003431   0.012468  -0.009527   0.008631
    22  H    0.376828  -0.016524  -0.011119  -0.024293   0.007696  -0.022265
    23  H   -0.082193   0.385392   0.046240   0.012135  -0.036910   0.010739
    24  H    0.013861   0.042342   0.384363   0.009207  -0.068390  -0.018627
    25  H    0.013861   0.042342   0.384363   0.009207  -0.068390  -0.018627
              13         14         15         16         17         18
     1  C    0.480879  -0.759389   0.418187  -0.008979  -0.064269   0.086826
     2  C   -0.994351   0.650001  -0.226779   0.354050   0.042592  -0.030717
     3  C    0.235824  -0.593573   0.055798  -0.008470   0.347771  -0.052555
     4  C   -1.437933   0.478274   0.024819  -0.007685  -0.032707   0.402133
     5  C   -0.137881  -2.285590  -0.011950   0.001251  -0.001255   0.010339
     6  C   -0.092646  -1.704277   0.000703  -0.000093   0.000123  -0.004470
     7  C   -0.354814   0.430469   0.005301  -0.000275  -0.000296   0.000552
     8  C    1.306099  -0.927490   0.020412  -0.000889  -0.001028   0.000694
     9  C    1.238875  -2.754113   0.165906  -0.009517  -0.003980  -0.020602
    10  C   -0.239950   1.515469  -0.021183   0.003497   0.001020   0.037086
    11  C   -1.444109  -1.050189  -0.115633   0.016229   0.016321   0.040056
    12  C   -2.397492  -0.638708  -0.091013   0.009843   0.044820  -0.143805
    13  C   15.337826  -4.933586   0.079669  -0.009445  -0.001032  -0.015207
    14  C   -4.933586  18.329326  -0.026803   0.005751  -0.004614   0.025127
    15  H    0.079669  -0.026803   0.494964  -0.005528   0.000205  -0.001532
    16  H   -0.009445   0.005751  -0.005528   0.419333  -0.001174   0.001432
    17  H   -0.001032  -0.004614   0.000205  -0.001174   0.425056  -0.003387
    18  H   -0.015207   0.025127  -0.001532   0.001432  -0.003387   0.458828
    19  H    0.101645  -0.229037   0.000385  -0.000254   0.000211  -0.010609
    20  H    0.011577  -0.088504  -0.000172   0.000017  -0.000062   0.001134
    21  H    0.008253   0.000532  -0.000023  -0.000002   0.000005  -0.000219
    22  H    0.040747  -0.012598  -0.000170   0.000006  -0.000006   0.000042
    23  H   -0.051147   0.059127   0.000964  -0.000155   0.000052  -0.000296
    24  H    0.055273  -0.034011  -0.000649   0.000638  -0.000059   0.000502
    25  H    0.055273  -0.034011  -0.000649   0.000638  -0.000059   0.000502
              19         20         21         22         23         24
     1  C   -0.040198   0.004670  -0.002274   0.003679   0.000561  -0.035152
     2  C   -0.009703   0.003003  -0.000105   0.000356  -0.005053   0.014935
     3  C    0.038279  -0.003565   0.000348  -0.000441   0.002843  -0.007421
     4  C   -0.043468   0.006462  -0.000250  -0.002201   0.004429  -0.025140
     5  C   -0.153639   0.539805  -0.043269   0.026018  -0.006439   0.002883
     6  C    0.030556  -0.034203   0.391499  -0.033814  -0.000989  -0.001363
     7  C   -0.004509   0.012546  -0.033904   0.376828  -0.082193   0.013861
     8  C   -0.001008   0.014601   0.002186  -0.016524   0.385392   0.042342
     9  C    0.049126  -0.001962   0.003431  -0.011119   0.046240   0.384363
    10  C    0.414594  -0.020736   0.012468  -0.024293   0.012135   0.009207
    11  C    0.048981   0.004548  -0.009527   0.007696  -0.036910  -0.068390
    12  C    0.153356  -0.095556   0.008631  -0.022265   0.010739  -0.018627
    13  C    0.101645   0.011577   0.008253   0.040747  -0.051147   0.055273
    14  C   -0.229037  -0.088504   0.000532  -0.012598   0.059127  -0.034011
    15  H    0.000385  -0.000172  -0.000023  -0.000170   0.000964  -0.000649
    16  H   -0.000254   0.000017  -0.000002   0.000006  -0.000155   0.000638
    17  H    0.000211  -0.000062   0.000005  -0.000006   0.000052  -0.000059
    18  H   -0.010609   0.001134  -0.000219   0.000042  -0.000296   0.000502
    19  H    0.481914  -0.005573   0.002802  -0.000548   0.001126   0.000546
    20  H   -0.005573   0.434408  -0.012564   0.002796  -0.000301   0.000119
    21  H    0.002802  -0.012564   0.416281  -0.005126   0.001467  -0.000074
    22  H   -0.000548   0.002796  -0.005126   0.391834  -0.002810   0.000573
    23  H    0.001126  -0.000301   0.001467  -0.002810   0.422494  -0.000763
    24  H    0.000546   0.000119  -0.000074   0.000573  -0.000763   0.463979
    25  H    0.000546   0.000119  -0.000074   0.000573  -0.000763  -0.065433
              25
     1  C   -0.035152
     2  C    0.014935
     3  C   -0.007421
     4  C   -0.025140
     5  C    0.002883
     6  C   -0.001363
     7  C    0.013861
     8  C    0.042342
     9  C    0.384363
    10  C    0.009207
    11  C   -0.068390
    12  C   -0.018627
    13  C    0.055273
    14  C   -0.034011
    15  H   -0.000649
    16  H    0.000638
    17  H   -0.000059
    18  H    0.000502
    19  H    0.000546
    20  H    0.000119
    21  H   -0.000074
    22  H    0.000573
    23  H   -0.000763
    24  H   -0.065433
    25  H    0.463979
 Mulliken charges:
               1
     1  C    0.327450
     2  C   -0.520237
     3  C   -0.305615
     4  C   -0.155017
     5  C   -0.083148
     6  C   -0.372935
     7  C   -0.494216
     8  C   -0.055514
     9  C   -0.436824
    10  C   -0.134625
    11  C    0.231850
    12  C    0.612195
    13  C   -0.842346
    14  C    0.582418
    15  H    0.234769
    16  H    0.239780
    17  H    0.235751
    18  H    0.218144
    19  H    0.174480
    20  H    0.227392
    21  H    0.259510
    22  H    0.280765
    23  H    0.240249
    24  H    0.267861
    25  H    0.267861
 Sum of Mulliken charges =   1.00000
 Mulliken charges with hydrogens summed into heavy atoms:
               1
     1  C    0.562219
     2  C   -0.280457
     3  C   -0.069863
     4  C    0.063127
     5  C    0.144244
     6  C   -0.113425
     7  C   -0.213451
     8  C    0.184735
     9  C    0.098898
    10  C    0.039855
    11  C    0.231850
    12  C    0.612195
    13  C   -0.842346
    14  C    0.582418
 Electronic spatial extent (au):  <R**2>=           2865.7535
 Charge=              1.0000 electrons
 Dipole moment (field-independent basis, Debye):
    X=              2.8602    Y=             -4.0951    Z=             -0.0000  Tot=              4.9950
 Quadrupole moment (field-independent basis, Debye-Ang):
   XX=            -53.8940   YY=            -29.3812   ZZ=            -83.2107
   XY=             -9.4154   XZ=             -0.0000   YZ=             -0.0000
 Traceless Quadrupole moment (field-independent basis, Debye-Ang):
   XX=              1.6013   YY=             26.1141   ZZ=            -27.7154
   XY=             -9.4154   XZ=             -0.0000   YZ=             -0.0000
 Octapole moment (field-independent basis, Debye-Ang**2):
  XXX=             16.4118  YYY=            -28.5975  ZZZ=             -0.0000  XYY=             13.0570
  XXY=            -21.5149  XXZ=             -0.0000  XZZ=              6.6721  YZZ=             -7.4959
  YYZ=             -0.0000  XYZ=             -0.0000
 Hexadecapole moment (field-independent basis, Debye-Ang**3):
 XXXX=           -810.5570 YYYY=          -1955.0698 ZZZZ=            -97.6431 XXXY=            269.9207
 XXXZ=             -0.0000 YYYX=            194.5379 YYYZ=             -0.0000 ZZZX=             -0.0000
 ZZZY=             -0.0000 XXYY=           -468.2121 XXZZ=           -197.1975 YYZZ=           -532.9956
 XXYZ=             -0.0000 YYXZ=             -0.0000 ZZXY=            141.3472
 N-N= 7.857355589608D+02 E-N=-2.809073373989D+03  KE= 5.398616767364D+02
 Symmetry A'   KE= 5.246658591033D+02
 Symmetry A"   KE= 1.519581763315D+01
 Unable to Open any file for archive entry.
 1\1\GINC-GADI-CPU-CLX-2808\SP\RM062X TD-FC\6-311++G(d,p)\C14H11(1+)\TS
 1578\02-Aug-2022\0\\#n M062X/6-311++G(d,p) TD(NStates=1) EmpiricalDisp
 ersion=GD3 SP\\SP_-12\\1,1\C,0,0.,2.632655,1.368431\C,0,0.,3.893508,0.
 835989\C,0,0.,3.811861,-0.45383\C,0,0.,2.271156,-1.303538\C,0,0.,-2.75
 1156,-1.495538\C,0,0.,-3.595861,-0.83783\C,0,0.,-3.461508,0.643989\C,0
 ,0.,-2.248655,1.368431\C,0,0.,0.096,1.393369\C,0,0.,-0.348,-1.489189\C
 ,0,0.,1.142055,0.493065\C,0,0.,1.137471,-0.770804\C,0,0.,-1.358055,0.7
 57065\C,0,0.,-1.353471,-0.794804\H,0,0.,2.432071,2.451647\H,0,0.,4.808
 753,1.399689\H,0,0.,4.661262,-1.144349\H,0,0.,2.46755,-2.386059\H,0,0.
 ,-0.3,-2.574266\H,0,0.,-2.68355,-2.578059\H,0,0.,-4.637262,-1.192349\H
 ,0,0.,-4.376753,1.231689\H,0,0.,-2.312071,2.451647\H,0,-0.859585,0.528
 ,2.085787\H,0,0.859585,0.528,2.085787\\Version=ES64L-G16RevC.01\State=
 1-A'\HF=-539.1656808\RMSD=4.891e-09\PG=CS [SG(C14H9),X(H2)]\\@
 The archive entry for this job was punched.


 TOM, TOM, THE BURGLAR'S SON
 STOLE A MACHINE AND AWAY HE RUN
 THE JOB WAS NEAT, BUT TOM GOT BEAT
 BY THE TIME HE GOT HOME IT WAS OBSOLETE.
 Job cpu time:       0 days  0 hours 54 minutes 19.2 seconds.
 Elapsed time:       0 days  0 hours  1 minutes  8.0 seconds.
 File lengths (MBytes):  RWF=    460 Int=      0 D2E=      0 Chk=     15 Scr=      1
 Normal termination of Gaussian 16 at Tue Aug  2 11:53:48 2022.
