 Entering Gaussian System, Link 0=g16
 Initial command:
 /apps/gaussian/g16c01/g16/l1.exe "/jobfs/53803424.gadi-pbs/Gau-1857536.inp" -scrdir="/jobfs/53803424.gadi-pbs/"
 Entering Link 1 = /apps/gaussian/g16c01/g16/l1.exe PID=   1857537.
  
 Copyright (c) 1988-2019, Gaussian, Inc.  All Rights Reserved.
  
 This is part of the Gaussian(R) 16 program.  It is based on
 the Gaussian(R) 09 system (copyright 2009, Gaussian, Inc.),
 the Gaussian(R) 03 system (copyright 2003, Gaussian, Inc.),
 the Gaussian(R) 98 system (copyright 1998, Gaussian, Inc.),
 the Gaussian(R) 94 system (copyright 1995, Gaussian, Inc.),
 the Gaussian 92(TM) system (copyright 1992, Gaussian, Inc.),
 the Gaussian 90(TM) system (copyright 1990, Gaussian, Inc.),
 the Gaussian 88(TM) system (copyright 1988, Gaussian, Inc.),
 the Gaussian 86(TM) system (copyright 1986, Carnegie Mellon
 University), and the Gaussian 82(TM) system (copyright 1983,
 Carnegie Mellon University). Gaussian is a federally registered
 trademark of Gaussian, Inc.
  
 This software contains proprietary and confidential information,
 including trade secrets, belonging to Gaussian, Inc.
  
 This software is provided under written license and may be
 used, copied, transmitted, or stored only in accord with that
 written license.
  
 The following legend is applicable only to US Government
 contracts under FAR:
  
                    RESTRICTED RIGHTS LEGEND
  
 Use, reproduction and disclosure by the US Government is
 subject to restrictions as set forth in subparagraphs (a)
 and (c) of the Commercial Computer Software - Restricted
 Rights clause in FAR 52.227-19.
  
 Gaussian, Inc.
 340 Quinnipiac St., Bldg. 40, Wallingford CT 06492
  
  
 ---------------------------------------------------------------
 Warning -- This program may not be used in any manner that
 competes with the business of Gaussian, Inc. or will provide
 assistance to any competitor of Gaussian, Inc.  The licensee
 of this program is prohibited from giving any competitor of
 Gaussian, Inc. access to this program.  By using this program,
 the user acknowledges that Gaussian, Inc. is engaged in the
 business of creating and licensing software in the field of
 computational chemistry and represents and warrants to the
 licensee that it is not a competitor of Gaussian, Inc. and that
 it will not use this program in any manner prohibited above.
 ---------------------------------------------------------------
  

 Cite this work as:
 Gaussian 16, Revision C.01,
 M. J. Frisch, G. W. Trucks, H. B. Schlegel, G. E. Scuseria, 
 M. A. Robb, J. R. Cheeseman, G. Scalmani, V. Barone, 
 G. A. Petersson, H. Nakatsuji, X. Li, M. Caricato, A. V. Marenich, 
 J. Bloino, B. G. Janesko, R. Gomperts, B. Mennucci, H. P. Hratchian, 
 J. V. Ortiz, A. F. Izmaylov, J. L. Sonnenberg, D. Williams-Young, 
 F. Ding, F. Lipparini, F. Egidi, J. Goings, B. Peng, A. Petrone, 
 T. Henderson, D. Ranasinghe, V. G. Zakrzewski, J. Gao, N. Rega, 
 G. Zheng, W. Liang, M. Hada, M. Ehara, K. Toyota, R. Fukuda, 
 J. Hasegawa, M. Ishida, T. Nakajima, Y. Honda, O. Kitao, H. Nakai, 
 T. Vreven, K. Throssell, J. A. Montgomery, Jr., J. E. Peralta, 
 F. Ogliaro, M. J. Bearpark, J. J. Heyd, E. N. Brothers, K. N. Kudin, 
 V. N. Staroverov, T. A. Keith, R. Kobayashi, J. Normand, 
 K. Raghavachari, A. P. Rendell, J. C. Burant, S. S. Iyengar, 
 J. Tomasi, M. Cossi, J. M. Millam, M. Klene, C. Adamo, R. Cammi, 
 J. W. Ochterski, R. L. Martin, K. Morokuma, O. Farkas, 
 J. B. Foresman, and D. J. Fox, Gaussian, Inc., Wallingford CT, 2019.
 
 ******************************************
 Gaussian 16:  ES64L-G16RevC.01  3-Jul-2019
                 2-Aug-2022 
 ******************************************
 %NProcShared=48
 Will use up to   48 processors via shared memory.
 %mem = 190GB
 ---------------------------------------------------------------
 #n M062X/6-311++G(d,p) TD(NStates=1) EmpiricalDispersion=GD3 SP
 ---------------------------------------------------------------
 1/38=1,172=1/1;
 2/12=2,17=6,18=5,40=1/2;
 3/5=4,6=6,7=1111,11=9,25=1,30=1,74=-55,124=31/1,2,3,8;
 4//1;
 5/5=2,38=5/2;
 8/6=1,10=2,108=1/1;
 9/41=1,42=1,70=2/14;
 6/7=2,8=2,9=2,10=2/1;
 99/5=1,9=1/99;
 -----
 SP_14
 -----
 Symbolic Z-matrix:
 Charge =  1 Multiplicity = 1
 C                     0.        2.34666   1.34843 
 C                     0.        3.48551   0.45799 
 C                     0.        3.52786  -1.03983 
 C                     0.        2.67116  -1.53154 
 C                     0.       -2.11116  -1.30754 
 C                     0.       -3.77986  -0.59183 
 C                     0.       -3.98951   0.68199 
 C                     0.       -2.79466   1.34843 
 C                     0.       -0.112     1.54337 
 C                     0.        0.406    -1.33919 
 C                     0.        1.40606   0.90907 
 C                     0.        1.35147  -0.6668 
 C                     0.       -1.15406   0.60107 
 C                     0.       -1.09947  -0.6388 
 H                     0.        2.59207   2.43165 
 H                     0.        4.45075   0.95769 
 H                     0.        4.53526  -1.45635 
 H                     0.        2.43155  -2.61406 
 H                     0.        0.35     -2.41427 
 H                     0.       -2.17955  -2.39006 
 H                     0.       -4.56326  -1.40035 
 H                     0.       -4.95475   1.15369 
 H                     0.       -2.73207   2.43165 
 H                    -0.85959  -0.616     2.23579 
 H                     0.85959  -0.616     2.23579 
 
                          Input orientation:                          
 ---------------------------------------------------------------------
 Center     Atomic      Atomic             Coordinates (Angstroms)
 Number     Number       Type             X           Y           Z
 ---------------------------------------------------------------------
      1          6           0        0.000000    2.346655    1.348431
      2          6           0        0.000000    3.485508    0.457989
      3          6           0        0.000000    3.527861   -1.039830
      4          6           0        0.000000    2.671156   -1.531538
      5          6           0        0.000000   -2.111156   -1.307538
      6          6           0        0.000000   -3.779861   -0.591830
      7          6           0        0.000000   -3.989508    0.681989
      8          6           0        0.000000   -2.794655    1.348431
      9          6           0        0.000000   -0.112000    1.543369
     10          6           0        0.000000    0.406000   -1.339189
     11          6           0        0.000000    1.406055    0.909065
     12          6           0        0.000000    1.351471   -0.666804
     13          6           0        0.000000   -1.154055    0.601065
     14          6           0        0.000000   -1.099471   -0.638804
     15          1           0        0.000000    2.592071    2.431647
     16          1           0        0.000000    4.450753    0.957689
     17          1           0        0.000000    4.535262   -1.456349
     18          1           0        0.000000    2.431550   -2.614059
     19          1           0        0.000000    0.350000   -2.414266
     20          1           0        0.000000   -2.179550   -2.390059
     21          1           0        0.000000   -4.563262   -1.400349
     22          1           0        0.000000   -4.954753    1.153689
     23          1           0        0.000000   -2.732071    2.431647
     24          1           0       -0.859585   -0.616000    2.235787
     25          1           0        0.859585   -0.616000    2.235787
 ---------------------------------------------------------------------
                    Distance matrix (angstroms):
                    1          2          3          4          5
     1  C    0.000000
     2  C    1.445639   0.000000
     3  C    2.664402   1.498418   0.000000
     4  C    2.898193   2.149741   0.987786   0.000000
     5  C    5.189051   5.868538   5.645368   4.787555   0.000000
     6  C    6.426415   7.340825   7.321441   6.519101   1.815713
     7  C    6.371115   7.478371   7.712036   7.018842   2.736133
     8  C    5.141310   6.342975   6.758550   6.178132   2.742507
     9  C    2.466371   3.757674   4.463351   4.147410   3.481996
    10  C    3.315033   3.565560   3.136181   2.273308   2.517355
    11  C    1.038157   2.127814   2.881016   2.749004   4.157415
    12  C    2.247568   2.412317   2.208126   1.577762   3.521410
    13  C    3.579599   4.641769   4.961136   4.379524   2.135136
    14  C    3.978051   4.714338   4.644677   3.874868   1.212729
    15  H    1.110669   2.166462   3.595394   3.963974   6.008481
    16  H    2.140072   1.086921   2.200412   3.059937   6.941895
    17  H    3.557638   2.183271   1.090112   1.865622   6.648084
    18  H    3.963399   3.247816   1.918357   1.108721   4.726857
    19  H    4.259638   4.252206   3.462351   2.483339   2.698543
    20  H    5.870506   6.340683   5.864952   4.926094   1.084679
    21  H    7.436582   8.260516   8.099151   7.235607   2.453862
    22  H    7.304005   8.468884   8.761636   8.084858   3.760809
    23  H    5.192958   6.523313   7.158065   6.700873   3.790388
    24  H    3.209924   4.552123   5.351648   5.073167   3.940752
    25  H    3.209924   4.552123   5.351648   5.073167   3.940752
                    6          7          8          9         10
     6  C    0.000000
     7  C    1.290956   0.000000
     8  C    2.176061   1.368144   0.000000
     9  C    4.244088   3.972033   2.689728   0.000000
    10  C    4.252056   4.837939   4.179413   2.928731   0.000000
    11  C    5.398742   5.400339   4.223625   1.645245   2.460641
    12  C    5.131880   5.508657   4.609938   2.650776   1.160180
    13  C    2.884069   2.836608   1.802810   1.404925   2.489650
    14  C    2.680802   3.177547   2.612040   2.395199   1.660416
    15  H    7.052867   6.810175   5.494559   2.846232   4.358682
    16  H    8.375202   8.444763   7.255937   4.600189   4.651416
    17  H    8.359944   8.788868   7.848215   5.531307   4.130924
    18  H    6.532307   7.217612   6.558548   4.873793   2.393355
    19  H    4.514092   5.330865   4.903748   3.984510   1.076535
    20  H    2.407202   3.565589   3.788755   4.443717   2.790949
    21  H    1.125798   2.159936   3.268602   5.336592   4.969638
    22  H    2.104093   1.074336   2.168859   4.858406   5.912031
    23  H    3.199887   2.154635   1.085022   2.766552   4.905782
    24  H    4.329471   3.812313   2.504561   1.213402   3.816258
    25  H    4.329471   3.812313   2.504561   1.213402   3.816258
                   11         12         13         14         15
    11  C    0.000000
    12  C    1.576814   0.000000
    13  C    2.578571   2.808051   0.000000
    14  C    2.945091   2.451102   1.241070   0.000000
    15  H    1.929997   3.337587   4.169471   4.801578   0.000000
    16  H    3.045086   3.499218   5.616142   5.775273   2.372183
    17  H    3.922642   3.280230   6.049899   5.693733   4.346551
    18  H    3.669338   2.226740   4.815972   4.045954   5.048259
    19  H    3.487088   2.014092   3.369629   2.291993   5.339453
    20  H    4.872451   3.929086   3.162035   2.057539   6.783599
    21  H    6.400480   5.960047   3.953271   3.546519   8.116833
    22  H    6.365510   6.563738   3.840664   4.251615   7.654262
    23  H    4.409347   5.125984   2.416850   3.477507   5.324142
    24  H    2.566668   3.610383   1.923722   3.039063   3.327006
    25  H    2.566668   3.610383   1.923722   3.039063   3.327006
                   16         17         18         19         20
    16  H    0.000000
    17  H    2.415517   0.000000
    18  H    4.102995   2.401228   0.000000
    19  H    5.309073   4.293486   2.091116   0.000000
    20  H    7.427539   6.779418   4.616538   2.529666   0.000000
    21  H    9.317339   9.098696   7.099330   5.016789   2.581009
    22  H    9.407548   9.842392   8.291767   6.393020   4.501100
    23  H    7.332497   8.242005   7.219566   5.742999   4.853260
    24  H    5.295697   6.395800   5.792016   4.826493   4.958026
    25  H    5.295697   6.395800   5.792016   4.826493   4.958026
                   21         22         23         24         25
    21  H    0.000000
    22  H    2.583868   0.000000
    23  H    4.247052   2.563882   0.000000
    24  H    5.435186   4.553526   2.292380   0.000000
    25  H    5.435186   4.553526   2.292380   1.719170   0.000000
 Stoichiometry    C14H11(1+)
 Framework group  CS[SG(C14H9),X(H2)]
 Deg. of freedom    46
 Full point group                 CS      NOp   2
 Largest Abelian subgroup         CS      NOp   2
 Largest concise Abelian subgroup CS      NOp   2
                         Standard orientation:                         
 ---------------------------------------------------------------------
 Center     Atomic      Atomic             Coordinates (Angstroms)
 Number     Number       Type             X           Y           Z
 ---------------------------------------------------------------------
      1          6           0        0.014102   -2.710841    0.000000
      2          6           0        1.356304   -3.247838    0.000000
      3          6           0        2.672469   -2.531622    0.000000
      4          6           0        2.666960   -1.543852    0.000000
      5          6           0        0.069636    2.477912    0.000000
      6          6           0       -1.387821    3.560795    0.000000
      7          6           0       -2.594421    3.101793    0.000000
      8          6           0       -2.570012    1.733866    0.000000
      9          6           0       -1.390187   -0.683292    0.000000
     10          6           0        1.362165    0.317717    0.000000
     11          6           0       -0.078825   -1.676851    0.000000
     12          6           0        1.256093   -0.837603    0.000000
     13          6           0       -1.099313    0.691193    0.000000
     14          6           0        0.000000    1.267184    0.000000
     15          1           0       -0.798998   -3.467449    0.000000
     16          1           0        1.409458   -4.333459    0.000000
     17          1           0        3.538891   -3.193179    0.000000
     18          1           0        3.482379   -0.792616    0.000000
     19          1           0        2.263432    0.906483    0.000000
     20          1           0        0.971109    3.081134    0.000000
     21          1           0       -1.082600    4.644428    0.000000
     22          1           0       -3.487359    3.699171    0.000000
     23          1           0       -3.475006    1.135319    0.000000
     24          1           0       -2.242108   -0.595601    0.859585
     25          1           0       -2.242108   -0.595601   -0.859585
 ---------------------------------------------------------------------
 Rotational constants (GHZ):           2.1418483           0.4382550           0.3645950
 Standard basis: 6-311++G(d,p) (5D, 7F)
 There are   299 symmetry adapted cartesian basis functions of A'  symmetry.
 There are   100 symmetry adapted cartesian basis functions of A"  symmetry.
 There are   285 symmetry adapted basis functions of A'  symmetry.
 There are   100 symmetry adapted basis functions of A"  symmetry.
   385 basis functions,   603 primitive gaussians,   399 cartesian basis functions
    47 alpha electrons       47 beta electrons
       nuclear repulsion energy       786.2776383199 Hartrees.
 NAtoms=   25 NActive=   25 NUniq=   24 SFac= 1.09D+00 NAtFMM=   60 NAOKFM=F Big=F
 Integral buffers will be    131072 words long.
 Regular integral format.
 Two-electron integral symmetry is turned on.
 Nuclear repulsion after empirical dispersion term =      786.2766876814 Hartrees.
 One-electron integrals computed using PRISM.
 NBasis=   385 RedAO= T EigKep=  1.39D-06  NBF=   285   100
 NBsUse=   379 1.00D-06 EigRej=  6.66D-07 NBFU=   279   100
 ExpMin= 3.60D-02 ExpMax= 4.56D+03 ExpMxC= 6.82D+02 IAcc=3 IRadAn=         5 AccDes= 0.00D+00
 Harris functional with IExCor= 1009 and IRadAn=       5 diagonalized for initial guess.
 HarFok:  IExCor= 1009 AccDes= 0.00D+00 IRadAn=         5 IDoV= 1 UseB2=F ITyADJ=14
 ICtDFT=  3500011 ScaDFX=  1.000000  1.000000  1.000000  1.000000
 FoFCou: FMM=F IPFlag=           0 FMFlag=      100000 FMFlg1=           0
         NFxFlg=           0 DoJE=T BraDBF=F KetDBF=T FulRan=T
         wScrn=  0.000000 ICntrl=       500 IOpCl=  0 I1Cent=   200000004 NGrid=           0
         NMat0=    1 NMatS0=      1 NMatT0=    0 NMatD0=    1 NMtDS0=    0 NMtDT0=    0
 Petite list used in FoFCou.
 Initial guess orbital symmetries:
       Occupied  (A') (A') (A') (A') (A') (A') (A') (A') (A') (A')
                 (A') (A') (A') (A') (A') (A') (A') (A') (A') (A')
                 (A') (A') (A') (A') (A') (A') (A') (A') (A') (A')
                 (A') (A") (A') (A") (A') (A') (A") (A') (A') (A')
                 (A") (A') (A") (A') (A") (A') (A")
       Virtual   (A") (A") (A") (A') (A") (A') (A") (A') (A') (A')
                 (A') (A') (A") (A') (A') (A") (A') (A') (A") (A')
                 (A') (A') (A") (A') (A') (A") (A') (A") (A') (A')
                 (A") (A') (A') (A') (A") (A') (A') (A') (A') (A")
                 (A") (A') (A") (A') (A') (A') (A') (A') (A') (A")
                 (A') (A") (A') (A") (A') (A') (A") (A') (A') (A")
                 (A') (A') (A') (A') (A') (A") (A') (A') (A') (A")
                 (A') (A') (A') (A') (A') (A') (A') (A') (A') (A')
                 (A') (A') (A') (A') (A') (A') (A') (A') (A') (A')
                 (A') (A') (A") (A') (A") (A') (A') (A") (A') (A')
                 (A') (A") (A') (A") (A') (A") (A') (A') (A") (A")
                 (A') (A") (A") (A') (A') (A') (A") (A') (A") (A')
                 (A") (A') (A') (A") (A') (A') (A') (A") (A') (A')
                 (A') (A') (A') (A') (A') (A') (A') (A') (A") (A')
                 (A') (A') (A') (A') (A") (A') (A') (A') (A') (A")
                 (A') (A') (A") (A') (A') (A") (A') (A") (A') (A")
                 (A") (A") (A') (A') (A") (A') (A") (A') (A') (A')
                 (A") (A') (A') (A') (A') (A') (A') (A") (A") (A')
                 (A") (A') (A') (A") (A') (A') (A") (A") (A') (A')
                 (A") (A") (A') (A') (A') (A') (A") (A') (A') (A")
                 (A") (A") (A') (A") (A') (A') (A') (A") (A') (A")
                 (A') (A') (A") (A') (A') (A') (A') (A') (A") (A')
                 (A") (A") (A') (A') (A") (A') (A') (A') (A") (A')
                 (A") (A') (A') (A") (A') (A") (A') (A") (A') (A')
                 (A") (A') (A') (A') (A") (A') (A') (A') (A') (A')
                 (A") (A') (A") (A') (A') (A") (A') (A") (A') (A")
                 (A') (A") (A') (A') (A') (A') (A') (A") (A') (A")
                 (A") (A') (A') (A') (A') (A") (A') (A") (A') (A')
                 (A') (A") (A") (A') (A") (A') (A") (A') (A') (A')
                 (A') (A') (A') (A') (A') (A') (A') (A") (A') (A')
                 (A') (A') (A') (A') (A') (A') (A') (A') (A') (A')
                 (A') (A') (A') (A') (A') (A') (A') (A') (A') (A')
                 (A') (A') (A') (A') (A') (A') (A') (A') (A') (A')
                 (A') (A')
 The electronic state of the initial guess is 1-A'.
 Requested convergence on RMS density matrix=1.00D-08 within 128 cycles.
 Requested convergence on MAX density matrix=1.00D-06.
 Requested convergence on             energy=1.00D-06.
 No special actions if energy rises.
 SCF Done:  E(RM062X) =  -538.858479140     A.U. after   18 cycles
            NFock= 18  Conv=0.48D-08     -V/T= 1.9962
 DoSCS=F DFT=T ScalE2(SS,OS)=  1.000000  1.000000
 ExpMin= 3.60D-02 ExpMax= 4.56D+03 ExpMxC= 6.82D+02 IAcc=3 IRadAn=         5 AccDes= 0.00D+00
 HarFok:  IExCor=  205 AccDes= 0.00D+00 IRadAn=         5 IDoV=-2 UseB2=F ITyADJ=14
 ICtDFT= 12500011 ScaDFX=  1.000000  1.000000  1.000000  1.000000
 Range of M.O.s used for correlation:    15   379
 NBasis=   385 NAE=    47 NBE=    47 NFC=    14 NFV=     0
 NROrb=    365 NOA=    33 NOB=    33 NVA=   332 NVB=   332

 **** Warning!!: The largest alpha MO coefficient is  0.16561636D+03


 **** Warning!!: The smallest alpha delta epsilon is  0.76685364D-01

 Orbital symmetries:
       Occupied  (A') (A') (A') (A') (A') (A') (A') (A') (A') (A')
                 (A') (A') (A') (A') (A') (A') (A') (A') (A') (A')
                 (A') (A') (A') (A') (A') (A') (A') (A') (A') (A')
                 (A') (A") (A') (A') (A") (A') (A') (A") (A') (A')
                 (A") (A') (A") (A') (A") (A') (A")
       Virtual   (A") (A") (A') (A') (A") (A') (A") (A') (A') (A')
                 (A") (A') (A") (A') (A') (A") (A') (A") (A') (A')
                 (A") (A') (A') (A") (A') (A') (A') (A') (A') (A")
                 (A') (A") (A') (A") (A') (A') (A') (A") (A') (A')
                 (A') (A") (A") (A') (A') (A') (A") (A') (A') (A")
                 (A') (A") (A') (A') (A') (A') (A") (A') (A") (A')
                 (A') (A') (A') (A") (A') (A') (A") (A') (A') (A')
                 (A') (A') (A') (A') (A') (A') (A') (A') (A') (A')
                 (A') (A') (A') (A') (A') (A') (A') (A') (A') (A')
                 (A") (A") (A') (A') (A') (A') (A') (A') (A") (A')
                 (A") (A') (A") (A') (A') (A") (A") (A') (A') (A")
                 (A') (A") (A') (A") (A') (A") (A') (A") (A') (A")
                 (A') (A') (A') (A') (A") (A") (A') (A') (A') (A')
                 (A') (A') (A') (A') (A') (A') (A') (A') (A') (A')
                 (A') (A') (A') (A") (A') (A') (A') (A') (A") (A')
                 (A') (A") (A') (A') (A') (A") (A') (A") (A") (A')
                 (A") (A') (A') (A") (A") (A") (A") (A') (A') (A")
                 (A') (A') (A') (A') (A') (A') (A') (A") (A") (A')
                 (A') (A") (A') (A") (A') (A") (A') (A") (A') (A')
                 (A") (A") (A') (A') (A') (A") (A') (A') (A") (A')
                 (A") (A") (A') (A') (A') (A") (A") (A') (A') (A")
                 (A') (A') (A") (A') (A') (A') (A') (A') (A') (A")
                 (A") (A') (A") (A') (A") (A') (A') (A') (A") (A")
                 (A') (A') (A') (A") (A') (A') (A") (A") (A') (A')
                 (A") (A') (A') (A') (A") (A') (A') (A') (A') (A")
                 (A') (A') (A') (A') (A') (A') (A") (A') (A") (A')
                 (A') (A') (A") (A') (A') (A") (A') (A') (A') (A")
                 (A') (A") (A') (A") (A") (A") (A') (A') (A') (A")
                 (A') (A") (A") (A') (A') (A") (A') (A") (A') (A')
                 (A') (A') (A') (A') (A') (A') (A') (A") (A') (A')
                 (A') (A') (A') (A') (A') (A') (A') (A') (A') (A')
                 (A') (A') (A') (A') (A') (A') (A') (A') (A') (A')
                 (A') (A') (A') (A') (A') (A') (A') (A') (A') (A')
                 (A') (A')
     4 initial guesses have been made.
 Convergence on wavefunction:    0.001000000000000
 Iteration     1 Dimension     4 NMult     0 NNew      4
 CISAX will form     4 AO SS matrices at one time.
 Iteration     2 Dimension     6 NMult     4 NNew      2
 Iteration     3 Dimension     8 NMult     6 NNew      2
 Iteration     4 Dimension    10 NMult     8 NNew      2
 Iteration     5 Dimension    12 NMult    10 NNew      2
 Iteration     6 Dimension    14 NMult    12 NNew      2
 ***********************************************************************
 Excited states from <AA,BB:AA,BB> singles matrix:
 ***********************************************************************
 
 Ground to excited state transition densities written to RWF  633
 Ground to excited state transition electric dipole moments (Au):
       state          X           Y           Z        Dip. S.      Osc.
         1        -1.1061      1.6518      0.0000      3.9518      0.0900
 Ground to excited state transition velocity dipole moments (Au):
       state          X           Y           Z        Dip. S.      Osc.
         1         0.0391     -0.0522     -0.0000      0.0042      0.0829
 Ground to excited state transition magnetic dipole moments (Au):
       state          X           Y           Z
         1        -0.0000      0.0000      0.4875
 Ground to excited state transition velocity quadrupole moments (Au):
       state          XX          YY          ZZ          XY          XZ          YZ
         1        -0.0266      0.0725     -0.0038     -0.0321      0.0000      0.0000
 <0|del|b> * <b|rxdel|0> + <0|del|b> * <b|delr+rdel|0>
 Rotatory Strengths (R) in cgs (10**-40 erg-esu-cm/Gauss)
       state          XX          YY          ZZ    R(velocity)    E-M Angle
         1        -0.0000     -0.0000     -0.0000     -0.0000       90.00
 1/2[<0|r|b>*<b|rxdel|0> + (<0|rxdel|b>*<b|r|0>)*]
 Rotatory Strengths (R) in cgs (10**-40 erg-esu-cm/Gauss)
       state          XX          YY          ZZ     R(length)
         1        -0.0000     -0.0000     -0.0000     -0.0000
  1/2[<0|del|b>*<b|r|0> + (<0|r|b>*<b|del|0>)*] (Au)
       state          X           Y           Z        Dip. S.   Osc.(frdel)
         1        -0.0432     -0.0862     -0.0000      0.1294      0.0863

 Excitation energies and oscillator strengths:
 
 Excited State   1:      Singlet-A'     0.9291 eV 1334.46 nm  f=0.0900  <S**2>=0.000
      47 -> 48         0.73446
      47 <- 48        -0.21886
 This state for optimization and/or second-order correction.
 Total Energy, E(TD-HF/TD-DFT) =  -538.824335485    
 Copying the excited state density for this state as the 1-particle RhoCI density.
 SavETr:  write IOETrn=   770 NScale= 10 NData=  16 NLR=1 NState=    1 LETran=      28.

 **********************************************************************

            Population analysis using the SCF Density.

 **********************************************************************

 Orbital symmetries:
       Occupied  (A') (A') (A') (A') (A') (A') (A') (A') (A') (A')
                 (A') (A') (A') (A') (A') (A') (A') (A') (A') (A')
                 (A') (A') (A') (A') (A') (A') (A') (A') (A') (A')
                 (A') (A") (A') (A') (A") (A') (A') (A") (A') (A')
                 (A") (A') (A") (A') (A") (A') (A")
       Virtual   (A") (A") (A') (A') (A") (A') (A") (A') (A') (A')
                 (A") (A') (A") (A') (A') (A") (A') (A") (A') (A')
                 (A") (A') (A') (A") (A') (A') (A') (A') (A') (A")
                 (A') (A") (A') (A") (A') (A') (A') (A") (A') (A')
                 (A') (A") (A") (A') (A') (A') (A") (A') (A') (A")
                 (A') (A") (A') (A') (A') (A') (A") (A') (A") (A')
                 (A') (A') (A') (A") (A') (A') (A") (A') (A') (A')
                 (A') (A') (A') (A') (A') (A') (A') (A') (A') (A')
                 (A') (A') (A') (A') (A') (A') (A') (A') (A') (A')
                 (A") (A") (A') (A') (A') (A') (A') (A') (A") (A')
                 (A") (A') (A") (A') (A') (A") (A") (A') (A') (A")
                 (A') (A") (A') (A") (A') (A") (A') (A") (A') (A")
                 (A') (A') (A') (A') (A") (A") (A') (A') (A') (A')
                 (A') (A') (A') (A') (A') (A') (A') (A') (A') (A')
                 (A') (A') (A') (A") (A') (A') (A') (A') (A") (A')
                 (A') (A") (A') (A') (A') (A") (A') (A") (A") (A')
                 (A") (A') (A') (A") (A") (A") (A") (A') (A') (A")
                 (A') (A') (A') (A') (A') (A') (A') (A") (A") (A')
                 (A') (A") (A') (A") (A') (A") (A') (A") (A') (A')
                 (A") (A") (A') (A') (A') (A") (A') (A') (A") (A')
                 (A") (A") (A') (A') (A') (A") (A") (A') (A') (A")
                 (A') (A') (A") (A') (A') (A') (A') (A') (A') (A")
                 (A") (A') (A") (A') (A") (A') (A') (A') (A") (A")
                 (A') (A') (A') (A") (A') (A') (A") (A") (A') (A')
                 (A") (A') (A') (A') (A") (A') (A') (A') (A') (A")
                 (A') (A') (A') (A') (A') (A') (A") (A') (A") (A')
                 (A') (A') (A") (A') (A') (A") (A') (A') (A') (A")
                 (A') (A") (A') (A") (A") (A") (A') (A') (A') (A")
                 (A') (A") (A") (A') (A') (A") (A') (A") (A') (A')
                 (A') (A') (A') (A') (A') (A') (A') (A") (A') (A')
                 (A') (A') (A') (A') (A') (A') (A') (A') (A') (A')
                 (A') (A') (A') (A') (A') (A') (A') (A') (A') (A')
                 (A') (A') (A') (A') (A') (A') (A') (A') (A') (A')
                 (A') (A')
 The electronic state is 1-A'.
 Alpha  occ. eigenvalues --  -10.79272 -10.74279 -10.73168 -10.71221 -10.70599
 Alpha  occ. eigenvalues --  -10.70404 -10.70197 -10.69958 -10.69737 -10.69474
 Alpha  occ. eigenvalues --  -10.68087 -10.68030 -10.66756 -10.66686  -1.21371
 Alpha  occ. eigenvalues --   -1.14499  -1.13106  -1.07116  -1.03781  -1.01418
 Alpha  occ. eigenvalues --   -0.96080  -0.87807  -0.85845  -0.84545  -0.82855
 Alpha  occ. eigenvalues --   -0.76850  -0.76381  -0.74777  -0.73850  -0.69915
 Alpha  occ. eigenvalues --   -0.69438  -0.68898  -0.66940  -0.64747  -0.63873
 Alpha  occ. eigenvalues --   -0.62392  -0.61974  -0.60264  -0.58126  -0.57077
 Alpha  occ. eigenvalues --   -0.55719  -0.54013  -0.52767  -0.51040  -0.48856
 Alpha  occ. eigenvalues --   -0.45905  -0.35293
 Alpha virt. eigenvalues --   -0.27624  -0.16715  -0.11474  -0.10493  -0.10321
 Alpha virt. eigenvalues --   -0.10024  -0.08424  -0.07943  -0.07854  -0.07337
 Alpha virt. eigenvalues --   -0.07183  -0.06218  -0.05983  -0.05514  -0.05182
 Alpha virt. eigenvalues --   -0.05003  -0.04119  -0.03827  -0.03513  -0.03085
 Alpha virt. eigenvalues --   -0.02316  -0.02238  -0.01495  -0.00979  -0.00427
 Alpha virt. eigenvalues --    0.00311   0.00674   0.00827   0.01127   0.01749
 Alpha virt. eigenvalues --    0.01915   0.02062   0.02583   0.02930   0.02957
 Alpha virt. eigenvalues --    0.03525   0.03763   0.04342   0.05151   0.05507
 Alpha virt. eigenvalues --    0.05553   0.05613   0.05844   0.05989   0.06402
 Alpha virt. eigenvalues --    0.06899   0.07356   0.07693   0.07985   0.08162
 Alpha virt. eigenvalues --    0.08484   0.08636   0.09249   0.09695   0.10236
 Alpha virt. eigenvalues --    0.10537   0.10660   0.11262   0.11547   0.12037
 Alpha virt. eigenvalues --    0.12514   0.12711   0.13300   0.13519   0.13965
 Alpha virt. eigenvalues --    0.14288   0.16104   0.16685   0.17024   0.17394
 Alpha virt. eigenvalues --    0.18003   0.18559   0.19860   0.20342   0.21123
 Alpha virt. eigenvalues --    0.21377   0.22254   0.22819   0.23233   0.24086
 Alpha virt. eigenvalues --    0.25500   0.25555   0.25792   0.26753   0.28327
 Alpha virt. eigenvalues --    0.29559   0.31207   0.32309   0.32535   0.35819
 Alpha virt. eigenvalues --    0.35949   0.37775   0.37792   0.39373   0.39810
 Alpha virt. eigenvalues --    0.40606   0.41520   0.41807   0.42649   0.43977
 Alpha virt. eigenvalues --    0.44316   0.44988   0.46006   0.46808   0.47567
 Alpha virt. eigenvalues --    0.48022   0.49346   0.50538   0.50955   0.51322
 Alpha virt. eigenvalues --    0.51789   0.51913   0.52364   0.53784   0.54949
 Alpha virt. eigenvalues --    0.55986   0.56665   0.58454   0.59132   0.59647
 Alpha virt. eigenvalues --    0.59924   0.61267   0.62748   0.63604   0.63757
 Alpha virt. eigenvalues --    0.64324   0.64959   0.66186   0.67297   0.68715
 Alpha virt. eigenvalues --    0.70912   0.72055   0.73202   0.74086   0.74547
 Alpha virt. eigenvalues --    0.74824   0.75754   0.76949   0.77181   0.78167
 Alpha virt. eigenvalues --    0.78814   0.79827   0.81078   0.81248   0.82040
 Alpha virt. eigenvalues --    0.83405   0.84487   0.84615   0.85300   0.86819
 Alpha virt. eigenvalues --    0.88474   0.89335   0.89561   0.90503   0.93254
 Alpha virt. eigenvalues --    0.94293   0.96586   0.96633   1.00188   1.03515
 Alpha virt. eigenvalues --    1.04114   1.04393   1.04665   1.05673   1.07931
 Alpha virt. eigenvalues --    1.08702   1.10871   1.11254   1.11936   1.15449
 Alpha virt. eigenvalues --    1.16354   1.16619   1.18164   1.19558   1.23835
 Alpha virt. eigenvalues --    1.28552   1.29827   1.33573   1.34351   1.35584
 Alpha virt. eigenvalues --    1.37287   1.37868   1.38971   1.39731   1.42087
 Alpha virt. eigenvalues --    1.44783   1.45010   1.47643   1.48379   1.50523
 Alpha virt. eigenvalues --    1.52190   1.53026   1.54245   1.55828   1.56838
 Alpha virt. eigenvalues --    1.56862   1.58275   1.59697   1.60307   1.61483
 Alpha virt. eigenvalues --    1.62046   1.64770   1.66244   1.67474   1.69524
 Alpha virt. eigenvalues --    1.69734   1.70426   1.71217   1.73571   1.74391
 Alpha virt. eigenvalues --    1.75925   1.76278   1.78341   1.79820   1.80835
 Alpha virt. eigenvalues --    1.82134   1.83825   1.84732   1.86886   1.87039
 Alpha virt. eigenvalues --    1.89317   1.89562   1.91324   1.92237   1.94054
 Alpha virt. eigenvalues --    1.96687   1.96907   2.00094   2.01785   2.04247
 Alpha virt. eigenvalues --    2.04665   2.06545   2.08576   2.12613   2.15084
 Alpha virt. eigenvalues --    2.18918   2.19480   2.20054   2.21921   2.23144
 Alpha virt. eigenvalues --    2.25593   2.26955   2.31215   2.33188   2.33994
 Alpha virt. eigenvalues --    2.35445   2.36700   2.40888   2.42602   2.43618
 Alpha virt. eigenvalues --    2.44309   2.45185   2.50819   2.52395   2.53538
 Alpha virt. eigenvalues --    2.56962   2.57279   2.58269   2.60517   2.60659
 Alpha virt. eigenvalues --    2.62275   2.62770   2.63668   2.63900   2.65645
 Alpha virt. eigenvalues --    2.66062   2.66743   2.67402   2.68480   2.70646
 Alpha virt. eigenvalues --    2.70743   2.72917   2.74014   2.74670   2.76924
 Alpha virt. eigenvalues --    2.79626   2.80528   2.80795   2.83649   2.84828
 Alpha virt. eigenvalues --    2.89879   2.90481   2.93135   2.94714   2.96706
 Alpha virt. eigenvalues --    2.98686   3.00992   3.01600   3.06107   3.08618
 Alpha virt. eigenvalues --    3.11283   3.13924   3.17670   3.22778   3.29442
 Alpha virt. eigenvalues --    3.32351   3.35790   3.36308   3.42109   3.48366
 Alpha virt. eigenvalues --    3.50865   3.62258   3.65533   3.66725   3.69110
 Alpha virt. eigenvalues --    3.74640   3.77633   3.79933   3.84442   3.90692
 Alpha virt. eigenvalues --    3.94834   4.00031   4.05667   4.17548   4.19708
 Alpha virt. eigenvalues --    4.22060   4.35736   4.47931  23.40537  23.49806
 Alpha virt. eigenvalues --   23.51714  23.54156  23.71235  23.77083  23.85876
 Alpha virt. eigenvalues --   23.96272  24.35943  24.39140  24.82664  24.99022
 Alpha virt. eigenvalues --   25.54756  25.70845
          Condensed to atoms (all electrons):
               1          2          3          4          5          6
     1  C    7.091085   1.265722  -0.469700   0.462540  -0.165881  -0.075598
     2  C    1.265722   8.426965   0.542084   0.572514  -0.249335  -0.032596
     3  C   -0.469700   0.542084   7.112672   0.240741   0.020079   0.021028
     4  C    0.462540   0.572514   0.240741  12.651553  -0.857343  -0.312437
     5  C   -0.165881  -0.249335   0.020079  -0.857343   8.236695   1.632914
     6  C   -0.075598  -0.032596   0.021028  -0.312437   1.632914   8.259718
     7  C    0.017696   0.006396  -0.005490   0.228529  -1.957754  -2.668233
     8  C    0.225019   0.014523  -0.105751  -0.246073   2.387823   1.737871
     9  C   -0.145441  -0.560956   0.105331   0.745500  -0.467254   0.236754
    10  C   -0.136295  -0.963394   0.280252  -2.716802  -1.315846  -1.636662
    11  C   -0.047515  -0.333131  -0.028047  -1.708326  -0.875442   0.460958
    12  C   -1.130896  -1.205915  -2.240552   1.160294  -0.339464  -1.120552
    13  C    0.021266  -0.349841  -0.319466  -0.830279   0.016895   1.203237
    14  C   -1.328617  -1.101150   0.826684  -3.739846  -0.184742  -1.614142
    15  H    0.387393  -0.057413   0.001353  -0.011821   0.005296   0.002114
    16  H   -0.008965   0.385339  -0.049725   0.063584  -0.005136  -0.000809
    17  H   -0.000229  -0.046653   0.392474  -0.079248   0.004594   0.000870
    18  H    0.014352   0.042422  -0.020524   0.557088  -0.012361  -0.007618
    19  H   -0.008604  -0.026229   0.041316  -0.263614   0.011460   0.065844
    20  H   -0.001380   0.000739  -0.004323   0.039647   0.409530  -0.106580
    21  H   -0.001540  -0.000689   0.000469  -0.003562  -0.023777   0.333153
    22  H    0.000365   0.000051  -0.000036   0.001112  -0.012202  -0.026888
    23  H    0.003813   0.000587   0.000561  -0.009845   0.032310   0.069770
    24  H    0.039957   0.015020  -0.001498   0.004086  -0.020047  -0.008386
    25  H    0.039957   0.015020  -0.001498   0.004086  -0.020047  -0.008386
               7          8          9         10         11         12
     1  C    0.017696   0.225019  -0.145441  -0.136295  -0.047515  -1.130896
     2  C    0.006396   0.014523  -0.560956  -0.963394  -0.333131  -1.205915
     3  C   -0.005490  -0.105751   0.105331   0.280252  -0.028047  -2.240552
     4  C    0.228529  -0.246073   0.745500  -2.716802  -1.708326   1.160294
     5  C   -1.957754   2.387823  -0.467254  -1.315846  -0.875442  -0.339464
     6  C   -2.668233   1.737871   0.236754  -1.636662   0.460958  -1.120552
     7  C   11.517209  -4.655940  -0.755326   1.124678  -0.744519   0.855481
     8  C   -4.655940  13.551298  -0.775529  -0.810398   0.162236  -0.509280
     9  C   -0.755326  -0.775529   8.500074  -0.387560   0.541040  -1.404657
    10  C    1.124678  -0.810398  -0.387560  10.576995   0.114220   2.133696
    11  C   -0.744519   0.162236   0.541040   0.114220  14.125839  -4.662367
    12  C    0.855481  -0.509280  -1.404657   2.133696  -4.662367  19.522090
    13  C    0.094329  -2.137933  -0.113452  -1.523049  -0.472636  -1.757706
    14  C    3.147206  -3.312037   0.044265   0.804276  -0.087088  -3.503618
    15  H   -0.004189   0.002227  -0.014278   0.011714  -0.042639   0.090156
    16  H    0.000921   0.002007   0.011314  -0.042227   0.028909  -0.023199
    17  H   -0.000256  -0.001710  -0.002814   0.034613   0.000583   0.019476
    18  H    0.003617   0.005551  -0.001387  -0.017672  -0.046483  -0.025725
    19  H   -0.009681  -0.057594   0.045175   0.399724   0.168199  -0.416939
    20  H   -0.000711   0.081549  -0.017690   0.158192  -0.051696   0.088586
    21  H    0.034449  -0.046495   0.000465  -0.008216   0.002531  -0.013068
    22  H    0.365452  -0.018459  -0.004732   0.006170  -0.008732   0.007175
    23  H   -0.183082   0.421788   0.087406  -0.025813   0.057306  -0.035839
    24  H    0.014012  -0.031231   0.380567   0.015628   0.025241  -0.014078
    25  H    0.014012  -0.031231   0.380567   0.015628   0.025241  -0.014078
              13         14         15         16         17         18
     1  C    0.021266  -1.328617   0.387393  -0.008965  -0.000229   0.014352
     2  C   -0.349841  -1.101150  -0.057413   0.385339  -0.046653   0.042422
     3  C   -0.319466   0.826684   0.001353  -0.049725   0.392474  -0.020524
     4  C   -0.830279  -3.739846  -0.011821   0.063584  -0.079248   0.557088
     5  C    0.016895  -0.184742   0.005296  -0.005136   0.004594  -0.012361
     6  C    1.203237  -1.614142   0.002114  -0.000809   0.000870  -0.007618
     7  C    0.094329   3.147206  -0.004189   0.000921  -0.000256   0.003617
     8  C   -2.137933  -3.312037   0.002227   0.002007  -0.001710   0.005551
     9  C   -0.113452   0.044265  -0.014278   0.011314  -0.002814  -0.001387
    10  C   -1.523049   0.804276   0.011714  -0.042227   0.034613  -0.017672
    11  C   -0.472636  -0.087088  -0.042639   0.028909   0.000583  -0.046483
    12  C   -1.757706  -3.503618   0.090156  -0.023199   0.019476  -0.025725
    13  C   11.733944   0.585169  -0.039776   0.006601  -0.003677  -0.007363
    14  C    0.585169  14.931449   0.009864  -0.035072   0.025029  -0.142989
    15  H   -0.039776   0.009864   0.417604  -0.001863   0.001255  -0.000541
    16  H    0.006601  -0.035072  -0.001863   0.394551  -0.002698   0.003441
    17  H   -0.003677   0.025029   0.001255  -0.002698   0.408560  -0.014821
    18  H   -0.007363  -0.142989  -0.000541   0.003441  -0.014821   0.433570
    19  H    0.072676   0.347856   0.001436  -0.001144   0.005721  -0.014263
    20  H   -0.050951  -0.211190  -0.000240   0.000040  -0.000432   0.003227
    21  H    0.014470   0.051217   0.000053  -0.000013   0.000015  -0.000189
    22  H    0.017389   0.016505  -0.000088   0.000006  -0.000002   0.000008
    23  H   -0.067987  -0.060340   0.000455  -0.000146  -0.000012  -0.000129
    24  H   -0.080004  -0.014105  -0.000184   0.000366  -0.000035   0.000047
    25  H   -0.080004  -0.014105  -0.000184   0.000366  -0.000035   0.000047
              19         20         21         22         23         24
     1  C   -0.008604  -0.001380  -0.001540   0.000365   0.003813   0.039957
     2  C   -0.026229   0.000739  -0.000689   0.000051   0.000587   0.015020
     3  C    0.041316  -0.004323   0.000469  -0.000036   0.000561  -0.001498
     4  C   -0.263614   0.039647  -0.003562   0.001112  -0.009845   0.004086
     5  C    0.011460   0.409530  -0.023777  -0.012202   0.032310  -0.020047
     6  C    0.065844  -0.106580   0.333153  -0.026888   0.069770  -0.008386
     7  C   -0.009681  -0.000711   0.034449   0.365452  -0.183082   0.014012
     8  C   -0.057594   0.081549  -0.046495  -0.018459   0.421788  -0.031231
     9  C    0.045175  -0.017690   0.000465  -0.004732   0.087406   0.380567
    10  C    0.399724   0.158192  -0.008216   0.006170  -0.025813   0.015628
    11  C    0.168199  -0.051696   0.002531  -0.008732   0.057306   0.025241
    12  C   -0.416939   0.088586  -0.013068   0.007175  -0.035839  -0.014078
    13  C    0.072676  -0.050951   0.014470   0.017389  -0.067987  -0.080004
    14  C    0.347856  -0.211190   0.051217   0.016505  -0.060340  -0.014105
    15  H    0.001436  -0.000240   0.000053  -0.000088   0.000455  -0.000184
    16  H   -0.001144   0.000040  -0.000013   0.000006  -0.000146   0.000366
    17  H    0.005721  -0.000432   0.000015  -0.000002  -0.000012  -0.000035
    18  H   -0.014263   0.003227  -0.000189   0.000008  -0.000129   0.000047
    19  H    0.562888  -0.023773   0.001273  -0.000339   0.000202   0.000482
    20  H   -0.023773   0.477855  -0.004020   0.001703  -0.001392   0.000419
    21  H    0.001273  -0.004020   0.414687  -0.001331   0.000888  -0.000121
    22  H   -0.000339   0.001703  -0.001331   0.423000  -0.005054   0.000662
    23  H    0.000202  -0.001392   0.000888  -0.005054   0.489274  -0.000208
    24  H    0.000482   0.000419  -0.000121   0.000662  -0.000208   0.460544
    25  H    0.000482   0.000419  -0.000121   0.000662  -0.000208  -0.064154
              25
     1  C    0.039957
     2  C    0.015020
     3  C   -0.001498
     4  C    0.004086
     5  C   -0.020047
     6  C   -0.008386
     7  C    0.014012
     8  C   -0.031231
     9  C    0.380567
    10  C    0.015628
    11  C    0.025241
    12  C   -0.014078
    13  C   -0.080004
    14  C   -0.014105
    15  H   -0.000184
    16  H    0.000366
    17  H   -0.000035
    18  H    0.000047
    19  H    0.000482
    20  H    0.000419
    21  H   -0.000121
    22  H    0.000662
    23  H   -0.000208
    24  H   -0.064154
    25  H    0.460544
 Mulliken charges:
               1
     1  C   -0.048504
     2  C   -0.360076
     3  C   -0.338433
     4  C    0.047921
     5  C   -0.250965
     6  C   -0.405348
     7  C   -0.438804
     8  C    0.147771
     9  C   -0.427381
    10  C   -0.091851
    11  C   -0.603681
    12  C    0.540978
    13  C    0.068150
    14  C    0.559521
    15  H    0.242298
    16  H    0.273554
    17  H    0.259431
    18  H    0.248695
    19  H    0.097447
    20  H    0.212472
    21  H    0.249473
    22  H    0.237603
    23  H    0.225694
    24  H    0.277019
    25  H    0.277019
 Sum of Mulliken charges =   1.00000
 Mulliken charges with hydrogens summed into heavy atoms:
               1
     1  C    0.193793
     2  C   -0.086523
     3  C   -0.079002
     4  C    0.296616
     5  C   -0.038494
     6  C   -0.155875
     7  C   -0.201201
     8  C    0.373465
     9  C    0.126657
    10  C    0.005596
    11  C   -0.603681
    12  C    0.540978
    13  C    0.068150
    14  C    0.559521
 Electronic spatial extent (au):  <R**2>=           2882.0463
 Charge=              1.0000 electrons
 Dipole moment (field-independent basis, Debye):
    X=              1.6083    Y=             -4.8364    Z=              0.0000  Tot=              5.0968
 Quadrupole moment (field-independent basis, Debye-Ang):
   XX=            -46.0308   YY=            -34.9836   ZZ=            -82.8629
   XY=            -16.0829   XZ=             -0.0000   YZ=             -0.0000
 Traceless Quadrupole moment (field-independent basis, Debye-Ang):
   XX=              8.5950   YY=             19.6422   ZZ=            -28.2371
   XY=            -16.0829   XZ=             -0.0000   YZ=             -0.0000
 Octapole moment (field-independent basis, Debye-Ang**2):
  XXX=             15.0167  YYY=            -46.1647  ZZZ=              0.0000  XYY=             10.7112
  XXY=             -5.6224  XXZ=              0.0000  XZZ=              3.3200  YZZ=            -10.6460
  YYZ=              0.0000  XYZ=             -0.0000
 Hexadecapole moment (field-independent basis, Debye-Ang**3):
 XXXX=          -1153.6515 YYYY=          -1678.3283 ZZZZ=            -97.0519 XXXY=            365.1235
 XXXZ=             -0.0000 YYYX=            303.8899 YYYZ=              0.0000 ZZZX=              0.0000
 ZZZY=              0.0000 XXYY=           -431.1628 XXZZ=           -280.3836 YYZZ=           -449.2246
 XXYZ=             -0.0000 YYXZ=             -0.0000 ZZXY=            201.9716
 N-N= 7.862766876814D+02 E-N=-2.810669452007D+03  KE= 5.409342262711D+02
 Symmetry A'   KE= 5.254961037688D+02
 Symmetry A"   KE= 1.543812250234D+01
 Unable to Open any file for archive entry.
 1\1\GINC-GADI-CPU-CLX-2808\SP\RM062X TD-FC\6-311++G(d,p)\C14H11(1+)\TS
 1578\02-Aug-2022\0\\#n M062X/6-311++G(d,p) TD(NStates=1) EmpiricalDisp
 ersion=GD3 SP\\SP_14\\1,1\C,0,0.,2.346655,1.348431\C,0,0.,3.485508,0.4
 57989\C,0,0.,3.527861,-1.03983\C,0,0.,2.671156,-1.531538\C,0,0.,-2.111
 156,-1.307538\C,0,0.,-3.779861,-0.59183\C,0,0.,-3.989508,0.681989\C,0,
 0.,-2.794655,1.348431\C,0,0.,-0.112,1.543369\C,0,0.,0.406,-1.339189\C,
 0,0.,1.406055,0.909065\C,0,0.,1.351471,-0.666804\C,0,0.,-1.154055,0.60
 1065\C,0,0.,-1.099471,-0.638804\H,0,0.,2.592071,2.431647\H,0,0.,4.4507
 53,0.957689\H,0,0.,4.535262,-1.456349\H,0,0.,2.43155,-2.614059\H,0,0.,
 0.35,-2.414266\H,0,0.,-2.17955,-2.390059\H,0,0.,-4.563262,-1.400349\H,
 0,0.,-4.954753,1.153689\H,0,0.,-2.732071,2.431647\H,0,-0.859585,-0.616
 ,2.235787\H,0,0.859585,-0.616,2.235787\\Version=ES64L-G16RevC.01\State
 =1-A'\HF=-538.8584791\RMSD=4.776e-09\PG=CS [SG(C14H9),X(H2)]\\@
 The archive entry for this job was punched.


 ALL SCIENCE IS EITHER PHYSICS, OR STAMP COLLECTING.
   --ERNEST RUTHERFORD, 1871-1937.
 Job cpu time:       0 days  0 hours 54 minutes 59.1 seconds.
 Elapsed time:       0 days  0 hours  1 minutes  9.0 seconds.
 File lengths (MBytes):  RWF=    460 Int=      0 D2E=      0 Chk=     15 Scr=      1
 Normal termination of Gaussian 16 at Tue Aug  2 13:28:45 2022.
