 Entering Gaussian System, Link 0=g16
 Initial command:
 /apps/gaussian/g16c01/g16/l1.exe "/jobfs/53803424.gadi-pbs/Gau-1845777.inp" -scrdir="/jobfs/53803424.gadi-pbs/"
 Entering Link 1 = /apps/gaussian/g16c01/g16/l1.exe PID=   1845778.
  
 Copyright (c) 1988-2019, Gaussian, Inc.  All Rights Reserved.
  
 This is part of the Gaussian(R) 16 program.  It is based on
 the Gaussian(R) 09 system (copyright 2009, Gaussian, Inc.),
 the Gaussian(R) 03 system (copyright 2003, Gaussian, Inc.),
 the Gaussian(R) 98 system (copyright 1998, Gaussian, Inc.),
 the Gaussian(R) 94 system (copyright 1995, Gaussian, Inc.),
 the Gaussian 92(TM) system (copyright 1992, Gaussian, Inc.),
 the Gaussian 90(TM) system (copyright 1990, Gaussian, Inc.),
 the Gaussian 88(TM) system (copyright 1988, Gaussian, Inc.),
 the Gaussian 86(TM) system (copyright 1986, Carnegie Mellon
 University), and the Gaussian 82(TM) system (copyright 1983,
 Carnegie Mellon University). Gaussian is a federally registered
 trademark of Gaussian, Inc.
  
 This software contains proprietary and confidential information,
 including trade secrets, belonging to Gaussian, Inc.
  
 This software is provided under written license and may be
 used, copied, transmitted, or stored only in accord with that
 written license.
  
 The following legend is applicable only to US Government
 contracts under FAR:
  
                    RESTRICTED RIGHTS LEGEND
  
 Use, reproduction and disclosure by the US Government is
 subject to restrictions as set forth in subparagraphs (a)
 and (c) of the Commercial Computer Software - Restricted
 Rights clause in FAR 52.227-19.
  
 Gaussian, Inc.
 340 Quinnipiac St., Bldg. 40, Wallingford CT 06492
  
  
 ---------------------------------------------------------------
 Warning -- This program may not be used in any manner that
 competes with the business of Gaussian, Inc. or will provide
 assistance to any competitor of Gaussian, Inc.  The licensee
 of this program is prohibited from giving any competitor of
 Gaussian, Inc. access to this program.  By using this program,
 the user acknowledges that Gaussian, Inc. is engaged in the
 business of creating and licensing software in the field of
 computational chemistry and represents and warrants to the
 licensee that it is not a competitor of Gaussian, Inc. and that
 it will not use this program in any manner prohibited above.
 ---------------------------------------------------------------
  

 Cite this work as:
 Gaussian 16, Revision C.01,
 M. J. Frisch, G. W. Trucks, H. B. Schlegel, G. E. Scuseria, 
 M. A. Robb, J. R. Cheeseman, G. Scalmani, V. Barone, 
 G. A. Petersson, H. Nakatsuji, X. Li, M. Caricato, A. V. Marenich, 
 J. Bloino, B. G. Janesko, R. Gomperts, B. Mennucci, H. P. Hratchian, 
 J. V. Ortiz, A. F. Izmaylov, J. L. Sonnenberg, D. Williams-Young, 
 F. Ding, F. Lipparini, F. Egidi, J. Goings, B. Peng, A. Petrone, 
 T. Henderson, D. Ranasinghe, V. G. Zakrzewski, J. Gao, N. Rega, 
 G. Zheng, W. Liang, M. Hada, M. Ehara, K. Toyota, R. Fukuda, 
 J. Hasegawa, M. Ishida, T. Nakajima, Y. Honda, O. Kitao, H. Nakai, 
 T. Vreven, K. Throssell, J. A. Montgomery, Jr., J. E. Peralta, 
 F. Ogliaro, M. J. Bearpark, J. J. Heyd, E. N. Brothers, K. N. Kudin, 
 V. N. Staroverov, T. A. Keith, R. Kobayashi, J. Normand, 
 K. Raghavachari, A. P. Rendell, J. C. Burant, S. S. Iyengar, 
 J. Tomasi, M. Cossi, J. M. Millam, M. Klene, C. Adamo, R. Cammi, 
 J. W. Ochterski, R. L. Martin, K. Morokuma, O. Farkas, 
 J. B. Foresman, and D. J. Fox, Gaussian, Inc., Wallingford CT, 2019.
 
 ******************************************
 Gaussian 16:  ES64L-G16RevC.01  3-Jul-2019
                 2-Aug-2022 
 ******************************************
 %NProcShared=48
 Will use up to   48 processors via shared memory.
 %mem = 190GB
 ---------------------------------------------------------------
 #n M062X/6-311++G(d,p) TD(NStates=1) EmpiricalDispersion=GD3 SP
 ---------------------------------------------------------------
 1/38=1,172=1/1;
 2/12=2,17=6,18=5,40=1/2;
 3/5=4,6=6,7=1111,11=9,25=1,30=1,74=-55,124=31/1,2,3,8;
 4//1;
 5/5=2,38=5/2;
 8/6=1,10=2,108=1/1;
 9/41=1,42=1,70=2/14;
 6/7=2,8=2,9=2,10=2/1;
 99/5=1,9=1/99;
 ----
 SP_8
 ----
 Symbolic Z-matrix:
 Charge =  1 Multiplicity = 1
 C                     0.        2.39066   1.35643 
 C                     0.        3.56951   0.57399 
 C                     0.        3.60186  -0.87583 
 C                     0.        2.59916  -1.47554 
 C                     0.       -2.27916  -1.34754 
 C                     0.       -3.74586  -0.61983 
 C                     0.       -3.85751   0.70199 
 C                     0.       -2.64665   1.35643 
 C                     0.       -0.064     1.48337 
 C                     0.        0.232    -1.39919 
 C                     0.        1.34005   0.79107 
 C                     0.        1.30547  -0.7128 
 C                     0.       -1.19606   0.61507 
 C                     0.       -1.16147  -0.6968 
 H                     0.        2.50607   2.43965 
 H                     0.        4.51475   1.10369 
 H                     0.        4.58126  -1.34035 
 H                     0.        2.48555  -2.55806 
 H                     0.        0.2      -2.47827 
 H                     0.       -2.34155  -2.43006 
 H                     0.       -4.59726  -1.30835 
 H                     0.       -4.80275   1.21569 
 H                     0.       -2.58607   2.43965 
 H                    -0.85959  -0.352     2.17579 
 H                     0.85959  -0.352     2.17579 
 
                          Input orientation:                          
 ---------------------------------------------------------------------
 Center     Atomic      Atomic             Coordinates (Angstroms)
 Number     Number       Type             X           Y           Z
 ---------------------------------------------------------------------
      1          6           0        0.000000    2.390655    1.356431
      2          6           0        0.000000    3.569508    0.573989
      3          6           0        0.000000    3.601861   -0.875830
      4          6           0        0.000000    2.599156   -1.475538
      5          6           0        0.000000   -2.279156   -1.347538
      6          6           0        0.000000   -3.745861   -0.619830
      7          6           0        0.000000   -3.857508    0.701989
      8          6           0        0.000000   -2.646655    1.356431
      9          6           0        0.000000   -0.064000    1.483369
     10          6           0        0.000000    0.232000   -1.399189
     11          6           0        0.000000    1.340055    0.791065
     12          6           0        0.000000    1.305471   -0.712804
     13          6           0        0.000000   -1.196055    0.615065
     14          6           0        0.000000   -1.161471   -0.696804
     15          1           0        0.000000    2.506071    2.439647
     16          1           0        0.000000    4.514753    1.103689
     17          1           0        0.000000    4.581262   -1.340349
     18          1           0        0.000000    2.485550   -2.558059
     19          1           0        0.000000    0.200000   -2.478266
     20          1           0        0.000000   -2.341550   -2.430059
     21          1           0        0.000000   -4.597262   -1.308349
     22          1           0        0.000000   -4.802753    1.215689
     23          1           0        0.000000   -2.586071    2.439647
     24          1           0       -0.859585   -0.352000    2.175787
     25          1           0        0.859585   -0.352000    2.175787
 ---------------------------------------------------------------------
                    Distance matrix (angstroms):
                    1          2          3          4          5
     1  C    0.000000
     2  C    1.414889   0.000000
     3  C    2.539687   1.450180   0.000000
     4  C    2.839634   2.267630   1.168361   0.000000
     5  C    5.396164   6.156227   5.899904   4.879991   0.000000
     6  C    6.446894   7.412141   7.352180   6.402459   1.637310
     7  C    6.282343   7.428119   7.624415   6.813966   2.586843
     8  C    5.037310   6.265213   6.635280   5.961424   2.728828
     9  C    2.457935   3.745578   4.359399   3.980896   3.594572
    10  C    3.500462   3.877163   3.410259   2.368387   2.511687
    11  C    1.193063   2.239996   2.809681   2.592841   4.203845
    12  C    2.336527   2.604170   2.302170   1.501794   3.640390
    13  C    3.662528   4.765740   5.024218   4.332926   2.241633
    14  C    4.102849   4.898681   4.766695   3.840409   1.293319
    15  H    1.089347   2.147459   3.491868   3.916291   6.102554
    16  H    2.139082   1.083545   2.179878   3.212775   7.222584
    17  H    3.474389   2.165257   1.083976   1.986711   6.860422
    18  H    3.915640   3.314316   2.018922   1.088466   4.916074
    19  H    4.416319   4.546410   3.760380   2.600272   2.724841
    20  H    6.060633   6.630604   6.143270   5.032066   1.084318
    21  H    7.478772   8.380891   8.210523   7.198360   2.318437
    22  H    7.194785   8.396817   8.660946   7.875974   3.597037
    23  H    5.093246   6.432094   7.020177   6.497327   3.799601
    24  H    2.988710   4.322368   5.067965   4.772880   4.106901
    25  H    2.988710   4.322368   5.067965   4.772880   4.106901
                    6          7          8          9         10
     6  C    0.000000
     7  C    1.326526   0.000000
     8  C    2.261385   1.376394   0.000000
     9  C    4.240230   3.873146   2.585773   0.000000
    10  C    4.053490   4.597720   3.984984   2.897716   0.000000
    11  C    5.277989   5.198326   4.026598   1.565457   2.454587
    12  C    5.052188   5.353316   4.461057   2.588171   1.274152
    13  C    2.833104   2.662872   1.629068   1.426710   2.469121
    14  C    2.585536   3.037308   2.534077   2.440819   1.560483
    15  H    6.960392   6.596559   5.265353   2.742213   4.461845
    16  H    8.438499   8.381892   7.165867   4.594468   4.960481
    17  H    8.358237   8.682395   7.714623   5.436161   4.349660
    18  H    6.525888   7.131781   6.454670   4.778425   2.534061
    19  H    4.361606   5.155327   4.775808   3.970422   1.079551
    20  H    2.291074   3.479634   3.798762   4.527930   2.772337
    21  H    1.094962   2.142124   3.302411   5.323923   4.830116
    22  H    2.118054   1.075814   2.160687   4.746307   5.673299
    23  H    3.271928   2.153139   1.084909   2.697278   4.762162
    24  H    4.480251   3.898660   2.583732   1.140734   3.722955
    25  H    4.480251   3.898660   2.583732   1.140734   3.722955
                   11         12         13         14         15
    11  C    0.000000
    12  C    1.504267   0.000000
    13  C    2.542210   2.832114   0.000000
    14  C    2.910565   2.466994   1.312325   0.000000
    15  H    2.019261   3.373335   4.127328   4.825784   0.000000
    16  H    3.190053   3.687701   5.731674   5.954939   2.412382
    17  H    3.879220   3.335359   6.099265   5.778679   4.312167
    18  H    3.539603   2.190332   4.860343   4.094512   4.997748
    19  H    3.462405   2.083008   3.393769   2.242144   5.431743
    20  H    4.891815   4.031095   3.253450   2.096845   6.871206
    21  H    6.297561   5.932700   3.907394   3.489792   8.031489
    22  H    6.157467   6.405426   3.656367   4.112975   7.410599
    23  H    4.258202   5.008198   2.293740   3.444824   5.092142
    24  H    2.349339   3.439485   1.971590   3.105786   2.996177
    25  H    2.349339   3.439485   1.971590   3.105786   2.996177
                   16         17         18         19         20
    16  H    0.000000
    17  H    2.444943   0.000000
    18  H    4.186414   2.423804   0.000000
    19  H    5.607807   4.526623   2.286942   0.000000
    20  H    7.713382   7.008052   4.828797   2.542007   0.000000
    21  H    9.425855   9.178580   7.192218   4.937857   2.519220
    22  H    9.318179   9.725897   8.207346   6.218749   4.398750
    23  H    7.225406   8.103026   7.120281   5.652261   4.875841
    24  H    5.057031   6.118756   5.585685   4.764850   5.090286
    25  H    5.057031   6.118756   5.585685   4.764850   5.090286
                   21         22         23         24         25
    21  H    0.000000
    22  H    2.532389   0.000000
    23  H    4.253512   2.532144   0.000000
    24  H    5.558807   4.633560   2.408232   0.000000
    25  H    5.558807   4.633560   2.408232   1.719170   0.000000
 Stoichiometry    C14H11(1+)
 Framework group  CS[SG(C14H9),X(H2)]
 Deg. of freedom    46
 Full point group                 CS      NOp   2
 Largest Abelian subgroup         CS      NOp   2
 Largest concise Abelian subgroup CS      NOp   2
                         Standard orientation:                         
 ---------------------------------------------------------------------
 Center     Atomic      Atomic             Coordinates (Angstroms)
 Number     Number       Type             X           Y           Z
 ---------------------------------------------------------------------
      1          6           0       -2.302967   -1.504682    0.000000
      2          6           0       -2.147928   -2.911051    0.000000
      3          6           0       -0.874222   -3.604372    0.000000
      4          6           0        0.118392   -2.988105    0.000000
      5          6           0        2.240748    1.406201    0.000000
      6          6           0        2.266299    3.043311    0.000000
      7          6           0        1.142700    3.748432    0.000000
      8          6           0        0.006031    2.972261    0.000000
      9          6           0       -1.290621    0.735095    0.000000
     10          6           0        1.135591   -0.849282    0.000000
     11          6           0       -1.318921   -0.830106    0.000000
     12          6           0        0.033505   -1.488712    0.000000
     13          6           0        0.000000    1.343204    0.000000
     14          6           0        1.150080    0.711133    0.000000
     15          1           0       -3.318587   -1.110735    0.000000
     16          1           0       -3.051983   -3.508340    0.000000
     17          1           0       -0.910314   -4.687747    0.000000
     18          1           0        1.132564   -3.383342    0.000000
     19          1           0        2.109296   -1.315468    0.000000
     20          1           0        3.231446    0.965449    0.000000
     21          1           0        3.268490    3.484396    0.000000
     22          1           0        1.119427    4.823994    0.000000
     23          1           0       -0.984455    3.414940    0.000000
     24          1           0       -1.773999    1.308447    0.859585
     25          1           0       -1.773999    1.308447   -0.859585
 ---------------------------------------------------------------------
 Rotational constants (GHZ):           2.1409228           0.4425276           0.3675200
 Standard basis: 6-311++G(d,p) (5D, 7F)
 There are   299 symmetry adapted cartesian basis functions of A'  symmetry.
 There are   100 symmetry adapted cartesian basis functions of A"  symmetry.
 There are   285 symmetry adapted basis functions of A'  symmetry.
 There are   100 symmetry adapted basis functions of A"  symmetry.
   385 basis functions,   603 primitive gaussians,   399 cartesian basis functions
    47 alpha electrons       47 beta electrons
       nuclear repulsion energy       782.8855099628 Hartrees.
 NAtoms=   25 NActive=   25 NUniq=   24 SFac= 1.09D+00 NAtFMM=   60 NAOKFM=F Big=F
 Integral buffers will be    131072 words long.
 Regular integral format.
 Two-electron integral symmetry is turned on.
 Nuclear repulsion after empirical dispersion term =      782.8845402278 Hartrees.
 One-electron integrals computed using PRISM.
 NBasis=   385 RedAO= T EigKep=  1.18D-06  NBF=   285   100
 NBsUse=   379 1.00D-06 EigRej=  7.28D-07 NBFU=   279   100
 ExpMin= 3.60D-02 ExpMax= 4.56D+03 ExpMxC= 6.82D+02 IAcc=3 IRadAn=         5 AccDes= 0.00D+00
 Harris functional with IExCor= 1009 and IRadAn=       5 diagonalized for initial guess.
 HarFok:  IExCor= 1009 AccDes= 0.00D+00 IRadAn=         5 IDoV= 1 UseB2=F ITyADJ=14
 ICtDFT=  3500011 ScaDFX=  1.000000  1.000000  1.000000  1.000000
 FoFCou: FMM=F IPFlag=           0 FMFlag=      100000 FMFlg1=           0
         NFxFlg=           0 DoJE=T BraDBF=F KetDBF=T FulRan=T
         wScrn=  0.000000 ICntrl=       500 IOpCl=  0 I1Cent=   200000004 NGrid=           0
         NMat0=    1 NMatS0=      1 NMatT0=    0 NMatD0=    1 NMtDS0=    0 NMtDT0=    0
 Petite list used in FoFCou.
 Initial guess orbital symmetries:
       Occupied  (A') (A') (A') (A') (A') (A') (A') (A') (A') (A')
                 (A') (A') (A') (A') (A') (A') (A') (A') (A') (A')
                 (A') (A') (A') (A') (A') (A') (A') (A') (A') (A')
                 (A') (A') (A') (A") (A') (A') (A") (A') (A') (A')
                 (A") (A') (A") (A") (A') (A") (A")
       Virtual   (A") (A") (A") (A") (A") (A') (A') (A') (A') (A')
                 (A") (A') (A') (A") (A') (A') (A") (A') (A') (A')
                 (A') (A") (A') (A') (A") (A') (A") (A') (A') (A")
                 (A') (A') (A') (A') (A") (A') (A') (A') (A") (A')
                 (A") (A') (A') (A") (A') (A') (A') (A') (A') (A")
                 (A') (A") (A') (A") (A') (A') (A") (A') (A') (A")
                 (A') (A') (A') (A') (A') (A") (A') (A') (A') (A")
                 (A') (A') (A') (A') (A') (A') (A') (A') (A') (A')
                 (A') (A') (A') (A') (A') (A') (A') (A') (A') (A')
                 (A') (A') (A') (A') (A") (A') (A') (A") (A') (A")
                 (A') (A') (A") (A') (A') (A") (A') (A") (A") (A')
                 (A") (A') (A") (A") (A') (A') (A') (A") (A') (A")
                 (A") (A') (A') (A') (A") (A') (A') (A") (A') (A')
                 (A') (A') (A') (A') (A') (A') (A') (A') (A") (A')
                 (A') (A') (A') (A') (A') (A") (A') (A') (A') (A')
                 (A") (A') (A") (A") (A') (A') (A') (A") (A') (A")
                 (A') (A") (A') (A") (A") (A") (A') (A') (A') (A')
                 (A") (A') (A') (A') (A') (A') (A') (A") (A') (A')
                 (A") (A') (A") (A') (A") (A') (A") (A') (A") (A')
                 (A") (A') (A') (A') (A") (A') (A') (A") (A') (A")
                 (A') (A") (A") (A') (A') (A") (A") (A') (A") (A')
                 (A') (A') (A') (A") (A') (A") (A') (A') (A') (A")
                 (A") (A') (A') (A') (A") (A') (A') (A') (A") (A')
                 (A") (A') (A") (A') (A') (A') (A") (A") (A') (A")
                 (A') (A') (A') (A') (A") (A') (A') (A') (A') (A')
                 (A") (A') (A') (A") (A") (A') (A') (A") (A') (A')
                 (A") (A') (A') (A") (A') (A') (A') (A") (A') (A")
                 (A') (A') (A') (A') (A") (A") (A') (A') (A") (A')
                 (A") (A') (A") (A') (A") (A') (A") (A') (A') (A')
                 (A') (A') (A') (A') (A') (A') (A') (A') (A') (A')
                 (A") (A') (A') (A') (A') (A') (A') (A') (A') (A')
                 (A') (A') (A') (A') (A') (A') (A') (A') (A') (A')
                 (A') (A') (A') (A') (A') (A') (A') (A') (A') (A')
                 (A') (A')
 The electronic state of the initial guess is 1-A'.
 Requested convergence on RMS density matrix=1.00D-08 within 128 cycles.
 Requested convergence on MAX density matrix=1.00D-06.
 Requested convergence on             energy=1.00D-06.
 No special actions if energy rises.
 SCF Done:  E(RM062X) =  -539.516291661     A.U. after   16 cycles
            NFock= 16  Conv=0.61D-08     -V/T= 2.0018
 DoSCS=F DFT=T ScalE2(SS,OS)=  1.000000  1.000000
 ExpMin= 3.60D-02 ExpMax= 4.56D+03 ExpMxC= 6.82D+02 IAcc=3 IRadAn=         5 AccDes= 0.00D+00
 HarFok:  IExCor=  205 AccDes= 0.00D+00 IRadAn=         5 IDoV=-2 UseB2=F ITyADJ=14
 ICtDFT= 12500011 ScaDFX=  1.000000  1.000000  1.000000  1.000000
 Range of M.O.s used for correlation:    15   379
 NBasis=   385 NAE=    47 NBE=    47 NFC=    14 NFV=     0
 NROrb=    365 NOA=    33 NOB=    33 NVA=   332 NVB=   332

 **** Warning!!: The largest alpha MO coefficient is  0.17589187D+03

 Orbital symmetries:
       Occupied  (A') (A') (A') (A') (A') (A') (A') (A') (A') (A')
                 (A') (A') (A') (A') (A') (A') (A') (A') (A') (A')
                 (A') (A') (A') (A') (A') (A') (A') (A') (A') (A')
                 (A') (A") (A') (A') (A') (A') (A") (A') (A") (A')
                 (A') (A') (A") (A") (A') (A") (A")
       Virtual   (A") (A") (A") (A') (A") (A') (A') (A') (A') (A")
                 (A') (A") (A') (A") (A') (A') (A") (A') (A') (A')
                 (A") (A") (A') (A') (A') (A') (A') (A") (A') (A")
                 (A') (A") (A') (A') (A") (A') (A') (A') (A") (A')
                 (A") (A') (A') (A') (A") (A") (A') (A") (A') (A')
                 (A') (A') (A") (A') (A') (A') (A") (A') (A') (A')
                 (A') (A') (A") (A') (A') (A') (A") (A') (A') (A')
                 (A') (A') (A') (A') (A') (A') (A') (A') (A') (A')
                 (A') (A') (A') (A') (A') (A') (A') (A') (A') (A')
                 (A') (A') (A") (A') (A') (A") (A') (A") (A') (A')
                 (A") (A') (A') (A") (A') (A") (A') (A") (A') (A')
                 (A") (A") (A') (A') (A") (A') (A") (A') (A") (A')
                 (A") (A') (A') (A") (A') (A") (A') (A') (A') (A')
                 (A') (A') (A') (A') (A') (A') (A') (A') (A') (A')
                 (A') (A') (A') (A') (A") (A') (A') (A') (A") (A')
                 (A') (A') (A') (A") (A') (A') (A") (A") (A') (A')
                 (A") (A") (A") (A') (A') (A") (A") (A") (A') (A')
                 (A") (A') (A') (A') (A') (A') (A') (A") (A') (A")
                 (A') (A') (A') (A") (A") (A') (A") (A') (A") (A")
                 (A') (A') (A") (A') (A') (A") (A') (A') (A') (A")
                 (A') (A") (A") (A') (A") (A') (A') (A") (A') (A")
                 (A') (A') (A') (A") (A') (A') (A') (A") (A') (A")
                 (A") (A') (A') (A') (A") (A') (A') (A') (A") (A")
                 (A') (A') (A') (A") (A') (A') (A") (A') (A") (A")
                 (A') (A') (A') (A") (A') (A') (A') (A') (A') (A')
                 (A") (A') (A') (A') (A') (A") (A') (A") (A') (A")
                 (A') (A') (A') (A') (A') (A") (A') (A') (A') (A')
                 (A') (A") (A') (A") (A") (A") (A') (A") (A') (A")
                 (A') (A") (A") (A') (A") (A") (A') (A') (A') (A')
                 (A') (A') (A') (A') (A') (A') (A') (A') (A') (A')
                 (A") (A') (A') (A') (A') (A') (A') (A') (A') (A')
                 (A') (A') (A') (A') (A') (A') (A') (A') (A') (A')
                 (A') (A') (A') (A') (A') (A') (A') (A') (A') (A')
                 (A') (A')
     4 initial guesses have been made.
 Convergence on wavefunction:    0.001000000000000
 Iteration     1 Dimension     4 NMult     0 NNew      4
 CISAX will form     4 AO SS matrices at one time.
 Iteration     2 Dimension     6 NMult     4 NNew      2
 Iteration     3 Dimension     8 NMult     6 NNew      2
 Iteration     4 Dimension    10 NMult     8 NNew      2
 Iteration     5 Dimension    12 NMult    10 NNew      2
 Iteration     6 Dimension    14 NMult    12 NNew      2
 ***********************************************************************
 Excited states from <AA,BB:AA,BB> singles matrix:
 ***********************************************************************
 
 Ground to excited state transition densities written to RWF  633
 Ground to excited state transition electric dipole moments (Au):
       state          X           Y           Z        Dip. S.      Osc.
         1         0.1116      0.8650      0.0000      0.7607      0.0262
 Ground to excited state transition velocity dipole moments (Au):
       state          X           Y           Z        Dip. S.      Osc.
         1         0.0004     -0.0426     -0.0000      0.0018      0.0234
 Ground to excited state transition magnetic dipole moments (Au):
       state          X           Y           Z
         1        -0.0000     -0.0000      0.2227
 Ground to excited state transition velocity quadrupole moments (Au):
       state          XX          YY          ZZ          XY          XZ          YZ
         1         0.0360      0.0252     -0.0040      0.0612      0.0000     -0.0000
 <0|del|b> * <b|rxdel|0> + <0|del|b> * <b|delr+rdel|0>
 Rotatory Strengths (R) in cgs (10**-40 erg-esu-cm/Gauss)
       state          XX          YY          ZZ    R(velocity)    E-M Angle
         1         0.0000     -0.0000      0.0000      0.0000       90.00
 1/2[<0|r|b>*<b|rxdel|0> + (<0|rxdel|b>*<b|r|0>)*]
 Rotatory Strengths (R) in cgs (10**-40 erg-esu-cm/Gauss)
       state          XX          YY          ZZ     R(length)
         1         0.0000      0.0000     -0.0000      0.0000
  1/2[<0|del|b>*<b|r|0> + (<0|r|b>*<b|del|0>)*] (Au)
       state          X           Y           Z        Dip. S.   Osc.(frdel)
         1         0.0000     -0.0368     -0.0000      0.0368      0.0245

 Excitation energies and oscillator strengths:
 
 Excited State   1:      Singlet-A'     1.4077 eV  880.78 nm  f=0.0262  <S**2>=0.000
      47 -> 48         0.70333
 This state for optimization and/or second-order correction.
 Total Energy, E(TD-HF/TD-DFT) =  -539.464560749    
 Copying the excited state density for this state as the 1-particle RhoCI density.
 SavETr:  write IOETrn=   770 NScale= 10 NData=  16 NLR=1 NState=    1 LETran=      28.

 **********************************************************************

            Population analysis using the SCF Density.

 **********************************************************************

 Orbital symmetries:
       Occupied  (A') (A') (A') (A') (A') (A') (A') (A') (A') (A')
                 (A') (A') (A') (A') (A') (A') (A') (A') (A') (A')
                 (A') (A') (A') (A') (A') (A') (A') (A') (A') (A')
                 (A') (A") (A') (A') (A') (A') (A") (A') (A") (A')
                 (A') (A') (A") (A") (A') (A") (A")
       Virtual   (A") (A") (A") (A') (A") (A') (A') (A') (A') (A")
                 (A') (A") (A') (A") (A') (A') (A") (A') (A') (A')
                 (A") (A") (A') (A') (A') (A') (A') (A") (A') (A")
                 (A') (A") (A') (A') (A") (A') (A') (A') (A") (A')
                 (A") (A') (A') (A') (A") (A") (A') (A") (A') (A')
                 (A') (A') (A") (A') (A') (A') (A") (A') (A') (A')
                 (A') (A') (A") (A') (A') (A') (A") (A') (A') (A')
                 (A') (A') (A') (A') (A') (A') (A') (A') (A') (A')
                 (A') (A') (A') (A') (A') (A') (A') (A') (A') (A')
                 (A') (A') (A") (A') (A') (A") (A') (A") (A') (A')
                 (A") (A') (A') (A") (A') (A") (A') (A") (A') (A')
                 (A") (A") (A') (A') (A") (A') (A") (A') (A") (A')
                 (A") (A') (A') (A") (A') (A") (A') (A') (A') (A')
                 (A') (A') (A') (A') (A') (A') (A') (A') (A') (A')
                 (A') (A') (A') (A') (A") (A') (A') (A') (A") (A')
                 (A') (A') (A') (A") (A') (A') (A") (A") (A') (A')
                 (A") (A") (A") (A') (A') (A") (A") (A") (A') (A')
                 (A") (A') (A') (A') (A') (A') (A') (A") (A') (A")
                 (A') (A') (A') (A") (A") (A') (A") (A') (A") (A")
                 (A') (A') (A") (A') (A') (A") (A') (A') (A') (A")
                 (A') (A") (A") (A') (A") (A') (A') (A") (A') (A")
                 (A') (A') (A') (A") (A') (A') (A') (A") (A') (A")
                 (A") (A') (A') (A') (A") (A') (A') (A') (A") (A")
                 (A') (A') (A') (A") (A') (A') (A") (A') (A") (A")
                 (A') (A') (A') (A") (A') (A') (A') (A') (A') (A')
                 (A") (A') (A') (A') (A') (A") (A') (A") (A') (A")
                 (A') (A') (A') (A') (A') (A") (A') (A') (A') (A')
                 (A') (A") (A') (A") (A") (A") (A') (A") (A') (A")
                 (A') (A") (A") (A') (A") (A") (A') (A') (A') (A')
                 (A') (A') (A') (A') (A') (A') (A') (A') (A') (A')
                 (A") (A') (A') (A') (A') (A') (A') (A') (A') (A')
                 (A') (A') (A') (A') (A') (A') (A') (A') (A') (A')
                 (A') (A') (A') (A') (A') (A') (A') (A') (A') (A')
                 (A') (A')
 The electronic state is 1-A'.
 Alpha  occ. eigenvalues --  -10.77385 -10.75234 -10.74703 -10.72944 -10.72096
 Alpha  occ. eigenvalues --  -10.71597 -10.70998 -10.70702 -10.70270 -10.69158
 Alpha  occ. eigenvalues --  -10.68946 -10.68384 -10.68301 -10.66793  -1.19165
 Alpha  occ. eigenvalues --   -1.12722  -1.10027  -1.06707  -1.02270  -1.01037
 Alpha  occ. eigenvalues --   -0.95215  -0.89336  -0.86495  -0.85091  -0.83634
 Alpha  occ. eigenvalues --   -0.77679  -0.76847  -0.74563  -0.72053  -0.69489
 Alpha  occ. eigenvalues --   -0.69119  -0.67921  -0.66604  -0.65378  -0.63727
 Alpha  occ. eigenvalues --   -0.62987  -0.62906  -0.60698  -0.57678  -0.56795
 Alpha  occ. eigenvalues --   -0.55706  -0.54829  -0.53649  -0.52372  -0.50115
 Alpha  occ. eigenvalues --   -0.46787  -0.38351
 Alpha virt. eigenvalues --   -0.26788  -0.15041  -0.12987  -0.11507  -0.11455
 Alpha virt. eigenvalues --   -0.10288  -0.09724  -0.07762  -0.07664  -0.07558
 Alpha virt. eigenvalues --   -0.07331  -0.06318  -0.05762  -0.05503  -0.05433
 Alpha virt. eigenvalues --   -0.04229  -0.04017  -0.03286  -0.03148  -0.01999
 Alpha virt. eigenvalues --   -0.01637  -0.00923  -0.00305   0.00040   0.00695
 Alpha virt. eigenvalues --    0.01042   0.01256   0.01307   0.01894   0.02037
 Alpha virt. eigenvalues --    0.02341   0.02536   0.03133   0.03323   0.03776
 Alpha virt. eigenvalues --    0.03942   0.04178   0.04851   0.05334   0.05374
 Alpha virt. eigenvalues --    0.05867   0.05904   0.06191   0.06731   0.07277
 Alpha virt. eigenvalues --    0.07626   0.07637   0.07916   0.08354   0.08520
 Alpha virt. eigenvalues --    0.08679   0.09409   0.09745   0.09808   0.10027
 Alpha virt. eigenvalues --    0.11178   0.11300   0.11393   0.11919   0.12577
 Alpha virt. eigenvalues --    0.13170   0.13344   0.13506   0.13800   0.14069
 Alpha virt. eigenvalues --    0.14771   0.16129   0.16637   0.17157   0.17303
 Alpha virt. eigenvalues --    0.18167   0.19204   0.19607   0.20495   0.20757
 Alpha virt. eigenvalues --    0.21320   0.22073   0.23269   0.23411   0.24096
 Alpha virt. eigenvalues --    0.24737   0.25647   0.26127   0.27060   0.27880
 Alpha virt. eigenvalues --    0.29465   0.30093   0.31325   0.31794   0.35761
 Alpha virt. eigenvalues --    0.37846   0.38175   0.38478   0.39190   0.39896
 Alpha virt. eigenvalues --    0.40009   0.42266   0.43301   0.43363   0.43539
 Alpha virt. eigenvalues --    0.44533   0.45056   0.45774   0.46631   0.47135
 Alpha virt. eigenvalues --    0.47867   0.48120   0.49064   0.50670   0.51229
 Alpha virt. eigenvalues --    0.51683   0.52527   0.52595   0.54201   0.54259
 Alpha virt. eigenvalues --    0.54927   0.55138   0.56815   0.58134   0.58467
 Alpha virt. eigenvalues --    0.58933   0.61509   0.61950   0.62795   0.63382
 Alpha virt. eigenvalues --    0.63578   0.64190   0.65481   0.66256   0.68364
 Alpha virt. eigenvalues --    0.69510   0.71487   0.72962   0.73473   0.74325
 Alpha virt. eigenvalues --    0.74810   0.75601   0.77031   0.77238   0.77652
 Alpha virt. eigenvalues --    0.79044   0.79344   0.79943   0.80868   0.81058
 Alpha virt. eigenvalues --    0.81657   0.82727   0.84457   0.84560   0.84984
 Alpha virt. eigenvalues --    0.85957   0.89455   0.90087   0.90953   0.91449
 Alpha virt. eigenvalues --    0.92531   0.93638   0.95299   0.96328   0.96880
 Alpha virt. eigenvalues --    0.96952   0.99623   1.01743   1.02671   1.03644
 Alpha virt. eigenvalues --    1.05469   1.05713   1.07139   1.08123   1.11779
 Alpha virt. eigenvalues --    1.16458   1.19598   1.20320   1.22783   1.28047
 Alpha virt. eigenvalues --    1.30485   1.33391   1.35002   1.35393   1.36055
 Alpha virt. eigenvalues --    1.37592   1.37758   1.39866   1.40775   1.41305
 Alpha virt. eigenvalues --    1.44856   1.45234   1.46184   1.47030   1.49293
 Alpha virt. eigenvalues --    1.49468   1.51618   1.53840   1.53867   1.56291
 Alpha virt. eigenvalues --    1.56625   1.56857   1.57632   1.58780   1.60137
 Alpha virt. eigenvalues --    1.62980   1.64174   1.65478   1.65924   1.68111
 Alpha virt. eigenvalues --    1.68796   1.70334   1.70944   1.74970   1.76049
 Alpha virt. eigenvalues --    1.76409   1.77124   1.78827   1.80314   1.80890
 Alpha virt. eigenvalues --    1.82306   1.82754   1.83564   1.85278   1.85390
 Alpha virt. eigenvalues --    1.86369   1.88023   1.88968   1.90798   1.93017
 Alpha virt. eigenvalues --    1.94012   1.94918   1.98224   1.98617   2.00575
 Alpha virt. eigenvalues --    2.01336   2.04177   2.08210   2.09437   2.12586
 Alpha virt. eigenvalues --    2.15936   2.17089   2.18955   2.19496   2.22053
 Alpha virt. eigenvalues --    2.23292   2.26444   2.31359   2.31484   2.32408
 Alpha virt. eigenvalues --    2.36169   2.38715   2.39925   2.40792   2.42327
 Alpha virt. eigenvalues --    2.44244   2.45898   2.48737   2.52995   2.54550
 Alpha virt. eigenvalues --    2.56209   2.57846   2.58650   2.59689   2.60867
 Alpha virt. eigenvalues --    2.61280   2.61538   2.62188   2.64124   2.64610
 Alpha virt. eigenvalues --    2.64727   2.65557   2.66681   2.67055   2.67853
 Alpha virt. eigenvalues --    2.69727   2.70352   2.72046   2.74023   2.74900
 Alpha virt. eigenvalues --    2.76157   2.76776   2.78857   2.83777   2.84695
 Alpha virt. eigenvalues --    2.87103   2.87821   2.92735   2.93943   2.98960
 Alpha virt. eigenvalues --    3.01269   3.01285   3.03616   3.05448   3.09607
 Alpha virt. eigenvalues --    3.10728   3.16298   3.24497   3.27253   3.30115
 Alpha virt. eigenvalues --    3.32781   3.38488   3.40758   3.49494   3.54821
 Alpha virt. eigenvalues --    3.56039   3.56046   3.60836   3.67485   3.72448
 Alpha virt. eigenvalues --    3.74736   3.85785   3.86693   3.89479   3.93930
 Alpha virt. eigenvalues --    4.00255   4.02586   4.08131   4.12451   4.28368
 Alpha virt. eigenvalues --    4.45070   4.54710   4.57668  23.41950  23.51279
 Alpha virt. eigenvalues --   23.59312  23.60643  23.61657  23.85321  23.89102
 Alpha virt. eigenvalues --   23.94140  24.12187  24.26559  24.36559  24.41976
 Alpha virt. eigenvalues --   24.78142  24.92338
          Condensed to atoms (all electrons):
               1          2          3          4          5          6
     1  C    7.682876   0.939892  -0.723982   1.442388  -0.094419  -0.074493
     2  C    0.939892   7.843765   0.518171  -0.573207  -0.114936  -0.013292
     3  C   -0.723982   0.518171   7.012115   0.432082  -0.058641   0.021160
     4  C    1.442388  -0.573207   0.432082  13.901489  -0.657791  -0.276813
     5  C   -0.094419  -0.114936  -0.058641  -0.657791   9.102135   1.278552
     6  C   -0.074493  -0.013292   0.021160  -0.276813   1.278552   7.456378
     7  C   -0.032970  -0.020655  -0.008832   0.235845  -1.774616  -1.335879
     8  C    0.352449   0.055954  -0.126930  -0.416895   3.013820   1.138675
     9  C   -0.465900  -1.075429   0.248012   0.865232  -0.631720   0.399261
    10  C   -0.914813  -0.322409   0.190285  -3.222066  -1.419027  -0.932795
    11  C    0.325777  -0.133700   0.277411  -1.828905  -1.072548   0.331360
    12  C   -1.573866  -0.139526  -1.836407  -1.384335   0.016094  -0.893212
    13  C    0.172480  -0.286777  -0.393779  -1.121000  -0.565153   1.095449
    14  C   -1.473335  -0.594367   0.497383  -1.810956  -1.277817  -2.047045
    15  H    0.377531  -0.093770  -0.003087   0.010264   0.006090   0.001647
    16  H   -0.013601   0.384032  -0.038142   0.039600  -0.002808  -0.000547
    17  H   -0.009222  -0.032609   0.396480  -0.077405   0.000900   0.000581
    18  H    0.039623   0.015654  -0.063295   0.565575  -0.003137  -0.007108
    19  H   -0.031515  -0.013743   0.054860  -0.170323  -0.022301   0.066045
    20  H    0.003835   0.001786  -0.006158   0.017734   0.435852  -0.094429
    21  H   -0.001328  -0.000421   0.000422  -0.001513  -0.039241   0.336015
    22  H   -0.000296  -0.000029  -0.000168   0.000738  -0.004712  -0.011191
    23  H    0.007986   0.001564   0.000929  -0.008150   0.032241   0.040434
    24  H    0.043596   0.015766  -0.001236   0.000013  -0.016860  -0.005016
    25  H    0.043596   0.015766  -0.001236   0.000013  -0.016860  -0.005016
               7          8          9         10         11         12
     1  C   -0.032970   0.352449  -0.465900  -0.914813   0.325777  -1.573866
     2  C   -0.020655   0.055954  -1.075429  -0.322409  -0.133700  -0.139526
     3  C   -0.008832  -0.126930   0.248012   0.190285   0.277411  -1.836407
     4  C    0.235845  -0.416895   0.865232  -3.222066  -1.828905  -1.384335
     5  C   -1.774616   3.013820  -0.631720  -1.419027  -1.072548   0.016094
     6  C   -1.335879   1.138675   0.399261  -0.932795   0.331360  -0.893212
     7  C    9.430798  -3.210956  -1.002857   0.794146  -0.857113   0.687812
     8  C   -3.210956  12.875578  -0.745432  -1.439945   0.867810  -1.098686
     9  C   -1.002857  -0.745432   9.712392  -0.015625   0.786724  -2.537145
    10  C    0.794146  -1.439945  -0.015625   8.796745   0.571585   1.881970
    11  C   -0.857113   0.867810   0.786724   0.571585  15.282486  -4.752517
    12  C    0.687812  -1.098686  -2.537145   1.881970  -4.752517  18.707736
    13  C   -0.268835  -1.119304   0.389479  -0.532674  -0.357390  -2.553904
    14  C    3.533508  -4.665003  -0.404066   2.174319  -2.958810   1.102312
    15  H   -0.003457   0.001581   0.045598   0.002188  -0.039886   0.053285
    16  H    0.000607   0.002226  -0.001546  -0.021018   0.023290  -0.023347
    17  H   -0.000304  -0.001690  -0.002174   0.021970  -0.011630   0.052602
    18  H    0.003944   0.003791  -0.008144  -0.026411  -0.029022  -0.052111
    19  H   -0.014909  -0.044106   0.067485   0.425120   0.119590  -0.250827
    20  H   -0.005233   0.070801  -0.027040   0.060663  -0.024956   0.042586
    21  H    0.042388  -0.063565  -0.003454   0.005796  -0.002034  -0.003324
    22  H    0.358704  -0.017495  -0.002623   0.001035  -0.006286   0.003135
    23  H   -0.157887   0.420490   0.104788  -0.016368   0.053130  -0.025435
    24  H    0.011029  -0.009340   0.369745   0.008366   0.032038  -0.039021
    25  H    0.011029  -0.009340   0.369745   0.008366   0.032038  -0.039021
              13         14         15         16         17         18
     1  C    0.172480  -1.473335   0.377531  -0.013601  -0.009222   0.039623
     2  C   -0.286777  -0.594367  -0.093770   0.384032  -0.032609   0.015654
     3  C   -0.393779   0.497383  -0.003087  -0.038142   0.396480  -0.063295
     4  C   -1.121000  -1.810956   0.010264   0.039600  -0.077405   0.565575
     5  C   -0.565153  -1.277817   0.006090  -0.002808   0.000900  -0.003137
     6  C    1.095449  -2.047045   0.001647  -0.000547   0.000581  -0.007108
     7  C   -0.268835   3.533508  -0.003457   0.000607  -0.000304   0.003944
     8  C   -1.119304  -4.665003   0.001581   0.002226  -0.001690   0.003791
     9  C    0.389479  -0.404066   0.045598  -0.001546  -0.002174  -0.008144
    10  C   -0.532674   2.174319   0.002188  -0.021018   0.021970  -0.026411
    11  C   -0.357390  -2.958810  -0.039886   0.023290  -0.011630  -0.029022
    12  C   -2.553904   1.102312   0.053285  -0.023347   0.052602  -0.052111
    13  C   11.545536   0.293117  -0.025388   0.006303  -0.006700  -0.010193
    14  C    0.293117  13.179331   0.008240  -0.020199   0.011369  -0.088126
    15  H   -0.025388   0.008240   0.417407  -0.005628   0.001924   0.000031
    16  H    0.006303  -0.020199  -0.005628   0.393705  -0.005473   0.002619
    17  H   -0.006700   0.011369   0.001924  -0.005473   0.408452  -0.011501
    18  H   -0.010193  -0.088126   0.000031   0.002619  -0.011501   0.435637
    19  H    0.073907   0.113053   0.000949  -0.000849   0.003460  -0.007762
    20  H   -0.008149  -0.139995  -0.000207   0.000042  -0.000275   0.001737
    21  H   -0.001933   0.078544   0.000040  -0.000009   0.000011  -0.000120
    22  H    0.015367   0.003830  -0.000114   0.000007  -0.000005   0.000016
    23  H   -0.071465  -0.080470   0.000392  -0.000135  -0.000002  -0.000149
    24  H   -0.048362  -0.026433  -0.000776   0.000499  -0.000088   0.000078
    25  H   -0.048362  -0.026433  -0.000776   0.000499  -0.000088   0.000078
              19         20         21         22         23         24
     1  C   -0.031515   0.003835  -0.001328  -0.000296   0.007986   0.043596
     2  C   -0.013743   0.001786  -0.000421  -0.000029   0.001564   0.015766
     3  C    0.054860  -0.006158   0.000422  -0.000168   0.000929  -0.001236
     4  C   -0.170323   0.017734  -0.001513   0.000738  -0.008150   0.000013
     5  C   -0.022301   0.435852  -0.039241  -0.004712   0.032241  -0.016860
     6  C    0.066045  -0.094429   0.336015  -0.011191   0.040434  -0.005016
     7  C   -0.014909  -0.005233   0.042388   0.358704  -0.157887   0.011029
     8  C   -0.044106   0.070801  -0.063565  -0.017495   0.420490  -0.009340
     9  C    0.067485  -0.027040  -0.003454  -0.002623   0.104788   0.369745
    10  C    0.425120   0.060663   0.005796   0.001035  -0.016368   0.008366
    11  C    0.119590  -0.024956  -0.002034  -0.006286   0.053130   0.032038
    12  C   -0.250827   0.042586  -0.003324   0.003135  -0.025435  -0.039021
    13  C    0.073907  -0.008149  -0.001933   0.015367  -0.071465  -0.048362
    14  C    0.113053  -0.139995   0.078544   0.003830  -0.080470  -0.026433
    15  H    0.000949  -0.000207   0.000040  -0.000114   0.000392  -0.000776
    16  H   -0.000849   0.000042  -0.000009   0.000007  -0.000135   0.000499
    17  H    0.003460  -0.000275   0.000011  -0.000005  -0.000002  -0.000088
    18  H   -0.007762   0.001737  -0.000120   0.000016  -0.000149   0.000078
    19  H    0.483135  -0.013927   0.000772  -0.000471   0.000396   0.000419
    20  H   -0.013927   0.478355  -0.006425   0.001649  -0.001034   0.000418
    21  H    0.000772  -0.006425   0.423733  -0.002193   0.000531  -0.000152
    22  H   -0.000471   0.001649  -0.002193   0.432095  -0.007765   0.000681
    23  H    0.000396  -0.001034   0.000531  -0.007765   0.476118  -0.000529
    24  H    0.000419   0.000418  -0.000152   0.000681  -0.000529   0.475387
    25  H    0.000419   0.000418  -0.000152   0.000681  -0.000529  -0.070272
              25
     1  C    0.043596
     2  C    0.015766
     3  C   -0.001236
     4  C    0.000013
     5  C   -0.016860
     6  C   -0.005016
     7  C    0.011029
     8  C   -0.009340
     9  C    0.369745
    10  C    0.008366
    11  C    0.032038
    12  C   -0.039021
    13  C   -0.048362
    14  C   -0.026433
    15  H   -0.000776
    16  H    0.000499
    17  H   -0.000088
    18  H    0.000078
    19  H    0.000419
    20  H    0.000418
    21  H   -0.000152
    22  H    0.000681
    23  H   -0.000529
    24  H   -0.070272
    25  H    0.475387
 Mulliken charges:
               1
     1  C   -0.022291
     2  C   -0.377482
     3  C   -0.387419
     4  C    0.038390
     5  C   -0.113097
     6  C   -0.468719
     7  C   -0.415305
     8  C    0.165513
     9  C   -0.435306
    10  C   -0.079403
    11  C   -0.628443
    12  C    0.655155
    13  C   -0.172270
    14  C    0.618049
    15  H    0.245923
    16  H    0.279875
    17  H    0.261417
    18  H    0.238298
    19  H    0.161124
    20  H    0.211953
    21  H    0.237610
    22  H    0.235410
    23  H    0.230919
    24  H    0.260049
    25  H    0.260049
 Sum of Mulliken charges =   1.00000
 Mulliken charges with hydrogens summed into heavy atoms:
               1
     1  C    0.223631
     2  C   -0.097608
     3  C   -0.126002
     4  C    0.276688
     5  C    0.098856
     6  C   -0.231108
     7  C   -0.179894
     8  C    0.396431
     9  C    0.084793
    10  C    0.081721
    11  C   -0.628443
    12  C    0.655155
    13  C   -0.172270
    14  C    0.618049
 Electronic spatial extent (au):  <R**2>=           2863.1121
 Charge=              1.0000 electrons
 Dipole moment (field-independent basis, Debye):
    X=             -2.6840    Y=             -4.4335    Z=              0.0000  Tot=              5.1827
 Quadrupole moment (field-independent basis, Debye-Ang):
   XX=            -52.1362   YY=            -32.2579   ZZ=            -83.7220
   XY=             10.8631   XZ=             -0.0000   YZ=              0.0000
 Traceless Quadrupole moment (field-independent basis, Debye-Ang):
   XX=              3.9025   YY=             23.7808   ZZ=            -27.6833
   XY=             10.8631   XZ=             -0.0000   YZ=              0.0000
 Octapole moment (field-independent basis, Debye-Ang**2):
  XXX=            -18.3700  YYY=            -37.9995  ZZZ=              0.0000  XYY=            -14.5308
  XXY=            -20.6856  XXZ=              0.0000  XZZ=             -6.5125  YZZ=             -6.0731
  YYZ=              0.0000  XYZ=             -0.0000
 Hexadecapole moment (field-independent basis, Debye-Ang**3):
 XXXX=           -925.7555 YYYY=          -1881.3939 ZZZZ=            -98.6312 XXXY=           -319.0357
 XXXZ=             -0.0000 YYYX=           -239.5682 YYYZ=              0.0000 ZZZX=             -0.0000
 ZZZY=              0.0000 XXYY=           -451.8183 XXZZ=           -226.0290 YYZZ=           -507.1608
 XXYZ=              0.0000 YYXZ=             -0.0000 ZZXY=           -170.1873
 N-N= 7.828845402278D+02 E-N=-2.802733681193D+03  KE= 5.385480828241D+02
 Symmetry A'   KE= 5.236602650861D+02
 Symmetry A"   KE= 1.488781773808D+01
 Unable to Open any file for archive entry.
 1\1\GINC-GADI-CPU-CLX-2808\SP\RM062X TD-FC\6-311++G(d,p)\C14H11(1+)\TS
 1578\02-Aug-2022\0\\#n M062X/6-311++G(d,p) TD(NStates=1) EmpiricalDisp
 ersion=GD3 SP\\SP_8\\1,1\C,0,0.,2.390655,1.356431\C,0,0.,3.569508,0.57
 3989\C,0,0.,3.601861,-0.87583\C,0,0.,2.599156,-1.475538\C,0,0.,-2.2791
 56,-1.347538\C,0,0.,-3.745861,-0.61983\C,0,0.,-3.857508,0.701989\C,0,0
 .,-2.646655,1.356431\C,0,0.,-0.064,1.483369\C,0,0.,0.232,-1.399189\C,0
 ,0.,1.340055,0.791065\C,0,0.,1.305471,-0.712804\C,0,0.,-1.196055,0.615
 065\C,0,0.,-1.161471,-0.696804\H,0,0.,2.506071,2.439647\H,0,0.,4.51475
 3,1.103689\H,0,0.,4.581262,-1.340349\H,0,0.,2.48555,-2.558059\H,0,0.,0
 .2,-2.478266\H,0,0.,-2.34155,-2.430059\H,0,0.,-4.597262,-1.308349\H,0,
 0.,-4.802753,1.215689\H,0,0.,-2.586071,2.439647\H,0,-0.859585,-0.352,2
 .175787\H,0,0.859585,-0.352,2.175787\\Version=ES64L-G16RevC.01\State=1
 -A'\HF=-539.5162917\RMSD=6.054e-09\PG=CS [SG(C14H9),X(H2)]\\@
 The archive entry for this job was punched.


 HONESTY IN A LAWYER IS LIKE A HEN'S HIND LEGS.
  -- MAGNUS OLESON, LAKE WOBEGON PATRIARCH, C.1875
 Job cpu time:       0 days  0 hours 53 minutes 32.4 seconds.
 Elapsed time:       0 days  0 hours  1 minutes  7.1 seconds.
 File lengths (MBytes):  RWF=    460 Int=      0 D2E=      0 Chk=     15 Scr=      1
 Normal termination of Gaussian 16 at Tue Aug  2 13:06:42 2022.
