 Entering Gaussian System, Link 0=g16
 Initial command:
 /apps/gaussian/g16c01/g16/l1.exe "/jobfs/53803424.gadi-pbs/Gau-1824132.inp" -scrdir="/jobfs/53803424.gadi-pbs/"
 Entering Link 1 = /apps/gaussian/g16c01/g16/l1.exe PID=   1824133.
  
 Copyright (c) 1988-2019, Gaussian, Inc.  All Rights Reserved.
  
 This is part of the Gaussian(R) 16 program.  It is based on
 the Gaussian(R) 09 system (copyright 2009, Gaussian, Inc.),
 the Gaussian(R) 03 system (copyright 2003, Gaussian, Inc.),
 the Gaussian(R) 98 system (copyright 1998, Gaussian, Inc.),
 the Gaussian(R) 94 system (copyright 1995, Gaussian, Inc.),
 the Gaussian 92(TM) system (copyright 1992, Gaussian, Inc.),
 the Gaussian 90(TM) system (copyright 1990, Gaussian, Inc.),
 the Gaussian 88(TM) system (copyright 1988, Gaussian, Inc.),
 the Gaussian 86(TM) system (copyright 1986, Carnegie Mellon
 University), and the Gaussian 82(TM) system (copyright 1983,
 Carnegie Mellon University). Gaussian is a federally registered
 trademark of Gaussian, Inc.
  
 This software contains proprietary and confidential information,
 including trade secrets, belonging to Gaussian, Inc.
  
 This software is provided under written license and may be
 used, copied, transmitted, or stored only in accord with that
 written license.
  
 The following legend is applicable only to US Government
 contracts under FAR:
  
                    RESTRICTED RIGHTS LEGEND
  
 Use, reproduction and disclosure by the US Government is
 subject to restrictions as set forth in subparagraphs (a)
 and (c) of the Commercial Computer Software - Restricted
 Rights clause in FAR 52.227-19.
  
 Gaussian, Inc.
 340 Quinnipiac St., Bldg. 40, Wallingford CT 06492
  
  
 ---------------------------------------------------------------
 Warning -- This program may not be used in any manner that
 competes with the business of Gaussian, Inc. or will provide
 assistance to any competitor of Gaussian, Inc.  The licensee
 of this program is prohibited from giving any competitor of
 Gaussian, Inc. access to this program.  By using this program,
 the user acknowledges that Gaussian, Inc. is engaged in the
 business of creating and licensing software in the field of
 computational chemistry and represents and warrants to the
 licensee that it is not a competitor of Gaussian, Inc. and that
 it will not use this program in any manner prohibited above.
 ---------------------------------------------------------------
  

 Cite this work as:
 Gaussian 16, Revision C.01,
 M. J. Frisch, G. W. Trucks, H. B. Schlegel, G. E. Scuseria, 
 M. A. Robb, J. R. Cheeseman, G. Scalmani, V. Barone, 
 G. A. Petersson, H. Nakatsuji, X. Li, M. Caricato, A. V. Marenich, 
 J. Bloino, B. G. Janesko, R. Gomperts, B. Mennucci, H. P. Hratchian, 
 J. V. Ortiz, A. F. Izmaylov, J. L. Sonnenberg, D. Williams-Young, 
 F. Ding, F. Lipparini, F. Egidi, J. Goings, B. Peng, A. Petrone, 
 T. Henderson, D. Ranasinghe, V. G. Zakrzewski, J. Gao, N. Rega, 
 G. Zheng, W. Liang, M. Hada, M. Ehara, K. Toyota, R. Fukuda, 
 J. Hasegawa, M. Ishida, T. Nakajima, Y. Honda, O. Kitao, H. Nakai, 
 T. Vreven, K. Throssell, J. A. Montgomery, Jr., J. E. Peralta, 
 F. Ogliaro, M. J. Bearpark, J. J. Heyd, E. N. Brothers, K. N. Kudin, 
 V. N. Staroverov, T. A. Keith, R. Kobayashi, J. Normand, 
 K. Raghavachari, A. P. Rendell, J. C. Burant, S. S. Iyengar, 
 J. Tomasi, M. Cossi, J. M. Millam, M. Klene, C. Adamo, R. Cammi, 
 J. W. Ochterski, R. L. Martin, K. Morokuma, O. Farkas, 
 J. B. Foresman, and D. J. Fox, Gaussian, Inc., Wallingford CT, 2019.
 
 ******************************************
 Gaussian 16:  ES64L-G16RevC.01  3-Jul-2019
                 2-Aug-2022 
 ******************************************
 %NProcShared=48
 Will use up to   48 processors via shared memory.
 %mem = 190GB
 ---------------------------------------------------------------
 #n M062X/6-311++G(d,p) TD(NStates=1) EmpiricalDispersion=GD3 SP
 ---------------------------------------------------------------
 1/38=1,172=1/1;
 2/12=2,17=6,18=5,40=1/2;
 3/5=4,6=6,7=1111,11=9,25=1,30=1,74=-55,124=31/1,2,3,8;
 4//1;
 5/5=2,38=5/2;
 8/6=1,10=2,108=1/1;
 9/41=1,42=1,70=2/14;
 6/7=2,8=2,9=2,10=2/1;
 99/5=1,9=1/99;
 -----
 SP_-2
 -----
 Symbolic Z-matrix:
 Charge =  1 Multiplicity = 1
 C                     0.        2.55066   1.35643 
 C                     0.        3.74951   0.65399 
 C                     0.        3.69186  -0.71583 
 C                     0.        2.39916  -1.39554 
 C                     0.       -2.47916  -1.42754 
 C                     0.       -3.65586  -0.77983 
 C                     0.       -3.67751   0.62199 
 C                     0.       -2.48666   1.35643 
 C                     0.        0.016     1.48337 
 C                     0.       -0.058    -1.39919 
 C                     0.        1.25006   0.68107 
 C                     0.        1.21547  -0.7028 
 C                     0.       -1.28606   0.72507 
 C                     0.       -1.25147  -0.7068 
 H                     0.        2.55607   2.43965 
 H                     0.        4.69475   1.17369 
 H                     0.        4.59126  -1.32035 
 H                     0.        2.39555  -2.47806 
 H                     0.       -0.05     -2.47827 
 H                     0.       -2.43155  -2.51006 
 H                     0.       -4.58726  -1.32835 
 H                     0.       -4.62275   1.14569 
 H                     0.       -2.53607   2.43965 
 H                    -0.85959   0.088     2.17579 
 H                     0.85959   0.088     2.17579 
 
                          Input orientation:                          
 ---------------------------------------------------------------------
 Center     Atomic      Atomic             Coordinates (Angstroms)
 Number     Number       Type             X           Y           Z
 ---------------------------------------------------------------------
      1          6           0        0.000000    2.550655    1.356431
      2          6           0        0.000000    3.749508    0.653989
      3          6           0        0.000000    3.691861   -0.715830
      4          6           0        0.000000    2.399156   -1.395538
      5          6           0        0.000000   -2.479156   -1.427538
      6          6           0        0.000000   -3.655861   -0.779830
      7          6           0        0.000000   -3.677508    0.621989
      8          6           0        0.000000   -2.486655    1.356431
      9          6           0        0.000000    0.016000    1.483369
     10          6           0        0.000000   -0.058000   -1.399189
     11          6           0        0.000000    1.250055    0.681065
     12          6           0        0.000000    1.215471   -0.702804
     13          6           0        0.000000   -1.286055    0.725065
     14          6           0        0.000000   -1.251471   -0.706804
     15          1           0        0.000000    2.556071    2.439647
     16          1           0        0.000000    4.694753    1.173689
     17          1           0        0.000000    4.591262   -1.320349
     18          1           0        0.000000    2.395550   -2.478059
     19          1           0        0.000000   -0.050000   -2.478266
     20          1           0        0.000000   -2.431550   -2.510059
     21          1           0        0.000000   -4.587262   -1.328349
     22          1           0        0.000000   -4.622753    1.145689
     23          1           0        0.000000   -2.536071    2.439647
     24          1           0       -0.859585    0.088000    2.175787
     25          1           0        0.859585    0.088000    2.175787
 ---------------------------------------------------------------------
                    Distance matrix (angstroms):
                    1          2          3          4          5
     1  C    0.000000
     2  C    1.389487   0.000000
     3  C    2.365717   1.371031   0.000000
     4  C    2.756136   2.454386   1.460510   0.000000
     5  C    5.748868   6.567268   6.211922   4.878417   0.000000
     6  C    6.563875   7.542899   7.348001   6.086241   1.343190
     7  C    6.271317   7.427085   7.489817   6.402832   2.374154
     8  C    5.037310   6.275600   6.516773   5.607538   2.783979
     9  C    2.537832   3.824520   4.283507   3.737317   3.833951
    10  C    3.794539   4.325813   3.811619   2.457159   2.421322
    11  C    1.465496   2.499600   2.813136   2.373334   4.284066
    12  C    2.454214   2.874410   2.476424   1.371492   3.765038
    13  C    3.888312   5.036065   5.182261   4.251792   2.461136
    14  C    4.325864   5.182813   4.943340   3.715028   1.423611
    15  H    1.083230   2.147758   3.353663   3.838394   6.348908
    16  H    2.151871   1.078692   2.139176   3.445387   7.630947
    17  H    3.365892   2.146290   1.083681   2.193395   7.071230
    18  H    3.837626   3.412173   2.187664   1.082527   4.986617
    19  H    4.633390   4.924153   4.136146   2.677810   2.646664
    20  H    6.306513   6.943823   6.380864   4.957608   1.083567
    21  H    7.626133   8.569212   8.301750   6.986741   2.110438
    22  H    7.176503   8.386687   8.520449   7.467599   3.349105
    23  H    5.200782   6.534300   6.981703   6.250209   3.867604
    24  H    2.734026   4.057265   4.699803   4.339895   4.507009
    25  H    2.734026   4.057265   4.699803   4.339895   4.507009
                    6          7          8          9         10
     6  C    0.000000
     7  C    1.401986   0.000000
     8  C    2.435293   1.399120   0.000000
     9  C    4.313309   3.792621   2.505872   0.000000
    10  C    3.650782   4.145600   3.673119   2.883508   0.000000
    11  C    5.118811   4.927917   3.797252   1.471932   2.457329
    12  C    4.871941   5.069154   4.236294   2.493608   1.451441
    13  C    2.807257   2.393673   1.356489   1.506775   2.453686
    14  C    2.405499   2.766107   2.404708   2.530482   1.379772
    15  H    6.996651   6.493180   5.157756   2.714116   4.644355
    16  H    8.576071   8.390419   7.183733   4.688990   5.404476
    17  H    8.264817   8.493835   7.567170   5.365991   4.649930
    18  H    6.285186   6.818529   6.207998   4.621165   2.680274
    19  H    3.985840   4.771834   4.543368   3.962185   1.079107
    20  H    2.119582   3.370777   3.866883   4.683798   2.620643
    21  H    1.080917   2.152085   3.408899   5.394050   4.529816
    22  H    2.154647   1.080625   2.146468   4.651028   5.226220
    23  H    3.408660   2.146336   1.084343   2.725350   4.569190
    24  H    4.846757   4.163199   2.835327   1.106125   3.679763
    25  H    4.846757   4.163199   2.835327   1.106125   3.679763
                   11         12         13         14         15
    11  C    0.000000
    12  C    1.384301   0.000000
    13  C    2.536492   2.880355   0.000000
    14  C    2.860736   2.466945   1.432287   0.000000
    15  H    2.190500   3.416461   4.207342   4.939386   0.000000
    16  H    3.479745   3.953053   5.997610   6.236492   2.485279
    17  H    3.894781   3.431811   6.223068   5.874859   4.275462
    18  H    3.360390   2.131693   4.879981   4.054393   4.920325
    19  H    3.416360   2.180294   3.433535   2.140470   5.565741
    20  H    4.872113   4.070250   3.431936   2.155067   7.026802
    21  H    6.173493   5.836353   3.887734   3.393202   8.076200
    22  H    5.891159   6.123870   3.363105   3.846722   7.294508
    23  H    4.174609   4.893778   2.121870   3.398581   5.092142
    24  H    2.079291   3.208795   2.175203   3.292780   2.626763
    25  H    2.079291   3.208795   2.175203   3.292780   2.626763
                   16         17         18         19         20
    16  H    0.000000
    17  H    2.496184   0.000000
    18  H    4.315275   2.482226   0.000000
    19  H    5.987442   4.783522   2.445550   0.000000
    20  H    8.022107   7.122871   4.827206   2.381762   0.000000
    21  H    9.613324   9.178527   7.076828   4.680711   2.458360
    22  H    9.317548   9.538313   7.898615   5.834648   4.262143
    23  H    7.340808   8.058315   6.964533   5.510573   4.950809
    24  H    4.792208   5.765520   5.265164   4.734780   5.389264
    25  H    4.792208   5.765520   5.265164   4.734780   5.389264
                   21         22         23         24         25
    21  H    0.000000
    22  H    2.474293   0.000000
    23  H    4.290126   2.455314   0.000000
    24  H    5.905585   4.898079   2.773852   0.000000
    25  H    5.905585   4.898079   2.773852   1.719170   0.000000
 Stoichiometry    C14H11(1+)
 Framework group  CS[SG(C14H9),X(H2)]
 Deg. of freedom    46
 Full point group                 CS      NOp   2
 Largest Abelian subgroup         CS      NOp   2
 Largest concise Abelian subgroup CS      NOp   2
                         Standard orientation:                         
 ---------------------------------------------------------------------
 Center     Atomic      Atomic             Coordinates (Angstroms)
 Number     Number       Type             X           Y           Z
 ---------------------------------------------------------------------
      1          6           0        2.491072   -1.462573    0.000000
      2          6           0        3.718267   -0.810907    0.000000
      3          6           0        3.717985    0.560124    0.000000
      4          6           0        2.454851    1.293325    0.000000
      5          6           0       -2.417850    1.529411    0.000000
      6          6           0       -3.620625    0.931505    0.000000
      7          6           0       -3.700907   -0.468181    0.000000
      8          6           0       -2.541826   -1.251806    0.000000
      9          6           0       -0.046674   -1.483347    0.000000
     10          6           0        0.000000    1.399783    0.000000
     11          6           0        1.219869   -0.733379    0.000000
     12          6           0        1.243218    0.650725    0.000000
     13          6           0       -1.315861   -0.671227    0.000000
     14          6           0       -1.221396    0.757941    0.000000
     15          1           0        2.451161   -2.545067    0.000000
     16          1           0        4.640939   -1.369702    0.000000
     17          1           0        4.641892    1.126482    0.000000
     18          1           0        2.496542    2.375049    0.000000
     19          1           0        0.053143    2.477581    0.000000
     20          1           0       -2.324991    2.608992    0.000000
     21          1           0       -4.528260    1.518514    0.000000
     22          1           0       -4.667236   -0.951872    0.000000
     23          1           0       -2.636522   -2.332006    0.000000
     24          1           0       -0.003709   -2.178171    0.859585
     25          1           0       -0.003709   -2.178171   -0.859585
 ---------------------------------------------------------------------
 Rotational constants (GHZ):           2.1342982           0.4441657           0.3684522
 Standard basis: 6-311++G(d,p) (5D, 7F)
 There are   299 symmetry adapted cartesian basis functions of A'  symmetry.
 There are   100 symmetry adapted cartesian basis functions of A"  symmetry.
 There are   285 symmetry adapted basis functions of A'  symmetry.
 There are   100 symmetry adapted basis functions of A"  symmetry.
   385 basis functions,   603 primitive gaussians,   399 cartesian basis functions
    47 alpha electrons       47 beta electrons
       nuclear repulsion energy       781.0094485061 Hartrees.
 NAtoms=   25 NActive=   25 NUniq=   24 SFac= 1.09D+00 NAtFMM=   60 NAOKFM=F Big=F
 Integral buffers will be    131072 words long.
 Regular integral format.
 Two-electron integral symmetry is turned on.
 Nuclear repulsion after empirical dispersion term =      781.0084689647 Hartrees.
 One-electron integrals computed using PRISM.
 NBasis=   385 RedAO= T EigKep=  1.22D-06  NBF=   285   100
 NBsUse=   379 1.00D-06 EigRej=  7.82D-07 NBFU=   279   100
 ExpMin= 3.60D-02 ExpMax= 4.56D+03 ExpMxC= 6.82D+02 IAcc=3 IRadAn=         5 AccDes= 0.00D+00
 Harris functional with IExCor= 1009 and IRadAn=       5 diagonalized for initial guess.
 HarFok:  IExCor= 1009 AccDes= 0.00D+00 IRadAn=         5 IDoV= 1 UseB2=F ITyADJ=14
 ICtDFT=  3500011 ScaDFX=  1.000000  1.000000  1.000000  1.000000
 FoFCou: FMM=F IPFlag=           0 FMFlag=      100000 FMFlg1=           0
         NFxFlg=           0 DoJE=T BraDBF=F KetDBF=T FulRan=T
         wScrn=  0.000000 ICntrl=       500 IOpCl=  0 I1Cent=   200000004 NGrid=           0
         NMat0=    1 NMatS0=      1 NMatT0=    0 NMatD0=    1 NMtDS0=    0 NMtDT0=    0
 Petite list used in FoFCou.
 Initial guess orbital symmetries:
       Occupied  (A') (A') (A') (A') (A') (A') (A') (A') (A') (A')
                 (A') (A') (A') (A') (A') (A') (A') (A') (A') (A')
                 (A') (A') (A') (A') (A') (A') (A') (A') (A') (A')
                 (A') (A') (A") (A') (A') (A') (A') (A') (A") (A')
                 (A") (A') (A') (A") (A") (A") (A")
       Virtual   (A") (A") (A") (A") (A") (A') (A') (A') (A') (A")
                 (A") (A') (A') (A') (A") (A') (A') (A') (A') (A')
                 (A") (A") (A') (A') (A') (A") (A') (A') (A") (A')
                 (A') (A') (A') (A') (A") (A') (A') (A") (A') (A')
                 (A") (A') (A") (A') (A') (A') (A') (A') (A") (A')
                 (A') (A') (A") (A") (A') (A') (A') (A") (A") (A')
                 (A') (A') (A') (A') (A') (A') (A") (A') (A') (A")
                 (A') (A') (A') (A') (A') (A') (A') (A') (A') (A')
                 (A') (A') (A') (A') (A') (A') (A') (A') (A') (A')
                 (A') (A') (A') (A') (A') (A') (A') (A") (A') (A")
                 (A') (A") (A') (A") (A') (A") (A') (A") (A") (A')
                 (A") (A') (A') (A') (A") (A') (A') (A") (A") (A')
                 (A") (A") (A') (A') (A') (A") (A') (A') (A') (A")
                 (A') (A') (A') (A') (A') (A') (A") (A') (A') (A')
                 (A') (A') (A') (A') (A') (A') (A') (A') (A') (A")
                 (A') (A") (A") (A") (A') (A') (A') (A") (A') (A")
                 (A") (A') (A") (A") (A') (A") (A') (A') (A') (A')
                 (A") (A') (A') (A') (A") (A') (A') (A') (A') (A')
                 (A") (A') (A') (A') (A") (A") (A') (A') (A") (A")
                 (A") (A') (A') (A") (A') (A') (A') (A") (A') (A')
                 (A") (A") (A") (A') (A') (A") (A') (A") (A') (A')
                 (A") (A") (A') (A") (A') (A") (A') (A') (A') (A')
                 (A") (A') (A') (A') (A") (A') (A') (A') (A") (A")
                 (A') (A') (A') (A") (A') (A') (A") (A') (A") (A')
                 (A") (A') (A') (A') (A') (A") (A') (A') (A') (A")
                 (A') (A') (A") (A') (A") (A') (A') (A") (A') (A')
                 (A') (A") (A') (A") (A') (A') (A') (A") (A') (A')
                 (A") (A') (A') (A') (A") (A") (A') (A') (A") (A')
                 (A") (A') (A") (A") (A") (A') (A') (A') (A') (A')
                 (A') (A') (A') (A') (A') (A') (A') (A') (A') (A')
                 (A') (A') (A') (A") (A') (A') (A') (A') (A') (A')
                 (A') (A') (A') (A') (A') (A') (A') (A') (A') (A')
                 (A') (A') (A') (A') (A') (A') (A') (A') (A') (A')
                 (A') (A')
 The electronic state of the initial guess is 1-A'.
 Requested convergence on RMS density matrix=1.00D-08 within 128 cycles.
 Requested convergence on MAX density matrix=1.00D-06.
 Requested convergence on             energy=1.00D-06.
 No special actions if energy rises.
 SCF Done:  E(RM062X) =  -539.747455544     A.U. after   15 cycles
            NFock= 15  Conv=0.99D-08     -V/T= 2.0041
 DoSCS=F DFT=T ScalE2(SS,OS)=  1.000000  1.000000
 ExpMin= 3.60D-02 ExpMax= 4.56D+03 ExpMxC= 6.82D+02 IAcc=3 IRadAn=         5 AccDes= 0.00D+00
 HarFok:  IExCor=  205 AccDes= 0.00D+00 IRadAn=         5 IDoV=-2 UseB2=F ITyADJ=14
 ICtDFT= 12500011 ScaDFX=  1.000000  1.000000  1.000000  1.000000
 Range of M.O.s used for correlation:    15   379
 NBasis=   385 NAE=    47 NBE=    47 NFC=    14 NFV=     0
 NROrb=    365 NOA=    33 NOB=    33 NVA=   332 NVB=   332

 **** Warning!!: The largest alpha MO coefficient is  0.13748440D+03

 Orbital symmetries:
       Occupied  (A') (A') (A') (A') (A') (A') (A') (A') (A') (A')
                 (A') (A') (A') (A') (A') (A') (A') (A') (A') (A')
                 (A') (A') (A') (A') (A') (A') (A') (A') (A') (A')
                 (A') (A") (A') (A') (A') (A') (A') (A") (A') (A")
                 (A') (A') (A') (A") (A") (A") (A")
       Virtual   (A") (A") (A") (A") (A') (A') (A') (A') (A") (A')
                 (A') (A") (A') (A') (A") (A') (A") (A') (A') (A')
                 (A") (A") (A') (A') (A') (A") (A') (A") (A') (A')
                 (A") (A') (A") (A') (A') (A') (A') (A') (A") (A')
                 (A") (A') (A') (A") (A") (A') (A") (A') (A") (A')
                 (A') (A') (A') (A') (A') (A") (A') (A') (A') (A')
                 (A') (A") (A') (A') (A') (A') (A") (A') (A') (A')
                 (A') (A') (A') (A') (A') (A') (A') (A') (A') (A')
                 (A') (A') (A') (A') (A') (A') (A') (A') (A') (A')
                 (A') (A') (A') (A') (A") (A") (A') (A") (A') (A")
                 (A') (A') (A') (A') (A") (A") (A') (A") (A') (A")
                 (A') (A") (A') (A') (A") (A') (A') (A") (A') (A")
                 (A") (A') (A") (A') (A') (A') (A") (A') (A') (A')
                 (A') (A') (A') (A') (A') (A') (A') (A') (A') (A')
                 (A') (A') (A') (A") (A') (A') (A') (A') (A') (A')
                 (A') (A") (A') (A') (A") (A') (A") (A") (A') (A")
                 (A") (A') (A') (A") (A") (A') (A") (A") (A') (A')
                 (A') (A') (A") (A') (A') (A") (A') (A') (A') (A")
                 (A') (A') (A') (A") (A') (A") (A') (A") (A") (A')
                 (A") (A') (A') (A") (A") (A') (A') (A') (A') (A')
                 (A") (A") (A") (A') (A') (A") (A') (A") (A') (A')
                 (A') (A") (A") (A') (A") (A') (A') (A") (A') (A")
                 (A') (A') (A') (A') (A") (A') (A') (A') (A") (A")
                 (A') (A') (A') (A") (A') (A') (A') (A") (A") (A')
                 (A") (A') (A') (A") (A') (A') (A') (A') (A') (A')
                 (A") (A') (A') (A') (A') (A") (A") (A") (A') (A')
                 (A') (A') (A') (A') (A') (A') (A") (A') (A') (A')
                 (A') (A") (A') (A") (A") (A") (A') (A") (A') (A")
                 (A') (A") (A") (A') (A") (A") (A') (A') (A') (A')
                 (A') (A') (A') (A') (A') (A') (A') (A') (A') (A')
                 (A') (A') (A') (A") (A') (A') (A') (A') (A') (A')
                 (A') (A') (A') (A') (A') (A') (A') (A') (A') (A')
                 (A') (A') (A') (A') (A') (A') (A') (A') (A') (A')
                 (A') (A')
     4 initial guesses have been made.
 Convergence on wavefunction:    0.001000000000000
 Iteration     1 Dimension     4 NMult     0 NNew      4
 CISAX will form     4 AO SS matrices at one time.
 Iteration     2 Dimension     6 NMult     4 NNew      2
 Iteration     3 Dimension     8 NMult     6 NNew      2
 Iteration     4 Dimension    10 NMult     8 NNew      2
 Iteration     5 Dimension    12 NMult    10 NNew      2
 Iteration     6 Dimension    14 NMult    12 NNew      2
 ***********************************************************************
 Excited states from <AA,BB:AA,BB> singles matrix:
 ***********************************************************************
 
 Ground to excited state transition densities written to RWF  633
 Ground to excited state transition electric dipole moments (Au):
       state          X           Y           Z        Dip. S.      Osc.
         1         0.0642     -0.5081     -0.0000      0.2623      0.0167
 Ground to excited state transition velocity dipole moments (Au):
       state          X           Y           Z        Dip. S.      Osc.
         1        -0.0018      0.0547     -0.0000      0.0030      0.0210
 Ground to excited state transition magnetic dipole moments (Au):
       state          X           Y           Z
         1        -0.0000     -0.0000      0.1627
 Ground to excited state transition velocity quadrupole moments (Au):
       state          XX          YY          ZZ          XY          XZ          YZ
         1         0.2216      0.0073     -0.0072      0.0818     -0.0000      0.0000
 <0|del|b> * <b|rxdel|0> + <0|del|b> * <b|delr+rdel|0>
 Rotatory Strengths (R) in cgs (10**-40 erg-esu-cm/Gauss)
       state          XX          YY          ZZ    R(velocity)    E-M Angle
         1        -0.0000     -0.0000     -0.0000     -0.0000       90.00
 1/2[<0|r|b>*<b|rxdel|0> + (<0|rxdel|b>*<b|r|0>)*]
 Rotatory Strengths (R) in cgs (10**-40 erg-esu-cm/Gauss)
       state          XX          YY          ZZ     R(length)
         1         0.0000     -0.0000      0.0000     -0.0000
  1/2[<0|del|b>*<b|r|0> + (<0|r|b>*<b|del|0>)*] (Au)
       state          X           Y           Z        Dip. S.   Osc.(frdel)
         1        -0.0001     -0.0278      0.0000      0.0279      0.0186

 Excitation energies and oscillator strengths:
 
 Excited State   1:      Singlet-A'     2.5937 eV  478.03 nm  f=0.0167  <S**2>=0.000
      47 -> 48         0.70330
 This state for optimization and/or second-order correction.
 Total Energy, E(TD-HF/TD-DFT) =  -539.652140586    
 Copying the excited state density for this state as the 1-particle RhoCI density.
 SavETr:  write IOETrn=   770 NScale= 10 NData=  16 NLR=1 NState=    1 LETran=      28.

 **********************************************************************

            Population analysis using the SCF Density.

 **********************************************************************

 Orbital symmetries:
       Occupied  (A') (A') (A') (A') (A') (A') (A') (A') (A') (A')
                 (A') (A') (A') (A') (A') (A') (A') (A') (A') (A')
                 (A') (A') (A') (A') (A') (A') (A') (A') (A') (A')
                 (A') (A") (A') (A') (A') (A') (A') (A") (A') (A")
                 (A') (A') (A') (A") (A") (A") (A")
       Virtual   (A") (A") (A") (A") (A') (A') (A') (A') (A") (A')
                 (A') (A") (A') (A') (A") (A') (A") (A') (A') (A')
                 (A") (A") (A') (A') (A') (A") (A') (A") (A') (A')
                 (A") (A') (A") (A') (A') (A') (A') (A') (A") (A')
                 (A") (A') (A') (A") (A") (A') (A") (A') (A") (A')
                 (A') (A') (A') (A') (A') (A") (A') (A') (A') (A')
                 (A') (A") (A') (A') (A') (A') (A") (A') (A') (A')
                 (A') (A') (A') (A') (A') (A') (A') (A') (A') (A')
                 (A') (A') (A') (A') (A') (A') (A') (A') (A') (A')
                 (A') (A') (A') (A') (A") (A") (A') (A") (A') (A")
                 (A') (A') (A') (A') (A") (A") (A') (A") (A') (A")
                 (A') (A") (A') (A') (A") (A') (A') (A") (A') (A")
                 (A") (A') (A") (A') (A') (A') (A") (A') (A') (A')
                 (A') (A') (A') (A') (A') (A') (A') (A') (A') (A')
                 (A') (A') (A') (A") (A') (A') (A') (A') (A') (A')
                 (A') (A") (A') (A') (A") (A') (A") (A") (A') (A")
                 (A") (A') (A') (A") (A") (A') (A") (A") (A') (A')
                 (A') (A') (A") (A') (A') (A") (A') (A') (A') (A")
                 (A') (A') (A') (A") (A') (A") (A') (A") (A") (A')
                 (A") (A') (A') (A") (A") (A') (A') (A') (A') (A')
                 (A") (A") (A") (A') (A') (A") (A') (A") (A') (A')
                 (A') (A") (A") (A') (A") (A') (A') (A") (A') (A")
                 (A') (A') (A') (A') (A") (A') (A') (A') (A") (A")
                 (A') (A') (A') (A") (A') (A') (A') (A") (A") (A')
                 (A") (A') (A') (A") (A') (A') (A') (A') (A') (A')
                 (A") (A') (A') (A') (A') (A") (A") (A") (A') (A')
                 (A') (A') (A') (A') (A') (A') (A") (A') (A') (A')
                 (A') (A") (A') (A") (A") (A") (A') (A") (A') (A")
                 (A') (A") (A") (A') (A") (A") (A') (A') (A') (A')
                 (A') (A') (A') (A') (A') (A') (A') (A') (A') (A')
                 (A') (A') (A') (A") (A') (A') (A') (A') (A') (A')
                 (A') (A') (A') (A') (A') (A') (A') (A') (A') (A')
                 (A') (A') (A') (A') (A') (A') (A') (A') (A') (A')
                 (A') (A')
 The electronic state is 1-A'.
 Alpha  occ. eigenvalues --  -10.77207 -10.74091 -10.72802 -10.72610 -10.72602
 Alpha  occ. eigenvalues --  -10.71913 -10.71560 -10.71183 -10.70603 -10.70425
 Alpha  occ. eigenvalues --  -10.69970 -10.69777 -10.69638 -10.69256  -1.16645
 Alpha  occ. eigenvalues --   -1.12480  -1.06914  -1.05924  -1.01254  -1.00623
 Alpha  occ. eigenvalues --   -0.95378  -0.91019  -0.86464  -0.85860  -0.83791
 Alpha  occ. eigenvalues --   -0.78226  -0.76216  -0.74302  -0.70048  -0.69298
 Alpha  occ. eigenvalues --   -0.68132  -0.67947  -0.67934  -0.65510  -0.64164
 Alpha  occ. eigenvalues --   -0.62540  -0.61525  -0.60739  -0.59335  -0.59078
 Alpha  occ. eigenvalues --   -0.56803  -0.55527  -0.54089  -0.52415  -0.47894
 Alpha  occ. eigenvalues --   -0.46109  -0.43363
 Alpha virt. eigenvalues --   -0.26037  -0.14720  -0.13971  -0.12762  -0.11194
 Alpha virt. eigenvalues --   -0.10101  -0.09292  -0.07936  -0.07863  -0.07493
 Alpha virt. eigenvalues --   -0.07193  -0.07071  -0.05660  -0.05567  -0.05355
 Alpha virt. eigenvalues --   -0.03876  -0.03682  -0.03273  -0.03138  -0.02145
 Alpha virt. eigenvalues --   -0.01336  -0.00984   0.00177   0.00528   0.00608
 Alpha virt. eigenvalues --    0.01069   0.01474   0.01922   0.02142   0.02347
 Alpha virt. eigenvalues --    0.02453   0.02656   0.02830   0.03272   0.03621
 Alpha virt. eigenvalues --    0.04208   0.04501   0.04770   0.05104   0.05446
 Alpha virt. eigenvalues --    0.06025   0.06304   0.06556   0.07007   0.07336
 Alpha virt. eigenvalues --    0.07829   0.08030   0.08372   0.08746   0.08859
 Alpha virt. eigenvalues --    0.09449   0.09555   0.09876   0.10719   0.10864
 Alpha virt. eigenvalues --    0.11087   0.11963   0.12166   0.12565   0.13016
 Alpha virt. eigenvalues --    0.13464   0.13481   0.13988   0.14433   0.15615
 Alpha virt. eigenvalues --    0.16231   0.16334   0.17262   0.17453   0.17775
 Alpha virt. eigenvalues --    0.18056   0.19058   0.19436   0.19695   0.20157
 Alpha virt. eigenvalues --    0.21447   0.21713   0.22569   0.23354   0.23574
 Alpha virt. eigenvalues --    0.24130   0.24603   0.25696   0.27062   0.27522
 Alpha virt. eigenvalues --    0.28909   0.29271   0.30197   0.31524   0.35856
 Alpha virt. eigenvalues --    0.36455   0.38304   0.39319   0.40981   0.41090
 Alpha virt. eigenvalues --    0.41946   0.41998   0.43005   0.43688   0.44439
 Alpha virt. eigenvalues --    0.44721   0.45069   0.45824   0.46599   0.47803
 Alpha virt. eigenvalues --    0.48242   0.48678   0.49094   0.50656   0.50670
 Alpha virt. eigenvalues --    0.50956   0.52185   0.52315   0.52759   0.54177
 Alpha virt. eigenvalues --    0.54259   0.54663   0.55559   0.56095   0.57616
 Alpha virt. eigenvalues --    0.58247   0.58995   0.61500   0.62265   0.62437
 Alpha virt. eigenvalues --    0.63183   0.63615   0.64641   0.65284   0.67641
 Alpha virt. eigenvalues --    0.70107   0.70393   0.71323   0.72546   0.73084
 Alpha virt. eigenvalues --    0.75410   0.75908   0.76411   0.76625   0.77029
 Alpha virt. eigenvalues --    0.77936   0.78176   0.78229   0.80149   0.80313
 Alpha virt. eigenvalues --    0.81246   0.81808   0.82672   0.83177   0.85303
 Alpha virt. eigenvalues --    0.87088   0.87838   0.88037   0.89524   0.90780
 Alpha virt. eigenvalues --    0.90960   0.91438   0.93201   0.94573   0.96384
 Alpha virt. eigenvalues --    0.97206   0.99384   1.01016   1.01402   1.03029
 Alpha virt. eigenvalues --    1.03097   1.03338   1.05032   1.06763   1.08943
 Alpha virt. eigenvalues --    1.21004   1.23021   1.23133   1.24340   1.28300
 Alpha virt. eigenvalues --    1.29419   1.32155   1.34529   1.36213   1.36460
 Alpha virt. eigenvalues --    1.39062   1.39617   1.40647   1.42715   1.43356
 Alpha virt. eigenvalues --    1.43464   1.44269   1.46314   1.46597   1.46782
 Alpha virt. eigenvalues --    1.47726   1.48213   1.52003   1.53603   1.55940
 Alpha virt. eigenvalues --    1.55958   1.56377   1.56578   1.57797   1.61723
 Alpha virt. eigenvalues --    1.62615   1.63367   1.64408   1.65904   1.68284
 Alpha virt. eigenvalues --    1.68332   1.68613   1.69969   1.74448   1.75701
 Alpha virt. eigenvalues --    1.77334   1.78060   1.79118   1.79683   1.81185
 Alpha virt. eigenvalues --    1.82599   1.83180   1.83440   1.83634   1.84491
 Alpha virt. eigenvalues --    1.84934   1.85601   1.86715   1.88392   1.91431
 Alpha virt. eigenvalues --    1.92912   1.93520   1.95476   1.97851   1.98316
 Alpha virt. eigenvalues --    1.99861   2.02566   2.04986   2.07285   2.11513
 Alpha virt. eigenvalues --    2.12263   2.14611   2.15271   2.19167   2.21181
 Alpha virt. eigenvalues --    2.22708   2.28247   2.30522   2.34114   2.34350
 Alpha virt. eigenvalues --    2.36287   2.38501   2.39772   2.42280   2.44550
 Alpha virt. eigenvalues --    2.46056   2.46169   2.49341   2.53231   2.54003
 Alpha virt. eigenvalues --    2.54402   2.56902   2.58046   2.58730   2.59070
 Alpha virt. eigenvalues --    2.59809   2.60989   2.62304   2.63309   2.63535
 Alpha virt. eigenvalues --    2.64861   2.64888   2.65237   2.65825   2.68060
 Alpha virt. eigenvalues --    2.68253   2.70803   2.71456   2.73594   2.74756
 Alpha virt. eigenvalues --    2.76347   2.77616   2.79486   2.82935   2.83281
 Alpha virt. eigenvalues --    2.85165   2.86246   2.92109   2.95788   2.99383
 Alpha virt. eigenvalues --    3.00195   3.04620   3.08200   3.10981   3.15284
 Alpha virt. eigenvalues --    3.19777   3.21119   3.25604   3.28318   3.31197
 Alpha virt. eigenvalues --    3.33016   3.35502   3.44590   3.46446   3.47140
 Alpha virt. eigenvalues --    3.48767   3.50171   3.56442   3.64823   3.67255
 Alpha virt. eigenvalues --    3.68483   3.93068   3.93767   3.95197   3.96412
 Alpha virt. eigenvalues --    4.03764   4.06163   4.07276   4.12686   4.34647
 Alpha virt. eigenvalues --    4.60104   4.68272   4.70534  23.44909  23.59711
 Alpha virt. eigenvalues --   23.77287  23.79789  23.83010  23.88425  23.91562
 Alpha virt. eigenvalues --   23.95202  23.95435  24.00869  24.07073  24.10185
 Alpha virt. eigenvalues --   24.12194  24.17873
          Condensed to atoms (all electrons):
               1          2          3          4          5          6
     1  C    9.729502  -0.390288  -0.219013   2.794394  -0.217316  -0.108336
     2  C   -0.390288   7.260186   0.074942  -1.321935   0.048059  -0.012459
     3  C   -0.219013   0.074942   6.716480   0.874791  -0.170755   0.021090
     4  C    2.794394  -1.321935   0.874791  10.907332  -0.655661  -0.113919
     5  C   -0.217316   0.048059  -0.170755  -0.655661  12.659736   0.598787
     6  C   -0.108336  -0.012459   0.021090  -0.113919   0.598787   6.719013
     7  C    0.023625  -0.004606  -0.012557  -0.038110  -1.045210   0.424176
     8  C    0.362965  -0.000613  -0.091122  -0.112318   2.353935  -0.646183
     9  C   -0.821542  -0.779253   0.345403  -0.371086   0.174200   0.312276
    10  C   -1.601837   0.376968  -0.468548  -2.341306  -2.944311  -0.177751
    11  C   -0.028743  -0.736910   1.181835  -0.477853  -1.587131  -0.230155
    12  C   -3.435173   1.954699  -1.721937  -1.974292  -0.567913  -0.009561
    13  C    0.427370  -0.360439  -0.018589  -1.323032  -1.033563   0.790310
    14  C   -1.005044   0.002801  -0.369967  -0.184367  -2.017536  -1.459079
    15  H    0.383393  -0.111302   0.006368   0.032139   0.003030   0.001004
    16  H   -0.020399   0.377227  -0.015997   0.007202  -0.001224  -0.000275
    17  H   -0.042252   0.002738   0.362377  -0.066538   0.000327   0.000434
    18  H    0.062600   0.001226  -0.086395   0.465797   0.003771  -0.005844
    19  H   -0.051038  -0.009854   0.060082  -0.050073  -0.092603   0.057520
    20  H    0.005695   0.002438  -0.005896   0.000905   0.501147  -0.084119
    21  H   -0.001299  -0.000378   0.000455   0.000432  -0.074653   0.381787
    22  H    0.000958   0.000422  -0.000350  -0.001910   0.017482  -0.024014
    23  H    0.004146  -0.002681   0.001128   0.006008   0.028242  -0.003131
    24  H    0.023396   0.011926  -0.001890  -0.012011  -0.009549  -0.001377
    25  H    0.023396   0.011926  -0.001890  -0.012011  -0.009549  -0.001377
               7          8          9         10         11         12
     1  C    0.023625   0.362965  -0.821542  -1.601837  -0.028743  -3.435173
     2  C   -0.004606  -0.000613  -0.779253   0.376968  -0.736910   1.954699
     3  C   -0.012557  -0.091122   0.345403  -0.468548   1.181835  -1.721937
     4  C   -0.038110  -0.112318  -0.371086  -2.341306  -0.477853  -1.974292
     5  C   -1.045210   2.353935   0.174200  -2.944311  -1.587131  -0.567913
     6  C    0.424176  -0.646183   0.312276  -0.177751  -0.230155  -0.009561
     7  C    7.210175   0.384297  -0.847626   0.100746  -0.208173  -0.309755
     8  C    0.384297   8.683921  -0.721996  -1.424751   0.267695  -1.179880
     9  C   -0.847626  -0.721996   9.482044   0.290045   1.144903  -1.640646
    10  C    0.100746  -1.424751   0.290045   8.943056  -0.177741   2.463098
    11  C   -0.208173   0.267695   1.144903  -0.177741  13.381676  -2.498593
    12  C   -0.309755  -1.179880  -1.640646   2.463098  -2.498593  15.483419
    13  C   -0.413329   0.021224   1.235511   0.229727   0.716869  -4.445072
    14  C    0.839392  -2.372579  -2.303714   2.265665  -4.191090   3.379924
    15  H   -0.001726   0.005726   0.083302  -0.011538  -0.039189  -0.038227
    16  H    0.000280   0.000172   0.003071  -0.005857   0.019636  -0.020329
    17  H   -0.000414  -0.001193  -0.006730   0.018173  -0.026463   0.104906
    18  H    0.002091   0.005793  -0.025556   0.011902  -0.005446  -0.080076
    19  H   -0.009162  -0.048146   0.077254   0.425502   0.081330  -0.031530
    20  H    0.004899   0.055547  -0.019604  -0.006883  -0.015205  -0.032907
    21  H   -0.021363  -0.023088  -0.005324   0.019570  -0.005916   0.006223
    22  H    0.384690  -0.021322   0.002202  -0.009606   0.003528  -0.011129
    23  H   -0.105497   0.377804   0.073328  -0.007947  -0.007011   0.007694
    24  H    0.015625   0.037033   0.356926   0.005103  -0.004920  -0.052822
    25  H    0.015625   0.037033   0.356926   0.005103  -0.004920  -0.052822
              13         14         15         16         17         18
     1  C    0.427370  -1.005044   0.383393  -0.020399  -0.042252   0.062600
     2  C   -0.360439   0.002801  -0.111302   0.377227   0.002738   0.001226
     3  C   -0.018589  -0.369967   0.006368  -0.015997   0.362377  -0.086395
     4  C   -1.323032  -0.184367   0.032139   0.007202  -0.066538   0.465797
     5  C   -1.033563  -2.017536   0.003030  -0.001224   0.000327   0.003771
     6  C    0.790310  -1.459079   0.001004  -0.000275   0.000434  -0.005844
     7  C   -0.413329   0.839392  -0.001726   0.000280  -0.000414   0.002091
     8  C    0.021224  -2.372579   0.005726   0.000172  -0.001193   0.005793
     9  C    1.235511  -2.303714   0.083302   0.003071  -0.006730  -0.025556
    10  C    0.229727   2.265665  -0.011538  -0.005857   0.018173   0.011902
    11  C    0.716869  -4.191090  -0.039189   0.019636  -0.026463  -0.005446
    12  C   -4.445072   3.379924  -0.038227  -0.020329   0.104906  -0.080076
    13  C   14.336089  -3.616815   0.010104   0.001168  -0.005565  -0.015119
    14  C   -3.616815  16.519670   0.001519  -0.006340   0.004571  -0.003007
    15  H    0.010104   0.001519   0.448122  -0.009570   0.001311  -0.000065
    16  H    0.001168  -0.006340  -0.009570   0.426535  -0.005857   0.001826
    17  H   -0.005565   0.004571   0.001311  -0.005857   0.423170  -0.009807
    18  H   -0.015119  -0.003007  -0.000065   0.001826  -0.009807   0.464177
    19  H    0.081199  -0.111597   0.000307  -0.000587   0.001356  -0.008569
    20  H   -0.013937  -0.057221  -0.000105   0.000010  -0.000136   0.001308
    21  H   -0.023316   0.088941   0.000012  -0.000007   0.000012  -0.000189
    22  H    0.023148  -0.025912  -0.000124   0.000007  -0.000008   0.000020
    23  H   -0.039442   0.001267   0.000429  -0.000119   0.000022  -0.000129
    24  H    0.024177  -0.055948  -0.000762   0.000632  -0.000150   0.000231
    25  H    0.024177  -0.055948  -0.000762   0.000632  -0.000150   0.000231
              19         20         21         22         23         24
     1  C   -0.051038   0.005695  -0.001299   0.000958   0.004146   0.023396
     2  C   -0.009854   0.002438  -0.000378   0.000422  -0.002681   0.011926
     3  C    0.060082  -0.005896   0.000455  -0.000350   0.001128  -0.001890
     4  C   -0.050073   0.000905   0.000432  -0.001910   0.006008  -0.012011
     5  C   -0.092603   0.501147  -0.074653   0.017482   0.028242  -0.009549
     6  C    0.057520  -0.084119   0.381787  -0.024014  -0.003131  -0.001377
     7  C   -0.009162   0.004899  -0.021363   0.384690  -0.105497   0.015625
     8  C   -0.048146   0.055547  -0.023088  -0.021322   0.377804   0.037033
     9  C    0.077254  -0.019604  -0.005324   0.002202   0.073328   0.356926
    10  C    0.425502  -0.006883   0.019570  -0.009606  -0.007947   0.005103
    11  C    0.081330  -0.015205  -0.005916   0.003528  -0.007011  -0.004920
    12  C   -0.031530  -0.032907   0.006223  -0.011129   0.007694  -0.052822
    13  C    0.081199  -0.013937  -0.023316   0.023148  -0.039442   0.024177
    14  C   -0.111597  -0.057221   0.088941  -0.025912   0.001267  -0.055948
    15  H    0.000307  -0.000105   0.000012  -0.000124   0.000429  -0.000762
    16  H   -0.000587   0.000010  -0.000007   0.000007  -0.000119   0.000632
    17  H    0.001356  -0.000136   0.000012  -0.000008   0.000022  -0.000150
    18  H   -0.008569   0.001308  -0.000189   0.000020  -0.000129   0.000231
    19  H    0.454536  -0.006877   0.002102  -0.000687   0.000501   0.000504
    20  H   -0.006877   0.450762  -0.010477   0.002011   0.000234   0.000123
    21  H    0.002102  -0.010477   0.418088  -0.006817   0.001772  -0.000129
    22  H   -0.000687   0.002011  -0.006817   0.413285  -0.008904   0.000590
    23  H    0.000501   0.000234   0.001772  -0.008904   0.432380  -0.000977
    24  H    0.000504   0.000123  -0.000129   0.000590  -0.000977   0.491633
    25  H    0.000504   0.000123  -0.000129   0.000590  -0.000977  -0.078576
              25
     1  C    0.023396
     2  C    0.011926
     3  C   -0.001890
     4  C   -0.012011
     5  C   -0.009549
     6  C   -0.001377
     7  C    0.015625
     8  C    0.037033
     9  C    0.356926
    10  C    0.005103
    11  C   -0.004920
    12  C   -0.052822
    13  C    0.024177
    14  C   -0.055948
    15  H   -0.000762
    16  H    0.000632
    17  H   -0.000150
    18  H    0.000231
    19  H    0.000504
    20  H    0.000123
    21  H   -0.000129
    22  H    0.000590
    23  H   -0.000977
    24  H   -0.078576
    25  H    0.491633
 Mulliken charges:
               1
     1  C    0.100839
     2  C   -0.394840
     3  C   -0.460042
     4  C   -0.032578
     5  C    0.038257
     6  C   -0.428816
     7  C   -0.388094
     8  C    0.050049
     9  C   -0.394314
    10  C    0.023420
    11  C   -0.552014
    12  C    0.702699
    13  C   -0.612854
    14  C    0.732411
    15  H    0.236605
    16  H    0.248160
    17  H    0.245868
    18  H    0.219229
    19  H    0.178024
    20  H    0.228166
    21  H    0.253690
    22  H    0.261851
    23  H    0.241860
    24  H    0.251212
    25  H    0.251212
 Sum of Mulliken charges =   1.00000
 Mulliken charges with hydrogens summed into heavy atoms:
               1
     1  C    0.337445
     2  C   -0.146680
     3  C   -0.214174
     4  C    0.186652
     5  C    0.266423
     6  C   -0.175127
     7  C   -0.126243
     8  C    0.291908
     9  C    0.108110
    10  C    0.201443
    11  C   -0.552014
    12  C    0.702699
    13  C   -0.612854
    14  C    0.732411
 Electronic spatial extent (au):  <R**2>=           2858.5558
 Charge=              1.0000 electrons
 Dipole moment (field-independent basis, Debye):
    X=             -1.5122    Y=              0.2305    Z=             -0.0000  Tot=              1.5296
 Quadrupole moment (field-independent basis, Debye-Ang):
   XX=            -30.7518   YY=            -56.2629   ZZ=            -84.1269
   XY=             -1.5548   XZ=              0.0000   YZ=             -0.0000
 Traceless Quadrupole moment (field-independent basis, Debye-Ang):
   XX=             26.2954   YY=              0.7843   ZZ=            -27.0797
   XY=             -1.5548   XZ=              0.0000   YZ=             -0.0000
 Octapole moment (field-independent basis, Debye-Ang**2):
  XXX=            -17.3165  YYY=              5.3738  ZZZ=              0.0000  XYY=             -2.7896
  XXY=             -4.0355  XXZ=             -0.0000  XZZ=             -2.4242  YZZ=             -2.9276
  YYZ=             -0.0000  XYZ=              0.0000
 Hexadecapole moment (field-independent basis, Debye-Ang**3):
 XXXX=          -2113.8826 YYYY=           -615.8591 ZZZZ=            -99.3054 XXXY=             33.2933
 XXXZ=              0.0000 YYYX=             46.3545 YYYZ=              0.0000 ZZZX=             -0.0000
 ZZZY=             -0.0000 XXYY=           -507.3691 XXZZ=           -589.7474 YYZZ=           -146.9052
 XXYZ=              0.0000 YYXZ=              0.0000 ZZXY=             22.5397
 N-N= 7.810084689647D+02 E-N=-2.798390961553D+03  KE= 5.375539361365D+02
 Symmetry A'   KE= 5.228948173194D+02
 Symmetry A"   KE= 1.465911881712D+01
 Unable to Open any file for archive entry.
 1\1\GINC-GADI-CPU-CLX-2808\SP\RM062X TD-FC\6-311++G(d,p)\C14H11(1+)\TS
 1578\02-Aug-2022\0\\#n M062X/6-311++G(d,p) TD(NStates=1) EmpiricalDisp
 ersion=GD3 SP\\SP_-2\\1,1\C,0,0.,2.550655,1.356431\C,0,0.,3.749508,0.6
 53989\C,0,0.,3.691861,-0.71583\C,0,0.,2.399156,-1.395538\C,0,0.,-2.479
 156,-1.427538\C,0,0.,-3.655861,-0.77983\C,0,0.,-3.677508,0.621989\C,0,
 0.,-2.486655,1.356431\C,0,0.,0.016,1.483369\C,0,0.,-0.058,-1.399189\C,
 0,0.,1.250055,0.681065\C,0,0.,1.215471,-0.702804\C,0,0.,-1.286055,0.72
 5065\C,0,0.,-1.251471,-0.706804\H,0,0.,2.556071,2.439647\H,0,0.,4.6947
 53,1.173689\H,0,0.,4.591262,-1.320349\H,0,0.,2.39555,-2.478059\H,0,0.,
 -0.05,-2.478266\H,0,0.,-2.43155,-2.510059\H,0,0.,-4.587262,-1.328349\H
 ,0,0.,-4.622753,1.145689\H,0,0.,-2.536071,2.439647\H,0,-0.859585,0.088
 ,2.175787\H,0,0.859585,0.088,2.175787\\Version=ES64L-G16RevC.01\State=
 1-A'\HF=-539.7474555\RMSD=9.941e-09\PG=CS [SG(C14H9),X(H2)]\\@
 The archive entry for this job was punched.


 WORK FAITHFULLY FOR EIGHT HOURS A DAY AND DON'T WORRY.
 IN TIME YOU MAY BECOME BOSS AND WORK TWELVE HOURS A DAY
 AND HAVE ALL THE WORRY.
 Job cpu time:       0 days  0 hours 53 minutes 27.4 seconds.
 Elapsed time:       0 days  0 hours  1 minutes  7.4 seconds.
 File lengths (MBytes):  RWF=    460 Int=      0 D2E=      0 Chk=     15 Scr=      1
 Normal termination of Gaussian 16 at Tue Aug  2 12:29:52 2022.
