 Entering Gaussian System, Link 0=g16
 Initial command:
 /apps/gaussian/g16c01/g16/l1.exe "/jobfs/53803424.gadi-pbs/Gau-1814231.inp" -scrdir="/jobfs/53803424.gadi-pbs/"
 Entering Link 1 = /apps/gaussian/g16c01/g16/l1.exe PID=   1814232.
  
 Copyright (c) 1988-2019, Gaussian, Inc.  All Rights Reserved.
  
 This is part of the Gaussian(R) 16 program.  It is based on
 the Gaussian(R) 09 system (copyright 2009, Gaussian, Inc.),
 the Gaussian(R) 03 system (copyright 2003, Gaussian, Inc.),
 the Gaussian(R) 98 system (copyright 1998, Gaussian, Inc.),
 the Gaussian(R) 94 system (copyright 1995, Gaussian, Inc.),
 the Gaussian 92(TM) system (copyright 1992, Gaussian, Inc.),
 the Gaussian 90(TM) system (copyright 1990, Gaussian, Inc.),
 the Gaussian 88(TM) system (copyright 1988, Gaussian, Inc.),
 the Gaussian 86(TM) system (copyright 1986, Carnegie Mellon
 University), and the Gaussian 82(TM) system (copyright 1983,
 Carnegie Mellon University). Gaussian is a federally registered
 trademark of Gaussian, Inc.
  
 This software contains proprietary and confidential information,
 including trade secrets, belonging to Gaussian, Inc.
  
 This software is provided under written license and may be
 used, copied, transmitted, or stored only in accord with that
 written license.
  
 The following legend is applicable only to US Government
 contracts under FAR:
  
                    RESTRICTED RIGHTS LEGEND
  
 Use, reproduction and disclosure by the US Government is
 subject to restrictions as set forth in subparagraphs (a)
 and (c) of the Commercial Computer Software - Restricted
 Rights clause in FAR 52.227-19.
  
 Gaussian, Inc.
 340 Quinnipiac St., Bldg. 40, Wallingford CT 06492
  
  
 ---------------------------------------------------------------
 Warning -- This program may not be used in any manner that
 competes with the business of Gaussian, Inc. or will provide
 assistance to any competitor of Gaussian, Inc.  The licensee
 of this program is prohibited from giving any competitor of
 Gaussian, Inc. access to this program.  By using this program,
 the user acknowledges that Gaussian, Inc. is engaged in the
 business of creating and licensing software in the field of
 computational chemistry and represents and warrants to the
 licensee that it is not a competitor of Gaussian, Inc. and that
 it will not use this program in any manner prohibited above.
 ---------------------------------------------------------------
  

 Cite this work as:
 Gaussian 16, Revision C.01,
 M. J. Frisch, G. W. Trucks, H. B. Schlegel, G. E. Scuseria, 
 M. A. Robb, J. R. Cheeseman, G. Scalmani, V. Barone, 
 G. A. Petersson, H. Nakatsuji, X. Li, M. Caricato, A. V. Marenich, 
 J. Bloino, B. G. Janesko, R. Gomperts, B. Mennucci, H. P. Hratchian, 
 J. V. Ortiz, A. F. Izmaylov, J. L. Sonnenberg, D. Williams-Young, 
 F. Ding, F. Lipparini, F. Egidi, J. Goings, B. Peng, A. Petrone, 
 T. Henderson, D. Ranasinghe, V. G. Zakrzewski, J. Gao, N. Rega, 
 G. Zheng, W. Liang, M. Hada, M. Ehara, K. Toyota, R. Fukuda, 
 J. Hasegawa, M. Ishida, T. Nakajima, Y. Honda, O. Kitao, H. Nakai, 
 T. Vreven, K. Throssell, J. A. Montgomery, Jr., J. E. Peralta, 
 F. Ogliaro, M. J. Bearpark, J. J. Heyd, E. N. Brothers, K. N. Kudin, 
 V. N. Staroverov, T. A. Keith, R. Kobayashi, J. Normand, 
 K. Raghavachari, A. P. Rendell, J. C. Burant, S. S. Iyengar, 
 J. Tomasi, M. Cossi, J. M. Millam, M. Klene, C. Adamo, R. Cammi, 
 J. W. Ochterski, R. L. Martin, K. Morokuma, O. Farkas, 
 J. B. Foresman, and D. J. Fox, Gaussian, Inc., Wallingford CT, 2019.
 
 ******************************************
 Gaussian 16:  ES64L-G16RevC.01  3-Jul-2019
                 2-Aug-2022 
 ******************************************
 %NProcShared=48
 Will use up to   48 processors via shared memory.
 %mem = 190GB
 ---------------------------------------------------------------
 #n M062X/6-311++G(d,p) TD(NStates=1) EmpiricalDispersion=GD3 SP
 ---------------------------------------------------------------
 1/38=1,172=1/1;
 2/12=2,17=6,18=5,40=1/2;
 3/5=4,6=6,7=1111,11=9,25=1,30=1,74=-55,124=31/1,2,3,8;
 4//1;
 5/5=2,38=5/2;
 8/6=1,10=2,108=1/1;
 9/41=1,42=1,70=2/14;
 6/7=2,8=2,9=2,10=2/1;
 99/5=1,9=1/99;
 -----
 SP_-6
 -----
 Symbolic Z-matrix:
 Charge =  1 Multiplicity = 1
 C                     0.        2.66666   1.34843 
 C                     0.        3.84551   0.61799 
 C                     0.        3.70786  -0.71983 
 C                     0.        2.27116  -1.37154 
 C                     0.       -2.51116  -1.46754 
 C                     0.       -3.59986  -0.91183 
 C                     0.       -3.62951   0.52199 
 C                     0.       -2.47466   1.34843 
 C                     0.        0.048     1.54337 
 C                     0.       -0.174    -1.33919 
 C                     0.        1.22606   0.68907 
 C                     0.        1.17147  -0.6468 
 C                     0.       -1.33406   0.82107 
 C                     0.       -1.27947  -0.6588 
 H                     0.        2.69207   2.43165 
 H                     0.        4.81075   1.09769 
 H                     0.        4.55526  -1.41635 
 H                     0.        2.25155  -2.45406 
 H                     0.       -0.15     -2.41427 
 H                     0.       -2.35955  -2.55006 
 H                     0.       -4.54326  -1.44035 
 H                     0.       -4.59475   1.01369 
 H                     0.       -2.63207   2.43165 
 H                    -0.85959   0.264     2.23579 
 H                     0.85959   0.264     2.23579 
 
                          Input orientation:                          
 ---------------------------------------------------------------------
 Center     Atomic      Atomic             Coordinates (Angstroms)
 Number     Number       Type             X           Y           Z
 ---------------------------------------------------------------------
      1          6           0        0.000000    2.666655    1.348431
      2          6           0        0.000000    3.845508    0.617989
      3          6           0        0.000000    3.707861   -0.719830
      4          6           0        0.000000    2.271156   -1.371538
      5          6           0        0.000000   -2.511156   -1.467538
      6          6           0        0.000000   -3.599861   -0.911830
      7          6           0        0.000000   -3.629508    0.521989
      8          6           0        0.000000   -2.474655    1.348431
      9          6           0        0.000000    0.048000    1.543369
     10          6           0        0.000000   -0.174000   -1.339189
     11          6           0        0.000000    1.226055    0.689065
     12          6           0        0.000000    1.171471   -0.646804
     13          6           0        0.000000   -1.334055    0.821065
     14          6           0        0.000000   -1.279471   -0.658804
     15          1           0        0.000000    2.692071    2.431647
     16          1           0        0.000000    4.810753    1.097689
     17          1           0        0.000000    4.555262   -1.416349
     18          1           0        0.000000    2.251550   -2.454059
     19          1           0        0.000000   -0.150000   -2.414266
     20          1           0        0.000000   -2.359550   -2.550059
     21          1           0        0.000000   -4.543262   -1.440349
     22          1           0        0.000000   -4.594753    1.013689
     23          1           0        0.000000   -2.632071    2.431647
     24          1           0       -0.859585    0.264000    2.235787
     25          1           0        0.859585    0.264000    2.235787
 ---------------------------------------------------------------------
                    Distance matrix (angstroms):
                    1          2          3          4          5
     1  C    0.000000
     2  C    1.386809   0.000000
     3  C    2.315559   1.344882   0.000000
     4  C    2.748573   2.537085   1.577607   0.000000
     5  C    5.894015   6.690037   6.263804   4.783275   0.000000
     6  C    6.661682   7.600912   7.310244   5.888987   1.222330
     7  C    6.350171   7.475632   7.441713   6.197038   2.282308
     8  C    5.141310   6.362233   6.519295   5.470005   2.816206
     9  C    2.625901   3.908631   4.303098   3.665939   3.951562
    10  C    3.910578   4.470681   3.930960   2.445370   2.340678
    11  C    1.584327   2.620417   2.853830   2.310481   4.314821
    12  C    2.493299   2.958070   2.537441   1.317022   3.772976
    13  C    4.035319   5.183542   5.272122   4.219604   2.573572
    14  C    4.427291   5.281629   4.987705   3.621456   1.473465
    15  H    1.083514   2.149366   3.311138   3.826406   6.502093
    16  H    2.158710   1.077873   2.125969   3.542123   7.758269
    17  H    3.348260   2.154596   1.096917   2.284546   7.066603
    18  H    3.825081   3.460951   2.264595   1.082699   4.863804
    19  H    4.700153   5.015840   4.213574   2.636148   2.543885
    20  H    6.360893   6.967013   6.337445   4.778321   1.093086
    21  H    7.730472   8.637605   8.282522   6.814765   2.032288
    22  H    7.269120   8.449532   8.481656   7.268426   3.240041
    23  H    5.408313   6.726692   7.080010   6.205308   3.901059
    24  H    2.701673   4.022854   4.618954   4.216676   4.706909
    25  H    2.701673   4.022854   4.618954   4.216676   4.706909
                    6          7          8          9         10
     6  C    0.000000
     7  C    1.434125   0.000000
     8  C    2.524850   1.420103   0.000000
     9  C    4.397146   3.816711   2.530176   0.000000
    10  C    3.452414   3.924859   3.537840   2.891094   0.000000
    11  C    5.084519   4.858437   3.758992   1.455214   2.464542
    12  C    4.778687   4.941202   4.156344   2.461513   1.513172
    13  C    2.852508   2.314854   1.256616   1.559423   2.452025
    14  C    2.334145   2.630009   2.336120   2.571331   1.298072
    15  H    7.125114   6.603723   5.279054   2.789292   4.736409
    16  H    8.647346   8.459872   7.289722   4.783560   5.548526
    17  H    8.170714   8.411160   7.554055   5.392156   4.729891
    18  H    6.051238   6.591184   6.065966   4.564544   2.669500
    19  H    3.762825   4.552864   4.422885   3.962585   1.075345
    20  H    2.054791   3.324195   3.900189   4.748942   2.498567
    21  H    1.081359   2.164652   3.472237   5.475606   4.370433
    22  H    2.167356   1.083267   2.146362   4.672870   5.007903
    23  H    3.480726   2.154455   1.094594   2.823441   4.501257
    24  H    5.057252   4.339976   3.004416   1.124716   3.702862
    25  H    5.057252   4.339976   3.004416   1.124716   3.702862
                   11         12         13         14         15
    11  C    0.000000
    12  C    1.336984   0.000000
    13  C    2.563511   2.903842   0.000000
    14  C    2.845068   2.450971   1.480875   0.000000
    15  H    2.277234   3.433524   4.336319   5.032299   0.000000
    16  H    3.607913   4.035794   6.151031   6.338462   2.503649
    17  H    3.939085   3.470193   6.300006   5.883705   4.275343
    18  H    3.306186   2.105408   4.856233   3.961193   4.905526
    19  H    3.394730   2.206855   3.445193   2.087427   5.617850
    20  H    4.832027   4.011295   3.523651   2.177939   7.094806
    21  H    6.149750   5.769566   3.925940   3.356061   8.206241
    22  H    5.829853   6.000548   3.266383   3.713264   7.423504
    23  H    4.233406   4.893239   2.068531   3.373487   5.324142
    24  H    2.014146   3.141929   2.300892   3.391142   2.583172
    25  H    2.014146   3.141929   2.300892   3.391142   2.583172
                   16         17         18         19         20
    16  H    0.000000
    17  H    2.526987   0.000000
    18  H    4.377720   2.526644   0.000000
    19  H    6.078067   4.809920   2.401880   0.000000
    20  H    8.044831   7.007134   4.612099   2.213719   0.000000
    21  H    9.692225   9.098556   6.870013   4.499918   2.449501
    22  H    9.405881   9.467199   7.674447   5.613083   4.206713
    23  H    7.561420   8.152596   6.907958   5.444589   4.989154
    24  H    4.765198   5.700168   5.165646   4.746923   5.525054
    25  H    4.765198   5.700168   5.165646   4.746923   5.525054
                   21         22         23         24         25
    21  H    0.000000
    22  H    2.454578   0.000000
    23  H    4.317986   2.421307   0.000000
    24  H    6.112498   5.083295   3.027288   0.000000
    25  H    6.112498   5.083295   3.027288   1.719170   0.000000
 Stoichiometry    C14H11(1+)
 Framework group  CS[SG(C14H9),X(H2)]
 Deg. of freedom    46
 Full point group                 CS      NOp   2
 Largest Abelian subgroup         CS      NOp   2
 Largest concise Abelian subgroup CS      NOp   2
                         Standard orientation:                         
 ---------------------------------------------------------------------
 Center     Atomic      Atomic             Coordinates (Angstroms)
 Number     Number       Type             X           Y           Z
 ---------------------------------------------------------------------
      1          6           0        2.469164    1.681834    0.000000
      2          6           0        2.398648    3.066849    0.000000
      3          6           0        1.160625    3.592210    0.000000
      4          6           0       -0.103740    2.648692    0.000000
      5          6           0       -2.496723   -1.492970    0.000000
      6          6           0       -2.535702   -2.714678    0.000000
      7          6           0       -1.294379   -3.432892    0.000000
      8          6           0       -0.013073   -2.820562    0.000000
      9          6           0        1.375584   -0.705516    0.000000
     10          6           0       -1.255939    0.491779    0.000000
     11          6           0        1.196213    0.738602    0.000000
     12          6           0        0.000000    1.335762    0.000000
     13          6           0        0.075781   -1.567091    0.000000
     14          6           0       -1.193830   -0.804806    0.000000
     15          1           0        3.430039    1.181112    0.000000
     16          1           0        3.284758    3.680542    0.000000
     17          1           0        0.959790    4.670585    0.000000
     18          1           0       -1.061201    3.154166    0.000000
     19          1           0       -2.185828    1.031846    0.000000
     20          1           0       -3.371522   -0.837560    0.000000
     21          1           0       -3.454018   -3.285671    0.000000
     22          1           0       -1.329805   -4.515579    0.000000
     23          1           0        0.859530   -3.481395    0.000000
     24          1           0        2.086240   -0.850659    0.859585
     25          1           0        2.086240   -0.850659   -0.859585
 ---------------------------------------------------------------------
 Rotational constants (GHZ):           2.1260753           0.4424867           0.3670518
 Standard basis: 6-311++G(d,p) (5D, 7F)
 There are   299 symmetry adapted cartesian basis functions of A'  symmetry.
 There are   100 symmetry adapted cartesian basis functions of A"  symmetry.
 There are   285 symmetry adapted basis functions of A'  symmetry.
 There are   100 symmetry adapted basis functions of A"  symmetry.
   385 basis functions,   603 primitive gaussians,   399 cartesian basis functions
    47 alpha electrons       47 beta electrons
       nuclear repulsion energy       780.8920727025 Hartrees.
 NAtoms=   25 NActive=   25 NUniq=   24 SFac= 1.09D+00 NAtFMM=   60 NAOKFM=F Big=F
 Integral buffers will be    131072 words long.
 Regular integral format.
 Two-electron integral symmetry is turned on.
 Nuclear repulsion after empirical dispersion term =      780.8910962594 Hartrees.
 One-electron integrals computed using PRISM.
 NBasis=   385 RedAO= T EigKep=  1.38D-06  NBF=   285   100
 NBsUse=   379 1.00D-06 EigRej=  7.04D-07 NBFU=   279   100
 ExpMin= 3.60D-02 ExpMax= 4.56D+03 ExpMxC= 6.82D+02 IAcc=3 IRadAn=         5 AccDes= 0.00D+00
 Harris functional with IExCor= 1009 and IRadAn=       5 diagonalized for initial guess.
 HarFok:  IExCor= 1009 AccDes= 0.00D+00 IRadAn=         5 IDoV= 1 UseB2=F ITyADJ=14
 ICtDFT=  3500011 ScaDFX=  1.000000  1.000000  1.000000  1.000000
 FoFCou: FMM=F IPFlag=           0 FMFlag=      100000 FMFlg1=           0
         NFxFlg=           0 DoJE=T BraDBF=F KetDBF=T FulRan=T
         wScrn=  0.000000 ICntrl=       500 IOpCl=  0 I1Cent=   200000004 NGrid=           0
         NMat0=    1 NMatS0=      1 NMatT0=    0 NMatD0=    1 NMtDS0=    0 NMtDT0=    0
 Petite list used in FoFCou.
 Initial guess orbital symmetries:
       Occupied  (A') (A') (A') (A') (A') (A') (A') (A') (A') (A')
                 (A') (A') (A') (A') (A') (A') (A') (A') (A') (A')
                 (A') (A') (A') (A') (A') (A') (A') (A') (A') (A')
                 (A') (A') (A') (A") (A') (A') (A') (A") (A') (A')
                 (A") (A') (A') (A") (A") (A") (A")
       Virtual   (A") (A") (A") (A") (A") (A') (A') (A') (A') (A")
                 (A') (A") (A') (A') (A') (A") (A') (A') (A') (A')
                 (A') (A") (A') (A") (A') (A') (A") (A') (A') (A")
                 (A') (A') (A') (A') (A") (A') (A') (A') (A") (A')
                 (A") (A') (A') (A") (A') (A') (A') (A') (A') (A")
                 (A') (A") (A') (A") (A') (A') (A') (A") (A') (A")
                 (A') (A') (A') (A') (A') (A') (A") (A') (A') (A")
                 (A') (A') (A') (A') (A') (A') (A') (A') (A') (A')
                 (A') (A') (A') (A') (A') (A') (A') (A') (A') (A')
                 (A') (A') (A') (A') (A') (A") (A') (A') (A") (A')
                 (A") (A') (A") (A') (A') (A") (A') (A") (A") (A')
                 (A") (A') (A') (A") (A') (A") (A') (A') (A") (A")
                 (A') (A") (A') (A') (A") (A') (A') (A') (A") (A')
                 (A') (A') (A') (A') (A') (A') (A') (A") (A') (A')
                 (A') (A') (A') (A') (A') (A') (A") (A') (A') (A')
                 (A") (A') (A") (A') (A") (A') (A') (A") (A') (A')
                 (A") (A") (A') (A") (A") (A") (A') (A') (A') (A')
                 (A") (A') (A') (A') (A') (A') (A") (A') (A') (A')
                 (A") (A') (A') (A") (A") (A') (A') (A") (A') (A")
                 (A") (A') (A') (A') (A") (A') (A') (A") (A') (A')
                 (A") (A") (A") (A') (A') (A") (A') (A") (A") (A')
                 (A') (A') (A") (A') (A') (A") (A') (A') (A") (A')
                 (A") (A') (A') (A') (A") (A') (A') (A') (A") (A')
                 (A") (A') (A') (A") (A') (A') (A") (A') (A") (A")
                 (A') (A') (A') (A') (A") (A') (A') (A') (A') (A")
                 (A') (A') (A') (A") (A") (A') (A') (A") (A') (A')
                 (A") (A') (A') (A') (A") (A') (A') (A') (A") (A')
                 (A") (A') (A') (A') (A") (A") (A') (A') (A") (A")
                 (A') (A') (A") (A') (A") (A") (A') (A') (A') (A')
                 (A') (A') (A') (A') (A') (A') (A') (A') (A') (A')
                 (A') (A') (A') (A") (A') (A') (A') (A') (A') (A')
                 (A') (A') (A') (A') (A') (A') (A') (A') (A') (A')
                 (A') (A') (A') (A') (A') (A') (A') (A') (A') (A')
                 (A') (A')
 The electronic state of the initial guess is 1-A'.
 Requested convergence on RMS density matrix=1.00D-08 within 128 cycles.
 Requested convergence on MAX density matrix=1.00D-06.
 Requested convergence on             energy=1.00D-06.
 No special actions if energy rises.
 SCF Done:  E(RM062X) =  -539.626732084     A.U. after   16 cycles
            NFock= 16  Conv=0.45D-08     -V/T= 2.0031
 DoSCS=F DFT=T ScalE2(SS,OS)=  1.000000  1.000000
 ExpMin= 3.60D-02 ExpMax= 4.56D+03 ExpMxC= 6.82D+02 IAcc=3 IRadAn=         5 AccDes= 0.00D+00
 HarFok:  IExCor=  205 AccDes= 0.00D+00 IRadAn=         5 IDoV=-2 UseB2=F ITyADJ=14
 ICtDFT= 12500011 ScaDFX=  1.000000  1.000000  1.000000  1.000000
 Range of M.O.s used for correlation:    15   379
 NBasis=   385 NAE=    47 NBE=    47 NFC=    14 NFV=     0
 NROrb=    365 NOA=    33 NOB=    33 NVA=   332 NVB=   332

 **** Warning!!: The largest alpha MO coefficient is  0.12152364D+03

 Orbital symmetries:
       Occupied  (A') (A') (A') (A') (A') (A') (A') (A') (A') (A')
                 (A') (A') (A') (A') (A') (A') (A') (A') (A') (A')
                 (A') (A') (A') (A') (A') (A') (A') (A') (A') (A')
                 (A') (A") (A') (A') (A') (A") (A') (A') (A') (A")
                 (A') (A') (A") (A") (A') (A") (A")
       Virtual   (A") (A") (A") (A") (A') (A') (A') (A') (A') (A")
                 (A') (A") (A') (A") (A') (A') (A") (A') (A') (A')
                 (A") (A") (A') (A') (A') (A") (A') (A') (A") (A')
                 (A") (A') (A') (A') (A") (A') (A') (A') (A") (A')
                 (A") (A') (A') (A") (A") (A') (A') (A") (A') (A')
                 (A') (A") (A') (A') (A') (A") (A') (A') (A') (A')
                 (A') (A") (A') (A') (A') (A') (A") (A') (A') (A')
                 (A') (A') (A') (A') (A') (A') (A') (A') (A') (A')
                 (A') (A') (A') (A') (A') (A') (A') (A') (A') (A')
                 (A') (A') (A') (A") (A') (A") (A') (A") (A') (A')
                 (A") (A') (A') (A") (A') (A") (A') (A") (A') (A')
                 (A") (A') (A") (A') (A") (A') (A") (A') (A') (A")
                 (A") (A') (A') (A") (A') (A') (A") (A') (A') (A')
                 (A') (A') (A') (A') (A') (A') (A') (A') (A') (A')
                 (A') (A') (A') (A') (A") (A') (A') (A') (A') (A")
                 (A') (A') (A') (A') (A") (A') (A") (A') (A") (A')
                 (A") (A") (A") (A') (A') (A") (A") (A") (A') (A')
                 (A") (A') (A') (A') (A') (A') (A") (A') (A') (A")
                 (A') (A') (A') (A") (A") (A') (A") (A') (A") (A")
                 (A') (A') (A') (A") (A') (A') (A") (A') (A') (A")
                 (A') (A") (A") (A') (A") (A') (A') (A") (A') (A')
                 (A") (A') (A') (A") (A') (A') (A') (A") (A") (A')
                 (A") (A') (A') (A') (A") (A') (A') (A') (A") (A")
                 (A') (A') (A') (A") (A') (A') (A") (A') (A") (A')
                 (A") (A') (A') (A") (A') (A') (A') (A') (A') (A')
                 (A") (A') (A') (A') (A') (A") (A') (A") (A') (A")
                 (A') (A') (A') (A') (A') (A") (A') (A') (A') (A')
                 (A') (A") (A') (A") (A") (A') (A") (A") (A') (A")
                 (A') (A") (A") (A') (A") (A") (A') (A') (A') (A')
                 (A') (A') (A') (A') (A') (A') (A') (A') (A') (A')
                 (A') (A') (A") (A') (A') (A') (A') (A') (A') (A')
                 (A') (A') (A') (A') (A') (A') (A') (A') (A') (A')
                 (A') (A') (A') (A') (A') (A') (A') (A') (A') (A')
                 (A') (A')
     4 initial guesses have been made.
 Convergence on wavefunction:    0.001000000000000
 Iteration     1 Dimension     4 NMult     0 NNew      4
 CISAX will form     4 AO SS matrices at one time.
 Iteration     2 Dimension     6 NMult     4 NNew      2
 Iteration     3 Dimension     8 NMult     6 NNew      2
 Iteration     4 Dimension    10 NMult     8 NNew      2
 Iteration     5 Dimension    12 NMult    10 NNew      2
 Iteration     6 Dimension    14 NMult    12 NNew      2
 ***********************************************************************
 Excited states from <AA,BB:AA,BB> singles matrix:
 ***********************************************************************
 
 Ground to excited state transition densities written to RWF  633
 Ground to excited state transition electric dipole moments (Au):
       state          X           Y           Z        Dip. S.      Osc.
         1         0.4926      0.1784     -0.0000      0.2745      0.0123
 Ground to excited state transition velocity dipole moments (Au):
       state          X           Y           Z        Dip. S.      Osc.
         1        -0.0355     -0.0062      0.0000      0.0013      0.0128
 Ground to excited state transition magnetic dipole moments (Au):
       state          X           Y           Z
         1        -0.0000     -0.0000     -0.1020
 Ground to excited state transition velocity quadrupole moments (Au):
       state          XX          YY          ZZ          XY          XZ          YZ
         1        -0.0332      0.1270     -0.0040      0.0229      0.0000     -0.0000
 <0|del|b> * <b|rxdel|0> + <0|del|b> * <b|delr+rdel|0>
 Rotatory Strengths (R) in cgs (10**-40 erg-esu-cm/Gauss)
       state          XX          YY          ZZ    R(velocity)    E-M Angle
         1         0.0000      0.0000      0.0000      0.0000       90.00
 1/2[<0|r|b>*<b|rxdel|0> + (<0|rxdel|b>*<b|r|0>)*]
 Rotatory Strengths (R) in cgs (10**-40 erg-esu-cm/Gauss)
       state          XX          YY          ZZ     R(length)
         1         0.0000      0.0000     -0.0000      0.0000
  1/2[<0|del|b>*<b|r|0> + (<0|r|b>*<b|del|0>)*] (Au)
       state          X           Y           Z        Dip. S.   Osc.(frdel)
         1        -0.0175     -0.0011     -0.0000      0.0186      0.0124

 Excitation energies and oscillator strengths:
 
 Excited State   1:      Singlet-A'     1.8354 eV  675.52 nm  f=0.0123  <S**2>=0.000
      47 -> 48         0.70325
 This state for optimization and/or second-order correction.
 Total Energy, E(TD-HF/TD-DFT) =  -539.559282999    
 Copying the excited state density for this state as the 1-particle RhoCI density.
 SavETr:  write IOETrn=   770 NScale= 10 NData=  16 NLR=1 NState=    1 LETran=      28.

 **********************************************************************

            Population analysis using the SCF Density.

 **********************************************************************

 Orbital symmetries:
       Occupied  (A') (A') (A') (A') (A') (A') (A') (A') (A') (A')
                 (A') (A') (A') (A') (A') (A') (A') (A') (A') (A')
                 (A') (A') (A') (A') (A') (A') (A') (A') (A') (A')
                 (A') (A") (A') (A') (A') (A") (A') (A') (A') (A")
                 (A') (A') (A") (A") (A') (A") (A")
       Virtual   (A") (A") (A") (A") (A') (A') (A') (A') (A') (A")
                 (A') (A") (A') (A") (A') (A') (A") (A') (A') (A')
                 (A") (A") (A') (A') (A') (A") (A') (A') (A") (A')
                 (A") (A') (A') (A') (A") (A') (A') (A') (A") (A')
                 (A") (A') (A') (A") (A") (A') (A') (A") (A') (A')
                 (A') (A") (A') (A') (A') (A") (A') (A') (A') (A')
                 (A') (A") (A') (A') (A') (A') (A") (A') (A') (A')
                 (A') (A') (A') (A') (A') (A') (A') (A') (A') (A')
                 (A') (A') (A') (A') (A') (A') (A') (A') (A') (A')
                 (A') (A') (A') (A") (A') (A") (A') (A") (A') (A')
                 (A") (A') (A') (A") (A') (A") (A') (A") (A') (A')
                 (A") (A') (A") (A') (A") (A') (A") (A') (A') (A")
                 (A") (A') (A') (A") (A') (A') (A") (A') (A') (A')
                 (A') (A') (A') (A') (A') (A') (A') (A') (A') (A')
                 (A') (A') (A') (A') (A") (A') (A') (A') (A') (A")
                 (A') (A') (A') (A') (A") (A') (A") (A') (A") (A')
                 (A") (A") (A") (A') (A') (A") (A") (A") (A') (A')
                 (A") (A') (A') (A') (A') (A') (A") (A') (A') (A")
                 (A') (A') (A') (A") (A") (A') (A") (A') (A") (A")
                 (A') (A') (A') (A") (A') (A') (A") (A') (A') (A")
                 (A') (A") (A") (A') (A") (A') (A') (A") (A') (A')
                 (A") (A') (A') (A") (A') (A') (A') (A") (A") (A')
                 (A") (A') (A') (A') (A") (A') (A') (A') (A") (A")
                 (A') (A') (A') (A") (A') (A') (A") (A') (A") (A')
                 (A") (A') (A') (A") (A') (A') (A') (A') (A') (A')
                 (A") (A') (A') (A') (A') (A") (A') (A") (A') (A")
                 (A') (A') (A') (A') (A') (A") (A') (A') (A') (A')
                 (A') (A") (A') (A") (A") (A') (A") (A") (A') (A")
                 (A') (A") (A") (A') (A") (A") (A') (A') (A') (A')
                 (A') (A') (A') (A') (A') (A') (A') (A') (A') (A')
                 (A') (A') (A") (A') (A') (A') (A') (A') (A') (A')
                 (A') (A') (A') (A') (A') (A') (A') (A') (A') (A')
                 (A') (A') (A') (A') (A') (A') (A') (A') (A') (A')
                 (A') (A')
 The electronic state is 1-A'.
 Alpha  occ. eigenvalues --  -10.76073 -10.75444 -10.75265 -10.72833 -10.72382
 Alpha  occ. eigenvalues --  -10.71768 -10.71389 -10.71325 -10.70362 -10.69551
 Alpha  occ. eigenvalues --  -10.69492 -10.68981 -10.68678 -10.67607  -1.18092
 Alpha  occ. eigenvalues --   -1.12533  -1.08238  -1.06680  -1.01813  -1.00868
 Alpha  occ. eigenvalues --   -0.94603  -0.90291  -0.86487  -0.85394  -0.83634
 Alpha  occ. eigenvalues --   -0.77556  -0.76726  -0.74321  -0.71345  -0.69306
 Alpha  occ. eigenvalues --   -0.68684  -0.67610  -0.66898  -0.65714  -0.63733
 Alpha  occ. eigenvalues --   -0.62314  -0.61994  -0.61241  -0.58110  -0.57934
 Alpha  occ. eigenvalues --   -0.56218  -0.55447  -0.52383  -0.51859  -0.51341
 Alpha  occ. eigenvalues --   -0.46305  -0.39995
 Alpha virt. eigenvalues --   -0.26324  -0.14957  -0.13221  -0.12335  -0.11375
 Alpha virt. eigenvalues --   -0.10216  -0.09594  -0.07765  -0.07609  -0.07563
 Alpha virt. eigenvalues --   -0.07289  -0.06572  -0.05756  -0.05488  -0.05476
 Alpha virt. eigenvalues --   -0.04082  -0.03897  -0.03262  -0.03171  -0.02029
 Alpha virt. eigenvalues --   -0.01409  -0.01060  -0.00130   0.00112   0.00722
 Alpha virt. eigenvalues --    0.01199   0.01246   0.01571   0.01934   0.02204
 Alpha virt. eigenvalues --    0.02438   0.02594   0.03212   0.03401   0.03404
 Alpha virt. eigenvalues --    0.04071   0.04336   0.05073   0.05333   0.05572
 Alpha virt. eigenvalues --    0.05949   0.06113   0.06306   0.07073   0.07421
 Alpha virt. eigenvalues --    0.07455   0.07834   0.07940   0.08378   0.08591
 Alpha virt. eigenvalues --    0.08959   0.09501   0.09541   0.10027   0.10122
 Alpha virt. eigenvalues --    0.11154   0.11388   0.11940   0.11980   0.12946
 Alpha virt. eigenvalues --    0.13206   0.13334   0.13624   0.13799   0.14260
 Alpha virt. eigenvalues --    0.15515   0.16174   0.16287   0.17111   0.17390
 Alpha virt. eigenvalues --    0.18137   0.19288   0.19408   0.20312   0.20565
 Alpha virt. eigenvalues --    0.21408   0.21903   0.22686   0.23388   0.23946
 Alpha virt. eigenvalues --    0.24625   0.25148   0.25764   0.27204   0.27484
 Alpha virt. eigenvalues --    0.29058   0.29618   0.31224   0.31933   0.35913
 Alpha virt. eigenvalues --    0.37181   0.38416   0.39208   0.39342   0.40508
 Alpha virt. eigenvalues --    0.40680   0.42169   0.43196   0.43309   0.44099
 Alpha virt. eigenvalues --    0.44808   0.44936   0.45374   0.46829   0.47275
 Alpha virt. eigenvalues --    0.47783   0.48318   0.49140   0.50354   0.50531
 Alpha virt. eigenvalues --    0.51553   0.52345   0.52451   0.54092   0.54332
 Alpha virt. eigenvalues --    0.54622   0.55166   0.55893   0.57429   0.57920
 Alpha virt. eigenvalues --    0.58652   0.60411   0.62119   0.62308   0.63152
 Alpha virt. eigenvalues --    0.63464   0.63647   0.64356   0.65930   0.68952
 Alpha virt. eigenvalues --    0.69279   0.70494   0.72081   0.73316   0.74199
 Alpha virt. eigenvalues --    0.74768   0.75597   0.76760   0.76885   0.77163
 Alpha virt. eigenvalues --    0.78010   0.78971   0.79256   0.80125   0.80944
 Alpha virt. eigenvalues --    0.81349   0.82782   0.83530   0.84211   0.85238
 Alpha virt. eigenvalues --    0.86056   0.88546   0.89368   0.90310   0.90904
 Alpha virt. eigenvalues --    0.91172   0.92679   0.94355   0.94641   0.95567
 Alpha virt. eigenvalues --    0.96397   0.99099   1.01149   1.01914   1.02563
 Alpha virt. eigenvalues --    1.04594   1.04702   1.06244   1.07988   1.10936
 Alpha virt. eigenvalues --    1.17648   1.19627   1.22306   1.24188   1.28773
 Alpha virt. eigenvalues --    1.31564   1.33143   1.33214   1.35940   1.36709
 Alpha virt. eigenvalues --    1.37250   1.38267   1.39949   1.41461   1.42180
 Alpha virt. eigenvalues --    1.43982   1.45254   1.45731   1.46823   1.48634
 Alpha virt. eigenvalues --    1.48832   1.50330   1.53162   1.53677   1.56074
 Alpha virt. eigenvalues --    1.56388   1.56564   1.56644   1.58199   1.60641
 Alpha virt. eigenvalues --    1.62737   1.63788   1.65303   1.65649   1.68034
 Alpha virt. eigenvalues --    1.68479   1.69434   1.70309   1.74573   1.74856
 Alpha virt. eigenvalues --    1.76021   1.77721   1.79047   1.79718   1.81149
 Alpha virt. eigenvalues --    1.81710   1.82555   1.83035   1.83702   1.85250
 Alpha virt. eigenvalues --    1.85527   1.87437   1.88862   1.89691   1.92187
 Alpha virt. eigenvalues --    1.92235   1.94541   1.96263   1.98349   1.99124
 Alpha virt. eigenvalues --    2.00884   2.03559   2.06882   2.08349   2.11051
 Alpha virt. eigenvalues --    2.14699   2.15924   2.17596   2.19115   2.21827
 Alpha virt. eigenvalues --    2.22076   2.26813   2.30845   2.31466   2.32427
 Alpha virt. eigenvalues --    2.35944   2.38972   2.39549   2.41350   2.42544
 Alpha virt. eigenvalues --    2.44972   2.45057   2.48820   2.52742   2.53933
 Alpha virt. eigenvalues --    2.55690   2.57204   2.57732   2.58306   2.59443
 Alpha virt. eigenvalues --    2.60105   2.60733   2.61655   2.62890   2.64261
 Alpha virt. eigenvalues --    2.64481   2.65193   2.66051   2.66791   2.67015
 Alpha virt. eigenvalues --    2.69125   2.70402   2.71622   2.73912   2.74605
 Alpha virt. eigenvalues --    2.75664   2.76264   2.79015   2.83664   2.84217
 Alpha virt. eigenvalues --    2.84499   2.86664   2.92324   2.95274   2.98814
 Alpha virt. eigenvalues --    3.00726   3.00818   3.03697   3.06719   3.10777
 Alpha virt. eigenvalues --    3.14019   3.15778   3.24327   3.29102   3.30521
 Alpha virt. eigenvalues --    3.32283   3.35700   3.42639   3.47387   3.51608
 Alpha virt. eigenvalues --    3.52513   3.58447   3.59371   3.62230   3.70026
 Alpha virt. eigenvalues --    3.73240   3.88679   3.89339   3.91262   3.95832
 Alpha virt. eigenvalues --    4.01997   4.02261   4.06293   4.11994   4.29919
 Alpha virt. eigenvalues --    4.51443   4.58791   4.62442  23.42715  23.54666
 Alpha virt. eigenvalues --   23.63571  23.65104  23.68042  23.86186  23.87975
 Alpha virt. eigenvalues --   23.90435  24.04990  24.19366  24.25766  24.30810
 Alpha virt. eigenvalues --   24.46122  24.64704
          Condensed to atoms (all electrons):
               1          2          3          4          5          6
     1  C   11.643680  -1.805539   0.645729   3.118904  -0.379807  -0.114061
     2  C   -1.805539   8.023040  -0.799818  -1.594145   0.142546  -0.011522
     3  C    0.645729  -0.799818   7.483985   1.105849  -0.281025   0.034410
     4  C    3.118904  -1.594145   1.105849   9.861788  -0.941692  -0.051043
     5  C   -0.379807   0.142546  -0.281025  -0.941692  14.288910  -0.056029
     6  C   -0.114061  -0.011522   0.034410  -0.051043  -0.056029   7.231381
     7  C    0.042072  -0.006166  -0.013103  -0.118328  -0.387338   0.425364
     8  C    0.287420   0.032726  -0.104369  -0.210384   2.438479  -0.876948
     9  C   -0.714754  -0.724017   0.396835  -0.520734   0.428552   0.308899
    10  C   -1.679994   0.629224  -0.931025  -1.719062  -3.420408   0.167591
    11  C   -0.905182  -0.451244   1.446617  -0.557354  -1.553137  -0.275382
    12  C   -4.206270   2.788482  -2.198800  -1.402676  -1.527703   0.469232
    13  C    0.584193  -0.557134   0.288905  -1.082952  -2.613955   0.650230
    14  C   -0.943941   0.424298  -0.862545  -0.195693  -0.655638  -1.814458
    15  H    0.399106  -0.115059   0.027509   0.031990  -0.002908   0.000999
    16  H   -0.022169   0.370346  -0.022159  -0.001395  -0.000244  -0.000192
    17  H   -0.054138   0.026929   0.340016  -0.042370  -0.001003   0.000629
    18  H    0.071556   0.002043  -0.109643   0.456262   0.015764  -0.007739
    19  H   -0.056245  -0.012928   0.079013  -0.018327  -0.160551   0.076831
    20  H    0.004521   0.003108  -0.008350  -0.007878   0.558996  -0.083893
    21  H   -0.001330  -0.000337   0.000669   0.001832  -0.081042   0.389809
    22  H    0.001191   0.000553  -0.000486  -0.003212   0.036457  -0.038394
    23  H    0.002506  -0.002703   0.001076   0.005770   0.021246  -0.005368
    24  H    0.002734   0.008730  -0.003098  -0.011978  -0.002999  -0.001050
    25  H    0.002734   0.008730  -0.003098  -0.011978  -0.002999  -0.001050
               7          8          9         10         11         12
     1  C    0.042072   0.287420  -0.714754  -1.679994  -0.905182  -4.206270
     2  C   -0.006166   0.032726  -0.724017   0.629224  -0.451244   2.788482
     3  C   -0.013103  -0.104369   0.396835  -0.931025   1.446617  -2.198800
     4  C   -0.118328  -0.210384  -0.520734  -1.719062  -0.557354  -1.402676
     5  C   -0.387338   2.438479   0.428552  -3.420408  -1.553137  -1.527703
     6  C    0.425364  -0.876948   0.308899   0.167591  -0.275382   0.469232
     7  C    7.345299   0.947290  -0.674182  -0.324192  -0.184215  -0.500276
     8  C    0.947290   8.551683  -0.363996  -1.377870   0.163805  -1.457265
     9  C   -0.674182  -0.363996   8.872405   0.131875   0.566916  -0.717840
    10  C   -0.324192  -1.377870   0.131875   9.155107  -0.288283   2.420092
    11  C   -0.184215   0.163805   0.566916  -0.288283  11.835875  -0.472509
    12  C   -0.500276  -1.457265  -0.717840   2.420092  -0.472509  13.234976
    13  C   -0.108892  -0.733888   0.761200   1.020773   0.374246  -2.938225
    14  C   -0.398378  -1.709058  -2.176620   1.807673  -3.271567   2.040703
    15  H   -0.000362   0.003047   0.066964  -0.014031  -0.046885  -0.050281
    16  H    0.000131  -0.000049   0.002715  -0.000097   0.014083   0.001103
    17  H   -0.000452  -0.001475  -0.004012   0.008595  -0.010712   0.087004
    18  H    0.001777   0.004891  -0.028316   0.056462  -0.037276  -0.114004
    19  H   -0.017185  -0.051705   0.076511   0.428077   0.087382   0.072123
    20  H    0.017507   0.054766  -0.014741  -0.021511  -0.018453  -0.072588
    21  H   -0.030140  -0.015980  -0.004069   0.023829  -0.004781   0.011018
    22  H    0.386357  -0.012612   0.004203  -0.017340   0.004220  -0.017074
    23  H   -0.090328   0.383412   0.034005  -0.004524  -0.020405   0.006525
    24  H    0.015265   0.041223   0.364087   0.006126  -0.034459  -0.031680
    25  H    0.015265   0.041223   0.364087   0.006126  -0.034459  -0.031680
              13         14         15         16         17         18
     1  C    0.584193  -0.943941   0.399106  -0.022169  -0.054138   0.071556
     2  C   -0.557134   0.424298  -0.115059   0.370346   0.026929   0.002043
     3  C    0.288905  -0.862545   0.027509  -0.022159   0.340016  -0.109643
     4  C   -1.082952  -0.195693   0.031990  -0.001395  -0.042370   0.456262
     5  C   -2.613955  -0.655638  -0.002908  -0.000244  -0.001003   0.015764
     6  C    0.650230  -1.814458   0.000999  -0.000192   0.000629  -0.007739
     7  C   -0.108892  -0.398378  -0.000362   0.000131  -0.000452   0.001777
     8  C   -0.733888  -1.709058   0.003047  -0.000049  -0.001475   0.004891
     9  C    0.761200  -2.176620   0.066964   0.002715  -0.004012  -0.028316
    10  C    1.020773   1.807673  -0.014031  -0.000097   0.008595   0.056462
    11  C    0.374246  -3.271567  -0.046885   0.014083  -0.010712  -0.037276
    12  C   -2.938225   2.040703  -0.050281   0.001103   0.087004  -0.114004
    13  C   14.909145  -4.119445   0.027227  -0.002956  -0.002476  -0.029926
    14  C   -4.119445  17.431219  -0.014053  -0.000679  -0.001535   0.040228
    15  H    0.027227  -0.014053   0.462295  -0.009256   0.001035  -0.000627
    16  H   -0.002956  -0.000679  -0.009256   0.436256  -0.004264   0.001853
    17  H   -0.002476  -0.001535   0.001035  -0.004264   0.421673  -0.007746
    18  H   -0.029926   0.040228  -0.000627   0.001853  -0.007746   0.482819
    19  H    0.123413  -0.241070   0.000374  -0.000684   0.001546  -0.017057
    20  H   -0.050588  -0.029523  -0.000117   0.000013  -0.000177   0.002153
    21  H   -0.017750   0.070885   0.000006  -0.000006   0.000016  -0.000313
    22  H    0.019037  -0.025001  -0.000111   0.000006  -0.000009   0.000032
    23  H   -0.042157   0.048573   0.000289  -0.000100   0.000035  -0.000181
    24  H    0.024379  -0.042283  -0.000593   0.000653  -0.000160   0.000331
    25  H    0.024379  -0.042283  -0.000593   0.000653  -0.000160   0.000331
              19         20         21         22         23         24
     1  C   -0.056245   0.004521  -0.001330   0.001191   0.002506   0.002734
     2  C   -0.012928   0.003108  -0.000337   0.000553  -0.002703   0.008730
     3  C    0.079013  -0.008350   0.000669  -0.000486   0.001076  -0.003098
     4  C   -0.018327  -0.007878   0.001832  -0.003212   0.005770  -0.011978
     5  C   -0.160551   0.558996  -0.081042   0.036457   0.021246  -0.002999
     6  C    0.076831  -0.083893   0.389809  -0.038394  -0.005368  -0.001050
     7  C   -0.017185   0.017507  -0.030140   0.386357  -0.090328   0.015265
     8  C   -0.051705   0.054766  -0.015980  -0.012612   0.383412   0.041223
     9  C    0.076511  -0.014741  -0.004069   0.004203   0.034005   0.364087
    10  C    0.428077  -0.021511   0.023829  -0.017340  -0.004524   0.006126
    11  C    0.087382  -0.018453  -0.004781   0.004220  -0.020405  -0.034459
    12  C    0.072123  -0.072588   0.011018  -0.017074   0.006525  -0.031680
    13  C    0.123413  -0.050588  -0.017750   0.019037  -0.042157   0.024379
    14  C   -0.241070  -0.029523   0.070885  -0.025001   0.048573  -0.042283
    15  H    0.000374  -0.000117   0.000006  -0.000111   0.000289  -0.000593
    16  H   -0.000684   0.000013  -0.000006   0.000006  -0.000100   0.000653
    17  H    0.001546  -0.000177   0.000016  -0.000009   0.000035  -0.000160
    18  H   -0.017057   0.002153  -0.000313   0.000032  -0.000181   0.000331
    19  H    0.498329  -0.010643   0.003966  -0.001046   0.000970   0.000333
    20  H   -0.010643   0.440204  -0.011004   0.002469   0.000105   0.000051
    21  H    0.003966  -0.011004   0.407710  -0.005768   0.002101  -0.000090
    22  H   -0.001046   0.002469  -0.005768   0.399814  -0.007146   0.000443
    23  H    0.000970   0.000105   0.002101  -0.007146   0.418351  -0.000886
    24  H    0.000333   0.000051  -0.000090   0.000443  -0.000886   0.481816
    25  H    0.000333   0.000051  -0.000090   0.000443  -0.000886  -0.073333
              25
     1  C    0.002734
     2  C    0.008730
     3  C   -0.003098
     4  C   -0.011978
     5  C   -0.002999
     6  C   -0.001050
     7  C    0.015265
     8  C    0.041223
     9  C    0.364087
    10  C    0.006126
    11  C   -0.034459
    12  C   -0.031680
    13  C    0.024379
    14  C   -0.042283
    15  H   -0.000593
    16  H    0.000653
    17  H   -0.000160
    18  H    0.000331
    19  H    0.000333
    20  H    0.000051
    21  H   -0.000090
    22  H    0.000443
    23  H   -0.000886
    24  H   -0.073333
    25  H    0.481816
 Mulliken charges:
               1
     1  C    0.077085
     2  C   -0.380146
     3  C   -0.513092
     4  C   -0.091194
     5  C    0.137530
     6  C   -0.418243
     7  C   -0.342786
     8  C   -0.034364
     9  C   -0.435975
    10  C   -0.063212
    11  C   -0.326840
    12  C    0.607615
    13  C   -0.506782
    14  C    0.680193
    15  H    0.234036
    16  H    0.236440
    17  H    0.243212
    18  H    0.216326
    19  H    0.138241
    20  H    0.245523
    21  H    0.260860
    22  H    0.272975
    23  H    0.249720
    24  H    0.256439
    25  H    0.256439
 Sum of Mulliken charges =   1.00000
 Mulliken charges with hydrogens summed into heavy atoms:
               1
     1  C    0.311121
     2  C   -0.143706
     3  C   -0.269881
     4  C    0.125132
     5  C    0.383053
     6  C   -0.157383
     7  C   -0.069811
     8  C    0.215356
     9  C    0.076904
    10  C    0.075029
    11  C   -0.326840
    12  C    0.607615
    13  C   -0.506782
    14  C    0.680193
 Electronic spatial extent (au):  <R**2>=           2867.7345
 Charge=              1.0000 electrons
 Dipole moment (field-independent basis, Debye):
    X=             -1.9924    Y=             -3.7546    Z=              0.0000  Tot=              4.2505
 Quadrupole moment (field-independent basis, Debye-Ang):
   XX=            -48.7950   YY=            -36.2427   ZZ=            -84.0001
   XY=             12.7801   XZ=              0.0000   YZ=             -0.0000
 Traceless Quadrupole moment (field-independent basis, Debye-Ang):
   XX=              7.5510   YY=             20.1032   ZZ=            -27.6542
   XY=             12.7801   XZ=              0.0000   YZ=             -0.0000
 Octapole moment (field-independent basis, Debye-Ang**2):
  XXX=            -15.8506  YYY=            -41.2979  ZZZ=              0.0000  XYY=            -11.6962
  XXY=             -7.5891  XXZ=              0.0000  XZZ=             -0.7064  YZZ=             -7.2435
  YYZ=              0.0000  XYZ=             -0.0000
 Hexadecapole moment (field-independent basis, Debye-Ang**3):
 XXXX=          -1062.1581 YYYY=          -1768.5543 ZZZZ=            -99.1380 XXXY=           -360.6756
 XXXZ=              0.0000 YYYX=           -285.6489 YYYZ=             -0.0000 ZZZX=              0.0000
 ZZZY=             -0.0000 XXYY=           -446.7953 XXZZ=           -259.6903 YYZZ=           -477.1486
 XXYZ=             -0.0000 YYXZ=              0.0000 ZZXY=           -193.4760
 N-N= 7.808910962594D+02 E-N=-2.798412523144D+03  KE= 5.379842841950D+02
 Symmetry A'   KE= 5.232135432933D+02
 Symmetry A"   KE= 1.477074090177D+01
 Unable to Open any file for archive entry.
 1\1\GINC-GADI-CPU-CLX-2808\SP\RM062X TD-FC\6-311++G(d,p)\C14H11(1+)\TS
 1578\02-Aug-2022\0\\#n M062X/6-311++G(d,p) TD(NStates=1) EmpiricalDisp
 ersion=GD3 SP\\SP_-6\\1,1\C,0,0.,2.666655,1.348431\C,0,0.,3.845508,0.6
 17989\C,0,0.,3.707861,-0.71983\C,0,0.,2.271156,-1.371538\C,0,0.,-2.511
 156,-1.467538\C,0,0.,-3.599861,-0.91183\C,0,0.,-3.629508,0.521989\C,0,
 0.,-2.474655,1.348431\C,0,0.,0.048,1.543369\C,0,0.,-0.174,-1.339189\C,
 0,0.,1.226055,0.689065\C,0,0.,1.171471,-0.646804\C,0,0.,-1.334055,0.82
 1065\C,0,0.,-1.279471,-0.658804\H,0,0.,2.692071,2.431647\H,0,0.,4.8107
 53,1.097689\H,0,0.,4.555262,-1.416349\H,0,0.,2.25155,-2.454059\H,0,0.,
 -0.15,-2.414266\H,0,0.,-2.35955,-2.550059\H,0,0.,-4.543262,-1.440349\H
 ,0,0.,-4.594753,1.013689\H,0,0.,-2.632071,2.431647\H,0,-0.859585,0.264
 ,2.235787\H,0,0.859585,0.264,2.235787\\Version=ES64L-G16RevC.01\State=
 1-A'\HF=-539.6267321\RMSD=4.464e-09\PG=CS [SG(C14H9),X(H2)]\\@
 The archive entry for this job was punched.


 KEEP CLOSE TO NATURES HEART, YOURSELF;
 AND BREAK CLEAR AWAY, ONCE IN A WHILE, AND
 CLIMB A MOUNTAIN OR SPEND A WEEK IN THE
 WOODS.  WASH YOUR SPIRIT CLEAN...
                                         -- JOHN MUIR
 Job cpu time:       0 days  0 hours 53 minutes  3.6 seconds.
 Elapsed time:       0 days  0 hours  1 minutes  6.8 seconds.
 File lengths (MBytes):  RWF=    460 Int=      0 D2E=      0 Chk=     15 Scr=      1
 Normal termination of Gaussian 16 at Tue Aug  2 12:11:56 2022.
