 Entering Gaussian System, Link 0=g16
 Initial command:
 /apps/gaussian/g16c01/g16/l1.exe "/jobfs/53803424.gadi-pbs/Gau-1847013.inp" -scrdir="/jobfs/53803424.gadi-pbs/"
 Entering Link 1 = /apps/gaussian/g16c01/g16/l1.exe PID=   1847014.
  
 Copyright (c) 1988-2019, Gaussian, Inc.  All Rights Reserved.
  
 This is part of the Gaussian(R) 16 program.  It is based on
 the Gaussian(R) 09 system (copyright 2009, Gaussian, Inc.),
 the Gaussian(R) 03 system (copyright 2003, Gaussian, Inc.),
 the Gaussian(R) 98 system (copyright 1998, Gaussian, Inc.),
 the Gaussian(R) 94 system (copyright 1995, Gaussian, Inc.),
 the Gaussian 92(TM) system (copyright 1992, Gaussian, Inc.),
 the Gaussian 90(TM) system (copyright 1990, Gaussian, Inc.),
 the Gaussian 88(TM) system (copyright 1988, Gaussian, Inc.),
 the Gaussian 86(TM) system (copyright 1986, Carnegie Mellon
 University), and the Gaussian 82(TM) system (copyright 1983,
 Carnegie Mellon University). Gaussian is a federally registered
 trademark of Gaussian, Inc.
  
 This software contains proprietary and confidential information,
 including trade secrets, belonging to Gaussian, Inc.
  
 This software is provided under written license and may be
 used, copied, transmitted, or stored only in accord with that
 written license.
  
 The following legend is applicable only to US Government
 contracts under FAR:
  
                    RESTRICTED RIGHTS LEGEND
  
 Use, reproduction and disclosure by the US Government is
 subject to restrictions as set forth in subparagraphs (a)
 and (c) of the Commercial Computer Software - Restricted
 Rights clause in FAR 52.227-19.
  
 Gaussian, Inc.
 340 Quinnipiac St., Bldg. 40, Wallingford CT 06492
  
  
 ---------------------------------------------------------------
 Warning -- This program may not be used in any manner that
 competes with the business of Gaussian, Inc. or will provide
 assistance to any competitor of Gaussian, Inc.  The licensee
 of this program is prohibited from giving any competitor of
 Gaussian, Inc. access to this program.  By using this program,
 the user acknowledges that Gaussian, Inc. is engaged in the
 business of creating and licensing software in the field of
 computational chemistry and represents and warrants to the
 licensee that it is not a competitor of Gaussian, Inc. and that
 it will not use this program in any manner prohibited above.
 ---------------------------------------------------------------
  

 Cite this work as:
 Gaussian 16, Revision C.01,
 M. J. Frisch, G. W. Trucks, H. B. Schlegel, G. E. Scuseria, 
 M. A. Robb, J. R. Cheeseman, G. Scalmani, V. Barone, 
 G. A. Petersson, H. Nakatsuji, X. Li, M. Caricato, A. V. Marenich, 
 J. Bloino, B. G. Janesko, R. Gomperts, B. Mennucci, H. P. Hratchian, 
 J. V. Ortiz, A. F. Izmaylov, J. L. Sonnenberg, D. Williams-Young, 
 F. Ding, F. Lipparini, F. Egidi, J. Goings, B. Peng, A. Petrone, 
 T. Henderson, D. Ranasinghe, V. G. Zakrzewski, J. Gao, N. Rega, 
 G. Zheng, W. Liang, M. Hada, M. Ehara, K. Toyota, R. Fukuda, 
 J. Hasegawa, M. Ishida, T. Nakajima, Y. Honda, O. Kitao, H. Nakai, 
 T. Vreven, K. Throssell, J. A. Montgomery, Jr., J. E. Peralta, 
 F. Ogliaro, M. J. Bearpark, J. J. Heyd, E. N. Brothers, K. N. Kudin, 
 V. N. Staroverov, T. A. Keith, R. Kobayashi, J. Normand, 
 K. Raghavachari, A. P. Rendell, J. C. Burant, S. S. Iyengar, 
 J. Tomasi, M. Cossi, J. M. Millam, M. Klene, C. Adamo, R. Cammi, 
 J. W. Ochterski, R. L. Martin, K. Morokuma, O. Farkas, 
 J. B. Foresman, and D. J. Fox, Gaussian, Inc., Wallingford CT, 2019.
 
 ******************************************
 Gaussian 16:  ES64L-G16RevC.01  3-Jul-2019
                 2-Aug-2022 
 ******************************************
 %NProcShared=48
 Will use up to   48 processors via shared memory.
 %mem = 190GB
 ---------------------------------------------------------------
 #n M062X/6-311++G(d,p) TD(NStates=1) EmpiricalDispersion=GD3 SP
 ---------------------------------------------------------------
 1/38=1,172=1/1;
 2/12=2,17=6,18=5,40=1/2;
 3/5=4,6=6,7=1111,11=9,25=1,30=1,74=-55,124=31/1,2,3,8;
 4//1;
 5/5=2,38=5/2;
 8/6=1,10=2,108=1/1;
 9/41=1,42=1,70=2/14;
 6/7=2,8=2,9=2,10=2/1;
 99/5=1,9=1/99;
 ----
 SP_8
 ----
 Symbolic Z-matrix:
 Charge =  1 Multiplicity = 1
 C                     0.        2.33866   1.36443 
 C                     0.        3.54551   0.64199 
 C                     0.        3.62186  -0.80783 
 C                     0.        2.64716  -1.46754 
 C                     0.       -2.32716  -1.33954 
 C                     0.       -3.76586  -0.55183 
 C                     0.       -3.83351   0.76999 
 C                     0.       -2.59466   1.36443 
 C                     0.       -0.064     1.42337 
 C                     0.        0.232    -1.45919 
 C                     0.        1.32805   0.73907 
 C                     0.        1.31347  -0.7648 
 C                     0.       -1.18406   0.56307 
 C                     0.       -1.16947  -0.7488 
 H                     0.        2.39007   2.44765 
 H                     0.        4.47075   1.20769 
 H                     0.        4.62126  -1.23635 
 H                     0.        2.59355  -2.55006 
 H                     0.        0.2      -2.54227 
 H                     0.       -2.44955  -2.42206 
 H                     0.       -4.63726  -1.20435 
 H                     0.       -4.75875   1.31969 
 H                     0.       -2.47007   2.44765 
 H                    -0.85959  -0.352     2.11579 
 H                     0.85959  -0.352     2.11579 
 
                          Input orientation:                          
 ---------------------------------------------------------------------
 Center     Atomic      Atomic             Coordinates (Angstroms)
 Number     Number       Type             X           Y           Z
 ---------------------------------------------------------------------
      1          6           0        0.000000    2.338655    1.364431
      2          6           0        0.000000    3.545508    0.641989
      3          6           0        0.000000    3.621861   -0.807830
      4          6           0        0.000000    2.647156   -1.467538
      5          6           0        0.000000   -2.327156   -1.339538
      6          6           0        0.000000   -3.765861   -0.551830
      7          6           0        0.000000   -3.833508    0.769989
      8          6           0        0.000000   -2.594655    1.364431
      9          6           0        0.000000   -0.064000    1.423369
     10          6           0        0.000000    0.232000   -1.459189
     11          6           0        0.000000    1.328055    0.739065
     12          6           0        0.000000    1.313471   -0.764804
     13          6           0        0.000000   -1.184055    0.563065
     14          6           0        0.000000   -1.169471   -0.748804
     15          1           0        0.000000    2.390071    2.447647
     16          1           0        0.000000    4.470753    1.207689
     17          1           0        0.000000    4.621262   -1.236349
     18          1           0        0.000000    2.593550   -2.550059
     19          1           0        0.000000    0.200000   -2.542266
     20          1           0        0.000000   -2.449550   -2.422059
     21          1           0        0.000000   -4.637262   -1.204349
     22          1           0        0.000000   -4.758753    1.319689
     23          1           0        0.000000   -2.470071    2.447647
     24          1           0       -0.859585   -0.352000    2.115787
     25          1           0        0.859585   -0.352000    2.115787
 ---------------------------------------------------------------------
                    Distance matrix (angstroms):
                    1          2          3          4          5
     1  C    0.000000
     2  C    1.406562   0.000000
     3  C    2.522962   1.451828   0.000000
     4  C    2.848723   2.292845   1.176973   0.000000
     5  C    5.392703   6.197954   5.972731   4.975959   0.000000
     6  C    6.398216   7.408193   7.392156   6.478064   1.640230
     7  C    6.200722   7.380126   7.620501   6.856058   2.592142
     8  C    4.933310   6.182518   6.585119   5.957905   2.717168
     9  C    2.403378   3.693116   4.308575   3.963295   3.571489
    10  C    3.522900   3.923555   3.451873   2.415170   2.561952
    11  C    1.188442   2.219577   2.766664   2.570822   4.204897
    12  C    2.363185   2.638381   2.308791   1.507498   3.685714
    13  C    3.612710   4.730221   4.997618   4.336073   2.219590
    14  C    4.095450   4.915825   4.791696   3.883712   1.299693
    15  H    1.084436   2.143697   3.480724   3.923616   6.049380
    16  H    2.137852   1.084479   2.186992   3.237645   7.259472
    17  H    3.460398   2.164579   1.087396   1.987597   6.949184
    18  H    3.922780   3.330975   2.023063   1.083847   5.067416
    19  H    4.453777   4.618647   3.836326   2.672754   2.798763
    20  H    6.104459   6.732690   6.282338   5.185318   1.089418
    21  H    7.433845   8.388485   8.268636   7.289171   2.314058
    22  H    7.097549   8.331868   8.646446   7.913035   3.603353
    23  H    4.929219   6.280732   6.907226   6.443189   3.789881
    24  H    2.922849   4.254590   5.007793   4.751215   4.071781
    25  H    2.922849   4.254590   5.007793   4.751215   4.071781
                    6          7          8          9         10
     6  C    0.000000
     7  C    1.323549   0.000000
     8  C    2.245836   1.374088   0.000000
     9  C    4.195853   3.825715   2.531341   0.000000
    10  C    4.099536   4.636549   3.995348   2.897716   0.000000
    11  C    5.254940   5.161656   3.972246   1.551157   2.456350
    12  C    5.083795   5.370939   4.450516   2.585639   1.285204
    13  C    2.812243   2.657521   1.622338   1.412319   2.468749
    14  C    2.603851   3.066566   2.548904   2.437294   1.571231
    15  H    6.847800   6.445733   5.101064   2.659250   4.463254
    16  H    8.422453   8.315788   7.067146   4.539879   5.007920
    17  H    8.415010   8.689564   7.670301   5.387558   4.394915
    18  H    6.665960   7.233933   6.499285   4.780241   2.601330
    19  H    4.437329   5.219216   4.803372   3.974413   1.083550
    20  H    2.287014   3.479154   3.789269   4.525281   2.849180
    21  H    1.088633   2.131673   3.281901   5.274431   4.875926
    22  H    2.118589   1.076219   2.164560   4.695898   5.712248
    23  H    3.267405   2.161827   1.090357   2.615019   4.750216
    24  H    4.416958   3.830268   2.516530   1.140734   3.722955
    25  H    4.416958   3.830268   2.516530   1.140734   3.722955
                   11         12         13         14         15
    11  C    0.000000
    12  C    1.503940   0.000000
    13  C    2.518268   2.828581   0.000000
    14  C    2.907127   2.482994   1.311950   0.000000
    15  H    2.011748   3.388054   4.040548   4.784103   0.000000
    16  H    3.177445   3.722789   5.691432   5.969924   2.422134
    17  H    3.840244   3.341233   6.077795   5.811221   4.306976
    18  H    3.524176   2.196756   4.895083   4.171912   5.001847
    19  H    3.469819   2.097424   3.399807   2.256536   5.449371
    20  H    4.925749   4.111791   3.242290   2.106747   6.865564
    21  H    6.273903   5.966944   3.879226   3.497584   7.919626
    22  H    6.114438   6.420048   3.653895   4.142657   7.237263
    23  H    4.164735   4.963369   2.281554   3.450922   4.860142
    24  H    2.335987   3.436639   1.960140   3.100488   2.892745
    25  H    2.335987   3.436639   1.960140   3.100488   2.892745
                   16         17         18         19         20
    16  H    0.000000
    17  H    2.448668   0.000000
    18  H    4.200543   2.416082   0.000000
    19  H    5.683440   4.610095   2.393563   0.000000
    20  H    7.814452   7.169539   5.044724   2.652275   0.000000
    21  H    9.421988   9.258579   7.354970   5.018877   2.503777
    22  H    9.230186   9.722037   8.308508   6.285215   4.396942
    23  H    7.050712   7.991172   7.114585   5.659374   4.869749
    24  H    4.982216   6.058798   5.584377   4.768758   5.072539
    25  H    4.982216   6.058798   5.584377   4.768758   5.072539
                   21         22         23         24         25
    21  H    0.000000
    22  H    2.526960   0.000000
    23  H    4.246621   2.551540   0.000000
    24  H    5.488685   4.559839   2.309814   0.000000
    25  H    5.488685   4.559839   2.309814   1.719170   0.000000
 Stoichiometry    C14H11(1+)
 Framework group  CS[SG(C14H9),X(H2)]
 Deg. of freedom    46
 Full point group                 CS      NOp   2
 Largest Abelian subgroup         CS      NOp   2
 Largest concise Abelian subgroup CS      NOp   2
                         Standard orientation:                         
 ---------------------------------------------------------------------
 Center     Atomic      Atomic             Coordinates (Angstroms)
 Number     Number       Type             X           Y           Z
 ---------------------------------------------------------------------
      1          6           0       -2.237428   -1.527682    0.000000
      2          6           0       -2.103721   -2.927875    0.000000
      3          6           0       -0.827411   -3.619855    0.000000
      4          6           0        0.187140   -3.023240    0.000000
      5          6           0        2.209195    1.523348    0.000000
      6          6           0        2.116191    3.160939    0.000000
      7          6           0        0.951718    3.790053    0.000000
      8          6           0       -0.117414    2.926876    0.000000
      9          6           0       -1.258142    0.667135    0.000000
     10          6           0        1.217477   -0.838874    0.000000
     11          6           0       -1.238461   -0.883897    0.000000
     12          6           0        0.125733   -1.516993    0.000000
     13          6           0        0.000000    1.308793    0.000000
     14          6           0        1.178292    0.731869    0.000000
     15          1           0       -3.237619   -1.108613    0.000000
     16          1           0       -3.012133   -3.520229    0.000000
     17          1           0       -0.869955   -4.706419    0.000000
     18          1           0        1.187644   -3.440033    0.000000
     19          1           0        2.209199   -1.275415    0.000000
     20          1           0        3.239260    1.168667    0.000000
     21          1           0        3.079858    3.667365    0.000000
     22          1           0        0.852973    4.861733    0.000000
     23          1           0       -1.149048    3.279878    0.000000
     24          1           0       -1.759601    1.224743    0.859585
     25          1           0       -1.759601    1.224743   -0.859585
 ---------------------------------------------------------------------
 Rotational constants (GHZ):           2.1440691           0.4431585           0.3680479
 Standard basis: 6-311++G(d,p) (5D, 7F)
 There are   299 symmetry adapted cartesian basis functions of A'  symmetry.
 There are   100 symmetry adapted cartesian basis functions of A"  symmetry.
 There are   285 symmetry adapted basis functions of A'  symmetry.
 There are   100 symmetry adapted basis functions of A"  symmetry.
   385 basis functions,   603 primitive gaussians,   399 cartesian basis functions
    47 alpha electrons       47 beta electrons
       nuclear repulsion energy       783.2876867334 Hartrees.
 NAtoms=   25 NActive=   25 NUniq=   24 SFac= 1.09D+00 NAtFMM=   60 NAOKFM=F Big=F
 Integral buffers will be    131072 words long.
 Regular integral format.
 Two-electron integral symmetry is turned on.
 Nuclear repulsion after empirical dispersion term =      783.2867184931 Hartrees.
 One-electron integrals computed using PRISM.
 NBasis=   385 RedAO= T EigKep=  1.01D-06  NBF=   285   100
 NBsUse=   379 1.00D-06 EigRej=  7.92D-07 NBFU=   279   100
 ExpMin= 3.60D-02 ExpMax= 4.56D+03 ExpMxC= 6.82D+02 IAcc=3 IRadAn=         5 AccDes= 0.00D+00
 Harris functional with IExCor= 1009 and IRadAn=       5 diagonalized for initial guess.
 HarFok:  IExCor= 1009 AccDes= 0.00D+00 IRadAn=         5 IDoV= 1 UseB2=F ITyADJ=14
 ICtDFT=  3500011 ScaDFX=  1.000000  1.000000  1.000000  1.000000
 FoFCou: FMM=F IPFlag=           0 FMFlag=      100000 FMFlg1=           0
         NFxFlg=           0 DoJE=T BraDBF=F KetDBF=T FulRan=T
         wScrn=  0.000000 ICntrl=       500 IOpCl=  0 I1Cent=   200000004 NGrid=           0
         NMat0=    1 NMatS0=      1 NMatT0=    0 NMatD0=    1 NMtDS0=    0 NMtDT0=    0
 Petite list used in FoFCou.
 Initial guess orbital symmetries:
       Occupied  (A') (A') (A') (A') (A') (A') (A') (A') (A') (A')
                 (A') (A') (A') (A') (A') (A') (A') (A') (A') (A')
                 (A') (A') (A') (A') (A') (A') (A') (A') (A') (A')
                 (A') (A') (A") (A') (A') (A') (A") (A') (A') (A')
                 (A") (A') (A") (A") (A') (A") (A")
       Virtual   (A") (A") (A") (A") (A") (A') (A') (A') (A') (A')
                 (A") (A') (A') (A") (A') (A') (A") (A') (A') (A')
                 (A') (A") (A') (A') (A") (A') (A") (A') (A') (A")
                 (A') (A') (A') (A') (A") (A') (A') (A') (A") (A')
                 (A") (A') (A') (A") (A') (A') (A') (A') (A') (A")
                 (A') (A') (A") (A") (A') (A') (A") (A') (A") (A')
                 (A') (A') (A') (A') (A") (A') (A') (A') (A') (A")
                 (A') (A') (A') (A') (A') (A') (A') (A') (A') (A')
                 (A') (A') (A') (A') (A') (A') (A') (A') (A') (A')
                 (A') (A') (A') (A') (A") (A') (A') (A") (A') (A')
                 (A") (A') (A") (A') (A') (A") (A") (A') (A") (A')
                 (A") (A') (A") (A") (A') (A') (A') (A") (A') (A")
                 (A") (A') (A') (A') (A') (A") (A') (A") (A') (A')
                 (A') (A') (A') (A') (A') (A') (A') (A') (A") (A')
                 (A') (A') (A') (A') (A') (A") (A') (A') (A') (A')
                 (A") (A') (A") (A') (A') (A") (A') (A") (A') (A")
                 (A') (A") (A') (A") (A") (A") (A') (A') (A') (A')
                 (A") (A') (A') (A') (A') (A') (A') (A") (A') (A")
                 (A') (A') (A") (A') (A") (A') (A") (A') (A") (A')
                 (A") (A') (A') (A') (A") (A') (A") (A') (A') (A')
                 (A") (A") (A") (A') (A") (A') (A") (A') (A') (A")
                 (A') (A') (A') (A') (A") (A") (A') (A') (A') (A")
                 (A") (A') (A') (A') (A") (A') (A') (A") (A') (A')
                 (A") (A') (A") (A') (A') (A') (A") (A") (A') (A")
                 (A') (A') (A') (A') (A") (A') (A') (A') (A') (A')
                 (A") (A') (A') (A") (A") (A') (A') (A") (A') (A')
                 (A") (A') (A") (A') (A') (A') (A') (A") (A") (A')
                 (A') (A') (A') (A') (A") (A") (A') (A') (A") (A')
                 (A") (A') (A") (A') (A') (A") (A") (A') (A') (A')
                 (A') (A') (A') (A') (A') (A') (A') (A') (A') (A')
                 (A') (A") (A') (A') (A') (A') (A') (A') (A') (A')
                 (A') (A') (A') (A') (A') (A') (A') (A') (A') (A')
                 (A') (A') (A') (A') (A') (A') (A') (A') (A') (A')
                 (A') (A')
 The electronic state of the initial guess is 1-A'.
 Requested convergence on RMS density matrix=1.00D-08 within 128 cycles.
 Requested convergence on MAX density matrix=1.00D-06.
 Requested convergence on             energy=1.00D-06.
 No special actions if energy rises.
 SCF Done:  E(RM062X) =  -539.517200532     A.U. after   16 cycles
            NFock= 16  Conv=0.66D-08     -V/T= 2.0018
 DoSCS=F DFT=T ScalE2(SS,OS)=  1.000000  1.000000
 ExpMin= 3.60D-02 ExpMax= 4.56D+03 ExpMxC= 6.82D+02 IAcc=3 IRadAn=         5 AccDes= 0.00D+00
 HarFok:  IExCor=  205 AccDes= 0.00D+00 IRadAn=         5 IDoV=-2 UseB2=F ITyADJ=14
 ICtDFT= 12500011 ScaDFX=  1.000000  1.000000  1.000000  1.000000
 Range of M.O.s used for correlation:    15   379
 NBasis=   385 NAE=    47 NBE=    47 NFC=    14 NFV=     0
 NROrb=    365 NOA=    33 NOB=    33 NVA=   332 NVB=   332

 **** Warning!!: The largest alpha MO coefficient is  0.20640022D+03

 Orbital symmetries:
       Occupied  (A') (A') (A') (A') (A') (A') (A') (A') (A') (A')
                 (A') (A') (A') (A') (A') (A') (A') (A') (A') (A')
                 (A') (A') (A') (A') (A') (A') (A') (A') (A') (A')
                 (A') (A") (A') (A') (A') (A') (A") (A') (A") (A')
                 (A') (A') (A") (A") (A') (A") (A")
       Virtual   (A") (A") (A") (A') (A") (A') (A') (A') (A') (A")
                 (A') (A") (A') (A") (A') (A') (A") (A') (A') (A')
                 (A") (A") (A') (A') (A') (A') (A") (A') (A') (A")
                 (A') (A") (A') (A') (A") (A') (A') (A') (A") (A')
                 (A") (A') (A') (A') (A") (A") (A') (A") (A') (A')
                 (A') (A") (A') (A') (A') (A') (A") (A') (A') (A')
                 (A') (A') (A") (A') (A') (A') (A") (A') (A') (A')
                 (A') (A') (A') (A') (A') (A') (A') (A') (A') (A')
                 (A') (A') (A') (A') (A') (A') (A') (A') (A') (A')
                 (A') (A') (A") (A') (A') (A") (A') (A') (A") (A')
                 (A") (A') (A') (A") (A') (A') (A") (A") (A') (A")
                 (A') (A") (A') (A") (A') (A') (A") (A') (A") (A')
                 (A") (A') (A') (A") (A") (A') (A') (A') (A') (A')
                 (A') (A') (A') (A') (A') (A') (A') (A') (A') (A')
                 (A') (A') (A') (A') (A") (A') (A') (A') (A") (A')
                 (A') (A') (A') (A') (A") (A') (A") (A") (A') (A")
                 (A') (A") (A") (A') (A') (A") (A") (A") (A') (A')
                 (A") (A') (A') (A') (A') (A') (A') (A") (A') (A")
                 (A') (A') (A') (A") (A") (A') (A") (A') (A") (A")
                 (A') (A') (A') (A") (A") (A') (A') (A') (A') (A")
                 (A') (A") (A") (A') (A") (A') (A') (A") (A') (A")
                 (A') (A') (A') (A') (A") (A') (A") (A') (A') (A")
                 (A") (A') (A') (A') (A") (A') (A') (A") (A') (A")
                 (A') (A') (A') (A") (A') (A') (A") (A') (A") (A")
                 (A') (A') (A') (A") (A') (A') (A') (A') (A') (A')
                 (A") (A') (A') (A') (A') (A") (A') (A") (A') (A")
                 (A') (A') (A') (A') (A') (A") (A') (A') (A') (A')
                 (A') (A") (A') (A") (A") (A") (A') (A") (A') (A")
                 (A") (A') (A") (A') (A") (A') (A") (A') (A') (A')
                 (A') (A') (A') (A') (A') (A') (A') (A') (A') (A')
                 (A') (A") (A') (A') (A') (A') (A') (A') (A') (A')
                 (A') (A') (A') (A') (A') (A') (A') (A') (A') (A')
                 (A') (A') (A') (A') (A') (A') (A') (A') (A') (A')
                 (A') (A')
     4 initial guesses have been made.
 Convergence on wavefunction:    0.001000000000000
 Iteration     1 Dimension     4 NMult     0 NNew      4
 CISAX will form     4 AO SS matrices at one time.
 Iteration     2 Dimension     6 NMult     4 NNew      2
 Iteration     3 Dimension     8 NMult     6 NNew      2
 Iteration     4 Dimension    10 NMult     8 NNew      2
 Iteration     5 Dimension    12 NMult    10 NNew      2
 Iteration     6 Dimension    14 NMult    12 NNew      2
 ***********************************************************************
 Excited states from <AA,BB:AA,BB> singles matrix:
 ***********************************************************************
 
 Ground to excited state transition densities written to RWF  633
 Ground to excited state transition electric dipole moments (Au):
       state          X           Y           Z        Dip. S.      Osc.
         1         0.1293      0.9741      0.0000      0.9657      0.0327
 Ground to excited state transition velocity dipole moments (Au):
       state          X           Y           Z        Dip. S.      Osc.
         1         0.0001     -0.0464     -0.0000      0.0022      0.0284
 Ground to excited state transition magnetic dipole moments (Au):
       state          X           Y           Z
         1        -0.0000     -0.0000      0.2376
 Ground to excited state transition velocity quadrupole moments (Au):
       state          XX          YY          ZZ          XY          XZ          YZ
         1         0.0361      0.0277     -0.0045      0.0589      0.0000     -0.0000
 <0|del|b> * <b|rxdel|0> + <0|del|b> * <b|delr+rdel|0>
 Rotatory Strengths (R) in cgs (10**-40 erg-esu-cm/Gauss)
       state          XX          YY          ZZ    R(velocity)    E-M Angle
         1         0.0000     -0.0000      0.0000      0.0000       90.00
 1/2[<0|r|b>*<b|rxdel|0> + (<0|rxdel|b>*<b|r|0>)*]
 Rotatory Strengths (R) in cgs (10**-40 erg-esu-cm/Gauss)
       state          XX          YY          ZZ     R(length)
         1         0.0000      0.0000     -0.0000      0.0000
  1/2[<0|del|b>*<b|r|0> + (<0|r|b>*<b|del|0>)*] (Au)
       state          X           Y           Z        Dip. S.   Osc.(frdel)
         1         0.0000     -0.0452     -0.0000      0.0452      0.0302

 Excitation energies and oscillator strengths:
 
 Excited State   1:      Singlet-A'     1.3805 eV  898.09 nm  f=0.0327  <S**2>=0.000
      47 -> 48         0.70318
 This state for optimization and/or second-order correction.
 Total Energy, E(TD-HF/TD-DFT) =  -539.466467014    
 Copying the excited state density for this state as the 1-particle RhoCI density.
 SavETr:  write IOETrn=   770 NScale= 10 NData=  16 NLR=1 NState=    1 LETran=      28.

 **********************************************************************

            Population analysis using the SCF Density.

 **********************************************************************

 Orbital symmetries:
       Occupied  (A') (A') (A') (A') (A') (A') (A') (A') (A') (A')
                 (A') (A') (A') (A') (A') (A') (A') (A') (A') (A')
                 (A') (A') (A') (A') (A') (A') (A') (A') (A') (A')
                 (A') (A") (A') (A') (A') (A') (A") (A') (A") (A')
                 (A') (A') (A") (A") (A') (A") (A")
       Virtual   (A") (A") (A") (A') (A") (A') (A') (A') (A') (A")
                 (A') (A") (A') (A") (A') (A') (A") (A') (A') (A')
                 (A") (A") (A') (A') (A') (A') (A") (A') (A') (A")
                 (A') (A") (A') (A') (A") (A') (A') (A') (A") (A')
                 (A") (A') (A') (A') (A") (A") (A') (A") (A') (A')
                 (A') (A") (A') (A') (A') (A') (A") (A') (A') (A')
                 (A') (A') (A") (A') (A') (A') (A") (A') (A') (A')
                 (A') (A') (A') (A') (A') (A') (A') (A') (A') (A')
                 (A') (A') (A') (A') (A') (A') (A') (A') (A') (A')
                 (A') (A') (A") (A') (A') (A") (A') (A') (A") (A')
                 (A") (A') (A') (A") (A') (A') (A") (A") (A') (A")
                 (A') (A") (A') (A") (A') (A') (A") (A') (A") (A')
                 (A") (A') (A') (A") (A") (A') (A') (A') (A') (A')
                 (A') (A') (A') (A') (A') (A') (A') (A') (A') (A')
                 (A') (A') (A') (A') (A") (A') (A') (A') (A") (A')
                 (A') (A') (A') (A') (A") (A') (A") (A") (A') (A")
                 (A') (A") (A") (A') (A') (A") (A") (A") (A') (A')
                 (A") (A') (A') (A') (A') (A') (A') (A") (A') (A")
                 (A') (A') (A') (A") (A") (A') (A") (A') (A") (A")
                 (A') (A') (A') (A") (A") (A') (A') (A') (A') (A")
                 (A') (A") (A") (A') (A") (A') (A') (A") (A') (A")
                 (A') (A') (A') (A') (A") (A') (A") (A') (A') (A")
                 (A") (A') (A') (A') (A") (A') (A') (A") (A') (A")
                 (A') (A') (A') (A") (A') (A') (A") (A') (A") (A")
                 (A') (A') (A') (A") (A') (A') (A') (A') (A') (A')
                 (A") (A') (A') (A') (A') (A") (A') (A") (A') (A")
                 (A') (A') (A') (A') (A') (A") (A') (A') (A') (A')
                 (A') (A") (A') (A") (A") (A") (A') (A") (A') (A")
                 (A") (A') (A") (A') (A") (A') (A") (A') (A') (A')
                 (A') (A') (A') (A') (A') (A') (A') (A') (A') (A')
                 (A') (A") (A') (A') (A') (A') (A') (A') (A') (A')
                 (A') (A') (A') (A') (A') (A') (A') (A') (A') (A')
                 (A') (A') (A') (A') (A') (A') (A') (A') (A') (A')
                 (A') (A')
 The electronic state is 1-A'.
 Alpha  occ. eigenvalues --  -10.77138 -10.75217 -10.74884 -10.73306 -10.72119
 Alpha  occ. eigenvalues --  -10.71260 -10.70666 -10.70638 -10.70291 -10.69317
 Alpha  occ. eigenvalues --  -10.69123 -10.68512 -10.68399 -10.66816  -1.19080
 Alpha  occ. eigenvalues --   -1.12789  -1.09898  -1.06665  -1.02433  -1.01206
 Alpha  occ. eigenvalues --   -0.95258  -0.89194  -0.86527  -0.85123  -0.83575
 Alpha  occ. eigenvalues --   -0.77717  -0.76892  -0.74470  -0.71983  -0.69531
 Alpha  occ. eigenvalues --   -0.69054  -0.68112  -0.66746  -0.65601  -0.63889
 Alpha  occ. eigenvalues --   -0.62912  -0.62850  -0.60748  -0.57635  -0.56660
 Alpha  occ. eigenvalues --   -0.55549  -0.54800  -0.53394  -0.52420  -0.50300
 Alpha  occ. eigenvalues --   -0.46931  -0.38241
 Alpha virt. eigenvalues --   -0.26825  -0.15086  -0.13225  -0.11508  -0.11373
 Alpha virt. eigenvalues --   -0.10271  -0.09709  -0.07786  -0.07658  -0.07563
 Alpha virt. eigenvalues --   -0.07331  -0.06363  -0.05729  -0.05550  -0.05454
 Alpha virt. eigenvalues --   -0.04270  -0.04025  -0.03265  -0.03140  -0.02007
 Alpha virt. eigenvalues --   -0.01579  -0.00946  -0.00188   0.00148   0.00660
 Alpha virt. eigenvalues --    0.00984   0.01287   0.01311   0.01818   0.02083
 Alpha virt. eigenvalues --    0.02206   0.02542   0.02990   0.03314   0.03702
 Alpha virt. eigenvalues --    0.03896   0.04359   0.04593   0.05201   0.05234
 Alpha virt. eigenvalues --    0.05827   0.05861   0.06133   0.06635   0.07370
 Alpha virt. eigenvalues --    0.07641   0.07697   0.07872   0.08401   0.08479
 Alpha virt. eigenvalues --    0.08874   0.09563   0.09645   0.09805   0.09996
 Alpha virt. eigenvalues --    0.10861   0.11316   0.11566   0.12080   0.12566
 Alpha virt. eigenvalues --    0.13181   0.13341   0.13561   0.13947   0.14226
 Alpha virt. eigenvalues --    0.14801   0.16076   0.16927   0.17164   0.17370
 Alpha virt. eigenvalues --    0.18060   0.18915   0.19704   0.20495   0.20832
 Alpha virt. eigenvalues --    0.21335   0.22157   0.23210   0.23532   0.24287
 Alpha virt. eigenvalues --    0.24680   0.25491   0.26391   0.26859   0.27962
 Alpha virt. eigenvalues --    0.29437   0.29945   0.31034   0.31390   0.35430
 Alpha virt. eigenvalues --    0.37658   0.38114   0.38683   0.39293   0.39637
 Alpha virt. eigenvalues --    0.40105   0.42391   0.43214   0.43286   0.43867
 Alpha virt. eigenvalues --    0.44660   0.45185   0.45524   0.46629   0.46966
 Alpha virt. eigenvalues --    0.47814   0.47875   0.49031   0.50760   0.51576
 Alpha virt. eigenvalues --    0.51586   0.52488   0.52504   0.54233   0.54244
 Alpha virt. eigenvalues --    0.54792   0.55021   0.57054   0.58220   0.58660
 Alpha virt. eigenvalues --    0.58842   0.61562   0.61826   0.62507   0.63487
 Alpha virt. eigenvalues --    0.63846   0.64204   0.65536   0.66757   0.68161
 Alpha virt. eigenvalues --    0.69385   0.71523   0.73172   0.73331   0.74186
 Alpha virt. eigenvalues --    0.74914   0.75630   0.77004   0.77122   0.77901
 Alpha virt. eigenvalues --    0.79158   0.79727   0.80010   0.80778   0.81063
 Alpha virt. eigenvalues --    0.81584   0.82477   0.84656   0.84729   0.84816
 Alpha virt. eigenvalues --    0.86063   0.89606   0.89870   0.91138   0.91230
 Alpha virt. eigenvalues --    0.92262   0.93807   0.95077   0.96541   0.97025
 Alpha virt. eigenvalues --    0.97268   0.99255   1.01636   1.02453   1.03819
 Alpha virt. eigenvalues --    1.05294   1.05446   1.07247   1.08086   1.11029
 Alpha virt. eigenvalues --    1.16936   1.18757   1.20470   1.21676   1.27621
 Alpha virt. eigenvalues --    1.31055   1.33613   1.34764   1.35814   1.36050
 Alpha virt. eigenvalues --    1.37362   1.38147   1.39399   1.40446   1.41518
 Alpha virt. eigenvalues --    1.44942   1.45387   1.45781   1.46842   1.49105
 Alpha virt. eigenvalues --    1.49990   1.51283   1.53748   1.53961   1.56352
 Alpha virt. eigenvalues --    1.56423   1.56961   1.57670   1.58878   1.60204
 Alpha virt. eigenvalues --    1.62211   1.64263   1.65359   1.66047   1.67972
 Alpha virt. eigenvalues --    1.69138   1.70762   1.71087   1.75090   1.76518
 Alpha virt. eigenvalues --    1.76559   1.77500   1.78614   1.80074   1.80617
 Alpha virt. eigenvalues --    1.82585   1.82729   1.83790   1.85079   1.85286
 Alpha virt. eigenvalues --    1.86680   1.87776   1.88654   1.89892   1.93056
 Alpha virt. eigenvalues --    1.94635   1.94952   1.98399   1.99385   2.00676
 Alpha virt. eigenvalues --    2.01039   2.04312   2.09065   2.09233   2.12412
 Alpha virt. eigenvalues --    2.15632   2.17026   2.18770   2.19284   2.21848
 Alpha virt. eigenvalues --    2.23309   2.26272   2.31701   2.31776   2.32656
 Alpha virt. eigenvalues --    2.36162   2.38477   2.39516   2.41082   2.42182
 Alpha virt. eigenvalues --    2.44105   2.45813   2.48404   2.53128   2.55041
 Alpha virt. eigenvalues --    2.56206   2.57990   2.58544   2.60045   2.61018
 Alpha virt. eigenvalues --    2.61485   2.62145   2.62872   2.64012   2.64296
 Alpha virt. eigenvalues --    2.64879   2.66004   2.66988   2.67202   2.67400
 Alpha virt. eigenvalues --    2.69978   2.70283   2.72504   2.74111   2.74719
 Alpha virt. eigenvalues --    2.76111   2.76165   2.78784   2.82818   2.84903
 Alpha virt. eigenvalues --    2.87981   2.88062   2.92770   2.93794   2.99024
 Alpha virt. eigenvalues --    3.00210   3.01167   3.04705   3.06867   3.10119
 Alpha virt. eigenvalues --    3.11144   3.17927   3.24350   3.26238   3.31182
 Alpha virt. eigenvalues --    3.34485   3.38716   3.40231   3.49964   3.54302
 Alpha virt. eigenvalues --    3.55857   3.56817   3.60357   3.65884   3.72412
 Alpha virt. eigenvalues --    3.74625   3.85552   3.87079   3.89095   3.93590
 Alpha virt. eigenvalues --    3.99818   4.03293   4.08145   4.12837   4.29188
 Alpha virt. eigenvalues --    4.44876   4.55443   4.57027  23.41908  23.51198
 Alpha virt. eigenvalues --   23.59628  23.60688  23.61866  23.86387  23.91269
 Alpha virt. eigenvalues --   23.94740  24.12069  24.27798  24.31804  24.39675
 Alpha virt. eigenvalues --   24.80981  24.87891
          Condensed to atoms (all electrons):
               1          2          3          4          5          6
     1  C    7.447675   0.967798  -0.647218   0.544851  -0.011504  -0.035204
     2  C    0.967798   8.081320   0.685196  -1.080474  -0.105145  -0.009346
     3  C   -0.647218   0.685196   6.905156   0.819111  -0.070342   0.011842
     4  C    0.544851  -1.080474   0.819111  13.562992  -0.252490  -0.219910
     5  C   -0.011504  -0.105145  -0.070342  -0.252490   8.733405   1.197362
     6  C   -0.035204  -0.009346   0.011842  -0.219910   1.197362   7.106526
     7  C   -0.142715  -0.031359  -0.006652   0.240983  -1.588394  -1.200860
     8  C    0.410606   0.046646  -0.144163  -0.356706   2.692326   0.946248
     9  C   -0.972415  -1.523532   0.172106   1.364751  -0.818939   0.305546
    10  C   -0.637516  -0.161468   0.095138  -2.742668  -1.399689  -0.809429
    11  C    1.137245  -0.319258   0.215328  -0.929594  -1.249360   0.307225
    12  C   -1.233435   0.456752  -1.775706  -2.437378   0.285508  -0.732433
    13  C    0.107403  -0.328117  -0.468116  -1.149873  -0.603769   1.051898
    14  C   -1.402067  -0.549572   0.275149  -1.720080  -1.046893  -1.843190
    15  H    0.369069  -0.101071  -0.005356   0.008964   0.006046   0.001995
    16  H   -0.016686   0.382399  -0.034613   0.028886  -0.001954  -0.000437
    17  H   -0.003999  -0.033574   0.395587  -0.060373  -0.000293   0.000421
    18  H    0.028259   0.006459  -0.056184   0.555337   0.004798  -0.005289
    19  H   -0.016069  -0.005930   0.039045  -0.171284  -0.040298   0.053511
    20  H    0.003247   0.001482  -0.005302   0.012157   0.420205  -0.075334
    21  H   -0.001060  -0.000333   0.000245  -0.000985  -0.045186   0.341731
    22  H   -0.000895  -0.000114  -0.000176   0.000804  -0.001874  -0.001983
    23  H    0.017123   0.002767   0.000756  -0.008880   0.028738   0.038096
    24  H    0.044368   0.015865  -0.000786  -0.002124  -0.019326  -0.004456
    25  H    0.044368   0.015865  -0.000786  -0.002124  -0.019326  -0.004456
               7          8          9         10         11         12
     1  C   -0.142715   0.410606  -0.972415  -0.637516   1.137245  -1.233435
     2  C   -0.031359   0.046646  -1.523532  -0.161468  -0.319258   0.456752
     3  C   -0.006652  -0.144163   0.172106   0.095138   0.215328  -1.775706
     4  C    0.240983  -0.356706   1.364751  -2.742668  -0.929594  -2.437378
     5  C   -1.588394   2.692326  -0.818939  -1.399689  -1.249360   0.285508
     6  C   -1.200860   0.946248   0.305546  -0.809429   0.307225  -0.732433
     7  C    9.629424  -3.030830  -1.010557   0.862720  -1.022242   0.665989
     8  C   -3.030830  12.350633  -1.071810  -1.402383   0.854211  -1.086760
     9  C   -1.010557  -1.071810  10.693836  -0.013644   0.922434  -2.827847
    10  C    0.862720  -1.402383  -0.013644   8.484340  -0.075716   2.131429
    11  C   -1.022242   0.854211   0.922434  -0.075716  16.113174  -5.454415
    12  C    0.665989  -1.086760  -2.827847   2.131429  -5.454415  19.021142
    13  C   -0.759133  -0.455492   0.613046  -0.829410  -0.234864  -2.636247
    14  C    3.632345  -4.342974  -0.364963   2.111192  -3.773344   1.275889
    15  H   -0.004104   0.001382   0.073296   0.004235  -0.042143   0.043355
    16  H    0.000433   0.003069  -0.008402  -0.017621   0.025942  -0.016612
    17  H   -0.000240  -0.001976   0.000828   0.015704  -0.000142   0.029366
    18  H    0.003597   0.004593  -0.003302  -0.023564  -0.006238  -0.071442
    19  H   -0.016122  -0.038102   0.055089   0.412822   0.111149  -0.207434
    20  H   -0.009147   0.067443  -0.026637   0.036319  -0.017476   0.026950
    21  H    0.048152  -0.070415  -0.005257   0.008276  -0.002987  -0.001596
    22  H    0.349781  -0.006725  -0.004555   0.000394  -0.006991   0.003136
    23  H   -0.179029   0.413299   0.131299  -0.019673   0.067247  -0.023932
    24  H    0.010254  -0.009037   0.371032   0.008309   0.049682  -0.046155
    25  H    0.010254  -0.009037   0.371032   0.008309   0.049682  -0.046155
              13         14         15         16         17         18
     1  C    0.107403  -1.402067   0.369069  -0.016686  -0.003999   0.028259
     2  C   -0.328117  -0.549572  -0.101071   0.382399  -0.033574   0.006459
     3  C   -0.468116   0.275149  -0.005356  -0.034613   0.395587  -0.056184
     4  C   -1.149873  -1.720080   0.008964   0.028886  -0.060373   0.555337
     5  C   -0.603769  -1.046893   0.006046  -0.001954  -0.000293   0.004798
     6  C    1.051898  -1.843190   0.001995  -0.000437   0.000421  -0.005289
     7  C   -0.759133   3.632345  -0.004104   0.000433  -0.000240   0.003597
     8  C   -0.455492  -4.342974   0.001382   0.003069  -0.001976   0.004593
     9  C    0.613046  -0.364963   0.073296  -0.008402   0.000828  -0.003302
    10  C   -0.829410   2.111192   0.004235  -0.017621   0.015704  -0.023564
    11  C   -0.234864  -3.773344  -0.042143   0.025942  -0.000142  -0.006238
    12  C   -2.636247   1.275889   0.043355  -0.016612   0.029366  -0.071442
    13  C   11.915552   0.030334  -0.024292   0.006702  -0.008147  -0.007771
    14  C    0.030334  13.306876   0.009585  -0.018230   0.007671  -0.083392
    15  H   -0.024292   0.009585   0.419307  -0.005320   0.001721   0.000077
    16  H    0.006702  -0.018230  -0.005320   0.394233  -0.006205   0.002478
    17  H   -0.008147   0.007671   0.001721  -0.006205   0.411540  -0.010908
    18  H   -0.007771  -0.083392   0.000077   0.002478  -0.010908   0.435056
    19  H    0.086528   0.102074   0.000826  -0.000605   0.002656  -0.006236
    20  H    0.021378  -0.124462  -0.000216   0.000041  -0.000223   0.001274
    21  H   -0.003141   0.080342   0.000038  -0.000007   0.000007  -0.000075
    22  H    0.011723  -0.001861  -0.000133   0.000007  -0.000004   0.000016
    23  H   -0.069667  -0.101282   0.000572  -0.000141  -0.000007  -0.000161
    24  H   -0.050565  -0.032440  -0.000850   0.000553  -0.000093   0.000089
    25  H   -0.050565  -0.032440  -0.000850   0.000553  -0.000093   0.000089
              19         20         21         22         23         24
     1  C   -0.016069   0.003247  -0.001060  -0.000895   0.017123   0.044368
     2  C   -0.005930   0.001482  -0.000333  -0.000114   0.002767   0.015865
     3  C    0.039045  -0.005302   0.000245  -0.000176   0.000756  -0.000786
     4  C   -0.171284   0.012157  -0.000985   0.000804  -0.008880  -0.002124
     5  C   -0.040298   0.420205  -0.045186  -0.001874   0.028738  -0.019326
     6  C    0.053511  -0.075334   0.341731  -0.001983   0.038096  -0.004456
     7  C   -0.016122  -0.009147   0.048152   0.349781  -0.179029   0.010254
     8  C   -0.038102   0.067443  -0.070415  -0.006725   0.413299  -0.009037
     9  C    0.055089  -0.026637  -0.005257  -0.004555   0.131299   0.371032
    10  C    0.412822   0.036319   0.008276   0.000394  -0.019673   0.008309
    11  C    0.111149  -0.017476  -0.002987  -0.006991   0.067247   0.049682
    12  C   -0.207434   0.026950  -0.001596   0.003136  -0.023932  -0.046155
    13  C    0.086528   0.021378  -0.003141   0.011723  -0.069667  -0.050565
    14  C    0.102074  -0.124462   0.080342  -0.001861  -0.101282  -0.032440
    15  H    0.000826  -0.000216   0.000038  -0.000133   0.000572  -0.000850
    16  H   -0.000605   0.000041  -0.000007   0.000007  -0.000141   0.000553
    17  H    0.002656  -0.000223   0.000007  -0.000004  -0.000007  -0.000093
    18  H   -0.006236   0.001274  -0.000075   0.000016  -0.000161   0.000089
    19  H    0.465263  -0.010319   0.000392  -0.000390   0.000394   0.000562
    20  H   -0.010319   0.469472  -0.006428   0.001628  -0.001100   0.000437
    21  H    0.000392  -0.006428   0.426312  -0.001760   0.000348  -0.000134
    22  H   -0.000390   0.001628  -0.001760   0.428195  -0.007205   0.000653
    23  H    0.000394  -0.001100   0.000348  -0.007205   0.478654  -0.000390
    24  H    0.000562   0.000437  -0.000134   0.000653  -0.000390   0.476535
    25  H    0.000562   0.000437  -0.000134   0.000653  -0.000390  -0.071149
              25
     1  C    0.044368
     2  C    0.015865
     3  C   -0.000786
     4  C   -0.002124
     5  C   -0.019326
     6  C   -0.004456
     7  C    0.010254
     8  C   -0.009037
     9  C    0.371032
    10  C    0.008309
    11  C    0.049682
    12  C   -0.046155
    13  C   -0.050565
    14  C   -0.032440
    15  H   -0.000850
    16  H    0.000553
    17  H   -0.000093
    18  H    0.000089
    19  H    0.000562
    20  H    0.000437
    21  H   -0.000134
    22  H    0.000653
    23  H   -0.000390
    24  H   -0.071149
    25  H    0.476535
 Mulliken charges:
               1
     1  C   -0.001229
     2  C   -0.413255
     3  C   -0.399260
     4  C   -0.003895
     5  C   -0.093606
     6  C   -0.420077
     7  C   -0.452548
     8  C    0.235952
     9  C   -0.422436
    10  C   -0.046409
    11  C   -0.718547
    12  C    0.658033
    13  C   -0.165396
    14  C    0.605734
    15  H    0.243867
    16  H    0.281537
    17  H    0.260777
    18  H    0.232440
    19  H    0.181917
    20  H    0.214174
    21  H    0.233656
    22  H    0.237676
    23  H    0.232563
    24  H    0.259165
    25  H    0.259165
 Sum of Mulliken charges =   1.00000
 Mulliken charges with hydrogens summed into heavy atoms:
               1
     1  C    0.242639
     2  C   -0.131718
     3  C   -0.138483
     4  C    0.228545
     5  C    0.120567
     6  C   -0.186420
     7  C   -0.214872
     8  C    0.468516
     9  C    0.095893
    10  C    0.135508
    11  C   -0.718547
    12  C    0.658033
    13  C   -0.165396
    14  C    0.605734
 Electronic spatial extent (au):  <R**2>=           2859.2463
 Charge=              1.0000 electrons
 Dipole moment (field-independent basis, Debye):
    X=             -2.5376    Y=             -4.3439    Z=              0.0000  Tot=              5.0308
 Quadrupole moment (field-independent basis, Debye-Ang):
   XX=            -52.7454   YY=            -32.1046   ZZ=            -83.7252
   XY=              9.9932   XZ=             -0.0000   YZ=              0.0000
 Traceless Quadrupole moment (field-independent basis, Debye-Ang):
   XX=              3.4464   YY=             24.0871   ZZ=            -27.5335
   XY=              9.9932   XZ=             -0.0000   YZ=              0.0000
 Octapole moment (field-independent basis, Debye-Ang**2):
  XXX=            -17.2348  YYY=            -35.4411  ZZZ=              0.0000  XYY=            -14.1255
  XXY=            -21.1873  XXZ=              0.0000  XZZ=             -6.3627  YZZ=             -5.9741
  YYZ=              0.0000  XYZ=             -0.0000
 Hexadecapole moment (field-independent basis, Debye-Ang**3):
 XXXX=           -880.8578 YYYY=          -1916.5745 ZZZZ=            -98.6367 XXXY=           -304.0149
 XXXZ=             -0.0000 YYYX=           -225.3251 YYYZ=              0.0000 ZZZX=              0.0000
 ZZZY=              0.0000 XXYY=           -457.7696 XXZZ=           -214.8832 YYZZ=           -518.0306
 XXYZ=              0.0000 YYXZ=             -0.0000 ZZXY=           -160.2884
 N-N= 7.832867184931D+02 E-N=-2.803516481774D+03  KE= 5.385331296095D+02
 Symmetry A'   KE= 5.236453108332D+02
 Symmetry A"   KE= 1.488781877628D+01
 Unable to Open any file for archive entry.
 1\1\GINC-GADI-CPU-CLX-2808\SP\RM062X TD-FC\6-311++G(d,p)\C14H11(1+)\TS
 1578\02-Aug-2022\0\\#n M062X/6-311++G(d,p) TD(NStates=1) EmpiricalDisp
 ersion=GD3 SP\\SP_8\\1,1\C,0,0.,2.338655,1.364431\C,0,0.,3.545508,0.64
 1989\C,0,0.,3.621861,-0.80783\C,0,0.,2.647156,-1.467538\C,0,0.,-2.3271
 56,-1.339538\C,0,0.,-3.765861,-0.55183\C,0,0.,-3.833508,0.769989\C,0,0
 .,-2.594655,1.364431\C,0,0.,-0.064,1.423369\C,0,0.,0.232,-1.459189\C,0
 ,0.,1.328055,0.739065\C,0,0.,1.313471,-0.764804\C,0,0.,-1.184055,0.563
 065\C,0,0.,-1.169471,-0.748804\H,0,0.,2.390071,2.447647\H,0,0.,4.47075
 3,1.207689\H,0,0.,4.621262,-1.236349\H,0,0.,2.59355,-2.550059\H,0,0.,0
 .2,-2.542266\H,0,0.,-2.44955,-2.422059\H,0,0.,-4.637262,-1.204349\H,0,
 0.,-4.758753,1.319689\H,0,0.,-2.470071,2.447647\H,0,-0.859585,-0.352,2
 .115787\H,0,0.859585,-0.352,2.115787\\Version=ES64L-G16RevC.01\State=1
 -A'\HF=-539.5172005\RMSD=6.594e-09\PG=CS [SG(C14H9),X(H2)]\\@
 The archive entry for this job was punched.


 WE HAVE SEEN THAT MAN ON THE AVERAGE DOES NOT LIVE ABOVE
 TWO-AND-TWENTY YEARS.  DURING THESE TWO AND TWENTY
 YEARS HE IS LIABLE TO TWO AND TWENTY THOUSAND EVILS,
 MANY OF WHICH ARE INCURABLE.  YET EVEN IN THIS DREADFUL STATE
 MEN STILL STRUT AND POSE ON THE STAGE OF LIFE.
 THEY MAKE LOVE AT THE RISK OF DESTRUCTION,
 INTRIGUE, CARRY ON WAR, AND FORM PROJECTS, JUST AS IF THEY
 WERE TO LIVE IN LUXURY AND HAPPINESS FOR A THOUSAND
 AGES.

                                              -- VOLTAIRE
 Job cpu time:       0 days  0 hours 53 minutes  7.2 seconds.
 Elapsed time:       0 days  0 hours  1 minutes  6.7 seconds.
 File lengths (MBytes):  RWF=    460 Int=      0 D2E=      0 Chk=     15 Scr=      1
 Normal termination of Gaussian 16 at Tue Aug  2 13:08:58 2022.
