 Entering Gaussian System, Link 0=g16
 Initial command:
 /apps/gaussian/g16c01/g16/l1.exe "/jobfs/53803424.gadi-pbs/Gau-1835251.inp" -scrdir="/jobfs/53803424.gadi-pbs/"
 Entering Link 1 = /apps/gaussian/g16c01/g16/l1.exe PID=   1835252.
  
 Copyright (c) 1988-2019, Gaussian, Inc.  All Rights Reserved.
  
 This is part of the Gaussian(R) 16 program.  It is based on
 the Gaussian(R) 09 system (copyright 2009, Gaussian, Inc.),
 the Gaussian(R) 03 system (copyright 2003, Gaussian, Inc.),
 the Gaussian(R) 98 system (copyright 1998, Gaussian, Inc.),
 the Gaussian(R) 94 system (copyright 1995, Gaussian, Inc.),
 the Gaussian 92(TM) system (copyright 1992, Gaussian, Inc.),
 the Gaussian 90(TM) system (copyright 1990, Gaussian, Inc.),
 the Gaussian 88(TM) system (copyright 1988, Gaussian, Inc.),
 the Gaussian 86(TM) system (copyright 1986, Carnegie Mellon
 University), and the Gaussian 82(TM) system (copyright 1983,
 Carnegie Mellon University). Gaussian is a federally registered
 trademark of Gaussian, Inc.
  
 This software contains proprietary and confidential information,
 including trade secrets, belonging to Gaussian, Inc.
  
 This software is provided under written license and may be
 used, copied, transmitted, or stored only in accord with that
 written license.
  
 The following legend is applicable only to US Government
 contracts under FAR:
  
                    RESTRICTED RIGHTS LEGEND
  
 Use, reproduction and disclosure by the US Government is
 subject to restrictions as set forth in subparagraphs (a)
 and (c) of the Commercial Computer Software - Restricted
 Rights clause in FAR 52.227-19.
  
 Gaussian, Inc.
 340 Quinnipiac St., Bldg. 40, Wallingford CT 06492
  
  
 ---------------------------------------------------------------
 Warning -- This program may not be used in any manner that
 competes with the business of Gaussian, Inc. or will provide
 assistance to any competitor of Gaussian, Inc.  The licensee
 of this program is prohibited from giving any competitor of
 Gaussian, Inc. access to this program.  By using this program,
 the user acknowledges that Gaussian, Inc. is engaged in the
 business of creating and licensing software in the field of
 computational chemistry and represents and warrants to the
 licensee that it is not a competitor of Gaussian, Inc. and that
 it will not use this program in any manner prohibited above.
 ---------------------------------------------------------------
  

 Cite this work as:
 Gaussian 16, Revision C.01,
 M. J. Frisch, G. W. Trucks, H. B. Schlegel, G. E. Scuseria, 
 M. A. Robb, J. R. Cheeseman, G. Scalmani, V. Barone, 
 G. A. Petersson, H. Nakatsuji, X. Li, M. Caricato, A. V. Marenich, 
 J. Bloino, B. G. Janesko, R. Gomperts, B. Mennucci, H. P. Hratchian, 
 J. V. Ortiz, A. F. Izmaylov, J. L. Sonnenberg, D. Williams-Young, 
 F. Ding, F. Lipparini, F. Egidi, J. Goings, B. Peng, A. Petrone, 
 T. Henderson, D. Ranasinghe, V. G. Zakrzewski, J. Gao, N. Rega, 
 G. Zheng, W. Liang, M. Hada, M. Ehara, K. Toyota, R. Fukuda, 
 J. Hasegawa, M. Ishida, T. Nakajima, Y. Honda, O. Kitao, H. Nakai, 
 T. Vreven, K. Throssell, J. A. Montgomery, Jr., J. E. Peralta, 
 F. Ogliaro, M. J. Bearpark, J. J. Heyd, E. N. Brothers, K. N. Kudin, 
 V. N. Staroverov, T. A. Keith, R. Kobayashi, J. Normand, 
 K. Raghavachari, A. P. Rendell, J. C. Burant, S. S. Iyengar, 
 J. Tomasi, M. Cossi, J. M. Millam, M. Klene, C. Adamo, R. Cammi, 
 J. W. Ochterski, R. L. Martin, K. Morokuma, O. Farkas, 
 J. B. Foresman, and D. J. Fox, Gaussian, Inc., Wallingford CT, 2019.
 
 ******************************************
 Gaussian 16:  ES64L-G16RevC.01  3-Jul-2019
                 2-Aug-2022 
 ******************************************
 %NProcShared=48
 Will use up to   48 processors via shared memory.
 %mem = 190GB
 ---------------------------------------------------------------
 #n M062X/6-311++G(d,p) TD(NStates=1) EmpiricalDispersion=GD3 SP
 ---------------------------------------------------------------
 1/38=1,172=1/1;
 2/12=2,17=6,18=5,40=1/2;
 3/5=4,6=6,7=1111,11=9,25=1,30=1,74=-55,124=31/1,2,3,8;
 4//1;
 5/5=2,38=5/2;
 8/6=1,10=2,108=1/1;
 9/41=1,42=1,70=2/14;
 6/7=2,8=2,9=2,10=2/1;
 99/5=1,9=1/99;
 ----
 SP_2
 ----
 Symbolic Z-matrix:
 Charge =  1 Multiplicity = 1
 C                     0.        2.38266   1.37243 
 C                     0.        3.62951   0.75799 
 C                     0.        3.69586  -0.64383 
 C                     0.        2.57516  -1.41154 
 C                     0.       -2.49516  -1.37954 
 C                     0.       -3.73186  -0.57983 
 C                     0.       -3.70151   0.78999 
 C                     0.       -2.44666   1.37243 
 C                     0.       -0.016     1.36337 
 C                     0.        0.058    -1.51919 
 C                     0.        1.26206   0.62107 
 C                     0.        1.26747  -0.8108 
 C                     0.       -1.22606   0.57707 
 C                     0.       -1.23147  -0.8068 
 H                     0.        2.30407   2.45565 
 H                     0.        4.53475   1.35369 
 H                     0.        4.66726  -1.12035 
 H                     0.        2.64755  -2.49406 
 H                     0.        0.05     -2.60627 
 H                     0.       -2.61155  -2.46206 
 H                     0.       -4.67126  -1.11235 
 H                     0.       -4.60675   1.38169 
 H                     0.       -2.32407   2.45565 
 H                    -0.85959  -0.088     2.05579 
 H                     0.85959  -0.088     2.05579 
 
                          Input orientation:                          
 ---------------------------------------------------------------------
 Center     Atomic      Atomic             Coordinates (Angstroms)
 Number     Number       Type             X           Y           Z
 ---------------------------------------------------------------------
      1          6           0        0.000000    2.382655    1.372431
      2          6           0        0.000000    3.629508    0.757989
      3          6           0        0.000000    3.695861   -0.643830
      4          6           0        0.000000    2.575156   -1.411538
      5          6           0        0.000000   -2.495156   -1.379538
      6          6           0        0.000000   -3.731861   -0.579830
      7          6           0        0.000000   -3.701508    0.789989
      8          6           0        0.000000   -2.446655    1.372431
      9          6           0        0.000000   -0.016000    1.363369
     10          6           0        0.000000    0.058000   -1.519189
     11          6           0        0.000000    1.262055    0.621065
     12          6           0        0.000000    1.267471   -0.810804
     13          6           0        0.000000   -1.226055    0.577065
     14          6           0        0.000000   -1.231471   -0.806804
     15          1           0        0.000000    2.304071    2.455647
     16          1           0        0.000000    4.534753    1.353689
     17          1           0        0.000000    4.667262   -1.120349
     18          1           0        0.000000    2.647550   -2.494059
     19          1           0        0.000000    0.050000   -2.606266
     20          1           0        0.000000   -2.611550   -2.462059
     21          1           0        0.000000   -4.671262   -1.112349
     22          1           0        0.000000   -4.606753    1.381689
     23          1           0        0.000000   -2.324071    2.455647
     24          1           0       -0.859585   -0.088000    2.055787
     25          1           0        0.859585   -0.088000    2.055787
 ---------------------------------------------------------------------
                    Distance matrix (angstroms):
                    1          2          3          4          5
     1  C    0.000000
     2  C    1.390029   0.000000
     3  C    2.406204   1.403388   0.000000
     4  C    2.790616   2.412158   1.358439   0.000000
     5  C    5.600569   6.486951   6.234578   5.070413   0.000000
     6  C    6.418616   7.481946   7.427998   6.361619   1.472743
     7  C    6.111978   7.331086   7.535045   6.651559   2.482364
     8  C    4.829310   6.107151   6.464968   5.741870   2.752396
     9  C    2.398672   3.695431   4.219806   3.796604   3.697263
    10  C    3.710187   4.235706   3.741696   2.519457   2.556972
    11  C    1.349183   2.371409   2.742876   2.419857   4.256647
    12  C    2.451561   2.835548   2.434124   1.439070   3.805367
    13  C    3.695321   4.858933   5.071079   4.289959   2.332148
    14  C    4.220305   5.106632   4.930026   3.854363   1.387416
    15  H    1.086063   2.153793   3.397622   3.876675   6.143389
    16  H    2.152180   1.083664   2.166523   3.389174   7.542556
    17  H    3.381328   2.145947   1.081984   2.112273   7.167106
    18  H    3.875553   3.397066   2.126571   1.084939   5.262089
    19  H    4.612083   4.912341   4.140466   2.793526   2.825364
    20  H    6.296459   7.022785   6.564251   5.292024   1.088760
    21  H    7.478762   8.508875   8.380230   7.252592   2.192448
    22  H    6.989414   8.259842   8.546118   7.705967   3.476092
    23  H    4.829765   6.190892   6.770992   6.241598   3.838999
    24  H    2.703701   4.030264   4.726989   4.455741   4.281909
    25  H    2.703701   4.030264   4.726989   4.455741   4.281909
                    6          7          8          9         10
     6  C    0.000000
     7  C    1.370155   0.000000
     8  C    2.337323   1.383436   0.000000
     9  C    4.193286   3.729844   2.430672   0.000000
    10  C    3.904541   4.412052   3.825541   2.883508   0.000000
    11  C    5.136277   4.966437   3.784056   1.477985   2.455695
    12  C    5.004665   5.220468   4.308277   2.524743   1.401652
    13  C    2.759976   2.484593   1.456870   1.443089   2.458267
    14  C    2.510671   2.941229   2.495143   2.487372   1.473169
    15  H    6.756226   6.232287   4.872654   2.564332   4.565540
    16  H    8.489723   8.255529   6.981433   4.550763   5.319281
    17  H    8.416497   8.584038   7.538021   5.301113   4.626486
    18  H    6.660417   7.148112   6.395363   4.687670   2.766973
    19  H    4.290561   5.060470   4.697160   3.970184   1.087106
    20  H    2.190407   3.429843   3.838034   4.622854   2.831166
    21  H    1.079838   2.135255   3.335117   5.272632   4.746729
    22  H    2.147788   1.081470   2.160118   4.590790   5.493179
    23  H    3.346041   2.161423   1.090130   2.553481   4.633960
    24  H    4.578546   3.924101   2.601752   1.106125   3.679763
    25  H    4.578546   3.924101   2.601752   1.106125   3.679763
                   11         12         13         14         15
    11  C    0.000000
    12  C    1.431879   0.000000
    13  C    2.488499   2.853744   0.000000
    14  C    2.873409   2.498945   1.383880   0.000000
    15  H    2.109855   3.426987   3.998857   4.810784   0.000000
    16  H    3.353698   3.919204   5.812921   6.157684   2.488022
    17  H    3.824651   3.413854   6.132895   5.907060   4.286306
    18  H    3.409339   2.176687   4.943341   4.230087   4.961609
    19  H    3.447426   2.169313   3.429564   2.209125   5.541101
    20  H    4.950805   4.215857   3.340041   2.155107   6.953212
    21  H    6.181341   5.946384   3.837131   3.453335   7.834913
    22  H    5.917893   6.270050   3.475131   4.022689   6.993774
    23  H    4.028150   4.854779   2.175939   3.440547   4.628142
    24  H    2.149410   3.285351   2.054428   3.200131   2.573087
    25  H    2.149410   3.285351   2.054428   3.200131   2.573087
                   16         17         18         19         20
    16  H    0.000000
    17  H    2.477584   0.000000
    18  H    4.285639   2.442604   0.000000
    19  H    5.982830   4.850470   2.599972   0.000000
    20  H    8.101209   7.401438   5.259197   2.665454   0.000000
    21  H    9.530585   9.338527   7.448096   4.951980   2.462546
    22  H    9.141549   9.605600   8.224739   6.130998   4.330731
    23  H    6.946782   7.852801   7.015455   5.590991   4.926102
    24  H    4.754122   5.782667   5.378031   4.742644   5.245772
    25  H    4.754122   5.782667   5.378031   4.742644   5.245772
                   21         22         23         24         25
    21  H    0.000000
    22  H    2.494872   0.000000
    23  H    4.270820   2.522702   0.000000
    24  H    5.637576   4.648916   2.428742   0.000000
    25  H    5.637576   4.648916   2.428742   1.719170   0.000000
 Stoichiometry    C14H11(1+)
 Framework group  CS[SG(C14H9),X(H2)]
 Deg. of freedom    46
 Full point group                 CS      NOp   2
 Largest Abelian subgroup         CS      NOp   2
 Largest concise Abelian subgroup CS      NOp   2
                         Standard orientation:                         
 ---------------------------------------------------------------------
 Center     Atomic      Atomic             Coordinates (Angstroms)
 Number     Number       Type             X           Y           Z
 ---------------------------------------------------------------------
      1          6           0       -2.253247   -1.575119    0.000000
      2          6           0       -2.226775   -2.964896    0.000000
      3          6           0       -0.985965   -3.620556    0.000000
      4          6           0        0.185162   -2.932211    0.000000
      5          6           0        2.310427    1.671302    0.000000
      6          6           0        2.111930    3.130607    0.000000
      7          6           0        0.859000    3.685128    0.000000
      8          6           0       -0.201409    2.796631    0.000000
      9          6           0       -1.225923    0.592422    0.000000
     10          6           0        1.352082   -0.699285    0.000000
     11          6           0       -1.096959   -0.879926    0.000000
     12          6           0        0.196944   -1.493190    0.000000
     13          6           0       -0.000000    1.353750    0.000000
     14          6           0        1.255053    0.770685    0.000000
     15          1           0       -3.200444   -1.043752    0.000000
     16          1           0       -3.150647   -3.531276    0.000000
     17          1           0       -0.967315   -4.702380    0.000000
     18          1           0        1.134360   -3.457679    0.000000
     19          1           0        2.339561   -1.153912    0.000000
     20          1           0        3.339835    1.316735    0.000000
     21          1           0        2.993120    3.754751    0.000000
     22          1           0        0.707975    4.756000    0.000000
     23          1           0       -1.234077    3.145889    0.000000
     24          1           0       -1.822146    0.951789    0.859585
     25          1           0       -1.822146    0.951789   -0.859585
 ---------------------------------------------------------------------
 Rotational constants (GHZ):           2.1304435           0.4453270           0.3691354
 Standard basis: 6-311++G(d,p) (5D, 7F)
 There are   299 symmetry adapted cartesian basis functions of A'  symmetry.
 There are   100 symmetry adapted cartesian basis functions of A"  symmetry.
 There are   285 symmetry adapted basis functions of A'  symmetry.
 There are   100 symmetry adapted basis functions of A"  symmetry.
   385 basis functions,   603 primitive gaussians,   399 cartesian basis functions
    47 alpha electrons       47 beta electrons
       nuclear repulsion energy       781.2333326760 Hartrees.
 NAtoms=   25 NActive=   25 NUniq=   24 SFac= 1.09D+00 NAtFMM=   60 NAOKFM=F Big=F
 Integral buffers will be    131072 words long.
 Regular integral format.
 Two-electron integral symmetry is turned on.
 Nuclear repulsion after empirical dispersion term =      781.2323546381 Hartrees.
 One-electron integrals computed using PRISM.
 NBasis=   385 RedAO= T EigKep=  1.19D-06  NBF=   285   100
 NBsUse=   379 1.00D-06 EigRej=  7.71D-07 NBFU=   279   100
 ExpMin= 3.60D-02 ExpMax= 4.56D+03 ExpMxC= 6.82D+02 IAcc=3 IRadAn=         5 AccDes= 0.00D+00
 Harris functional with IExCor= 1009 and IRadAn=       5 diagonalized for initial guess.
 HarFok:  IExCor= 1009 AccDes= 0.00D+00 IRadAn=         5 IDoV= 1 UseB2=F ITyADJ=14
 ICtDFT=  3500011 ScaDFX=  1.000000  1.000000  1.000000  1.000000
 FoFCou: FMM=F IPFlag=           0 FMFlag=      100000 FMFlg1=           0
         NFxFlg=           0 DoJE=T BraDBF=F KetDBF=T FulRan=T
         wScrn=  0.000000 ICntrl=       500 IOpCl=  0 I1Cent=   200000004 NGrid=           0
         NMat0=    1 NMatS0=      1 NMatT0=    0 NMatD0=    1 NMtDS0=    0 NMtDT0=    0
 Petite list used in FoFCou.
 Initial guess orbital symmetries:
       Occupied  (A') (A') (A') (A') (A') (A') (A') (A') (A') (A')
                 (A') (A') (A') (A') (A') (A') (A') (A') (A') (A')
                 (A') (A') (A') (A') (A') (A') (A') (A') (A') (A')
                 (A') (A') (A") (A') (A') (A') (A') (A') (A") (A')
                 (A') (A") (A') (A") (A") (A") (A")
       Virtual   (A") (A") (A") (A") (A") (A') (A') (A') (A') (A")
                 (A") (A') (A') (A') (A') (A") (A') (A') (A') (A")
                 (A') (A') (A") (A') (A') (A") (A') (A") (A') (A')
                 (A') (A') (A') (A') (A") (A') (A') (A") (A') (A')
                 (A") (A') (A') (A") (A') (A') (A') (A') (A') (A")
                 (A') (A') (A") (A") (A') (A') (A') (A") (A') (A")
                 (A') (A') (A') (A') (A') (A") (A') (A') (A') (A")
                 (A') (A') (A') (A') (A') (A') (A') (A') (A') (A')
                 (A') (A') (A') (A') (A') (A') (A') (A') (A') (A')
                 (A') (A') (A') (A') (A') (A') (A') (A") (A') (A")
                 (A') (A') (A") (A") (A') (A') (A") (A") (A") (A')
                 (A") (A') (A') (A") (A') (A') (A") (A') (A") (A")
                 (A') (A") (A') (A') (A') (A') (A") (A') (A') (A")
                 (A') (A') (A') (A') (A') (A') (A") (A') (A') (A')
                 (A') (A') (A') (A') (A') (A') (A') (A') (A') (A")
                 (A") (A') (A") (A') (A") (A') (A') (A") (A") (A')
                 (A") (A') (A") (A") (A") (A') (A') (A') (A') (A')
                 (A') (A") (A') (A') (A") (A') (A') (A') (A') (A")
                 (A') (A') (A') (A") (A') (A") (A') (A') (A") (A")
                 (A") (A') (A') (A') (A") (A') (A') (A") (A') (A')
                 (A") (A") (A") (A') (A") (A') (A') (A") (A') (A')
                 (A") (A") (A') (A') (A") (A') (A") (A') (A") (A')
                 (A') (A') (A') (A') (A") (A') (A') (A') (A") (A")
                 (A') (A') (A') (A") (A') (A') (A") (A') (A") (A")
                 (A') (A') (A') (A') (A') (A") (A') (A') (A') (A")
                 (A') (A') (A') (A") (A") (A') (A') (A") (A') (A')
                 (A') (A") (A') (A") (A') (A') (A") (A') (A') (A")
                 (A') (A') (A') (A") (A') (A') (A") (A') (A") (A')
                 (A") (A') (A") (A") (A") (A') (A') (A') (A') (A')
                 (A') (A') (A') (A') (A') (A') (A') (A') (A') (A')
                 (A') (A') (A') (A') (A") (A') (A') (A') (A') (A')
                 (A') (A') (A') (A') (A') (A') (A') (A') (A') (A')
                 (A') (A') (A') (A') (A') (A') (A') (A') (A') (A')
                 (A') (A')
 The electronic state of the initial guess is 1-A'.
 Requested convergence on RMS density matrix=1.00D-08 within 128 cycles.
 Requested convergence on MAX density matrix=1.00D-06.
 Requested convergence on             energy=1.00D-06.
 No special actions if energy rises.
 SCF Done:  E(RM062X) =  -539.734595364     A.U. after   16 cycles
            NFock= 16  Conv=0.47D-08     -V/T= 2.0042
 DoSCS=F DFT=T ScalE2(SS,OS)=  1.000000  1.000000
 ExpMin= 3.60D-02 ExpMax= 4.56D+03 ExpMxC= 6.82D+02 IAcc=3 IRadAn=         5 AccDes= 0.00D+00
 HarFok:  IExCor=  205 AccDes= 0.00D+00 IRadAn=         5 IDoV=-2 UseB2=F ITyADJ=14
 ICtDFT= 12500011 ScaDFX=  1.000000  1.000000  1.000000  1.000000
 Range of M.O.s used for correlation:    15   379
 NBasis=   385 NAE=    47 NBE=    47 NFC=    14 NFV=     0
 NROrb=    365 NOA=    33 NOB=    33 NVA=   332 NVB=   332

 **** Warning!!: The largest alpha MO coefficient is  0.15858694D+03

 Orbital symmetries:
       Occupied  (A') (A') (A') (A') (A') (A') (A') (A') (A') (A')
                 (A') (A') (A') (A') (A') (A') (A') (A') (A') (A')
                 (A') (A') (A') (A') (A') (A') (A') (A') (A') (A')
                 (A") (A') (A') (A') (A') (A') (A') (A") (A') (A")
                 (A') (A') (A') (A") (A") (A") (A")
       Virtual   (A") (A") (A") (A") (A') (A') (A') (A') (A") (A')
                 (A') (A") (A') (A') (A") (A') (A") (A') (A') (A')
                 (A") (A") (A') (A') (A') (A") (A') (A") (A') (A')
                 (A") (A') (A") (A') (A') (A') (A') (A') (A") (A')
                 (A") (A') (A') (A") (A") (A") (A') (A') (A") (A')
                 (A') (A') (A') (A') (A') (A") (A') (A') (A') (A')
                 (A') (A") (A') (A') (A') (A") (A') (A') (A') (A')
                 (A') (A') (A') (A') (A') (A') (A') (A') (A') (A')
                 (A') (A') (A') (A') (A') (A') (A') (A') (A') (A')
                 (A') (A') (A') (A') (A") (A") (A') (A") (A') (A')
                 (A") (A') (A') (A') (A") (A") (A') (A") (A') (A")
                 (A') (A') (A") (A') (A") (A') (A') (A") (A') (A")
                 (A") (A') (A") (A') (A') (A") (A') (A') (A') (A')
                 (A') (A') (A') (A') (A') (A') (A') (A') (A') (A')
                 (A') (A') (A') (A") (A') (A') (A') (A') (A') (A')
                 (A') (A") (A') (A') (A") (A') (A") (A") (A') (A")
                 (A") (A') (A') (A") (A') (A") (A") (A") (A') (A')
                 (A') (A') (A') (A") (A") (A') (A') (A') (A") (A')
                 (A') (A') (A') (A") (A") (A') (A') (A") (A") (A')
                 (A") (A') (A') (A") (A') (A") (A') (A') (A') (A')
                 (A") (A") (A") (A') (A") (A') (A") (A') (A') (A')
                 (A") (A') (A') (A") (A') (A") (A") (A') (A") (A')
                 (A') (A') (A') (A') (A") (A') (A') (A') (A") (A")
                 (A') (A') (A') (A") (A') (A') (A') (A") (A") (A')
                 (A") (A') (A') (A") (A') (A') (A') (A') (A') (A')
                 (A") (A') (A') (A') (A') (A") (A") (A") (A') (A')
                 (A') (A') (A') (A') (A') (A') (A") (A') (A') (A')
                 (A') (A') (A") (A") (A") (A") (A') (A") (A') (A")
                 (A') (A") (A") (A") (A") (A') (A') (A') (A') (A')
                 (A') (A') (A') (A') (A') (A') (A') (A') (A') (A')
                 (A') (A') (A') (A") (A') (A') (A') (A') (A') (A')
                 (A') (A') (A') (A') (A') (A') (A') (A') (A') (A')
                 (A') (A') (A') (A') (A') (A') (A') (A') (A') (A')
                 (A') (A')
     4 initial guesses have been made.
 Convergence on wavefunction:    0.001000000000000
 Iteration     1 Dimension     4 NMult     0 NNew      4
 CISAX will form     4 AO SS matrices at one time.
 Iteration     2 Dimension     6 NMult     4 NNew      2
 Iteration     3 Dimension     8 NMult     6 NNew      2
 Iteration     4 Dimension    10 NMult     8 NNew      2
 Iteration     5 Dimension    12 NMult    10 NNew      2
 Iteration     6 Dimension    14 NMult    12 NNew      2
 ***********************************************************************
 Excited states from <AA,BB:AA,BB> singles matrix:
 ***********************************************************************
 
 Ground to excited state transition densities written to RWF  633
 Ground to excited state transition electric dipole moments (Au):
       state          X           Y           Z        Dip. S.      Osc.
         1         0.3975     -0.3404      0.0000      0.2739      0.0161
 Ground to excited state transition velocity dipole moments (Au):
       state          X           Y           Z        Dip. S.      Osc.
         1        -0.0430      0.0281     -0.0000      0.0026      0.0200
 Ground to excited state transition magnetic dipole moments (Au):
       state          X           Y           Z
         1         0.0000     -0.0000      0.1104
 Ground to excited state transition velocity quadrupole moments (Au):
       state          XX          YY          ZZ          XY          XZ          YZ
         1        -0.1224     -0.1091      0.0075     -0.1147      0.0000      0.0000
 <0|del|b> * <b|rxdel|0> + <0|del|b> * <b|delr+rdel|0>
 Rotatory Strengths (R) in cgs (10**-40 erg-esu-cm/Gauss)
       state          XX          YY          ZZ    R(velocity)    E-M Angle
         1        -0.0000     -0.0000     -0.0000     -0.0000       90.00
 1/2[<0|r|b>*<b|rxdel|0> + (<0|rxdel|b>*<b|r|0>)*]
 Rotatory Strengths (R) in cgs (10**-40 erg-esu-cm/Gauss)
       state          XX          YY          ZZ     R(length)
         1        -0.0000     -0.0000     -0.0000     -0.0000
  1/2[<0|del|b>*<b|r|0> + (<0|r|b>*<b|del|0>)*] (Au)
       state          X           Y           Z        Dip. S.   Osc.(frdel)
         1        -0.0171     -0.0096     -0.0000      0.0266      0.0178

 Excitation energies and oscillator strengths:
 
 Excited State   1:      Singlet-A'     2.3939 eV  517.91 nm  f=0.0161  <S**2>=0.000
      47 -> 48         0.70337
 This state for optimization and/or second-order correction.
 Total Energy, E(TD-HF/TD-DFT) =  -539.646619888    
 Copying the excited state density for this state as the 1-particle RhoCI density.
 SavETr:  write IOETrn=   770 NScale= 10 NData=  16 NLR=1 NState=    1 LETran=      28.

 **********************************************************************

            Population analysis using the SCF Density.

 **********************************************************************

 Orbital symmetries:
       Occupied  (A') (A') (A') (A') (A') (A') (A') (A') (A') (A')
                 (A') (A') (A') (A') (A') (A') (A') (A') (A') (A')
                 (A') (A') (A') (A') (A') (A') (A') (A') (A') (A')
                 (A") (A') (A') (A') (A') (A') (A') (A") (A') (A")
                 (A') (A') (A') (A") (A") (A") (A")
       Virtual   (A") (A") (A") (A") (A') (A') (A') (A') (A") (A')
                 (A') (A") (A') (A') (A") (A') (A") (A') (A') (A')
                 (A") (A") (A') (A') (A') (A") (A') (A") (A') (A')
                 (A") (A') (A") (A') (A') (A') (A') (A') (A") (A')
                 (A") (A') (A') (A") (A") (A") (A') (A') (A") (A')
                 (A') (A') (A') (A') (A') (A") (A') (A') (A') (A')
                 (A') (A") (A') (A') (A') (A") (A') (A') (A') (A')
                 (A') (A') (A') (A') (A') (A') (A') (A') (A') (A')
                 (A') (A') (A') (A') (A') (A') (A') (A') (A') (A')
                 (A') (A') (A') (A') (A") (A") (A') (A") (A') (A')
                 (A") (A') (A') (A') (A") (A") (A') (A") (A') (A")
                 (A') (A') (A") (A') (A") (A') (A') (A") (A') (A")
                 (A") (A') (A") (A') (A') (A") (A') (A') (A') (A')
                 (A') (A') (A') (A') (A') (A') (A') (A') (A') (A')
                 (A') (A') (A') (A") (A') (A') (A') (A') (A') (A')
                 (A') (A") (A') (A') (A") (A') (A") (A") (A') (A")
                 (A") (A') (A') (A") (A') (A") (A") (A") (A') (A')
                 (A') (A') (A') (A") (A") (A') (A') (A') (A") (A')
                 (A') (A') (A') (A") (A") (A') (A') (A") (A") (A')
                 (A") (A') (A') (A") (A') (A") (A') (A') (A') (A')
                 (A") (A") (A") (A') (A") (A') (A") (A') (A') (A')
                 (A") (A') (A') (A") (A') (A") (A") (A') (A") (A')
                 (A') (A') (A') (A') (A") (A') (A') (A') (A") (A")
                 (A') (A') (A') (A") (A') (A') (A') (A") (A") (A')
                 (A") (A') (A') (A") (A') (A') (A') (A') (A') (A')
                 (A") (A') (A') (A') (A') (A") (A") (A") (A') (A')
                 (A') (A') (A') (A') (A') (A') (A") (A') (A') (A')
                 (A') (A') (A") (A") (A") (A") (A') (A") (A') (A")
                 (A') (A") (A") (A") (A") (A') (A') (A') (A') (A')
                 (A') (A') (A') (A') (A') (A') (A') (A') (A') (A')
                 (A') (A') (A') (A") (A') (A') (A') (A') (A') (A')
                 (A') (A') (A') (A') (A') (A') (A') (A') (A') (A')
                 (A') (A') (A') (A') (A') (A') (A') (A') (A') (A')
                 (A') (A')
 The electronic state is 1-A'.
 Alpha  occ. eigenvalues --  -10.78272 -10.73609 -10.73530 -10.72477 -10.72304
 Alpha  occ. eigenvalues --  -10.72195 -10.72191 -10.70917 -10.70510 -10.70095
 Alpha  occ. eigenvalues --  -10.70085 -10.69614 -10.69506 -10.69318  -1.16638
 Alpha  occ. eigenvalues --   -1.12387  -1.06827  -1.06149  -1.01232  -1.00530
 Alpha  occ. eigenvalues --   -0.95379  -0.90860  -0.86446  -0.85832  -0.83611
 Alpha  occ. eigenvalues --   -0.78164  -0.76279  -0.74171  -0.69861  -0.69270
 Alpha  occ. eigenvalues --   -0.68475  -0.68377  -0.67929  -0.65613  -0.64363
 Alpha  occ. eigenvalues --   -0.62318  -0.61110  -0.60460  -0.59181  -0.58862
 Alpha  occ. eigenvalues --   -0.56911  -0.55381  -0.54029  -0.52439  -0.47587
 Alpha  occ. eigenvalues --   -0.46249  -0.42969
 Alpha virt. eigenvalues --   -0.26400  -0.14801  -0.14185  -0.12722  -0.11257
 Alpha virt. eigenvalues --   -0.10107  -0.09279  -0.07972  -0.07899  -0.07491
 Alpha virt. eigenvalues --   -0.07329  -0.07276  -0.05654  -0.05575  -0.05407
 Alpha virt. eigenvalues --   -0.03900  -0.03675  -0.03267  -0.03108  -0.02147
 Alpha virt. eigenvalues --   -0.01309  -0.00949   0.00108   0.00512   0.00660
 Alpha virt. eigenvalues --    0.01051   0.01483   0.01931   0.02025   0.02275
 Alpha virt. eigenvalues --    0.02403   0.02557   0.02818   0.03342   0.03574
 Alpha virt. eigenvalues --    0.04204   0.04498   0.04601   0.04813   0.05242
 Alpha virt. eigenvalues --    0.05968   0.06138   0.06581   0.07077   0.07305
 Alpha virt. eigenvalues --    0.08020   0.08049   0.08209   0.08564   0.08851
 Alpha virt. eigenvalues --    0.09056   0.09512   0.09666   0.10714   0.10970
 Alpha virt. eigenvalues --    0.11246   0.11799   0.12279   0.12430   0.13125
 Alpha virt. eigenvalues --    0.13299   0.13487   0.14069   0.14146   0.15838
 Alpha virt. eigenvalues --    0.16275   0.16316   0.17267   0.17475   0.18080
 Alpha virt. eigenvalues --    0.18458   0.18591   0.19214   0.20060   0.20105
 Alpha virt. eigenvalues --    0.21135   0.21488   0.22365   0.23061   0.23478
 Alpha virt. eigenvalues --    0.24093   0.24744   0.25116   0.26919   0.27758
 Alpha virt. eigenvalues --    0.28804   0.29067   0.29458   0.31484   0.35425
 Alpha virt. eigenvalues --    0.36115   0.37842   0.39154   0.41010   0.41302
 Alpha virt. eigenvalues --    0.42009   0.42196   0.43041   0.43700   0.44615
 Alpha virt. eigenvalues --    0.44730   0.45034   0.45760   0.46333   0.47876
 Alpha virt. eigenvalues --    0.48225   0.48483   0.48924   0.50093   0.50625
 Alpha virt. eigenvalues --    0.51479   0.51734   0.52121   0.53252   0.54005
 Alpha virt. eigenvalues --    0.54558   0.54857   0.55545   0.56442   0.57554
 Alpha virt. eigenvalues --    0.58098   0.59494   0.61636   0.61984   0.62424
 Alpha virt. eigenvalues --    0.62894   0.62989   0.64954   0.65234   0.67343
 Alpha virt. eigenvalues --    0.70277   0.70508   0.71486   0.72619   0.72823
 Alpha virt. eigenvalues --    0.75225   0.75754   0.76523   0.76608   0.77249
 Alpha virt. eigenvalues --    0.77647   0.77811   0.78479   0.79640   0.80556
 Alpha virt. eigenvalues --    0.81191   0.81318   0.82794   0.83341   0.85445
 Alpha virt. eigenvalues --    0.86765   0.87791   0.88005   0.88721   0.90502
 Alpha virt. eigenvalues --    0.90951   0.92186   0.93638   0.94600   0.95972
 Alpha virt. eigenvalues --    0.96586   1.00048   1.00654   1.01455   1.02265
 Alpha virt. eigenvalues --    1.02932   1.03202   1.04811   1.05315   1.08760
 Alpha virt. eigenvalues --    1.15442   1.23091   1.24069   1.24473   1.30266
 Alpha virt. eigenvalues --    1.30762   1.32997   1.34236   1.34395   1.34513
 Alpha virt. eigenvalues --    1.38789   1.39680   1.40497   1.42452   1.43326
 Alpha virt. eigenvalues --    1.43509   1.44892   1.45780   1.46501   1.46743
 Alpha virt. eigenvalues --    1.47897   1.49650   1.51435   1.53892   1.54308
 Alpha virt. eigenvalues --    1.55461   1.55536   1.55946   1.58480   1.60619
 Alpha virt. eigenvalues --    1.62555   1.63405   1.64478   1.66324   1.67625
 Alpha virt. eigenvalues --    1.68608   1.69606   1.70215   1.73945   1.75522
 Alpha virt. eigenvalues --    1.78095   1.78139   1.79118   1.79912   1.81076
 Alpha virt. eigenvalues --    1.81837   1.82805   1.83027   1.83489   1.84132
 Alpha virt. eigenvalues --    1.85160   1.85728   1.85958   1.88534   1.91398
 Alpha virt. eigenvalues --    1.91820   1.94629   1.97198   1.97405   1.97720
 Alpha virt. eigenvalues --    1.99512   2.02624   2.03161   2.07421   2.11428
 Alpha virt. eigenvalues --    2.13738   2.14961   2.15038   2.18383   2.21567
 Alpha virt. eigenvalues --    2.22208   2.27625   2.29891   2.34080   2.35046
 Alpha virt. eigenvalues --    2.35828   2.38421   2.39619   2.41965   2.43392
 Alpha virt. eigenvalues --    2.45891   2.46810   2.47438   2.51790   2.52732
 Alpha virt. eigenvalues --    2.54438   2.56763   2.57954   2.58556   2.59318
 Alpha virt. eigenvalues --    2.60480   2.60952   2.62159   2.62971   2.64049
 Alpha virt. eigenvalues --    2.64963   2.65427   2.65593   2.67216   2.67743
 Alpha virt. eigenvalues --    2.68574   2.70773   2.70964   2.72777   2.74744
 Alpha virt. eigenvalues --    2.76160   2.77669   2.79725   2.82091   2.83601
 Alpha virt. eigenvalues --    2.84210   2.86368   2.92168   2.99151   2.99881
 Alpha virt. eigenvalues --    3.00753   3.05427   3.08030   3.11418   3.13976
 Alpha virt. eigenvalues --    3.19847   3.20687   3.24821   3.30257   3.31134
 Alpha virt. eigenvalues --    3.31774   3.34785   3.44160   3.45245   3.46894
 Alpha virt. eigenvalues --    3.47212   3.48182   3.56707   3.66812   3.67340
 Alpha virt. eigenvalues --    3.68317   3.92795   3.93224   3.94411   3.96463
 Alpha virt. eigenvalues --    4.03177   4.05897   4.07699   4.11510   4.35697
 Alpha virt. eigenvalues --    4.60349   4.67835   4.69229  23.45177  23.59398
 Alpha virt. eigenvalues --   23.76566  23.78758  23.82310  23.91044  23.91963
 Alpha virt. eigenvalues --   23.94544  23.95461  23.97043  24.03988  24.10330
 Alpha virt. eigenvalues --   24.12681  24.16129
          Condensed to atoms (all electrons):
               1          2          3          4          5          6
     1  C   11.464916   1.315315  -1.168803   1.792253  -0.295795  -0.029316
     2  C    1.315315   6.965883   0.297447  -0.275121  -0.115861  -0.015647
     3  C   -1.168803   0.297447   7.064358   0.171491   0.012322   0.003937
     4  C    1.792253  -0.275121   0.171491   8.554439   0.469248  -0.038376
     5  C   -0.295795  -0.115861   0.012322   0.469248   9.155147   0.282219
     6  C   -0.029316  -0.015647   0.003937  -0.038376   0.282219   6.550056
     7  C   -0.104214   0.028317  -0.014835  -0.087890  -0.347419   0.317762
     8  C   -0.521903  -0.095920  -0.060752  -0.002480   2.160523  -0.879402
     9  C   -3.164746  -0.672538   0.316450  -1.318577  -1.278659   0.089729
    10  C   -0.044988   0.220925  -0.586118  -0.714716  -0.219153  -0.628400
    11  C   -2.176998  -1.803709   1.191547  -2.929245  -1.725731  -0.091712
    12  C   -0.815521   0.498635  -0.400917   0.681142   1.277364  -0.381658
    13  C    0.614193  -0.043068  -0.377409  -1.033107  -4.105465   1.370907
    14  C   -1.230109  -0.249562  -0.322787   0.233115   0.250215  -0.449021
    15  H    0.381932  -0.074269   0.001886   0.020794   0.002464   0.001305
    16  H   -0.042729   0.382093  -0.016005  -0.002550  -0.001182  -0.000364
    17  H   -0.010022  -0.033120   0.405562  -0.062050  -0.000847   0.000326
    18  H    0.043026   0.002204  -0.116959   0.441753   0.016682  -0.002776
    19  H   -0.021133  -0.004956   0.026067  -0.073460  -0.091884   0.037144
    20  H    0.006978   0.001378  -0.003052   0.017513   0.426563  -0.092235
    21  H   -0.002037  -0.000375   0.000429  -0.000054  -0.037615   0.373684
    22  H    0.001559   0.000449  -0.000394  -0.000951  -0.006526   0.001498
    23  H   -0.013881  -0.004913   0.000854   0.003214   0.028623   0.002021
    24  H    0.059853   0.017979  -0.001482  -0.012942  -0.021305  -0.000707
    25  H    0.059853   0.017979  -0.001482  -0.012942  -0.021305  -0.000707
               7          8          9         10         11         12
     1  C   -0.104214  -0.521903  -3.164746  -0.044988  -2.176998  -0.815521
     2  C    0.028317  -0.095920  -0.672538   0.220925  -1.803709   0.498635
     3  C   -0.014835  -0.060752   0.316450  -0.586118   1.191547  -0.400917
     4  C   -0.087890  -0.002480  -1.318577  -0.714716  -2.929245   0.681142
     5  C   -0.347419   2.160523  -1.278659  -0.219153  -1.725731   1.277364
     6  C    0.317762  -0.879402   0.089729  -0.628400  -0.091712  -0.381658
     7  C    6.769532   0.865577  -0.346755   0.324672  -0.111766  -0.145662
     8  C    0.865577  10.562084  -2.441666   0.119022  -0.573022  -0.593523
     9  C   -0.346755  -2.441666   9.442563   0.273881   2.758899  -0.240164
    10  C    0.324672   0.119022   0.273881   9.760119  -1.646676   0.771745
    11  C   -0.111766  -0.573022   2.758899  -1.646676  17.490423  -3.154312
    12  C   -0.145662  -0.593523  -0.240164   0.771745  -3.154312  14.306642
    13  C   -1.724772  -2.991142   2.142576  -2.676953   3.527631  -5.363554
    14  C    0.659139   0.123367  -0.032303   0.571741  -4.502080  -0.596453
    15  H   -0.004496  -0.011791   0.042808   0.000648  -0.022364   0.018464
    16  H    0.000485   0.002229   0.005741  -0.015001   0.076734  -0.050449
    17  H   -0.000344  -0.002161   0.002136   0.005139   0.021564   0.025238
    18  H    0.001075   0.009885  -0.029307   0.049481  -0.030260  -0.050839
    19  H   -0.003279  -0.050808   0.064152   0.402668   0.076408  -0.123454
    20  H    0.001435   0.048434  -0.030003   0.066596  -0.006830   0.017708
    21  H   -0.026983  -0.008846   0.000870   0.017744  -0.006850   0.003262
    22  H    0.373109  -0.044319   0.001551  -0.014330   0.005025  -0.007276
    23  H   -0.063843   0.358780   0.050086   0.000133  -0.026927   0.007861
    24  H    0.012960   0.016349   0.354504   0.004998   0.032691  -0.072632
    25  H    0.012960   0.016349   0.354504   0.004998   0.032691  -0.072632
              13         14         15         16         17         18
     1  C    0.614193  -1.230109   0.381932  -0.042729  -0.010022   0.043026
     2  C   -0.043068  -0.249562  -0.074269   0.382093  -0.033120   0.002204
     3  C   -0.377409  -0.322787   0.001886  -0.016005   0.405562  -0.116959
     4  C   -1.033107   0.233115   0.020794  -0.002550  -0.062050   0.441753
     5  C   -4.105465   0.250215   0.002464  -0.001182  -0.000847   0.016682
     6  C    1.370907  -0.449021   0.001305  -0.000364   0.000326  -0.002776
     7  C   -1.724772   0.659139  -0.004496   0.000485  -0.000344   0.001075
     8  C   -2.991142   0.123367  -0.011791   0.002229  -0.002161   0.009885
     9  C    2.142576  -0.032303   0.042808   0.005741   0.002136  -0.029307
    10  C   -2.676953   0.571741   0.000648  -0.015001   0.005139   0.049481
    11  C    3.527631  -4.502080  -0.022364   0.076734   0.021564  -0.030260
    12  C   -5.363554  -0.596453   0.018464  -0.050449   0.025238  -0.050839
    13  C   18.876422  -2.107898  -0.023249   0.006464  -0.007546   0.002628
    14  C   -2.107898  13.629005   0.003150  -0.010517   0.001101  -0.003951
    15  H   -0.023249   0.003150   0.432497  -0.008662   0.001323   0.000167
    16  H    0.006464  -0.010517  -0.008662   0.410779  -0.007206   0.002089
    17  H   -0.007546   0.001101   0.001323  -0.007206   0.421150  -0.010197
    18  H    0.002628  -0.003951   0.000167   0.002089  -0.010197   0.444144
    19  H    0.102066   0.027475   0.000368  -0.000353   0.001106  -0.003844
    20  H   -0.032775  -0.089534  -0.000145   0.000028  -0.000132   0.000951
    21  H   -0.007244   0.040292  -0.000002  -0.000007   0.000007  -0.000093
    22  H    0.070899  -0.045765  -0.000145   0.000010  -0.000007   0.000020
    23  H   -0.039040   0.027378   0.000606  -0.000147  -0.000012  -0.000069
    24  H    0.019307  -0.075116  -0.000820   0.000625  -0.000126   0.000129
    25  H    0.019307  -0.075116  -0.000820   0.000625  -0.000126   0.000129
              19         20         21         22         23         24
     1  C   -0.021133   0.006978  -0.002037   0.001559  -0.013881   0.059853
     2  C   -0.004956   0.001378  -0.000375   0.000449  -0.004913   0.017979
     3  C    0.026067  -0.003052   0.000429  -0.000394   0.000854  -0.001482
     4  C   -0.073460   0.017513  -0.000054  -0.000951   0.003214  -0.012942
     5  C   -0.091884   0.426563  -0.037615  -0.006526   0.028623  -0.021305
     6  C    0.037144  -0.092235   0.373684   0.001498   0.002021  -0.000707
     7  C   -0.003279   0.001435  -0.026983   0.373109  -0.063843   0.012960
     8  C   -0.050808   0.048434  -0.008846  -0.044319   0.358780   0.016349
     9  C    0.064152  -0.030003   0.000870   0.001551   0.050086   0.354504
    10  C    0.402668   0.066596   0.017744  -0.014330   0.000133   0.004998
    11  C    0.076408  -0.006830  -0.006850   0.005025  -0.026927   0.032691
    12  C   -0.123454   0.017708   0.003262  -0.007276   0.007861  -0.072632
    13  C    0.102066  -0.032775  -0.007244   0.070899  -0.039040   0.019307
    14  C    0.027475  -0.089534   0.040292  -0.045765   0.027378  -0.075116
    15  H    0.000368  -0.000145  -0.000002  -0.000145   0.000606  -0.000820
    16  H   -0.000353   0.000028  -0.000007   0.000010  -0.000147   0.000625
    17  H    0.001106  -0.000132   0.000007  -0.000007  -0.000012  -0.000126
    18  H   -0.003844   0.000951  -0.000093   0.000020  -0.000069   0.000129
    19  H    0.425660  -0.004632   0.000633  -0.000294  -0.000169   0.000922
    20  H   -0.004632   0.450691  -0.009153   0.001674  -0.000053   0.000258
    21  H    0.000633  -0.009153   0.427250  -0.005716   0.001106  -0.000162
    22  H   -0.000294   0.001674  -0.005716   0.422276  -0.008389   0.000675
    23  H   -0.000169  -0.000053   0.001106  -0.008389   0.447127  -0.001323
    24  H    0.000922   0.000258  -0.000162   0.000675  -0.001323   0.497206
    25  H    0.000922   0.000258  -0.000162   0.000675  -0.001323  -0.080858
              25
     1  C    0.059853
     2  C    0.017979
     3  C   -0.001482
     4  C   -0.012942
     5  C   -0.021305
     6  C   -0.000707
     7  C    0.012960
     8  C    0.016349
     9  C    0.354504
    10  C    0.004998
    11  C    0.032691
    12  C   -0.072632
    13  C    0.019307
    14  C   -0.075116
    15  H   -0.000820
    16  H    0.000625
    17  H   -0.000126
    18  H    0.000129
    19  H    0.000922
    20  H    0.000258
    21  H   -0.000162
    22  H    0.000675
    23  H   -0.001323
    24  H   -0.080858
    25  H    0.497206
 Mulliken charges:
               1
     1  C   -0.097682
     2  C   -0.359545
     3  C   -0.421353
     4  C    0.179501
     5  C    0.187378
     6  C   -0.420268
     7  C   -0.384763
     8  C   -0.004864
     9  C   -0.345733
    10  C   -0.048174
    11  C   -0.405133
    12  C    0.460985
    13  C   -0.219177
    14  C    0.224234
    15  H    0.238350
    16  H    0.267272
    17  H    0.249242
    18  H    0.233931
    19  H    0.212676
    20  H    0.228076
    21  H    0.240023
    22  H    0.254690
    23  H    0.232300
    24  H    0.249016
    25  H    0.249016
 Sum of Mulliken charges =   1.00000
 Mulliken charges with hydrogens summed into heavy atoms:
               1
     1  C    0.140669
     2  C   -0.092274
     3  C   -0.172112
     4  C    0.413432
     5  C    0.415455
     6  C   -0.180244
     7  C   -0.130073
     8  C    0.227435
     9  C    0.152300
    10  C    0.164502
    11  C   -0.405133
    12  C    0.460985
    13  C   -0.219177
    14  C    0.224234
 Electronic spatial extent (au):  <R**2>=           2853.4947
 Charge=              1.0000 electrons
 Dipole moment (field-independent basis, Debye):
    X=             -0.5586    Y=             -1.3799    Z=              0.0000  Tot=              1.4886
 Quadrupole moment (field-independent basis, Debye-Ang):
   XX=            -51.9655   YY=            -35.5629   ZZ=            -84.2146
   XY=              9.1838   XZ=             -0.0000   YZ=              0.0000
 Traceless Quadrupole moment (field-independent basis, Debye-Ang):
   XX=              5.2822   YY=             21.6847   ZZ=            -26.9669
   XY=              9.1838   XZ=             -0.0000   YZ=              0.0000
 Octapole moment (field-independent basis, Debye-Ang**2):
  XXX=             -4.6165  YYY=             -5.5549  ZZZ=             -0.0000  XYY=             -5.6773
  XXY=            -11.1677  XXZ=              0.0000  XZZ=             -3.9259  YZZ=             -0.6115
  YYZ=              0.0000  XYZ=             -0.0000
 Hexadecapole moment (field-independent basis, Debye-Ang**3):
 XXXX=           -912.9026 YYYY=          -1910.0040 ZZZZ=            -99.5359 XXXY=           -323.3080
 XXXZ=             -0.0000 YYYX=           -248.7642 YYYZ=              0.0000 ZZZX=              0.0000
 ZZZY=             -0.0000 XXYY=           -461.2047 XXZZ=           -223.5281 YYZZ=           -513.9717
 XXYZ=              0.0000 YYXZ=             -0.0000 ZZXY=           -168.1157
 N-N= 7.812323546381D+02 E-N=-2.798758359673D+03  KE= 5.374801268413D+02
 Symmetry A'   KE= 5.228182578985D+02
 Symmetry A"   KE= 1.466186894281D+01
 Unable to Open any file for archive entry.
 1\1\GINC-GADI-CPU-CLX-2808\SP\RM062X TD-FC\6-311++G(d,p)\C14H11(1+)\TS
 1578\02-Aug-2022\0\\#n M062X/6-311++G(d,p) TD(NStates=1) EmpiricalDisp
 ersion=GD3 SP\\SP_2\\1,1\C,0,0.,2.382655,1.372431\C,0,0.,3.629508,0.75
 7989\C,0,0.,3.695861,-0.64383\C,0,0.,2.575156,-1.411538\C,0,0.,-2.4951
 56,-1.379538\C,0,0.,-3.731861,-0.57983\C,0,0.,-3.701508,0.789989\C,0,0
 .,-2.446655,1.372431\C,0,0.,-0.016,1.363369\C,0,0.,0.058,-1.519189\C,0
 ,0.,1.262055,0.621065\C,0,0.,1.267471,-0.810804\C,0,0.,-1.226055,0.577
 065\C,0,0.,-1.231471,-0.806804\H,0,0.,2.304071,2.455647\H,0,0.,4.53475
 3,1.353689\H,0,0.,4.667262,-1.120349\H,0,0.,2.64755,-2.494059\H,0,0.,0
 .05,-2.606266\H,0,0.,-2.61155,-2.462059\H,0,0.,-4.671262,-1.112349\H,0
 ,0.,-4.606753,1.381689\H,0,0.,-2.324071,2.455647\H,0,-0.859585,-0.088,
 2.055787\H,0,0.859585,-0.088,2.055787\\Version=ES64L-G16RevC.01\State=
 1-A'\HF=-539.7345954\RMSD=4.721e-09\PG=CS [SG(C14H9),X(H2)]\\@
 The archive entry for this job was punched.


 IT IS A PROFOUNDLY ERRONEOUS TRUISM ... THAT WE SHOULD CULTIVATE
 THE HABIT OF THINKING OF WHAT WE ARE DOING.
 THE PRECISE OPPOSITE IS THE CASE.
 CIVILIZATION ADVANCES BY EXTENDING THE NUMBER OF IMPORTANT OPERATIONS
 WHICH WE CAN PERFORM WITHOUT THINKING ABOUT THEM.

                                    -- ALFRED NORTH WHITEHEAD
 Job cpu time:       0 days  0 hours 53 minutes 24.1 seconds.
 Elapsed time:       0 days  0 hours  1 minutes  6.9 seconds.
 File lengths (MBytes):  RWF=    460 Int=      0 D2E=      0 Chk=     15 Scr=      1
 Normal termination of Gaussian 16 at Tue Aug  2 12:46:53 2022.
