 Entering Gaussian System, Link 0=g16
 Initial command:
 /apps/gaussian/g16c01/g16/l1.exe "/jobfs/52822737.gadi-pbs/Gau-2059837.inp" -scrdir="/jobfs/52822737.gadi-pbs/"
 Entering Link 1 = /apps/gaussian/g16c01/g16/l1.exe PID=   2059838.
  
 Copyright (c) 1988-2019, Gaussian, Inc.  All Rights Reserved.
  
 This is part of the Gaussian(R) 16 program.  It is based on
 the Gaussian(R) 09 system (copyright 2009, Gaussian, Inc.),
 the Gaussian(R) 03 system (copyright 2003, Gaussian, Inc.),
 the Gaussian(R) 98 system (copyright 1998, Gaussian, Inc.),
 the Gaussian(R) 94 system (copyright 1995, Gaussian, Inc.),
 the Gaussian 92(TM) system (copyright 1992, Gaussian, Inc.),
 the Gaussian 90(TM) system (copyright 1990, Gaussian, Inc.),
 the Gaussian 88(TM) system (copyright 1988, Gaussian, Inc.),
 the Gaussian 86(TM) system (copyright 1986, Carnegie Mellon
 University), and the Gaussian 82(TM) system (copyright 1983,
 Carnegie Mellon University). Gaussian is a federally registered
 trademark of Gaussian, Inc.
  
 This software contains proprietary and confidential information,
 including trade secrets, belonging to Gaussian, Inc.
  
 This software is provided under written license and may be
 used, copied, transmitted, or stored only in accord with that
 written license.
  
 The following legend is applicable only to US Government
 contracts under FAR:
  
                    RESTRICTED RIGHTS LEGEND
  
 Use, reproduction and disclosure by the US Government is
 subject to restrictions as set forth in subparagraphs (a)
 and (c) of the Commercial Computer Software - Restricted
 Rights clause in FAR 52.227-19.
  
 Gaussian, Inc.
 340 Quinnipiac St., Bldg. 40, Wallingford CT 06492
  
  
 ---------------------------------------------------------------
 Warning -- This program may not be used in any manner that
 competes with the business of Gaussian, Inc. or will provide
 assistance to any competitor of Gaussian, Inc.  The licensee
 of this program is prohibited from giving any competitor of
 Gaussian, Inc. access to this program.  By using this program,
 the user acknowledges that Gaussian, Inc. is engaged in the
 business of creating and licensing software in the field of
 computational chemistry and represents and warrants to the
 licensee that it is not a competitor of Gaussian, Inc. and that
 it will not use this program in any manner prohibited above.
 ---------------------------------------------------------------
  

 Cite this work as:
 Gaussian 16, Revision C.01,
 M. J. Frisch, G. W. Trucks, H. B. Schlegel, G. E. Scuseria, 
 M. A. Robb, J. R. Cheeseman, G. Scalmani, V. Barone, 
 G. A. Petersson, H. Nakatsuji, X. Li, M. Caricato, A. V. Marenich, 
 J. Bloino, B. G. Janesko, R. Gomperts, B. Mennucci, H. P. Hratchian, 
 J. V. Ortiz, A. F. Izmaylov, J. L. Sonnenberg, D. Williams-Young, 
 F. Ding, F. Lipparini, F. Egidi, J. Goings, B. Peng, A. Petrone, 
 T. Henderson, D. Ranasinghe, V. G. Zakrzewski, J. Gao, N. Rega, 
 G. Zheng, W. Liang, M. Hada, M. Ehara, K. Toyota, R. Fukuda, 
 J. Hasegawa, M. Ishida, T. Nakajima, Y. Honda, O. Kitao, H. Nakai, 
 T. Vreven, K. Throssell, J. A. Montgomery, Jr., J. E. Peralta, 
 F. Ogliaro, M. J. Bearpark, J. J. Heyd, E. N. Brothers, K. N. Kudin, 
 V. N. Staroverov, T. A. Keith, R. Kobayashi, J. Normand, 
 K. Raghavachari, A. P. Rendell, J. C. Burant, S. S. Iyengar, 
 J. Tomasi, M. Cossi, J. M. Millam, M. Klene, C. Adamo, R. Cammi, 
 J. W. Ochterski, R. L. Martin, K. Morokuma, O. Farkas, 
 J. B. Foresman, and D. J. Fox, Gaussian, Inc., Wallingford CT, 2019.
 
 ******************************************
 Gaussian 16:  ES64L-G16RevC.01  3-Jul-2019
                27-Jul-2022 
 ******************************************
 %NProcShared=32
 Will use up to   32 processors via shared memory.
 %mem = 128GB
 ---------------------------------------------------------------
 #n M062X/6-311++G(d,p) TD(NStates=1) EmpiricalDispersion=GD3 SP
 ---------------------------------------------------------------
 1/38=1,172=1/1;
 2/12=2,17=6,18=5,40=1/2;
 3/5=4,6=6,7=1111,11=9,25=1,30=1,74=-55,124=31/1,2,3,8;
 4//1;
 5/5=2,38=5/2;
 8/6=1,10=2,108=1/1;
 9/41=1,42=1,70=2/14;
 6/7=2,8=2,9=2,10=2/1;
 99/5=1,9=1/99;
 -----
 SP_14
 -----
 Symbolic Z-matrix:
 Charge =  1 Multiplicity = 1
 C                     0.        2.48146   1.36183 
 C                     0.        3.66791   0.65939 
 C                     0.        3.66846  -0.73763 
 C                     0.        2.49396  -1.42294 
 C                     0.       -2.43236  -1.39214 
 C                     0.       -3.69926  -0.69003 
 C                     0.       -3.73511   0.68459 
 C                     0.       -2.50386   1.35903 
 C                     0.       -0.0224    1.45337 
 C                     0.        0.0182   -1.42919 
 C                     0.        1.28165   0.67147 
 C                     0.        1.26267  -0.707 
 C                     0.       -1.24246   0.68267 
 C                     0.       -1.21227  -0.7546 
 H                     0.        2.43767   2.44365 
 H                     0.        4.58915   1.22289 
 H                     0.        4.58826  -1.30315 
 H                     0.        2.52915  -2.50406 
 H                     0.        0.056    -2.51027 
 H                     0.       -2.40595  -2.47606 
 H                     0.       -4.63026  -1.24155 
 H                     0.       -4.68435   1.20049 
 H                     0.       -2.53847   2.44365 
 H                    -0.85959  -0.098     2.14579 
 H                     0.85959  -0.098     2.14579 
 
                          Input orientation:                          
 ---------------------------------------------------------------------
 Center     Atomic      Atomic             Coordinates (Angstroms)
 Number     Number       Type             X           Y           Z
 ---------------------------------------------------------------------
      1          6           0        0.000000    2.481455    1.361831
      2          6           0        0.000000    3.667908    0.659389
      3          6           0        0.000000    3.668461   -0.737630
      4          6           0        0.000000    2.493956   -1.422938
      5          6           0        0.000000   -2.432356   -1.392138
      6          6           0        0.000000   -3.699261   -0.690030
      7          6           0        0.000000   -3.735108    0.684589
      8          6           0        0.000000   -2.503855    1.359031
      9          6           0        0.000000   -0.022400    1.453369
     10          6           0        0.000000    0.018200   -1.429189
     11          6           0        0.000000    1.281655    0.671465
     12          6           0        0.000000    1.262671   -0.707004
     13          6           0        0.000000   -1.242455    0.682665
     14          6           0        0.000000   -1.212271   -0.754604
     15          1           0        0.000000    2.437671    2.443647
     16          1           0        0.000000    4.589153    1.222889
     17          1           0        0.000000    4.588262   -1.303149
     18          1           0        0.000000    2.529150   -2.504059
     19          1           0        0.000000    0.056000   -2.510266
     20          1           0        0.000000   -2.405950   -2.476059
     21          1           0        0.000000   -4.630262   -1.241549
     22          1           0        0.000000   -4.684353    1.200489
     23          1           0        0.000000   -2.538471    2.443647
     24          1           0       -0.859585   -0.098000    2.145787
     25          1           0        0.859585   -0.098000    2.145787
 ---------------------------------------------------------------------
                    Distance matrix (angstroms):
                    1          2          3          4          5
     1  C    0.000000
     2  C    1.378802   0.000000
     3  C    2.411788   1.397019   0.000000
     4  C    2.784797   2.390450   1.359819   0.000000
     5  C    5.632929   6.435991   6.135825   4.926408   0.000000
     6  C    6.512402   7.489734   7.367876   6.236433   1.448449
     7  C    6.253344   7.403059   7.538935   6.575934   2.451522
     8  C    4.985311   6.211293   6.518702   5.719918   2.752098
     9  C    2.505528   3.774755   4.292194   3.821674   3.728914
    10  C    3.722555   4.205060   3.715193   2.475764   2.450836
    11  C    1.384242   2.386284   2.771713   2.419958   4.248804
    12  C    2.401148   2.766260   2.405985   1.424298   3.758009
    13  C    3.785336   4.910418   5.112175   4.288861   2.391793
    14  C    4.257101   5.080898   4.880762   3.766004   1.376611
    15  H    1.082702   2.167270   3.411065   3.866995   6.199227
    16  H    2.112273   1.079919   2.165943   3.374945   7.492660
    17  H    3.397169   2.167627   1.079743   2.097729   7.021182
    18  H    3.866184   3.362168   2.101975   1.081694   5.084576
    19  H    4.569023   4.805475   4.023942   2.669440   2.728026
    20  H    6.214188   6.835407   6.318275   5.011800   1.084243
    21  H    7.573249   8.513119   8.314009   7.126527   2.203059
    22  H    7.167624   8.369770   8.574719   7.642676   3.434124
    23  H    5.135171   6.457764   6.974706   6.346322   3.837253
    24  H    2.829675   4.138880   4.820706   4.493653   4.324930
    25  H    2.829675   4.138880   4.820706   4.493653   4.324930
                    6          7          8          9         10
     6  C    0.000000
     7  C    1.375086   0.000000
     8  C    2.372266   1.403872   0.000000
     9  C    4.255992   3.791467   2.483248   0.000000
    10  C    3.790234   4.307595   3.759645   2.882844   0.000000
    11  C    5.163641   5.016780   3.847445   1.520504   2.451340
    12  C    4.961961   5.187902   4.295954   2.513686   1.438840
    13  C    2.814283   2.492654   1.431293   1.443094   2.459508
    14  C    2.487828   2.904476   2.477023   2.508174   1.403255
    15  H    6.890709   6.418527   5.059157   2.651905   4.566476
    16  H    8.506296   8.341648   7.094314   4.617309   5.284612
    17  H    8.310172   8.557429   7.575310   5.371834   4.571800
    18  H    6.487203   7.029111   6.344652   4.708677   2.731339
    19  H    4.173158   4.957782   4.639431   3.964410   1.081738
    20  H    2.205120   3.428754   3.836339   4.595837   2.640538
    21  H    1.082098   2.123984   3.359259   5.338068   4.652248
    22  H    2.131776   1.080379   2.186254   4.668806   5.387876
    23  H    3.341761   2.127493   1.085168   2.703935   4.640628
    24  H    4.663671   4.012797   2.673202   1.106365   3.678701
    25  H    4.663671   4.012797   2.673202   1.106365   3.678701
                   11         12         13         14         15
    11  C    0.000000
    12  C    1.378600   0.000000
    13  C    2.524135   2.864758   0.000000
    14  C    2.872863   2.475400   1.437586   0.000000
    15  H    2.115893   3.362622   4.079753   4.852926   0.000000
    16  H    3.353149   3.845773   5.856577   6.129192   2.473686
    17  H    3.851331   3.378601   6.159604   5.826413   4.320130
    18  H    3.411773   2.198494   4.937632   4.130233   4.948552
    19  H    3.409640   2.169749   3.446853   2.165839   5.496691
    20  H    4.848230   4.072878   3.366193   2.094821   6.903924
    21  H    6.213726   5.917127   3.896131   3.452503   7.970969
    22  H    5.989417   6.245448   3.480633   3.984688   7.229707
    23  H    4.211175   4.937133   2.186485   3.462314   4.976142
    24  H    2.194529   3.275474   2.046800   3.223779   2.693925
    25  H    2.194529   3.275474   2.046800   3.223779   2.693925
                   16         17         18         19         20
    16  H    0.000000
    17  H    2.526038   0.000000
    18  H    4.258375   2.383721   0.000000
    19  H    5.872472   4.690259   2.473158   0.000000
    20  H    7.912881   7.091877   4.935179   2.462188   0.000000
    21  H    9.543116   9.218730   7.269877   4.854966   2.543930
    22  H    9.273533   9.604665   8.109149   6.020021   4.325289
    23  H    7.231409   8.051634   7.082413   5.592185   4.921491
    24  H    4.853868   5.881760   5.409424   4.737239   5.237077
    25  H    4.853868   5.881760   5.409424   4.737239   5.237077
                   21         22         23         24         25
    21  H    0.000000
    22  H    2.442637   0.000000
    23  H    4.237483   2.479970   0.000000
    24  H    5.723140   4.760999   2.604516   0.000000
    25  H    5.723140   4.760999   2.604516   1.719170   0.000000
 Stoichiometry    C14H11(1+)
 Framework group  CS[SG(C14H9),X(H2)]
 Deg. of freedom    46
 Full point group                 CS      NOp   2
 Largest Abelian subgroup         CS      NOp   2
 Largest concise Abelian subgroup CS      NOp   2
                         Standard orientation:                         
 ---------------------------------------------------------------------
 Center     Atomic      Atomic             Coordinates (Angstroms)
 Number     Number       Type             X           Y           Z
 ---------------------------------------------------------------------
      1          6           0       -2.389475   -1.519075    0.000000
      2          6           0       -2.345643   -2.897180    0.000000
      3          6           0       -1.121764   -3.570813    0.000000
      4          6           0        0.044672   -2.871859    0.000000
      5          6           0        2.391407    1.459692    0.000000
      6          6           0        2.386634    2.908133    0.000000
      7          6           0        1.199389    3.601899    0.000000
      8          6           0        0.015131    2.847983    0.000000
      9          6           0       -1.263213    0.719050    0.000000
     10          6           0        1.243083   -0.705475    0.000000
     11          6           0       -1.206418   -0.800393    0.000000
     12          6           0        0.010620   -1.447968    0.000000
     13          6           0       -0.000000    1.416770    0.000000
     14          6           0        1.244871    0.697778    0.000000
     15          1           0       -3.316325   -0.959440    0.000000
     16          1           0       -3.283312   -3.432906    0.000000
     17          1           0       -1.069427   -4.649287    0.000000
     18          1           0        0.975053   -3.423632    0.000000
     19          1           0        2.172169   -1.259510    0.000000
     20          1           0        3.328476    0.914270    0.000000
     21          1           0        3.318505    3.458181    0.000000
     22          1           0        1.204719    4.682265    0.000000
     23          1           0       -0.918591    3.400934    0.000000
     24          1           0       -1.833520    1.118934    0.859585
     25          1           0       -1.833520    1.118934   -0.859585
 ---------------------------------------------------------------------
 Rotational constants (GHZ):           2.1364234           0.4445503           0.3687802
 Standard basis: 6-311++G(d,p) (5D, 7F)
 There are   299 symmetry adapted cartesian basis functions of A'  symmetry.
 There are   100 symmetry adapted cartesian basis functions of A"  symmetry.
 There are   285 symmetry adapted basis functions of A'  symmetry.
 There are   100 symmetry adapted basis functions of A"  symmetry.
   385 basis functions,   603 primitive gaussians,   399 cartesian basis functions
    47 alpha electrons       47 beta electrons
       nuclear repulsion energy       781.2638634248 Hartrees.
 NAtoms=   25 NActive=   25 NUniq=   24 SFac= 1.09D+00 NAtFMM=   60 NAOKFM=F Big=F
 Integral buffers will be    131072 words long.
 Regular integral format.
 Two-electron integral symmetry is turned on.
 Nuclear repulsion after empirical dispersion term =      781.2628846435 Hartrees.
 One-electron integrals computed using PRISM.
 NBasis=   385 RedAO= T EigKep=  1.09D-06  NBF=   285   100
 NBsUse=   379 1.00D-06 EigRej=  8.23D-07 NBFU=   279   100
 ExpMin= 3.60D-02 ExpMax= 4.56D+03 ExpMxC= 6.82D+02 IAcc=3 IRadAn=         5 AccDes= 0.00D+00
 Harris functional with IExCor= 1009 and IRadAn=       5 diagonalized for initial guess.
 HarFok:  IExCor= 1009 AccDes= 0.00D+00 IRadAn=         5 IDoV= 1 UseB2=F ITyADJ=14
 ICtDFT=  3500011 ScaDFX=  1.000000  1.000000  1.000000  1.000000
 FoFCou: FMM=F IPFlag=           0 FMFlag=      100000 FMFlg1=           0
         NFxFlg=           0 DoJE=T BraDBF=F KetDBF=T FulRan=T
         wScrn=  0.000000 ICntrl=       500 IOpCl=  0 I1Cent=   200000004 NGrid=           0
         NMat0=    1 NMatS0=      1 NMatT0=    0 NMatD0=    1 NMtDS0=    0 NMtDT0=    0
 Petite list used in FoFCou.
 Initial guess orbital symmetries:
       Occupied  (A') (A') (A') (A') (A') (A') (A') (A') (A') (A')
                 (A') (A') (A') (A') (A') (A') (A') (A') (A') (A')
                 (A') (A') (A') (A') (A') (A') (A') (A') (A') (A')
                 (A') (A') (A") (A') (A') (A') (A') (A') (A") (A')
                 (A") (A') (A') (A") (A") (A") (A")
       Virtual   (A") (A") (A") (A") (A") (A') (A') (A') (A') (A")
                 (A") (A') (A') (A') (A") (A') (A') (A') (A') (A")
                 (A') (A") (A') (A') (A') (A") (A') (A') (A") (A')
                 (A') (A') (A') (A") (A') (A') (A") (A') (A') (A")
                 (A') (A') (A') (A") (A') (A') (A') (A') (A') (A")
                 (A') (A") (A') (A") (A') (A') (A') (A") (A") (A')
                 (A') (A') (A') (A') (A') (A') (A") (A') (A') (A")
                 (A') (A') (A') (A') (A') (A') (A') (A') (A') (A')
                 (A') (A') (A') (A') (A') (A') (A') (A') (A') (A')
                 (A') (A') (A') (A') (A') (A') (A') (A") (A") (A')
                 (A') (A") (A') (A") (A') (A") (A') (A") (A") (A')
                 (A") (A') (A') (A') (A") (A') (A') (A") (A") (A')
                 (A") (A") (A') (A') (A') (A") (A') (A') (A') (A")
                 (A') (A') (A') (A') (A') (A') (A") (A') (A') (A')
                 (A') (A') (A') (A') (A') (A') (A') (A') (A') (A")
                 (A") (A') (A") (A") (A') (A') (A") (A') (A") (A')
                 (A") (A') (A") (A") (A") (A') (A') (A') (A') (A')
                 (A') (A") (A') (A') (A') (A") (A') (A') (A') (A')
                 (A") (A') (A') (A") (A') (A') (A") (A') (A") (A")
                 (A") (A') (A') (A') (A") (A') (A') (A") (A') (A')
                 (A") (A") (A") (A') (A') (A") (A') (A") (A') (A')
                 (A") (A') (A") (A") (A') (A') (A") (A') (A') (A')
                 (A") (A') (A') (A') (A") (A') (A') (A') (A") (A")
                 (A') (A') (A') (A") (A') (A') (A") (A') (A") (A')
                 (A") (A') (A') (A') (A') (A") (A') (A') (A') (A")
                 (A') (A') (A') (A") (A") (A') (A') (A") (A') (A')
                 (A') (A") (A') (A") (A') (A') (A") (A') (A") (A')
                 (A') (A') (A') (A') (A") (A') (A") (A') (A") (A')
                 (A") (A') (A") (A") (A') (A") (A') (A') (A') (A')
                 (A') (A') (A') (A') (A') (A') (A') (A') (A') (A')
                 (A') (A') (A') (A') (A") (A') (A') (A') (A') (A')
                 (A') (A') (A') (A') (A') (A') (A') (A') (A') (A')
                 (A') (A') (A') (A') (A') (A') (A') (A') (A') (A')
                 (A') (A')
 The electronic state of the initial guess is 1-A'.
 Requested convergence on RMS density matrix=1.00D-08 within 128 cycles.
 Requested convergence on MAX density matrix=1.00D-06.
 Requested convergence on             energy=1.00D-06.
 No special actions if energy rises.
 SCF Done:  E(RM062X) =  -539.747917039     A.U. after   16 cycles
            NFock= 16  Conv=0.32D-08     -V/T= 2.0041
 DoSCS=F DFT=T ScalE2(SS,OS)=  1.000000  1.000000
 ExpMin= 3.60D-02 ExpMax= 4.56D+03 ExpMxC= 6.82D+02 IAcc=3 IRadAn=         5 AccDes= 0.00D+00
 HarFok:  IExCor=  205 AccDes= 0.00D+00 IRadAn=         5 IDoV=-2 UseB2=F ITyADJ=14
 ICtDFT= 12500011 ScaDFX=  1.000000  1.000000  1.000000  1.000000
 Range of M.O.s used for correlation:    15   379
 NBasis=   385 NAE=    47 NBE=    47 NFC=    14 NFV=     0
 NROrb=    365 NOA=    33 NOB=    33 NVA=   332 NVB=   332

 **** Warning!!: The largest alpha MO coefficient is  0.15696605D+03

 Orbital symmetries:
       Occupied  (A') (A') (A') (A') (A') (A') (A') (A') (A') (A')
                 (A') (A') (A') (A') (A') (A') (A') (A') (A') (A')
                 (A') (A') (A') (A') (A') (A') (A') (A') (A') (A')
                 (A') (A') (A") (A') (A') (A') (A') (A") (A") (A')
                 (A') (A') (A') (A") (A") (A") (A")
       Virtual   (A") (A") (A") (A") (A') (A') (A') (A') (A") (A')
                 (A') (A") (A') (A') (A") (A') (A") (A') (A') (A')
                 (A") (A") (A') (A') (A') (A") (A') (A") (A') (A')
                 (A") (A') (A") (A') (A') (A') (A') (A') (A") (A')
                 (A") (A') (A') (A") (A") (A') (A") (A') (A") (A')
                 (A') (A') (A') (A') (A') (A") (A') (A') (A') (A')
                 (A') (A") (A') (A') (A') (A') (A") (A') (A') (A')
                 (A') (A') (A') (A') (A') (A') (A') (A') (A') (A')
                 (A') (A') (A') (A') (A') (A') (A') (A') (A') (A')
                 (A') (A') (A') (A') (A") (A") (A') (A") (A') (A")
                 (A') (A') (A') (A') (A") (A") (A') (A") (A") (A')
                 (A') (A") (A') (A') (A') (A") (A') (A") (A') (A")
                 (A") (A') (A") (A') (A') (A') (A") (A') (A') (A')
                 (A') (A') (A') (A') (A') (A') (A') (A') (A') (A')
                 (A') (A') (A') (A") (A') (A') (A') (A') (A') (A')
                 (A') (A') (A") (A') (A") (A') (A") (A") (A') (A")
                 (A") (A') (A") (A') (A") (A') (A") (A") (A') (A')
                 (A') (A') (A") (A') (A') (A") (A') (A') (A') (A")
                 (A') (A') (A') (A") (A') (A") (A') (A') (A") (A")
                 (A") (A') (A') (A") (A') (A") (A') (A') (A') (A')
                 (A") (A") (A") (A') (A') (A") (A') (A") (A') (A')
                 (A') (A") (A") (A') (A") (A') (A') (A") (A') (A")
                 (A') (A') (A') (A') (A") (A') (A') (A') (A") (A")
                 (A') (A') (A') (A") (A') (A') (A') (A") (A") (A')
                 (A") (A') (A') (A") (A') (A') (A') (A') (A') (A')
                 (A") (A') (A') (A') (A') (A") (A") (A") (A') (A')
                 (A') (A') (A') (A') (A') (A') (A") (A') (A') (A')
                 (A') (A") (A') (A") (A") (A") (A') (A") (A') (A")
                 (A') (A") (A") (A') (A") (A") (A') (A') (A') (A')
                 (A') (A') (A') (A') (A') (A') (A') (A') (A') (A')
                 (A') (A') (A') (A') (A") (A') (A') (A') (A') (A')
                 (A') (A') (A') (A') (A') (A') (A') (A') (A') (A')
                 (A') (A') (A') (A') (A') (A') (A') (A') (A') (A')
                 (A') (A')
     4 initial guesses have been made.
 Convergence on wavefunction:    0.001000000000000
 Iteration     1 Dimension     4 NMult     0 NNew      4
 CISAX will form     4 AO SS matrices at one time.
 Iteration     2 Dimension     6 NMult     4 NNew      2
 Iteration     3 Dimension     8 NMult     6 NNew      2
 Iteration     4 Dimension    10 NMult     8 NNew      2
 Iteration     5 Dimension    12 NMult    10 NNew      2
 Iteration     6 Dimension    14 NMult    12 NNew      2
 ***********************************************************************
 Excited states from <AA,BB:AA,BB> singles matrix:
 ***********************************************************************
 
 Ground to excited state transition densities written to RWF  633
 Ground to excited state transition electric dipole moments (Au):
       state          X           Y           Z        Dip. S.      Osc.
         1        -0.4405      0.4582     -0.0000      0.4040      0.0267
 Ground to excited state transition velocity dipole moments (Au):
       state          X           Y           Z        Dip. S.      Osc.
         1         0.0519     -0.0462     -0.0000      0.0048      0.0324
 Ground to excited state transition magnetic dipole moments (Au):
       state          X           Y           Z
         1         0.0000      0.0000     -0.3952
 Ground to excited state transition velocity quadrupole moments (Au):
       state          XX          YY          ZZ          XY          XZ          YZ
         1         0.1809      0.0938     -0.0086      0.1574      0.0000     -0.0000
 <0|del|b> * <b|rxdel|0> + <0|del|b> * <b|delr+rdel|0>
 Rotatory Strengths (R) in cgs (10**-40 erg-esu-cm/Gauss)
       state          XX          YY          ZZ    R(velocity)    E-M Angle
         1        -0.0000     -0.0000      0.0000     -0.0000       90.00
 1/2[<0|r|b>*<b|rxdel|0> + (<0|rxdel|b>*<b|r|0>)*]
 Rotatory Strengths (R) in cgs (10**-40 erg-esu-cm/Gauss)
       state          XX          YY          ZZ     R(length)
         1         0.0000     -0.0000     -0.0000     -0.0000
  1/2[<0|del|b>*<b|r|0> + (<0|r|b>*<b|del|0>)*] (Au)
       state          X           Y           Z        Dip. S.   Osc.(frdel)
         1        -0.0228     -0.0212      0.0000      0.0440      0.0293

 Excitation energies and oscillator strengths:
 
 Excited State   1:      Singlet-A'     2.6974 eV  459.64 nm  f=0.0267  <S**2>=0.000
      47 -> 48         0.70279
 This state for optimization and/or second-order correction.
 Total Energy, E(TD-HF/TD-DFT) =  -539.648789533    
 Copying the excited state density for this state as the 1-particle RhoCI density.
 SavETr:  write IOETrn=   770 NScale= 10 NData=  16 NLR=1 NState=    1 LETran=      28.

 **********************************************************************

            Population analysis using the SCF Density.

 **********************************************************************

 Orbital symmetries:
       Occupied  (A') (A') (A') (A') (A') (A') (A') (A') (A') (A')
                 (A') (A') (A') (A') (A') (A') (A') (A') (A') (A')
                 (A') (A') (A') (A') (A') (A') (A') (A') (A') (A')
                 (A') (A') (A") (A') (A') (A') (A') (A") (A") (A')
                 (A') (A') (A') (A") (A") (A") (A")
       Virtual   (A") (A") (A") (A") (A') (A') (A') (A') (A") (A')
                 (A') (A") (A') (A') (A") (A') (A") (A') (A') (A')
                 (A") (A") (A') (A') (A') (A") (A') (A") (A') (A')
                 (A") (A') (A") (A') (A') (A') (A') (A') (A") (A')
                 (A") (A') (A') (A") (A") (A') (A") (A') (A") (A')
                 (A') (A') (A') (A') (A') (A") (A') (A') (A') (A')
                 (A') (A") (A') (A') (A') (A') (A") (A') (A') (A')
                 (A') (A') (A') (A') (A') (A') (A') (A') (A') (A')
                 (A') (A') (A') (A') (A') (A') (A') (A') (A') (A')
                 (A') (A') (A') (A') (A") (A") (A') (A") (A') (A")
                 (A') (A') (A') (A') (A") (A") (A') (A") (A") (A')
                 (A') (A") (A') (A') (A') (A") (A') (A") (A') (A")
                 (A") (A') (A") (A') (A') (A') (A") (A') (A') (A')
                 (A') (A') (A') (A') (A') (A') (A') (A') (A') (A')
                 (A') (A') (A') (A") (A') (A') (A') (A') (A') (A')
                 (A') (A') (A") (A') (A") (A') (A") (A") (A') (A")
                 (A") (A') (A") (A') (A") (A') (A") (A") (A') (A')
                 (A') (A') (A") (A') (A') (A") (A') (A') (A') (A")
                 (A') (A') (A') (A") (A') (A") (A') (A') (A") (A")
                 (A") (A') (A') (A") (A') (A") (A') (A') (A') (A')
                 (A") (A") (A") (A') (A') (A") (A') (A") (A') (A')
                 (A') (A") (A") (A') (A") (A') (A') (A") (A') (A")
                 (A') (A') (A') (A') (A") (A') (A') (A') (A") (A")
                 (A') (A') (A') (A") (A') (A') (A') (A") (A") (A')
                 (A") (A') (A') (A") (A') (A') (A') (A') (A') (A')
                 (A") (A') (A') (A') (A') (A") (A") (A") (A') (A')
                 (A') (A') (A') (A') (A') (A') (A") (A') (A') (A')
                 (A') (A") (A') (A") (A") (A") (A') (A") (A') (A")
                 (A') (A") (A") (A') (A") (A") (A') (A') (A') (A')
                 (A') (A') (A') (A') (A') (A') (A') (A') (A') (A')
                 (A') (A') (A') (A') (A") (A') (A') (A') (A') (A')
                 (A') (A') (A') (A') (A') (A') (A') (A') (A') (A')
                 (A') (A') (A') (A') (A') (A') (A') (A') (A') (A')
                 (A') (A')
 The electronic state is 1-A'.
 Alpha  occ. eigenvalues --  -10.77671 -10.73444 -10.73080 -10.72528 -10.72335
 Alpha  occ. eigenvalues --  -10.71714 -10.71050 -10.71030 -10.70985 -10.70943
 Alpha  occ. eigenvalues --  -10.70212 -10.69941 -10.69727 -10.69278  -1.16530
 Alpha  occ. eigenvalues --   -1.12549  -1.06913  -1.05850  -1.01360  -1.00504
 Alpha  occ. eigenvalues --   -0.95586  -0.91053  -0.86456  -0.85859  -0.83780
 Alpha  occ. eigenvalues --   -0.78353  -0.76104  -0.74339  -0.69733  -0.69127
 Alpha  occ. eigenvalues --   -0.68549  -0.68139  -0.68120  -0.64851  -0.64435
 Alpha  occ. eigenvalues --   -0.62889  -0.61618  -0.60337  -0.59423  -0.59047
 Alpha  occ. eigenvalues --   -0.56969  -0.55090  -0.54708  -0.52441  -0.46980
 Alpha  occ. eigenvalues --   -0.46156  -0.44069
 Alpha virt. eigenvalues --   -0.26094  -0.14845  -0.13962  -0.12720  -0.11181
 Alpha virt. eigenvalues --   -0.10094  -0.09232  -0.07992  -0.07938  -0.07476
 Alpha virt. eigenvalues --   -0.07206  -0.07138  -0.05650  -0.05585  -0.05345
 Alpha virt. eigenvalues --   -0.03848  -0.03654  -0.03321  -0.03125  -0.02157
 Alpha virt. eigenvalues --   -0.01361  -0.00952   0.00174   0.00570   0.00606
 Alpha virt. eigenvalues --    0.01043   0.01511   0.01925   0.02128   0.02243
 Alpha virt. eigenvalues --    0.02462   0.02668   0.02773   0.03294   0.03410
 Alpha virt. eigenvalues --    0.04220   0.04504   0.04687   0.05029   0.05372
 Alpha virt. eigenvalues --    0.06025   0.06276   0.06565   0.07056   0.07253
 Alpha virt. eigenvalues --    0.07898   0.08162   0.08305   0.08564   0.08888
 Alpha virt. eigenvalues --    0.09287   0.09741   0.09774   0.10667   0.11014
 Alpha virt. eigenvalues --    0.11098   0.12006   0.12287   0.12861   0.13047
 Alpha virt. eigenvalues --    0.13293   0.13515   0.14010   0.14535   0.16130
 Alpha virt. eigenvalues --    0.16253   0.16279   0.17266   0.17594   0.17661
 Alpha virt. eigenvalues --    0.18087   0.18707   0.19242   0.19676   0.20123
 Alpha virt. eigenvalues --    0.21499   0.21514   0.22775   0.23130   0.23518
 Alpha virt. eigenvalues --    0.23986   0.24619   0.25506   0.26811   0.27717
 Alpha virt. eigenvalues --    0.28769   0.29523   0.29862   0.31493   0.35104
 Alpha virt. eigenvalues --    0.36707   0.38199   0.39245   0.41198   0.41387
 Alpha virt. eigenvalues --    0.41869   0.42059   0.43040   0.43495   0.44300
 Alpha virt. eigenvalues --    0.44556   0.45341   0.46016   0.46817   0.47831
 Alpha virt. eigenvalues --    0.48494   0.48731   0.49144   0.50424   0.50941
 Alpha virt. eigenvalues --    0.51225   0.52122   0.52145   0.52916   0.54007
 Alpha virt. eigenvalues --    0.54154   0.54855   0.55527   0.55796   0.57449
 Alpha virt. eigenvalues --    0.58238   0.59015   0.61487   0.61818   0.62604
 Alpha virt. eigenvalues --    0.63360   0.63532   0.64815   0.65470   0.67335
 Alpha virt. eigenvalues --    0.70136   0.70620   0.71067   0.72303   0.72724
 Alpha virt. eigenvalues --    0.75374   0.76222   0.76534   0.76958   0.77062
 Alpha virt. eigenvalues --    0.77666   0.78166   0.78256   0.79932   0.80325
 Alpha virt. eigenvalues --    0.81398   0.81554   0.82405   0.83207   0.85107
 Alpha virt. eigenvalues --    0.87018   0.88094   0.88159   0.89385   0.90143
 Alpha virt. eigenvalues --    0.91154   0.91593   0.93455   0.94548   0.96147
 Alpha virt. eigenvalues --    0.97145   1.00416   1.01319   1.01405   1.02679
 Alpha virt. eigenvalues --    1.02829   1.03647   1.04959   1.06099   1.08989
 Alpha virt. eigenvalues --    1.19468   1.22776   1.23109   1.24097   1.28320
 Alpha virt. eigenvalues --    1.29790   1.32844   1.34300   1.35663   1.35940
 Alpha virt. eigenvalues --    1.38536   1.40556   1.41209   1.42341   1.43344
 Alpha virt. eigenvalues --    1.43931   1.44265   1.46031   1.46122   1.47006
 Alpha virt. eigenvalues --    1.47491   1.48473   1.51817   1.53608   1.54335
 Alpha virt. eigenvalues --    1.55814   1.56177   1.57500   1.58667   1.61473
 Alpha virt. eigenvalues --    1.63158   1.63560   1.63800   1.66018   1.68142
 Alpha virt. eigenvalues --    1.68225   1.69086   1.69604   1.74380   1.76328
 Alpha virt. eigenvalues --    1.76815   1.77878   1.79516   1.79971   1.81828
 Alpha virt. eigenvalues --    1.82788   1.83207   1.83289   1.83841   1.84286
 Alpha virt. eigenvalues --    1.85087   1.85512   1.86573   1.88142   1.91278
 Alpha virt. eigenvalues --    1.91460   1.94097   1.96657   1.97318   1.98657
 Alpha virt. eigenvalues --    1.99499   2.02709   2.04996   2.06902   2.11670
 Alpha virt. eigenvalues --    2.12226   2.14288   2.15152   2.18930   2.21074
 Alpha virt. eigenvalues --    2.22895   2.28284   2.30277   2.34143   2.34648
 Alpha virt. eigenvalues --    2.35875   2.38453   2.39530   2.41772   2.44358
 Alpha virt. eigenvalues --    2.45887   2.46656   2.48874   2.53257   2.53992
 Alpha virt. eigenvalues --    2.54637   2.56498   2.58084   2.58154   2.59492
 Alpha virt. eigenvalues --    2.59570   2.60425   2.61654   2.63060   2.63679
 Alpha virt. eigenvalues --    2.65029   2.65031   2.65467   2.65724   2.67657
 Alpha virt. eigenvalues --    2.70469   2.71011   2.71437   2.73308   2.74752
 Alpha virt. eigenvalues --    2.76333   2.78811   2.79717   2.81901   2.83162
 Alpha virt. eigenvalues --    2.85514   2.86277   2.92069   2.96893   2.98643
 Alpha virt. eigenvalues --    3.00821   3.04382   3.09194   3.11424   3.15030
 Alpha virt. eigenvalues --    3.20242   3.22956   3.26437   3.28151   3.29749
 Alpha virt. eigenvalues --    3.33458   3.35247   3.42987   3.45286   3.47274
 Alpha virt. eigenvalues --    3.48100   3.52419   3.56882   3.64683   3.65585
 Alpha virt. eigenvalues --    3.69893   3.93603   3.94160   3.95195   3.95864
 Alpha virt. eigenvalues --    4.03726   4.05536   4.08268   4.12296   4.35116
 Alpha virt. eigenvalues --    4.60976   4.66936   4.72727  23.45013  23.59801
 Alpha virt. eigenvalues --   23.78837  23.83634  23.84535  23.89655  23.91602
 Alpha virt. eigenvalues --   23.93133  23.94179  24.01716  24.04029  24.08141
 Alpha virt. eigenvalues --   24.09131  24.15540
          Condensed to atoms (all electrons):
               1          2          3          4          5          6
     1  C    8.267058   0.351901  -0.557521   1.838442  -0.115427  -0.090517
     2  C    0.351901   7.316226   0.336806  -1.131686  -0.021182  -0.016792
     3  C   -0.557521   0.336806   6.526100   0.850497  -0.133115   0.017118
     4  C    1.838442  -1.131686   0.850497  10.562563  -0.527155  -0.116636
     5  C   -0.115427  -0.021182  -0.133115  -0.527155  12.355513   0.780761
     6  C   -0.090517  -0.016792   0.017118  -0.116636   0.780761   6.596750
     7  C   -0.000093  -0.000542  -0.011891   0.007577  -1.248043   0.357157
     8  C    0.383360  -0.023822  -0.106719  -0.009447   2.617157  -0.480320
     9  C   -0.838648  -0.824712   0.292588   0.026281  -0.336733   0.280476
    10  C   -1.216083   0.161086  -0.257736  -2.496050  -2.692741  -0.385364
    11  C    0.543377  -1.042755   1.019374   1.041300  -1.871128  -0.198937
    12  C   -2.349082   1.552613  -1.523912  -2.598242   0.096373  -0.156704
    13  C    0.460154  -0.329321  -0.154769  -0.902868  -1.767938   0.792732
    14  C   -1.158053  -0.174767  -0.195106  -0.812601  -1.548961  -1.256851
    15  H    0.367778  -0.101147   0.001178   0.021026   0.006810   0.001310
    16  H   -0.019990   0.383839  -0.018429   0.019267  -0.001884  -0.000384
    17  H   -0.022849  -0.021227   0.387523  -0.077653   0.000078   0.000443
    18  H    0.047690   0.003444  -0.082211   0.464280   0.002770  -0.004931
    19  H   -0.039421  -0.007453   0.052383  -0.049917  -0.086669   0.047972
    20  H    0.006675   0.002451  -0.005143   0.005402   0.460035  -0.083364
    21  H   -0.001083  -0.000426   0.000351   0.000525  -0.065284   0.366632
    22  H    0.000535   0.000331  -0.000264  -0.001153   0.005738  -0.014374
    23  H    0.004643  -0.002237   0.000788   0.003711   0.039936  -0.003708
    24  H    0.041832   0.015448  -0.000340  -0.006346  -0.019268  -0.002727
    25  H    0.041832   0.015448  -0.000340  -0.006346  -0.019268  -0.002727
               7          8          9         10         11         12
     1  C   -0.000093   0.383360  -0.838648  -1.216083   0.543377  -2.349082
     2  C   -0.000542  -0.023822  -0.824712   0.161086  -1.042755   1.552613
     3  C   -0.011891  -0.106719   0.292588  -0.257736   1.019374  -1.523912
     4  C    0.007577  -0.009447   0.026281  -2.496050   1.041300  -2.598242
     5  C   -1.248043   2.617157  -0.336733  -2.692741  -1.871128   0.096373
     6  C    0.357157  -0.480320   0.280476  -0.385364  -0.198937  -0.156704
     7  C    7.105103   0.012297  -0.831497   0.346734  -0.202201  -0.202779
     8  C    0.012297   9.267169  -1.257746  -1.463919  -0.006938  -0.965898
     9  C   -0.831497  -1.257746   9.638825   0.293141   1.871393  -2.316189
    10  C    0.346734  -1.463919   0.293141   8.978249  -0.401605   2.536610
    11  C   -0.202201  -0.006938   1.871393  -0.401605  13.885940  -4.543011
    12  C   -0.202779  -0.965898  -2.316189   2.536610  -4.543011  17.477036
    13  C   -0.515312  -0.205408   1.205007  -0.157231   0.869183  -4.892361
    14  C    1.282082  -2.278011  -1.767149   2.236982  -4.393625   3.225058
    15  H   -0.002807   0.006446   0.082470  -0.005352  -0.032786  -0.015599
    16  H    0.000383   0.000813  -0.000127  -0.010578   0.019266  -0.026800
    17  H   -0.000366  -0.001561  -0.003831   0.019313  -0.022914   0.088533
    18  H    0.001859   0.007007  -0.019813  -0.002832   0.009137  -0.053631
    19  H   -0.006438  -0.055364   0.075349   0.421583   0.073910  -0.076238
    20  H    0.000169   0.057175  -0.026836   0.017042  -0.010340  -0.007769
    21  H   -0.009964  -0.032041  -0.007707   0.020237  -0.006536   0.005719
    22  H    0.375371  -0.023520   0.004602  -0.006252   0.003100  -0.007783
    23  H   -0.115138   0.378305   0.100436  -0.014599   0.005758   0.008326
    24  H    0.013891   0.019043   0.359802   0.005984   0.017257  -0.057128
    25  H    0.013891   0.019043   0.359802   0.005984   0.017257  -0.057128
              13         14         15         16         17         18
     1  C    0.460154  -1.158053   0.367778  -0.019990  -0.022849   0.047690
     2  C   -0.329321  -0.174767  -0.101147   0.383839  -0.021227   0.003444
     3  C   -0.154769  -0.195106   0.001178  -0.018429   0.387523  -0.082211
     4  C   -0.902868  -0.812601   0.021026   0.019267  -0.077653   0.464280
     5  C   -1.767938  -1.548961   0.006810  -0.001884   0.000078   0.002770
     6  C    0.792732  -1.256851   0.001310  -0.000384   0.000443  -0.004931
     7  C   -0.515312   1.282082  -0.002807   0.000383  -0.000366   0.001859
     8  C   -0.205408  -2.278011   0.006446   0.000813  -0.001561   0.007007
     9  C    1.205007  -1.767149   0.082470  -0.000127  -0.003831  -0.019813
    10  C   -0.157231   2.236982  -0.005352  -0.010578   0.019313  -0.002832
    11  C    0.869183  -4.393625  -0.032786   0.019266  -0.022914   0.009137
    12  C   -4.892361   3.225058  -0.015599  -0.026800   0.088533  -0.053631
    13  C   14.821431  -2.627968  -0.001954   0.002601  -0.006246  -0.010458
    14  C   -2.627968  15.129722   0.004852  -0.010107   0.004954  -0.025334
    15  H   -0.001954   0.004852   0.442193  -0.009548   0.001807   0.000076
    16  H    0.002601  -0.010107  -0.009548   0.418525  -0.007553   0.002157
    17  H   -0.006246   0.004954   0.001807  -0.007553   0.427544  -0.012303
    18  H   -0.010458  -0.025334   0.000076   0.002157  -0.012303   0.450272
    19  H    0.077774  -0.052685   0.000412  -0.000633   0.001833  -0.004990
    20  H   -0.007124  -0.071281  -0.000140   0.000025  -0.000185   0.001203
    21  H   -0.026292   0.097594   0.000015  -0.000007   0.000010  -0.000108
    22  H    0.029651  -0.029172  -0.000126   0.000008  -0.000007   0.000008
    23  H   -0.043180  -0.033142   0.000544  -0.000128   0.000011  -0.000087
    24  H    0.010613  -0.063559  -0.001217   0.000606  -0.000120   0.000111
    25  H    0.010613  -0.063559  -0.001217   0.000606  -0.000120   0.000111
              19         20         21         22         23         24
     1  C   -0.039421   0.006675  -0.001083   0.000535   0.004643   0.041832
     2  C   -0.007453   0.002451  -0.000426   0.000331  -0.002237   0.015448
     3  C    0.052383  -0.005143   0.000351  -0.000264   0.000788  -0.000340
     4  C   -0.049917   0.005402   0.000525  -0.001153   0.003711  -0.006346
     5  C   -0.086669   0.460035  -0.065284   0.005738   0.039936  -0.019268
     6  C    0.047972  -0.083364   0.366632  -0.014374  -0.003708  -0.002727
     7  C   -0.006438   0.000169  -0.009964   0.375371  -0.115138   0.013891
     8  C   -0.055364   0.057175  -0.032041  -0.023520   0.378305   0.019043
     9  C    0.075349  -0.026836  -0.007707   0.004602   0.100436   0.359802
    10  C    0.421583   0.017042   0.020237  -0.006252  -0.014599   0.005984
    11  C    0.073910  -0.010340  -0.006536   0.003100   0.005758   0.017257
    12  C   -0.076238  -0.007769   0.005719  -0.007783   0.008326  -0.057128
    13  C    0.077774  -0.007124  -0.026292   0.029651  -0.043180   0.010613
    14  C   -0.052685  -0.071281   0.097594  -0.029172  -0.033142  -0.063559
    15  H    0.000412  -0.000140   0.000015  -0.000126   0.000544  -0.001217
    16  H   -0.000633   0.000025  -0.000007   0.000008  -0.000128   0.000606
    17  H    0.001833  -0.000185   0.000010  -0.000007   0.000011  -0.000120
    18  H   -0.004990   0.001203  -0.000108   0.000008  -0.000087   0.000111
    19  H    0.443371  -0.007319   0.001047  -0.000427   0.000151   0.000630
    20  H   -0.007319   0.459635  -0.008778   0.001605   0.000258   0.000255
    21  H    0.001047  -0.008778   0.419026  -0.005487   0.000987  -0.000154
    22  H   -0.000427   0.001605  -0.005487   0.419855  -0.008100   0.000642
    23  H    0.000151   0.000258   0.000987  -0.008100   0.437576  -0.000605
    24  H    0.000630   0.000255  -0.000154   0.000642  -0.000605   0.493602
    25  H    0.000630   0.000255  -0.000154   0.000642  -0.000605  -0.079347
              25
     1  C    0.041832
     2  C    0.015448
     3  C   -0.000340
     4  C   -0.006346
     5  C   -0.019268
     6  C   -0.002727
     7  C    0.013891
     8  C    0.019043
     9  C    0.359802
    10  C    0.005984
    11  C    0.017257
    12  C   -0.057128
    13  C    0.010613
    14  C   -0.063559
    15  H   -0.001217
    16  H    0.000606
    17  H   -0.000120
    18  H    0.000111
    19  H    0.000630
    20  H    0.000255
    21  H   -0.000154
    22  H    0.000642
    23  H   -0.000605
    24  H   -0.079347
    25  H    0.493602
 Mulliken charges:
               1
     1  C    0.053491
     2  C   -0.441521
     3  C   -0.437210
     4  C   -0.104772
     5  C    0.089624
     6  C   -0.427014
     7  C   -0.369441
     8  C    0.142899
     9  C   -0.359185
    10  C    0.067398
    11  C   -0.643476
    12  C    0.859988
    13  C   -0.631327
    14  C    0.580689
    15  H    0.234976
    16  H    0.258074
    17  H    0.244887
    18  H    0.226574
    19  H    0.190507
    20  H    0.216092
    21  H    0.251880
    22  H    0.254578
    23  H    0.240099
    24  H    0.251095
    25  H    0.251095
 Sum of Mulliken charges =   1.00000
 Mulliken charges with hydrogens summed into heavy atoms:
               1
     1  C    0.288467
     2  C   -0.183447
     3  C   -0.192323
     4  C    0.121802
     5  C    0.305716
     6  C   -0.175134
     7  C   -0.114864
     8  C    0.382998
     9  C    0.143006
    10  C    0.257905
    11  C   -0.643476
    12  C    0.859988
    13  C   -0.631327
    14  C    0.580689
 Electronic spatial extent (au):  <R**2>=           2856.3567
 Charge=              1.0000 electrons
 Dipole moment (field-independent basis, Debye):
    X=              0.1536    Y=             -0.1027    Z=             -0.0000  Tot=              0.1848
 Quadrupole moment (field-independent basis, Debye-Ang):
   XX=            -51.3706   YY=            -36.0905   ZZ=            -84.1316
   XY=             10.0211   XZ=              0.0000   YZ=             -0.0000
 Traceless Quadrupole moment (field-independent basis, Debye-Ang):
   XX=              5.8270   YY=             21.1071   ZZ=            -26.9340
   XY=             10.0211   XZ=              0.0000   YZ=             -0.0000
 Octapole moment (field-independent basis, Debye-Ang**2):
  XXX=             -0.9680  YYY=              8.1330  ZZZ=             -0.0000  XYY=              3.1414
  XXY=             -4.4159  XXZ=             -0.0000  XZZ=             -3.0250  YZZ=              0.8604
  YYZ=             -0.0000  XYZ=              0.0000
 Hexadecapole moment (field-independent basis, Debye-Ang**3):
 XXXX=          -1016.5453 YYYY=          -1819.3301 ZZZZ=            -99.3083 XXXY=           -358.5530
 XXXZ=              0.0000 YYYX=           -283.1177 YYYZ=             -0.0000 ZZZX=              0.0000
 ZZZY=             -0.0000 XXYY=           -456.5897 XXZZ=           -246.2853 YYZZ=           -490.2812
 XXYZ=             -0.0000 YYXZ=              0.0000 ZZXY=           -186.1497
 N-N= 7.812628846435D+02 E-N=-2.798870396390D+03  KE= 5.375369020943D+02
 Symmetry A'   KE= 5.228819322661D+02
 Symmetry A"   KE= 1.465496982818D+01
 Unable to Open any file for archive entry.
 1\1\GINC-GADI-CPU-CLX-2461\SP\RM062X TD-FC\6-311++G(d,p)\C14H11(1+)\TS
 1578\27-Jul-2022\0\\#n M062X/6-311++G(d,p) TD(NStates=1) EmpiricalDisp
 ersion=GD3 SP\\SP_14\\1,1\C,0,0.,2.481455,1.361831\C,0,0.,3.667908,0.6
 59389\C,0,0.,3.668461,-0.73763\C,0,0.,2.493956,-1.422938\C,0,0.,-2.432
 356,-1.392138\C,0,0.,-3.699261,-0.69003\C,0,0.,-3.735108,0.684589\C,0,
 0.,-2.503855,1.359031\C,0,0.,-0.0224,1.453369\C,0,0.,0.0182,-1.429189\
 C,0,0.,1.281655,0.671465\C,0,0.,1.262671,-0.707004\C,0,0.,-1.242455,0.
 682665\C,0,0.,-1.212271,-0.754604\H,0,0.,2.437671,2.443647\H,0,0.,4.58
 9153,1.222889\H,0,0.,4.588262,-1.303149\H,0,0.,2.52915,-2.504059\H,0,0
 .,0.056,-2.510266\H,0,0.,-2.40595,-2.476059\H,0,0.,-4.630262,-1.241549
 \H,0,0.,-4.684353,1.200489\H,0,0.,-2.538471,2.443647\H,0,-0.859585,-0.
 098,2.145787\H,0,0.859585,-0.098,2.145787\\Version=ES64L-G16RevC.01\St
 ate=1-A'\HF=-539.747917\RMSD=3.201e-09\PG=CS [SG(C14H9),X(H2)]\\@
 The archive entry for this job was punched.


 BRING ME INTO THE COMPANY OF THOSE WHO SEEK TRUTH,
 AND DELIVER ME FROM THOSE WHO HAVE FOUND IT.
 Job cpu time:       0 days  0 hours 45 minutes 45.3 seconds.
 Elapsed time:       0 days  0 hours  1 minutes 26.9 seconds.
 File lengths (MBytes):  RWF=    460 Int=      0 D2E=      0 Chk=     15 Scr=      1
 Normal termination of Gaussian 16 at Wed Jul 27 14:22:19 2022.
