 Entering Gaussian System, Link 0=g16
 Initial command:
 /apps/gaussian/g16c01/g16/l1.exe "/jobfs/52822737.gadi-pbs/Gau-2051282.inp" -scrdir="/jobfs/52822737.gadi-pbs/"
 Entering Link 1 = /apps/gaussian/g16c01/g16/l1.exe PID=   2051283.
  
 Copyright (c) 1988-2019, Gaussian, Inc.  All Rights Reserved.
  
 This is part of the Gaussian(R) 16 program.  It is based on
 the Gaussian(R) 09 system (copyright 2009, Gaussian, Inc.),
 the Gaussian(R) 03 system (copyright 2003, Gaussian, Inc.),
 the Gaussian(R) 98 system (copyright 1998, Gaussian, Inc.),
 the Gaussian(R) 94 system (copyright 1995, Gaussian, Inc.),
 the Gaussian 92(TM) system (copyright 1992, Gaussian, Inc.),
 the Gaussian 90(TM) system (copyright 1990, Gaussian, Inc.),
 the Gaussian 88(TM) system (copyright 1988, Gaussian, Inc.),
 the Gaussian 86(TM) system (copyright 1986, Carnegie Mellon
 University), and the Gaussian 82(TM) system (copyright 1983,
 Carnegie Mellon University). Gaussian is a federally registered
 trademark of Gaussian, Inc.
  
 This software contains proprietary and confidential information,
 including trade secrets, belonging to Gaussian, Inc.
  
 This software is provided under written license and may be
 used, copied, transmitted, or stored only in accord with that
 written license.
  
 The following legend is applicable only to US Government
 contracts under FAR:
  
                    RESTRICTED RIGHTS LEGEND
  
 Use, reproduction and disclosure by the US Government is
 subject to restrictions as set forth in subparagraphs (a)
 and (c) of the Commercial Computer Software - Restricted
 Rights clause in FAR 52.227-19.
  
 Gaussian, Inc.
 340 Quinnipiac St., Bldg. 40, Wallingford CT 06492
  
  
 ---------------------------------------------------------------
 Warning -- This program may not be used in any manner that
 competes with the business of Gaussian, Inc. or will provide
 assistance to any competitor of Gaussian, Inc.  The licensee
 of this program is prohibited from giving any competitor of
 Gaussian, Inc. access to this program.  By using this program,
 the user acknowledges that Gaussian, Inc. is engaged in the
 business of creating and licensing software in the field of
 computational chemistry and represents and warrants to the
 licensee that it is not a competitor of Gaussian, Inc. and that
 it will not use this program in any manner prohibited above.
 ---------------------------------------------------------------
  

 Cite this work as:
 Gaussian 16, Revision C.01,
 M. J. Frisch, G. W. Trucks, H. B. Schlegel, G. E. Scuseria, 
 M. A. Robb, J. R. Cheeseman, G. Scalmani, V. Barone, 
 G. A. Petersson, H. Nakatsuji, X. Li, M. Caricato, A. V. Marenich, 
 J. Bloino, B. G. Janesko, R. Gomperts, B. Mennucci, H. P. Hratchian, 
 J. V. Ortiz, A. F. Izmaylov, J. L. Sonnenberg, D. Williams-Young, 
 F. Ding, F. Lipparini, F. Egidi, J. Goings, B. Peng, A. Petrone, 
 T. Henderson, D. Ranasinghe, V. G. Zakrzewski, J. Gao, N. Rega, 
 G. Zheng, W. Liang, M. Hada, M. Ehara, K. Toyota, R. Fukuda, 
 J. Hasegawa, M. Ishida, T. Nakajima, Y. Honda, O. Kitao, H. Nakai, 
 T. Vreven, K. Throssell, J. A. Montgomery, Jr., J. E. Peralta, 
 F. Ogliaro, M. J. Bearpark, J. J. Heyd, E. N. Brothers, K. N. Kudin, 
 V. N. Staroverov, T. A. Keith, R. Kobayashi, J. Normand, 
 K. Raghavachari, A. P. Rendell, J. C. Burant, S. S. Iyengar, 
 J. Tomasi, M. Cossi, J. M. Millam, M. Klene, C. Adamo, R. Cammi, 
 J. W. Ochterski, R. L. Martin, K. Morokuma, O. Farkas, 
 J. B. Foresman, and D. J. Fox, Gaussian, Inc., Wallingford CT, 2019.
 
 ******************************************
 Gaussian 16:  ES64L-G16RevC.01  3-Jul-2019
                27-Jul-2022 
 ******************************************
 %NProcShared=32
 Will use up to   32 processors via shared memory.
 %mem = 128GB
 ---------------------------------------------------------------
 #n M062X/6-311++G(d,p) TD(NStates=1) EmpiricalDispersion=GD3 SP
 ---------------------------------------------------------------
 1/38=1,172=1/1;
 2/12=2,17=6,18=5,40=1/2;
 3/5=4,6=6,7=1111,11=9,25=1,30=1,74=-55,124=31/1,2,3,8;
 4//1;
 5/5=2,38=5/2;
 8/6=1,10=2,108=1/1;
 9/41=1,42=1,70=2/14;
 6/7=2,8=2,9=2,10=2/1;
 99/5=1,9=1/99;
 -----
 SP_12
 -----
 Symbolic Z-matrix:
 Charge =  1 Multiplicity = 1
 C                     0.        2.48626   1.36163 
 C                     0.        3.67631   0.66279 
 C                     0.        3.67246  -0.73103 
 C                     0.        2.48556  -1.41914 
 C                     0.       -2.44076  -1.39594 
 C                     0.       -3.69526  -0.69663 
 C                     0.       -3.72671   0.68119 
 C                     0.       -2.49906   1.35923 
 C                     0.       -0.0176    1.45337 
 C                     0.        0.0098   -1.42919 
 C                     0.        1.27706   0.67007 
 C                     0.        1.25727  -0.7102 
 C                     0.       -1.24706   0.68407 
 C                     0.       -1.21767  -0.7514 
 H                     0.        2.44587   2.44365 
 H                     0.        4.59955   1.22269 
 H                     0.        4.59146  -1.29835 
 H                     0.        2.51855  -2.50046 
 H                     0.        0.043    -2.51027 
 H                     0.       -2.41655  -2.47966 
 H                     0.       -4.62706  -1.24635 
 H                     0.       -4.67395   1.20069 
 H                     0.       -2.53027   2.44365 
 H                    -0.85959  -0.0752    2.14579 
 H                     0.85959  -0.0752    2.14579 
 
                          Input orientation:                          
 ---------------------------------------------------------------------
 Center     Atomic      Atomic             Coordinates (Angstroms)
 Number     Number       Type             X           Y           Z
 ---------------------------------------------------------------------
      1          6           0        0.000000    2.486255    1.361631
      2          6           0        0.000000    3.676308    0.662789
      3          6           0        0.000000    3.672461   -0.731030
      4          6           0        0.000000    2.485556   -1.419138
      5          6           0        0.000000   -2.440756   -1.395938
      6          6           0        0.000000   -3.695261   -0.696630
      7          6           0        0.000000   -3.726708    0.681189
      8          6           0        0.000000   -2.499055    1.359231
      9          6           0        0.000000   -0.017600    1.453369
     10          6           0        0.000000    0.009800   -1.429189
     11          6           0        0.000000    1.277055    0.670065
     12          6           0        0.000000    1.257271   -0.710204
     13          6           0        0.000000   -1.247055    0.684065
     14          6           0        0.000000   -1.217671   -0.751404
     15          1           0        0.000000    2.445871    2.443647
     16          1           0        0.000000    4.599553    1.222689
     17          1           0        0.000000    4.591462   -1.298349
     18          1           0        0.000000    2.518550   -2.500459
     19          1           0        0.000000    0.043000   -2.510266
     20          1           0        0.000000   -2.416550   -2.479659
     21          1           0        0.000000   -4.627062   -1.246349
     22          1           0        0.000000   -4.673953    1.200689
     23          1           0        0.000000   -2.530271    2.443647
     24          1           0       -0.859585   -0.075200    2.145787
     25          1           0        0.859585   -0.075200    2.145787
 ---------------------------------------------------------------------
                    Distance matrix (angstroms):
                    1          2          3          4          5
     1  C    0.000000
     2  C    1.380075   0.000000
     3  C    2.405476   1.393824   0.000000
     4  C    2.780769   2.398397   1.371946   0.000000
     5  C    5.646204   6.454210   6.149270   4.926367   0.000000
     6  C    6.515181   7.495869   7.367802   6.222903   1.436250
     7  C    6.250113   7.403039   7.532733   6.557713   2.442975
     8  C    4.985311   6.214510   6.515888   5.706635   2.755786
     9  C    2.505535   3.777562   4.288141   3.810129   3.740352
    10  C    3.731153   4.221333   3.728607   2.475776   2.450782
    11  C    1.392993   2.399264   2.775074   2.413554   4.253291
    12  C    2.408921   2.781519   2.415280   1.418193   3.761068
    13  C    3.794298   4.923409   5.118997   4.284373   2.398194
    14  C    4.264268   5.094210   4.890174   3.762946   1.382520
    15  H    1.082769   2.164586   3.403395   3.862989   6.214623
    16  H    2.117861   1.079754   2.162526   3.383524   7.511535
    17  H    3.392254   2.164156   1.080006   2.109367   7.032895
    18  H    3.862225   3.368463   2.112437   1.081824   5.080815
    19  H    4.578327   4.823816   4.042112   2.675190   2.722273
    20  H    6.228403   6.855501   6.335121   5.015511   1.083991
    21  H    7.576334   8.520021   8.315506   7.114716   2.191418
    22  H    7.162017   8.367568   8.567039   7.623783   3.424856
    23  H    5.131890   6.457018   6.967959   6.330847   3.840628
    24  H    2.813332   4.124558   4.802075   4.472700   4.344946
    25  H    2.813332   4.124558   4.802075   4.472700   4.344946
                    6          7          8          9         10
     6  C    0.000000
     7  C    1.378178   0.000000
     8  C    2.378544   1.402452   0.000000
     9  C    4.260010   3.788634   2.483240   0.000000
    10  C    3.776787   4.291292   3.750952   2.882688   0.000000
    11  C    5.156722   5.003775   3.838484   1.513174   2.452102
    12  C    4.952551   5.174555   4.288653   2.511244   1.439834
    13  C    2.810699   2.479655   1.422446   1.450306   2.458765
    14  C    2.478195   2.889220   2.469155   2.510218   1.402169
    15  H    6.897452   6.419267   5.062435   2.655059   4.575292
    16  H    8.513972   8.343851   7.099921   4.622912   5.300782
    17  H    8.308540   8.550469   7.572197   5.367998   4.583530
    18  H    6.470336   7.009004   6.330369   4.697320   2.727901
    19  H    4.154981   4.939239   4.629800   3.964098   1.081587
    20  H    2.194150   3.421619   3.839776   4.606915   2.643986
    21  H    1.081871   2.127449   3.364143   5.341874   4.640465
    22  H    2.134867   1.080349   2.180669   4.663204   5.371573
    23  H    3.349409   2.130192   1.084865   2.700771   4.631503
    24  H    4.682207   4.027089   2.689355   1.105281   3.677848
    25  H    4.682207   4.027089   2.689355   1.105281   3.677848
                   11         12         13         14         15
    11  C    0.000000
    12  C    1.380411   0.000000
    13  C    2.524149   2.866293   0.000000
    14  C    2.871277   2.475285   1.435770   0.000000
    15  H    2.124082   3.370393   4.090701   4.861059   0.000000
    16  H    3.368143   3.860949   5.871366   6.143056   2.475699
    17  H    3.854860   3.385667   6.165894   5.834824   4.313478
    18  H    3.404928   2.189940   4.931630   4.125353   4.944640
    19  H    3.411363   2.171331   3.444995   2.163998   5.505910
    20  H    4.854223   4.077736   3.372961   2.103373   6.919688
    21  H    6.207354   5.908708   3.892422   3.445130   7.977622
    22  H    5.974618   6.231447   3.465621   3.969452   7.227506
    23  H    4.200158   4.928717   2.177791   3.454167   4.976142
    24  H    2.178356   3.266657   2.061252   3.230765   2.680188
    25  H    2.178356   3.266657   2.061252   3.230765   2.680188
                   16         17         18         19         20
    16  H    0.000000
    17  H    2.521051   0.000000
    18  H    4.265256   2.396254   0.000000
    19  H    5.890427   4.707149   2.475569   0.000000
    20  H    7.933037   7.106879   4.935144   2.459740   0.000000
    21  H    9.551260   9.218671   7.254830   4.838075   2.531288
    22  H    9.273532   9.596515   8.088918   6.001736   4.317503
    23  H    7.233611   8.044975   7.066454   5.582381   4.924619
    24  H    4.841933   5.863335   5.390179   4.736210   5.255051
    25  H    4.841933   5.863335   5.390179   4.736210   5.255051
                   21         22         23         24         25
    21  H    0.000000
    22  H    2.447487   0.000000
    23  H    4.244126   2.477966   0.000000
    24  H    5.741509   4.772905   2.618202   0.000000
    25  H    5.741509   4.772905   2.618202   1.719170   0.000000
 Stoichiometry    C14H11(1+)
 Framework group  CS[SG(C14H9),X(H2)]
 Deg. of freedom    46
 Full point group                 CS      NOp   2
 Largest Abelian subgroup         CS      NOp   2
 Largest concise Abelian subgroup CS      NOp   2
                         Standard orientation:                         
 ---------------------------------------------------------------------
 Center     Atomic      Atomic             Coordinates (Angstroms)
 Number     Number       Type             X           Y           Z
 ---------------------------------------------------------------------
      1          6           0       -2.390351   -1.525028    0.000000
      2          6           0       -2.350356   -2.904523    0.000000
      3          6           0       -1.126650   -3.571824    0.000000
      4          6           0        0.047673   -2.862456    0.000000
      5          6           0        2.397761    1.467229    0.000000
      6          6           0        2.388369    2.903448    0.000000
      7          6           0        1.195672    3.593990    0.000000
      8          6           0        0.010566    2.844058    0.000000
      9          6           0       -1.265975    0.714052    0.000000
     10          6           0        1.247760   -0.696986    0.000000
     11          6           0       -1.202270   -0.797780    0.000000
     12          6           0        0.017226   -1.444590    0.000000
     13          6           0        0.000000    1.421651    0.000000
     14          6           0        1.244227    0.705178    0.000000
     15          1           0       -3.319441   -0.968986    0.000000
     16          1           0       -3.285421   -3.444451    0.000000
     17          1           0       -1.071526   -4.650423    0.000000
     18          1           0        0.979709   -3.411686    0.000000
     19          1           0        2.179482   -1.246279    0.000000
     20          1           0        3.336129    0.924548    0.000000
     21          1           0        3.318627    3.455775    0.000000
     22          1           0        1.196058    4.674338    0.000000
     23          1           0       -0.925038    3.393218    0.000000
     24          1           0       -1.845249    1.097721    0.859585
     25          1           0       -1.845249    1.097721   -0.859585
 ---------------------------------------------------------------------
 Rotational constants (GHZ):           2.1362929           0.4445840           0.3687995
 Standard basis: 6-311++G(d,p) (5D, 7F)
 There are   299 symmetry adapted cartesian basis functions of A'  symmetry.
 There are   100 symmetry adapted cartesian basis functions of A"  symmetry.
 There are   285 symmetry adapted basis functions of A'  symmetry.
 There are   100 symmetry adapted basis functions of A"  symmetry.
   385 basis functions,   603 primitive gaussians,   399 cartesian basis functions
    47 alpha electrons       47 beta electrons
       nuclear repulsion energy       781.2374445924 Hartrees.
 NAtoms=   25 NActive=   25 NUniq=   24 SFac= 1.09D+00 NAtFMM=   60 NAOKFM=F Big=F
 Integral buffers will be    131072 words long.
 Regular integral format.
 Two-electron integral symmetry is turned on.
 Nuclear repulsion after empirical dispersion term =      781.2364655073 Hartrees.
 One-electron integrals computed using PRISM.
 NBasis=   385 RedAO= T EigKep=  1.09D-06  NBF=   285   100
 NBsUse=   379 1.00D-06 EigRej=  8.28D-07 NBFU=   279   100
 ExpMin= 3.60D-02 ExpMax= 4.56D+03 ExpMxC= 6.82D+02 IAcc=3 IRadAn=         5 AccDes= 0.00D+00
 Harris functional with IExCor= 1009 and IRadAn=       5 diagonalized for initial guess.
 HarFok:  IExCor= 1009 AccDes= 0.00D+00 IRadAn=         5 IDoV= 1 UseB2=F ITyADJ=14
 ICtDFT=  3500011 ScaDFX=  1.000000  1.000000  1.000000  1.000000
 FoFCou: FMM=F IPFlag=           0 FMFlag=      100000 FMFlg1=           0
         NFxFlg=           0 DoJE=T BraDBF=F KetDBF=T FulRan=T
         wScrn=  0.000000 ICntrl=       500 IOpCl=  0 I1Cent=   200000004 NGrid=           0
         NMat0=    1 NMatS0=      1 NMatT0=    0 NMatD0=    1 NMtDS0=    0 NMtDT0=    0
 Petite list used in FoFCou.
 Initial guess orbital symmetries:
       Occupied  (A') (A') (A') (A') (A') (A') (A') (A') (A') (A')
                 (A') (A') (A') (A') (A') (A') (A') (A') (A') (A')
                 (A') (A') (A') (A') (A') (A') (A') (A') (A') (A')
                 (A') (A') (A") (A') (A') (A') (A') (A') (A") (A')
                 (A") (A') (A') (A") (A") (A") (A")
       Virtual   (A") (A") (A") (A") (A") (A') (A') (A') (A') (A")
                 (A") (A') (A') (A') (A") (A') (A') (A') (A') (A")
                 (A') (A") (A') (A') (A') (A") (A') (A") (A') (A')
                 (A') (A') (A') (A") (A') (A') (A") (A') (A') (A")
                 (A') (A') (A') (A") (A') (A') (A') (A') (A') (A")
                 (A') (A") (A') (A") (A') (A') (A') (A") (A") (A')
                 (A') (A') (A') (A') (A') (A') (A") (A') (A') (A")
                 (A') (A') (A') (A') (A') (A') (A') (A') (A') (A')
                 (A') (A') (A') (A') (A') (A') (A') (A') (A') (A')
                 (A') (A') (A') (A') (A') (A') (A') (A") (A') (A")
                 (A') (A") (A') (A") (A') (A") (A') (A") (A") (A')
                 (A") (A') (A') (A') (A") (A') (A') (A") (A") (A')
                 (A") (A") (A') (A') (A') (A") (A') (A') (A') (A")
                 (A') (A') (A') (A') (A') (A') (A") (A') (A') (A')
                 (A') (A') (A') (A') (A') (A') (A') (A') (A') (A")
                 (A") (A') (A") (A") (A') (A') (A') (A") (A") (A')
                 (A") (A') (A") (A") (A") (A') (A') (A') (A') (A')
                 (A') (A") (A') (A') (A") (A') (A') (A') (A') (A')
                 (A") (A') (A') (A") (A') (A') (A") (A') (A") (A")
                 (A") (A') (A') (A') (A") (A') (A') (A") (A') (A')
                 (A") (A") (A") (A') (A') (A") (A') (A") (A') (A')
                 (A") (A") (A') (A") (A') (A") (A') (A') (A') (A")
                 (A') (A') (A') (A') (A") (A') (A') (A') (A") (A")
                 (A') (A') (A') (A") (A') (A') (A") (A') (A") (A')
                 (A") (A') (A') (A') (A') (A") (A') (A') (A') (A")
                 (A') (A') (A') (A") (A") (A') (A') (A") (A') (A')
                 (A') (A") (A') (A") (A') (A') (A') (A") (A") (A')
                 (A') (A') (A') (A') (A") (A') (A") (A') (A") (A')
                 (A") (A') (A") (A") (A") (A') (A') (A') (A') (A')
                 (A') (A') (A') (A') (A') (A') (A') (A') (A') (A')
                 (A') (A') (A') (A') (A") (A') (A') (A') (A') (A')
                 (A') (A') (A') (A') (A') (A') (A') (A') (A') (A')
                 (A') (A') (A') (A') (A') (A') (A') (A') (A') (A')
                 (A') (A')
 The electronic state of the initial guess is 1-A'.
 Requested convergence on RMS density matrix=1.00D-08 within 128 cycles.
 Requested convergence on MAX density matrix=1.00D-06.
 Requested convergence on             energy=1.00D-06.
 No special actions if energy rises.
 SCF Done:  E(RM062X) =  -539.752409299     A.U. after   15 cycles
            NFock= 15  Conv=0.93D-08     -V/T= 2.0041
 DoSCS=F DFT=T ScalE2(SS,OS)=  1.000000  1.000000
 ExpMin= 3.60D-02 ExpMax= 4.56D+03 ExpMxC= 6.82D+02 IAcc=3 IRadAn=         5 AccDes= 0.00D+00
 HarFok:  IExCor=  205 AccDes= 0.00D+00 IRadAn=         5 IDoV=-2 UseB2=F ITyADJ=14
 ICtDFT= 12500011 ScaDFX=  1.000000  1.000000  1.000000  1.000000
 Range of M.O.s used for correlation:    15   379
 NBasis=   385 NAE=    47 NBE=    47 NFC=    14 NFV=     0
 NROrb=    365 NOA=    33 NOB=    33 NVA=   332 NVB=   332

 **** Warning!!: The largest alpha MO coefficient is  0.15818690D+03

 Orbital symmetries:
       Occupied  (A') (A') (A') (A') (A') (A') (A') (A') (A') (A')
                 (A') (A') (A') (A') (A') (A') (A') (A') (A') (A')
                 (A') (A') (A') (A') (A') (A') (A') (A') (A') (A')
                 (A') (A') (A") (A') (A') (A') (A') (A") (A") (A')
                 (A') (A') (A') (A") (A") (A") (A")
       Virtual   (A") (A") (A") (A") (A') (A') (A') (A') (A") (A')
                 (A') (A") (A') (A') (A") (A') (A") (A') (A') (A')
                 (A") (A") (A') (A') (A') (A") (A') (A") (A') (A')
                 (A") (A') (A") (A') (A') (A') (A') (A') (A") (A')
                 (A") (A') (A') (A") (A") (A') (A") (A') (A") (A')
                 (A') (A') (A') (A') (A') (A") (A') (A') (A') (A')
                 (A') (A") (A') (A') (A') (A") (A') (A') (A') (A')
                 (A') (A') (A') (A') (A') (A') (A') (A') (A') (A')
                 (A') (A') (A') (A') (A') (A') (A') (A') (A') (A')
                 (A') (A') (A') (A') (A") (A") (A') (A") (A') (A")
                 (A') (A') (A') (A') (A") (A") (A') (A") (A") (A')
                 (A') (A') (A") (A') (A') (A") (A') (A") (A') (A")
                 (A") (A') (A") (A') (A') (A') (A") (A') (A') (A')
                 (A') (A') (A') (A') (A') (A') (A') (A') (A') (A')
                 (A') (A') (A') (A") (A') (A') (A') (A') (A') (A')
                 (A') (A') (A") (A') (A") (A') (A") (A") (A') (A")
                 (A") (A') (A') (A") (A") (A') (A") (A") (A') (A')
                 (A') (A') (A") (A') (A') (A") (A') (A') (A') (A")
                 (A') (A') (A') (A") (A') (A") (A') (A') (A") (A")
                 (A") (A') (A') (A") (A') (A") (A') (A') (A') (A')
                 (A") (A") (A") (A') (A') (A") (A') (A") (A') (A')
                 (A') (A") (A") (A') (A") (A') (A') (A") (A') (A")
                 (A') (A') (A') (A') (A") (A') (A') (A') (A") (A")
                 (A') (A') (A') (A") (A') (A') (A') (A") (A") (A')
                 (A") (A') (A') (A") (A') (A') (A') (A') (A') (A')
                 (A") (A') (A') (A') (A') (A") (A") (A") (A') (A')
                 (A') (A') (A') (A') (A') (A') (A") (A') (A') (A')
                 (A') (A") (A') (A") (A") (A") (A') (A") (A') (A")
                 (A') (A") (A") (A') (A") (A") (A') (A') (A') (A')
                 (A') (A') (A') (A') (A') (A') (A') (A') (A') (A')
                 (A') (A') (A') (A') (A") (A') (A') (A') (A') (A')
                 (A') (A') (A') (A') (A') (A') (A') (A') (A') (A')
                 (A') (A') (A') (A') (A') (A') (A') (A') (A') (A')
                 (A') (A')
     4 initial guesses have been made.
 Convergence on wavefunction:    0.001000000000000
 Iteration     1 Dimension     4 NMult     0 NNew      4
 CISAX will form     4 AO SS matrices at one time.
 Iteration     2 Dimension     6 NMult     4 NNew      2
 Iteration     3 Dimension     8 NMult     6 NNew      2
 Iteration     4 Dimension    10 NMult     8 NNew      2
 Iteration     5 Dimension    12 NMult    10 NNew      2
 Iteration     6 Dimension    14 NMult    12 NNew      2
 ***********************************************************************
 Excited states from <AA,BB:AA,BB> singles matrix:
 ***********************************************************************
 
 Ground to excited state transition densities written to RWF  633
 Ground to excited state transition electric dipole moments (Au):
       state          X           Y           Z        Dip. S.      Osc.
         1        -0.4660      0.4485      0.0000      0.4183      0.0282
 Ground to excited state transition velocity dipole moments (Au):
       state          X           Y           Z        Dip. S.      Osc.
         1         0.0551     -0.0468     -0.0000      0.0052      0.0344
 Ground to excited state transition magnetic dipole moments (Au):
       state          X           Y           Z
         1        -0.0000     -0.0000     -0.3589
 Ground to excited state transition velocity quadrupole moments (Au):
       state          XX          YY          ZZ          XY          XZ          YZ
         1         0.1740      0.1235     -0.0091      0.1556      0.0000     -0.0000
 <0|del|b> * <b|rxdel|0> + <0|del|b> * <b|delr+rdel|0>
 Rotatory Strengths (R) in cgs (10**-40 erg-esu-cm/Gauss)
       state          XX          YY          ZZ    R(velocity)    E-M Angle
         1         0.0000     -0.0000      0.0000      0.0000       90.00
 1/2[<0|r|b>*<b|rxdel|0> + (<0|rxdel|b>*<b|r|0>)*]
 Rotatory Strengths (R) in cgs (10**-40 erg-esu-cm/Gauss)
       state          XX          YY          ZZ     R(length)
         1        -0.0000      0.0000      0.0000      0.0000
  1/2[<0|del|b>*<b|r|0> + (<0|r|b>*<b|del|0>)*] (Au)
       state          X           Y           Z        Dip. S.   Osc.(frdel)
         1        -0.0257     -0.0210     -0.0000      0.0467      0.0311

 Excitation energies and oscillator strengths:
 
 Excited State   1:      Singlet-A'     2.7547 eV  450.09 nm  f=0.0282  <S**2>=0.000
      47 -> 48         0.70266
 This state for optimization and/or second-order correction.
 Total Energy, E(TD-HF/TD-DFT) =  -539.651177133    
 Copying the excited state density for this state as the 1-particle RhoCI density.
 SavETr:  write IOETrn=   770 NScale= 10 NData=  16 NLR=1 NState=    1 LETran=      28.

 **********************************************************************

            Population analysis using the SCF Density.

 **********************************************************************

 Orbital symmetries:
       Occupied  (A') (A') (A') (A') (A') (A') (A') (A') (A') (A')
                 (A') (A') (A') (A') (A') (A') (A') (A') (A') (A')
                 (A') (A') (A') (A') (A') (A') (A') (A') (A') (A')
                 (A') (A') (A") (A') (A') (A') (A') (A") (A") (A')
                 (A') (A') (A') (A") (A") (A") (A")
       Virtual   (A") (A") (A") (A") (A') (A') (A') (A') (A") (A')
                 (A') (A") (A') (A') (A") (A') (A") (A') (A') (A')
                 (A") (A") (A') (A') (A') (A") (A') (A") (A') (A')
                 (A") (A') (A") (A') (A') (A') (A') (A') (A") (A')
                 (A") (A') (A') (A") (A") (A') (A") (A') (A") (A')
                 (A') (A') (A') (A') (A') (A") (A') (A') (A') (A')
                 (A') (A") (A') (A') (A') (A") (A') (A') (A') (A')
                 (A') (A') (A') (A') (A') (A') (A') (A') (A') (A')
                 (A') (A') (A') (A') (A') (A') (A') (A') (A') (A')
                 (A') (A') (A') (A') (A") (A") (A') (A") (A') (A")
                 (A') (A') (A') (A') (A") (A") (A') (A") (A") (A')
                 (A') (A') (A") (A') (A') (A") (A') (A") (A') (A")
                 (A") (A') (A") (A') (A') (A') (A") (A') (A') (A')
                 (A') (A') (A') (A') (A') (A') (A') (A') (A') (A')
                 (A') (A') (A') (A") (A') (A') (A') (A') (A') (A')
                 (A') (A') (A") (A') (A") (A') (A") (A") (A') (A")
                 (A") (A') (A') (A") (A") (A') (A") (A") (A') (A')
                 (A') (A') (A") (A') (A') (A") (A') (A') (A') (A")
                 (A') (A') (A') (A") (A') (A") (A') (A') (A") (A")
                 (A") (A') (A') (A") (A') (A") (A') (A') (A') (A')
                 (A") (A") (A") (A') (A') (A") (A') (A") (A') (A')
                 (A') (A") (A") (A') (A") (A') (A') (A") (A') (A")
                 (A') (A') (A') (A') (A") (A') (A') (A') (A") (A")
                 (A') (A') (A') (A") (A') (A') (A') (A") (A") (A')
                 (A") (A') (A') (A") (A') (A') (A') (A') (A') (A')
                 (A") (A') (A') (A') (A') (A") (A") (A") (A') (A')
                 (A') (A') (A') (A') (A') (A') (A") (A') (A') (A')
                 (A') (A") (A') (A") (A") (A") (A') (A") (A') (A")
                 (A') (A") (A") (A') (A") (A") (A') (A') (A') (A')
                 (A') (A') (A') (A') (A') (A') (A') (A') (A') (A')
                 (A') (A') (A') (A') (A") (A') (A') (A') (A') (A')
                 (A') (A') (A') (A') (A') (A') (A') (A') (A') (A')
                 (A') (A') (A') (A') (A') (A') (A') (A') (A') (A')
                 (A') (A')
 The electronic state is 1-A'.
 Alpha  occ. eigenvalues --  -10.77666 -10.73480 -10.73020 -10.72451 -10.72411
 Alpha  occ. eigenvalues --  -10.71744 -10.71100 -10.71008 -10.70985 -10.70896
 Alpha  occ. eigenvalues --  -10.70211 -10.69941 -10.69730 -10.69298  -1.16492
 Alpha  occ. eigenvalues --   -1.12517  -1.06937  -1.05813  -1.01330  -1.00360
 Alpha  occ. eigenvalues --   -0.95683  -0.91070  -0.86431  -0.85872  -0.83787
 Alpha  occ. eigenvalues --   -0.78382  -0.76064  -0.74373  -0.69741  -0.69112
 Alpha  occ. eigenvalues --   -0.68547  -0.68136  -0.68119  -0.64796  -0.64338
 Alpha  occ. eigenvalues --   -0.62983  -0.61721  -0.60196  -0.59538  -0.59094
 Alpha  occ. eigenvalues --   -0.56921  -0.55113  -0.54759  -0.52449  -0.46771
 Alpha  occ. eigenvalues --   -0.46132  -0.44288
 Alpha virt. eigenvalues --   -0.26095  -0.14789  -0.13997  -0.12737  -0.11180
 Alpha virt. eigenvalues --   -0.10092  -0.09231  -0.07991  -0.07950  -0.07475
 Alpha virt. eigenvalues --   -0.07205  -0.07140  -0.05647  -0.05585  -0.05341
 Alpha virt. eigenvalues --   -0.03839  -0.03650  -0.03308  -0.03127  -0.02160
 Alpha virt. eigenvalues --   -0.01365  -0.00941   0.00180   0.00573   0.00623
 Alpha virt. eigenvalues --    0.01046   0.01513   0.01917   0.02163   0.02253
 Alpha virt. eigenvalues --    0.02460   0.02671   0.02772   0.03312   0.03384
 Alpha virt. eigenvalues --    0.04228   0.04517   0.04693   0.05030   0.05366
 Alpha virt. eigenvalues --    0.06030   0.06281   0.06577   0.07051   0.07253
 Alpha virt. eigenvalues --    0.07893   0.08152   0.08323   0.08566   0.08901
 Alpha virt. eigenvalues --    0.09339   0.09716   0.09841   0.10713   0.11022
 Alpha virt. eigenvalues --    0.11106   0.12049   0.12277   0.12887   0.13007
 Alpha virt. eigenvalues --    0.13324   0.13520   0.14030   0.14526   0.16120
 Alpha virt. eigenvalues --    0.16311   0.16317   0.17300   0.17634   0.17733
 Alpha virt. eigenvalues --    0.18095   0.18773   0.19237   0.19680   0.19997
 Alpha virt. eigenvalues --    0.21521   0.21538   0.22779   0.23107   0.23513
 Alpha virt. eigenvalues --    0.23937   0.24606   0.25462   0.26833   0.27699
 Alpha virt. eigenvalues --    0.28766   0.29478   0.29868   0.31456   0.35239
 Alpha virt. eigenvalues --    0.36718   0.38181   0.39243   0.41211   0.41393
 Alpha virt. eigenvalues --    0.41991   0.42030   0.43032   0.43556   0.44292
 Alpha virt. eigenvalues --    0.44543   0.45355   0.45959   0.46711   0.47873
 Alpha virt. eigenvalues --    0.48516   0.48787   0.49094   0.50416   0.51015
 Alpha virt. eigenvalues --    0.51316   0.51991   0.52123   0.52941   0.53995
 Alpha virt. eigenvalues --    0.54125   0.54776   0.55593   0.55784   0.57447
 Alpha virt. eigenvalues --    0.58239   0.58930   0.61464   0.61875   0.62608
 Alpha virt. eigenvalues --    0.63302   0.63529   0.64830   0.65397   0.67250
 Alpha virt. eigenvalues --    0.70239   0.70656   0.71022   0.72310   0.72748
 Alpha virt. eigenvalues --    0.75495   0.76153   0.76461   0.76997   0.77048
 Alpha virt. eigenvalues --    0.77622   0.78145   0.78223   0.79911   0.80344
 Alpha virt. eigenvalues --    0.81327   0.81623   0.82305   0.83148   0.85112
 Alpha virt. eigenvalues --    0.87078   0.88122   0.88365   0.89290   0.90194
 Alpha virt. eigenvalues --    0.91134   0.91456   0.93377   0.94583   0.96209
 Alpha virt. eigenvalues --    0.97007   1.00443   1.01346   1.01395   1.02722
 Alpha virt. eigenvalues --    1.03178   1.03489   1.04890   1.05874   1.08905
 Alpha virt. eigenvalues --    1.19458   1.22945   1.23790   1.24069   1.28733
 Alpha virt. eigenvalues --    1.29252   1.32553   1.34317   1.35724   1.35965
 Alpha virt. eigenvalues --    1.38710   1.40558   1.41133   1.42527   1.43370
 Alpha virt. eigenvalues --    1.43861   1.44545   1.45798   1.46136   1.46923
 Alpha virt. eigenvalues --    1.47571   1.48304   1.51775   1.53608   1.54548
 Alpha virt. eigenvalues --    1.55799   1.56217   1.57350   1.58437   1.61472
 Alpha virt. eigenvalues --    1.63184   1.63557   1.63733   1.66033   1.68161
 Alpha virt. eigenvalues --    1.68251   1.68980   1.69610   1.74377   1.76236
 Alpha virt. eigenvalues --    1.76916   1.78010   1.79630   1.79977   1.81544
 Alpha virt. eigenvalues --    1.83017   1.83191   1.83255   1.83819   1.84255
 Alpha virt. eigenvalues --    1.85013   1.85546   1.86408   1.88154   1.91299
 Alpha virt. eigenvalues --    1.91526   1.94182   1.96251   1.97365   1.98554
 Alpha virt. eigenvalues --    1.99561   2.02623   2.04782   2.07026   2.11732
 Alpha virt. eigenvalues --    2.12155   2.14218   2.15169   2.18991   2.21127
 Alpha virt. eigenvalues --    2.22909   2.28395   2.30208   2.34342   2.34735
 Alpha virt. eigenvalues --    2.35973   2.38476   2.39589   2.41878   2.44503
 Alpha virt. eigenvalues --    2.46004   2.46626   2.48939   2.53247   2.54011
 Alpha virt. eigenvalues --    2.54483   2.56562   2.58023   2.58225   2.59557
 Alpha virt. eigenvalues --    2.59657   2.60696   2.61693   2.63140   2.63769
 Alpha virt. eigenvalues --    2.64990   2.65066   2.65343   2.65679   2.67633
 Alpha virt. eigenvalues --    2.70175   2.70984   2.71319   2.73326   2.74776
 Alpha virt. eigenvalues --    2.76321   2.78882   2.79734   2.82087   2.83114
 Alpha virt. eigenvalues --    2.85372   2.86279   2.92092   2.96919   2.98772
 Alpha virt. eigenvalues --    3.00723   3.04547   3.09833   3.11447   3.14454
 Alpha virt. eigenvalues --    3.20293   3.23460   3.26400   3.28285   3.29927
 Alpha virt. eigenvalues --    3.33711   3.34504   3.42980   3.45604   3.46881
 Alpha virt. eigenvalues --    3.47817   3.51986   3.56742   3.65003   3.65746
 Alpha virt. eigenvalues --    3.69545   3.93821   3.94331   3.95186   3.95967
 Alpha virt. eigenvalues --    4.03785   4.05855   4.08123   4.12354   4.35244
 Alpha virt. eigenvalues --    4.61072   4.67693   4.72635  23.45115  23.59963
 Alpha virt. eigenvalues --   23.79755  23.84622  23.84809  23.90044  23.91562
 Alpha virt. eigenvalues --   23.92606  23.95261  24.01456  24.02704  24.05731
 Alpha virt. eigenvalues --   24.08970  24.13958
          Condensed to atoms (all electrons):
               1          2          3          4          5          6
     1  C    8.341264   0.322977  -0.540750   1.872313  -0.104317  -0.092384
     2  C    0.322977   7.284204   0.321177  -1.128644  -0.016338  -0.016420
     3  C   -0.540750   0.321177   6.540113   0.848403  -0.136085   0.017047
     4  C    1.872313  -1.128644   0.848403  10.513287  -0.493462  -0.116228
     5  C   -0.104317  -0.016338  -0.136085  -0.493462  12.243199   0.765028
     6  C   -0.092384  -0.016420   0.017047  -0.116228   0.765028   6.603016
     7  C   -0.001602  -0.000186  -0.012217  -0.000003  -1.205437   0.372499
     8  C    0.390838  -0.025052  -0.103775  -0.003227   2.472905  -0.509652
     9  C   -0.898621  -0.815205   0.297519  -0.049009  -0.286482   0.283496
    10  C   -1.235575   0.188334  -0.290124  -2.487493  -2.713103  -0.370746
    11  C    0.515557  -1.058938   1.060709   0.873478  -1.843400  -0.205478
    12  C   -2.345054   1.579274  -1.532511  -2.406563   0.003614  -0.150362
    13  C    0.428065  -0.325299  -0.144451  -0.976857  -1.553656   0.812357
    14  C   -1.136875  -0.160032  -0.216817  -0.726828  -1.541811  -1.268467
    15  H    0.367496  -0.102402   0.001240   0.022115   0.006545   0.001278
    16  H   -0.019588   0.383013  -0.017863   0.017992  -0.001804  -0.000373
    17  H   -0.024017  -0.019420   0.384436  -0.075824   0.000120   0.000437
    18  H    0.048300   0.003418  -0.082923   0.461182   0.003579  -0.004969
    19  H   -0.040763  -0.007680   0.052574  -0.050894  -0.086805   0.048360
    20  H    0.006819   0.002395  -0.005156   0.005632   0.461349  -0.083805
    21  H   -0.001122  -0.000421   0.000359   0.000480  -0.065576   0.368368
    22  H    0.000607   0.000344  -0.000277  -0.001231   0.007441  -0.015301
    23  H    0.004755  -0.002348   0.000846   0.004187   0.037607  -0.003813
    24  H    0.040188   0.015103  -0.000523  -0.007251  -0.017975  -0.002538
    25  H    0.040188   0.015103  -0.000523  -0.007251  -0.017975  -0.002538
               7          8          9         10         11         12
     1  C   -0.001602   0.390838  -0.898621  -1.235575   0.515557  -2.345054
     2  C   -0.000186  -0.025052  -0.815205   0.188334  -1.058938   1.579274
     3  C   -0.012217  -0.103775   0.297519  -0.290124   1.060709  -1.532511
     4  C   -0.000003  -0.003227  -0.049009  -2.487493   0.873478  -2.406563
     5  C   -1.205437   2.472905  -0.286482  -2.713103  -1.843400   0.003614
     6  C    0.372499  -0.509652   0.283496  -0.370746  -0.205478  -0.150362
     7  C    7.101643   0.105210  -0.836541   0.321108  -0.200632  -0.214126
     8  C    0.105210   9.099825  -1.248756  -1.423956   0.023844  -1.002958
     9  C   -0.836541  -1.248756   9.635683   0.282073   1.836203  -2.215492
    10  C    0.321108  -1.423956   0.282073   9.024375  -0.451943   2.552624
    11  C   -0.200632   0.023844   1.836203  -0.451943  13.977399  -4.408714
    12  C   -0.214126  -1.002958  -2.215492   2.552624  -4.408714  17.215667
    13  C   -0.574746  -0.090532   1.266831  -0.193759   0.916439  -4.904968
    14  C    1.246815  -2.198572  -1.819500   2.271200  -4.458742   3.199835
    15  H   -0.002736   0.006471   0.084512  -0.006141  -0.031688  -0.019201
    16  H    0.000375   0.000764   0.000556  -0.010315   0.020499  -0.028272
    17  H   -0.000374  -0.001517  -0.004268   0.019566  -0.024498   0.090860
    18  H    0.001866   0.007094  -0.021097   0.000749   0.006106  -0.053661
    19  H   -0.006688  -0.053809   0.075572   0.421631   0.075212  -0.070665
    20  H    0.000761   0.055710  -0.026454   0.016107  -0.010705  -0.009972
    21  H   -0.012212  -0.029736  -0.007324   0.020292  -0.006477   0.005667
    22  H    0.376324  -0.022655   0.004557  -0.006932   0.003215  -0.008171
    23  H   -0.113474   0.375522   0.099087  -0.013632   0.004378   0.008158
    24  H    0.014071   0.022393   0.358456   0.005726   0.015221  -0.057337
    25  H    0.014071   0.022393   0.358456   0.005726   0.015221  -0.057337
              13         14         15         16         17         18
     1  C    0.428065  -1.136875   0.367496  -0.019588  -0.024017   0.048300
     2  C   -0.325299  -0.160032  -0.102402   0.383013  -0.019420   0.003418
     3  C   -0.144451  -0.216817   0.001240  -0.017863   0.384436  -0.082923
     4  C   -0.976857  -0.726828   0.022115   0.017992  -0.075824   0.461182
     5  C   -1.553656  -1.541811   0.006545  -0.001804   0.000120   0.003579
     6  C    0.812357  -1.268467   0.001278  -0.000373   0.000437  -0.004969
     7  C   -0.574746   1.246815  -0.002736   0.000375  -0.000374   0.001866
     8  C   -0.090532  -2.198572   0.006471   0.000764  -0.001517   0.007094
     9  C    1.266831  -1.819500   0.084512   0.000556  -0.004268  -0.021097
    10  C   -0.193759   2.271200  -0.006141  -0.010315   0.019566   0.000749
    11  C    0.916439  -4.458742  -0.031688   0.020499  -0.024498   0.006106
    12  C   -4.904968   3.199835  -0.019201  -0.028272   0.090860  -0.053661
    13  C   14.769043  -2.836623  -0.000422   0.002597  -0.006248  -0.010686
    14  C   -2.836623  15.285682   0.004758  -0.009747   0.004952  -0.022113
    15  H   -0.000422   0.004758   0.442455  -0.009574   0.001751   0.000079
    16  H    0.002597  -0.009747  -0.009574   0.419388  -0.007396   0.002119
    17  H   -0.006248   0.004952   0.001751  -0.007396   0.426914  -0.011968
    18  H   -0.010686  -0.022113   0.000079   0.002119  -0.011968   0.451208
    19  H    0.077260  -0.058286   0.000390  -0.000615   0.001733  -0.005226
    20  H   -0.008083  -0.067348  -0.000135   0.000023  -0.000176   0.001215
    21  H   -0.026399   0.095921   0.000014  -0.000007   0.000010  -0.000116
    22  H    0.029426  -0.030483  -0.000127   0.000008  -0.000007   0.000009
    23  H   -0.040218  -0.030338   0.000552  -0.000128   0.000012  -0.000091
    24  H    0.012409  -0.063030  -0.001166   0.000614  -0.000125   0.000125
    25  H    0.012409  -0.063030  -0.001166   0.000614  -0.000125   0.000125
              19         20         21         22         23         24
     1  C   -0.040763   0.006819  -0.001122   0.000607   0.004755   0.040188
     2  C   -0.007680   0.002395  -0.000421   0.000344  -0.002348   0.015103
     3  C    0.052574  -0.005156   0.000359  -0.000277   0.000846  -0.000523
     4  C   -0.050894   0.005632   0.000480  -0.001231   0.004187  -0.007251
     5  C   -0.086805   0.461349  -0.065576   0.007441   0.037607  -0.017975
     6  C    0.048360  -0.083805   0.368368  -0.015301  -0.003813  -0.002538
     7  C   -0.006688   0.000761  -0.012212   0.376324  -0.113474   0.014071
     8  C   -0.053809   0.055710  -0.029736  -0.022655   0.375522   0.022393
     9  C    0.075572  -0.026454  -0.007324   0.004557   0.099087   0.358456
    10  C    0.421631   0.016107   0.020292  -0.006932  -0.013632   0.005726
    11  C    0.075212  -0.010705  -0.006477   0.003215   0.004378   0.015221
    12  C   -0.070665  -0.009972   0.005667  -0.008171   0.008158  -0.057337
    13  C    0.077260  -0.008083  -0.026399   0.029426  -0.040218   0.012409
    14  C   -0.058286  -0.067348   0.095921  -0.030483  -0.030338  -0.063030
    15  H    0.000390  -0.000135   0.000014  -0.000127   0.000552  -0.001166
    16  H   -0.000615   0.000023  -0.000007   0.000008  -0.000128   0.000614
    17  H    0.001733  -0.000176   0.000010  -0.000007   0.000012  -0.000125
    18  H   -0.005226   0.001215  -0.000116   0.000009  -0.000091   0.000125
    19  H    0.443078  -0.007064   0.001132  -0.000449   0.000187   0.000619
    20  H   -0.007064   0.457922  -0.008978   0.001665   0.000263   0.000239
    21  H    0.001132  -0.008978   0.419073  -0.005728   0.001086  -0.000152
    22  H   -0.000449   0.001665  -0.005728   0.419250  -0.008255   0.000640
    23  H    0.000187   0.000263   0.001086  -0.008255   0.436878  -0.000656
    24  H    0.000619   0.000239  -0.000152   0.000640  -0.000656   0.493876
    25  H    0.000619   0.000239  -0.000152   0.000640  -0.000656  -0.079529
              25
     1  C    0.040188
     2  C    0.015103
     3  C   -0.000523
     4  C   -0.007251
     5  C   -0.017975
     6  C   -0.002538
     7  C    0.014071
     8  C    0.022393
     9  C    0.358456
    10  C    0.005726
    11  C    0.015221
    12  C   -0.057337
    13  C    0.012409
    14  C   -0.063030
    15  H   -0.001166
    16  H    0.000614
    17  H   -0.000125
    18  H    0.000125
    19  H    0.000619
    20  H    0.000239
    21  H   -0.000152
    22  H    0.000640
    23  H   -0.000656
    24  H   -0.079529
    25  H    0.493876
 Mulliken charges:
               1
     1  C    0.061299
     2  C   -0.436957
     3  C   -0.440428
     4  C   -0.088301
     5  C    0.082840
     6  C   -0.428812
     7  C   -0.373769
     8  C    0.131227
     9  C   -0.354254
    10  C    0.074209
    11  C   -0.642267
    12  C    0.829665
    13  C   -0.633890
    14  C    0.599477
    15  H    0.235102
    16  H    0.257119
    17  H    0.245172
    18  H    0.225675
    19  H    0.190579
    20  H    0.217535
    21  H    0.251995
    22  H    0.255491
    23  H    0.240092
    24  H    0.250601
    25  H    0.250601
 Sum of Mulliken charges =   1.00000
 Mulliken charges with hydrogens summed into heavy atoms:
               1
     1  C    0.296401
     2  C   -0.179838
     3  C   -0.195256
     4  C    0.137374
     5  C    0.300375
     6  C   -0.176817
     7  C   -0.118278
     8  C    0.371319
     9  C    0.146948
    10  C    0.264787
    11  C   -0.642267
    12  C    0.829665
    13  C   -0.633890
    14  C    0.599477
 Electronic spatial extent (au):  <R**2>=           2856.1847
 Charge=              1.0000 electrons
 Dipole moment (field-independent basis, Debye):
    X=              0.2310    Y=              0.0318    Z=             -0.0000  Tot=              0.2332
 Quadrupole moment (field-independent basis, Debye-Ang):
   XX=            -51.2060   YY=            -36.2300   ZZ=            -84.1349
   XY=             10.1233   XZ=              0.0000   YZ=             -0.0000
 Traceless Quadrupole moment (field-independent basis, Debye-Ang):
   XX=              5.9843   YY=             20.9603   ZZ=            -26.9446
   XY=             10.1233   XZ=              0.0000   YZ=             -0.0000
 Octapole moment (field-independent basis, Debye-Ang**2):
  XXX=             -0.2024  YYY=              9.0498  ZZZ=             -0.0000  XYY=              3.0343
  XXY=             -4.0892  XXZ=             -0.0000  XZZ=             -2.8739  YZZ=              1.1514
  YYZ=             -0.0000  XYZ=              0.0000
 Hexadecapole moment (field-independent basis, Debye-Ang**3):
 XXXX=          -1016.8468 YYYY=          -1819.7132 ZZZZ=            -99.3125 XXXY=           -358.2490
 XXXZ=              0.0000 YYYX=           -283.2639 YYYZ=             -0.0000 ZZZX=              0.0000
 ZZZY=             -0.0000 XXYY=           -455.9514 XXZZ=           -246.7276 YYZZ=           -489.8148
 XXYZ=             -0.0000 YYXZ=              0.0000 ZZXY=           -186.4330
 N-N= 7.812364655073D+02 E-N=-2.798816142316D+03  KE= 5.375248113471D+02
 Symmetry A'   KE= 5.228723549279D+02
 Symmetry A"   KE= 1.465245641923D+01
 Unable to Open any file for archive entry.
 1\1\GINC-GADI-CPU-CLX-2461\SP\RM062X TD-FC\6-311++G(d,p)\C14H11(1+)\TS
 1578\27-Jul-2022\0\\#n M062X/6-311++G(d,p) TD(NStates=1) EmpiricalDisp
 ersion=GD3 SP\\SP_12\\1,1\C,0,0.,2.486255,1.361631\C,0,0.,3.676308,0.6
 62789\C,0,0.,3.672461,-0.73103\C,0,0.,2.485556,-1.419138\C,0,0.,-2.440
 756,-1.395938\C,0,0.,-3.695261,-0.69663\C,0,0.,-3.726708,0.681189\C,0,
 0.,-2.499055,1.359231\C,0,0.,-0.0176,1.453369\C,0,0.,0.0098,-1.429189\
 C,0,0.,1.277055,0.670065\C,0,0.,1.257271,-0.710204\C,0,0.,-1.247055,0.
 684065\C,0,0.,-1.217671,-0.751404\H,0,0.,2.445871,2.443647\H,0,0.,4.59
 9553,1.222689\H,0,0.,4.591462,-1.298349\H,0,0.,2.51855,-2.500459\H,0,0
 .,0.043,-2.510266\H,0,0.,-2.41655,-2.479659\H,0,0.,-4.627062,-1.246349
 \H,0,0.,-4.673953,1.200689\H,0,0.,-2.530271,2.443647\H,0,-0.859585,-0.
 0752,2.145787\H,0,0.859585,-0.0752,2.145787\\Version=ES64L-G16RevC.01\
 State=1-A'\HF=-539.7524093\RMSD=9.290e-09\PG=CS [SG(C14H9),X(H2)]\\@
 The archive entry for this job was punched.


 WHEN IT COMES TO CASH FLOW, IT SEEMS LIKE THE TIDE IS ALWAYS GOING OUT.
 Job cpu time:       0 days  0 hours 44 minutes 30.9 seconds.
 Elapsed time:       0 days  0 hours  1 minutes 23.7 seconds.
 File lengths (MBytes):  RWF=    460 Int=      0 D2E=      0 Chk=     15 Scr=      1
 Normal termination of Gaussian 16 at Wed Jul 27 14:04:54 2022.
