 Entering Gaussian System, Link 0=g16
 Initial command:
 /apps/gaussian/g16c01/g16/l1.exe "/jobfs/52822737.gadi-pbs/Gau-2068571.inp" -scrdir="/jobfs/52822737.gadi-pbs/"
 Entering Link 1 = /apps/gaussian/g16c01/g16/l1.exe PID=   2068572.
  
 Copyright (c) 1988-2019, Gaussian, Inc.  All Rights Reserved.
  
 This is part of the Gaussian(R) 16 program.  It is based on
 the Gaussian(R) 09 system (copyright 2009, Gaussian, Inc.),
 the Gaussian(R) 03 system (copyright 2003, Gaussian, Inc.),
 the Gaussian(R) 98 system (copyright 1998, Gaussian, Inc.),
 the Gaussian(R) 94 system (copyright 1995, Gaussian, Inc.),
 the Gaussian 92(TM) system (copyright 1992, Gaussian, Inc.),
 the Gaussian 90(TM) system (copyright 1990, Gaussian, Inc.),
 the Gaussian 88(TM) system (copyright 1988, Gaussian, Inc.),
 the Gaussian 86(TM) system (copyright 1986, Carnegie Mellon
 University), and the Gaussian 82(TM) system (copyright 1983,
 Carnegie Mellon University). Gaussian is a federally registered
 trademark of Gaussian, Inc.
  
 This software contains proprietary and confidential information,
 including trade secrets, belonging to Gaussian, Inc.
  
 This software is provided under written license and may be
 used, copied, transmitted, or stored only in accord with that
 written license.
  
 The following legend is applicable only to US Government
 contracts under FAR:
  
                    RESTRICTED RIGHTS LEGEND
  
 Use, reproduction and disclosure by the US Government is
 subject to restrictions as set forth in subparagraphs (a)
 and (c) of the Commercial Computer Software - Restricted
 Rights clause in FAR 52.227-19.
  
 Gaussian, Inc.
 340 Quinnipiac St., Bldg. 40, Wallingford CT 06492
  
  
 ---------------------------------------------------------------
 Warning -- This program may not be used in any manner that
 competes with the business of Gaussian, Inc. or will provide
 assistance to any competitor of Gaussian, Inc.  The licensee
 of this program is prohibited from giving any competitor of
 Gaussian, Inc. access to this program.  By using this program,
 the user acknowledges that Gaussian, Inc. is engaged in the
 business of creating and licensing software in the field of
 computational chemistry and represents and warrants to the
 licensee that it is not a competitor of Gaussian, Inc. and that
 it will not use this program in any manner prohibited above.
 ---------------------------------------------------------------
  

 Cite this work as:
 Gaussian 16, Revision C.01,
 M. J. Frisch, G. W. Trucks, H. B. Schlegel, G. E. Scuseria, 
 M. A. Robb, J. R. Cheeseman, G. Scalmani, V. Barone, 
 G. A. Petersson, H. Nakatsuji, X. Li, M. Caricato, A. V. Marenich, 
 J. Bloino, B. G. Janesko, R. Gomperts, B. Mennucci, H. P. Hratchian, 
 J. V. Ortiz, A. F. Izmaylov, J. L. Sonnenberg, D. Williams-Young, 
 F. Ding, F. Lipparini, F. Egidi, J. Goings, B. Peng, A. Petrone, 
 T. Henderson, D. Ranasinghe, V. G. Zakrzewski, J. Gao, N. Rega, 
 G. Zheng, W. Liang, M. Hada, M. Ehara, K. Toyota, R. Fukuda, 
 J. Hasegawa, M. Ishida, T. Nakajima, Y. Honda, O. Kitao, H. Nakai, 
 T. Vreven, K. Throssell, J. A. Montgomery, Jr., J. E. Peralta, 
 F. Ogliaro, M. J. Bearpark, J. J. Heyd, E. N. Brothers, K. N. Kudin, 
 V. N. Staroverov, T. A. Keith, R. Kobayashi, J. Normand, 
 K. Raghavachari, A. P. Rendell, J. C. Burant, S. S. Iyengar, 
 J. Tomasi, M. Cossi, J. M. Millam, M. Klene, C. Adamo, R. Cammi, 
 J. W. Ochterski, R. L. Martin, K. Morokuma, O. Farkas, 
 J. B. Foresman, and D. J. Fox, Gaussian, Inc., Wallingford CT, 2019.
 
 ******************************************
 Gaussian 16:  ES64L-G16RevC.01  3-Jul-2019
                27-Jul-2022 
 ******************************************
 %NProcShared=32
 Will use up to   32 processors via shared memory.
 %mem = 128GB
 ---------------------------------------------------------------
 #n M062X/6-311++G(d,p) TD(NStates=1) EmpiricalDispersion=GD3 SP
 ---------------------------------------------------------------
 1/38=1,172=1/1;
 2/12=2,17=6,18=5,40=1/2;
 3/5=4,6=6,7=1111,11=9,25=1,30=1,74=-55,124=31/1,2,3,8;
 4//1;
 5/5=2,38=5/2;
 8/6=1,10=2,108=1/1;
 9/41=1,42=1,70=2/14;
 6/7=2,8=2,9=2,10=2/1;
 99/5=1,9=1/99;
 -----
 SP_18
 -----
 Symbolic Z-matrix:
 Charge =  1 Multiplicity = 1
 C                     0.        2.50386   1.36223 
 C                     0.        3.68711   0.66859 
 C                     0.        3.67846  -0.71883 
 C                     0.        2.47076  -1.41454 
 C                     0.       -2.45556  -1.40054 
 C                     0.       -3.68926  -0.70883 
 C                     0.       -3.71591   0.67539 
 C                     0.       -2.48146   1.35863 
 C                     0.       -0.016     1.45337 
 C                     0.       -0.023    -1.42919 
 C                     0.        1.27286   0.65227 
 C                     0.        1.25547  -0.6986 
 C                     0.       -1.25126   0.70187 
 C                     0.       -1.21947  -0.763 
 H                     0.        2.43127   2.44365 
 H                     0.        4.60435   1.23729 
 H                     0.        4.58386  -1.30875 
 H                     0.        2.53235  -2.49526 
 H                     0.        0.032    -2.51027 
 H                     0.       -2.40275  -2.48486 
 H                     0.       -4.63466  -1.23595 
 H                     0.       -4.66915   1.18609 
 H                     0.       -2.54487   2.44365 
 H                    -0.85959  -0.0556    2.14579 
 H                     0.85959  -0.0556    2.14579 
 
                          Input orientation:                          
 ---------------------------------------------------------------------
 Center     Atomic      Atomic             Coordinates (Angstroms)
 Number     Number       Type             X           Y           Z
 ---------------------------------------------------------------------
      1          6           0        0.000000    2.503855    1.362231
      2          6           0        0.000000    3.687108    0.668589
      3          6           0        0.000000    3.678461   -0.718830
      4          6           0        0.000000    2.470756   -1.414538
      5          6           0        0.000000   -2.455556   -1.400538
      6          6           0        0.000000   -3.689261   -0.708830
      7          6           0        0.000000   -3.715908    0.675389
      8          6           0        0.000000   -2.481455    1.358631
      9          6           0        0.000000   -0.016000    1.453369
     10          6           0        0.000000   -0.023000   -1.429189
     11          6           0        0.000000    1.272855    0.652265
     12          6           0        0.000000    1.255471   -0.698604
     13          6           0        0.000000   -1.251255    0.701865
     14          6           0        0.000000   -1.219471   -0.763004
     15          1           0        0.000000    2.431271    2.443647
     16          1           0        0.000000    4.604353    1.237289
     17          1           0        0.000000    4.583862   -1.308749
     18          1           0        0.000000    2.532350   -2.495259
     19          1           0        0.000000    0.032000   -2.510266
     20          1           0        0.000000   -2.402750   -2.484859
     21          1           0        0.000000   -4.634662   -1.235949
     22          1           0        0.000000   -4.669153    1.186089
     23          1           0        0.000000   -2.544871    2.443647
     24          1           0       -0.859585   -0.055600    2.145787
     25          1           0        0.859585   -0.055600    2.145787
 ---------------------------------------------------------------------
                    Distance matrix (angstroms):
                    1          2          3          4          5
     1  C    0.000000
     2  C    1.371578   0.000000
     3  C    2.389668   1.387446   0.000000
     4  C    2.776966   2.412246   1.393758   0.000000
     5  C    5.677028   6.481790   6.171782   4.926332   0.000000
     6  C    6.530236   7.503873   7.367729   6.200309   1.414386
     7  C    6.257572   7.403019   7.524662   6.530131   2.428572
     8  C    4.985311   6.207039   6.500801   5.675814   2.759291
     9  C    2.521503   3.785352   4.285731   3.795899   3.754493
    10  C    3.765239   4.262109   3.769008   2.493799   2.432725
    11  C    1.421060   2.414308   2.768906   2.388858   4.256178
    12  C    2.409461   2.789637   2.423074   1.410489   3.776828
    13  C    3.812733   4.938475   5.130348   4.281650   2.422899
    14  C    4.287165   5.111162   4.898131   3.747302   1.390811
    15  H    1.083849   2.174387   3.399521   3.858387   6.217623
    16  H    2.104211   1.079240   2.164181   3.403590   7.536607
    17  H    3.385345   2.171182   1.080627   2.115752   7.040016
    18  H    3.857595   3.367996   2.114065   1.082475   5.106625
    19  H    4.594159   4.844062   4.062748   2.673603   2.723863
    20  H    6.234972   6.857886   6.332455   4.989654   1.085606
    21  H    7.596642   8.536927   8.329191   7.107662   2.185313
    22  H    7.175170   8.372270   8.562206   7.598787   3.404505
    23  H    5.163245   6.479845   6.980768   6.327883   3.845222
    24  H    2.811344   4.114470   4.784154   4.449413   4.367505
    25  H    2.811344   4.114470   4.784154   4.449413   4.367505
                    6          7          8          9         10
     6  C    0.000000
     7  C    1.384475   0.000000
     8  C    2.394408   1.410920   0.000000
     9  C    4.262388   3.780816   2.467275   0.000000
    10  C    3.736360   4.250508   3.716980   2.882566   0.000000
    11  C    5.145403   4.988817   3.820183   1.517536   2.451875
    12  C    4.944743   5.157758   4.265774   2.499525   1.472495
    13  C    2.816724   2.464795   1.394537   1.445895   2.459675
    14  C    2.470384   2.881175   2.468590   2.522033   1.369432
    15  H    6.884695   6.396448   5.031117   2.640035   4.585009
    16  H    8.518886   8.339213   7.086847   4.625403   5.340646
    17  H    8.294846   8.533638   7.552061   5.365447   4.608436
    18  H    6.473003   7.006692   6.323821   4.699548   2.768812
    19  H    4.134363   4.918863   4.613656   3.963926   1.082475
    20  H    2.193032   3.422214   3.844296   4.605021   2.603392
    21  H    1.082422   2.120689   3.371668   5.344574   4.615709
    22  H    2.133285   1.081430   2.194492   4.660823   5.331643
    23  H    3.353765   2.120864   1.086868   2.715850   4.621546
    24  H    4.700129   4.037179   2.691333   1.104490   3.677010
    25  H    4.700129   4.037179   2.691333   1.104490   3.677010
                   11         12         13         14         15
    11  C    0.000000
    12  C    1.350981   0.000000
    13  C    2.524597   2.871409   0.000000
    14  C    2.866125   2.475780   1.465214   0.000000
    15  H    2.133302   3.355033   4.073672   4.859067   0.000000
    16  H    3.382474   3.868164   5.880036   6.157767   2.485475
    17  H    3.848161   3.383853   6.171804   5.828937   4.325982
    18  H    3.390167   2.204175   4.953511   4.132417   4.939940
    19  H    3.397252   2.186093   3.458978   2.149210   5.504340
    20  H    4.832351   4.071030   3.388385   2.089242   6.903472
    21  H    6.201944   5.914593   3.899047   3.447783   7.966608
    22  H    5.965939   6.217173   3.452028   3.962230   7.210927
    23  H    4.217118   4.931160   2.169619   3.469769   4.976142
    24  H    2.175842   3.247823   2.062374   3.248776   2.648043
    25  H    2.175842   3.247823   2.062374   3.248776   2.648043
                   16         17         18         19         20
    16  H    0.000000
    17  H    2.546120   0.000000
    18  H    4.269088   2.369917   0.000000
    19  H    5.911902   4.707769   2.500395   0.000000
    20  H    7.934348   7.084912   4.935111   2.434883   0.000000
    21  H    9.564325   9.218811   7.276807   4.837522   2.557578
    22  H    9.273647   9.583449   8.087890   5.980291   4.314214
    23  H    7.250290   8.056011   7.083147   5.584041   4.930555
    24  H    4.824875   5.847847   5.382906   4.735545   5.262213
    25  H    4.824875   5.847847   5.382906   4.735545   5.262213
                   21         22         23         24         25
    21  H    0.000000
    22  H    2.422284   0.000000
    23  H    4.231625   2.468608   0.000000
    24  H    5.756981   4.790071   2.650298   0.000000
    25  H    5.756981   4.790071   2.650298   1.719170   0.000000
 Stoichiometry    C14H11(1+)
 Framework group  CS[SG(C14H9),X(H2)]
 Deg. of freedom    46
 Full point group                 CS      NOp   2
 Largest Abelian subgroup         CS      NOp   2
 Largest concise Abelian subgroup CS      NOp   2
                         Standard orientation:                         
 ---------------------------------------------------------------------
 Center     Atomic      Atomic             Coordinates (Angstroms)
 Number     Number       Type             X           Y           Z
 ---------------------------------------------------------------------
      1          6           0        2.483262   -1.400910    0.000000
      2          6           0        3.677130   -0.725701    0.000000
      3          6           0        3.690000    0.661686    0.000000
      4          6           0        2.493229    1.376039    0.000000
      5          6           0       -2.432708    1.438437    0.000000
      6          6           0       -3.676991    0.765944    0.000000
      7          6           0       -3.725101   -0.617695    0.000000
      8          6           0       -2.501392   -1.319999    0.000000
      9          6           0       -0.037703   -1.452959    0.000000
     10          6           0        0.000000    1.429361    0.000000
     11          6           0        1.263420   -0.671939    0.000000
     12          6           0        1.266987    0.679037    0.000000
     13          6           0       -1.261155   -0.682389    0.000000
     14          6           0       -1.206658    0.781811    0.000000
     15          1           0        2.393917   -2.481070    0.000000
     16          1           0        4.585445   -1.308557    0.000000
     17          1           0        4.604440    1.237493    0.000000
     18          1           0        2.571575    2.455675    0.000000
     19          1           0        0.071759    2.509455    0.000000
     20          1           0       -2.363093    2.521809    0.000000
     21          1           0       -4.614104    1.307661    0.000000
     22          1           0       -4.686152   -1.113551    0.000000
     23          1           0       -2.581627   -2.403901    0.000000
     24          1           0       -0.088036   -2.144680    0.859585
     25          1           0       -0.088036   -2.144680   -0.859585
 ---------------------------------------------------------------------
 Rotational constants (GHZ):           2.1358520           0.4446033           0.3687996
 Standard basis: 6-311++G(d,p) (5D, 7F)
 There are   299 symmetry adapted cartesian basis functions of A'  symmetry.
 There are   100 symmetry adapted cartesian basis functions of A"  symmetry.
 There are   285 symmetry adapted basis functions of A'  symmetry.
 There are   100 symmetry adapted basis functions of A"  symmetry.
   385 basis functions,   603 primitive gaussians,   399 cartesian basis functions
    47 alpha electrons       47 beta electrons
       nuclear repulsion energy       781.2645366820 Hartrees.
 NAtoms=   25 NActive=   25 NUniq=   24 SFac= 1.09D+00 NAtFMM=   60 NAOKFM=F Big=F
 Integral buffers will be    131072 words long.
 Regular integral format.
 Two-electron integral symmetry is turned on.
 Nuclear repulsion after empirical dispersion term =      781.2635573241 Hartrees.
 One-electron integrals computed using PRISM.
 NBasis=   385 RedAO= T EigKep=  1.03D-06  NBF=   285   100
 NBsUse=   379 1.00D-06 EigRej=  8.20D-07 NBFU=   279   100
 ExpMin= 3.60D-02 ExpMax= 4.56D+03 ExpMxC= 6.82D+02 IAcc=3 IRadAn=         5 AccDes= 0.00D+00
 Harris functional with IExCor= 1009 and IRadAn=       5 diagonalized for initial guess.
 HarFok:  IExCor= 1009 AccDes= 0.00D+00 IRadAn=         5 IDoV= 1 UseB2=F ITyADJ=14
 ICtDFT=  3500011 ScaDFX=  1.000000  1.000000  1.000000  1.000000
 FoFCou: FMM=F IPFlag=           0 FMFlag=      100000 FMFlg1=           0
         NFxFlg=           0 DoJE=T BraDBF=F KetDBF=T FulRan=T
         wScrn=  0.000000 ICntrl=       500 IOpCl=  0 I1Cent=   200000004 NGrid=           0
         NMat0=    1 NMatS0=      1 NMatT0=    0 NMatD0=    1 NMtDS0=    0 NMtDT0=    0
 Petite list used in FoFCou.
 Initial guess orbital symmetries:
       Occupied  (A') (A') (A') (A') (A') (A') (A') (A') (A') (A')
                 (A') (A') (A') (A') (A') (A') (A') (A') (A') (A')
                 (A') (A') (A') (A') (A') (A') (A') (A') (A') (A')
                 (A') (A') (A") (A') (A') (A') (A') (A') (A") (A')
                 (A") (A') (A') (A") (A") (A") (A")
       Virtual   (A") (A") (A") (A") (A") (A') (A') (A') (A') (A")
                 (A") (A') (A') (A') (A") (A') (A') (A') (A') (A')
                 (A") (A") (A') (A') (A') (A") (A') (A') (A") (A')
                 (A') (A') (A') (A") (A') (A') (A") (A') (A') (A")
                 (A') (A') (A') (A") (A') (A') (A') (A') (A') (A")
                 (A') (A") (A") (A') (A') (A') (A') (A") (A") (A')
                 (A') (A') (A') (A') (A') (A') (A") (A') (A') (A")
                 (A') (A') (A') (A') (A') (A') (A') (A') (A') (A')
                 (A') (A') (A') (A') (A') (A') (A') (A') (A') (A')
                 (A') (A') (A') (A') (A') (A') (A') (A") (A") (A')
                 (A') (A") (A') (A") (A') (A") (A") (A') (A') (A")
                 (A') (A") (A') (A') (A") (A') (A') (A") (A") (A')
                 (A") (A") (A') (A') (A') (A") (A') (A') (A') (A")
                 (A') (A') (A') (A') (A') (A') (A") (A') (A') (A')
                 (A') (A') (A') (A') (A') (A') (A') (A') (A') (A")
                 (A") (A') (A") (A") (A') (A') (A') (A") (A") (A')
                 (A") (A') (A") (A") (A") (A') (A') (A') (A') (A')
                 (A') (A") (A') (A') (A") (A') (A') (A') (A') (A')
                 (A") (A') (A') (A') (A") (A') (A") (A') (A") (A")
                 (A") (A') (A') (A') (A") (A') (A') (A") (A') (A')
                 (A") (A") (A") (A') (A') (A") (A') (A") (A') (A')
                 (A") (A') (A") (A") (A') (A') (A") (A') (A') (A")
                 (A') (A') (A') (A') (A") (A') (A') (A') (A") (A")
                 (A') (A') (A') (A") (A') (A') (A") (A') (A") (A')
                 (A") (A') (A') (A') (A') (A") (A') (A') (A') (A")
                 (A') (A') (A') (A") (A") (A') (A') (A") (A') (A')
                 (A') (A") (A') (A") (A') (A') (A") (A') (A") (A')
                 (A') (A') (A') (A') (A") (A') (A") (A") (A') (A')
                 (A") (A') (A") (A") (A') (A") (A') (A') (A') (A')
                 (A') (A') (A') (A') (A') (A') (A') (A') (A') (A')
                 (A') (A') (A') (A') (A") (A') (A') (A') (A') (A')
                 (A') (A') (A') (A') (A') (A') (A') (A') (A') (A')
                 (A') (A') (A') (A') (A') (A') (A') (A') (A') (A')
                 (A') (A')
 The electronic state of the initial guess is 1-A'.
 Requested convergence on RMS density matrix=1.00D-08 within 128 cycles.
 Requested convergence on MAX density matrix=1.00D-06.
 Requested convergence on             energy=1.00D-06.
 No special actions if energy rises.
 SCF Done:  E(RM062X) =  -539.747256257     A.U. after   15 cycles
            NFock= 15  Conv=0.69D-08     -V/T= 2.0041
 DoSCS=F DFT=T ScalE2(SS,OS)=  1.000000  1.000000
 ExpMin= 3.60D-02 ExpMax= 4.56D+03 ExpMxC= 6.82D+02 IAcc=3 IRadAn=         5 AccDes= 0.00D+00
 HarFok:  IExCor=  205 AccDes= 0.00D+00 IRadAn=         5 IDoV=-2 UseB2=F ITyADJ=14
 ICtDFT= 12500011 ScaDFX=  1.000000  1.000000  1.000000  1.000000
 Range of M.O.s used for correlation:    15   379
 NBasis=   385 NAE=    47 NBE=    47 NFC=    14 NFV=     0
 NROrb=    365 NOA=    33 NOB=    33 NVA=   332 NVB=   332

 **** Warning!!: The largest alpha MO coefficient is  0.15206315D+03

 Orbital symmetries:
       Occupied  (A') (A') (A') (A') (A') (A') (A') (A') (A') (A')
                 (A') (A') (A') (A') (A') (A') (A') (A') (A') (A')
                 (A') (A') (A') (A') (A') (A') (A') (A') (A') (A')
                 (A') (A") (A') (A') (A') (A') (A') (A") (A") (A')
                 (A') (A') (A') (A") (A") (A") (A")
       Virtual   (A") (A") (A") (A") (A') (A') (A') (A') (A") (A')
                 (A') (A") (A') (A') (A") (A') (A") (A') (A') (A')
                 (A") (A") (A') (A') (A') (A") (A') (A") (A') (A')
                 (A") (A') (A") (A') (A') (A') (A') (A') (A") (A')
                 (A") (A') (A') (A") (A") (A') (A") (A') (A") (A')
                 (A') (A') (A') (A') (A') (A") (A') (A') (A') (A')
                 (A') (A") (A') (A') (A') (A") (A') (A') (A') (A')
                 (A') (A') (A') (A') (A') (A') (A') (A') (A') (A')
                 (A') (A') (A') (A') (A') (A') (A') (A') (A') (A')
                 (A') (A') (A') (A") (A') (A") (A') (A") (A') (A')
                 (A") (A') (A') (A') (A") (A") (A') (A") (A") (A')
                 (A') (A') (A") (A') (A") (A') (A') (A") (A') (A")
                 (A") (A') (A") (A') (A') (A') (A") (A') (A') (A')
                 (A') (A') (A') (A') (A') (A') (A') (A') (A') (A')
                 (A') (A') (A') (A") (A') (A') (A') (A') (A') (A')
                 (A') (A') (A") (A') (A") (A') (A") (A") (A') (A")
                 (A") (A') (A") (A') (A") (A") (A') (A") (A') (A')
                 (A') (A') (A') (A") (A") (A') (A') (A') (A') (A")
                 (A') (A') (A') (A") (A') (A") (A') (A') (A") (A")
                 (A") (A') (A') (A") (A') (A") (A') (A') (A') (A')
                 (A") (A") (A") (A') (A') (A") (A') (A") (A') (A')
                 (A') (A") (A') (A") (A") (A') (A") (A') (A') (A")
                 (A') (A') (A') (A') (A') (A") (A') (A') (A") (A")
                 (A') (A') (A') (A") (A') (A') (A') (A") (A") (A')
                 (A") (A') (A') (A') (A") (A') (A') (A') (A') (A')
                 (A") (A') (A') (A') (A") (A') (A") (A') (A") (A')
                 (A') (A') (A') (A') (A') (A') (A") (A') (A') (A')
                 (A') (A") (A') (A") (A") (A") (A') (A") (A') (A")
                 (A') (A") (A") (A') (A") (A") (A') (A') (A') (A')
                 (A') (A') (A') (A') (A') (A') (A') (A') (A') (A')
                 (A') (A') (A') (A') (A") (A') (A') (A') (A') (A')
                 (A') (A') (A') (A') (A') (A') (A') (A') (A') (A')
                 (A') (A') (A') (A') (A') (A') (A') (A') (A') (A')
                 (A') (A')
     4 initial guesses have been made.
 Convergence on wavefunction:    0.001000000000000
 Iteration     1 Dimension     4 NMult     0 NNew      4
 CISAX will form     4 AO SS matrices at one time.
 Iteration     2 Dimension     6 NMult     4 NNew      2
 Iteration     3 Dimension     8 NMult     6 NNew      2
 Iteration     4 Dimension    10 NMult     8 NNew      2
 Iteration     5 Dimension    12 NMult    10 NNew      2
 Iteration     6 Dimension    14 NMult    12 NNew      2
 Iteration     7 Dimension    16 NMult    14 NNew      2
 ***********************************************************************
 Excited states from <AA,BB:AA,BB> singles matrix:
 ***********************************************************************
 
 Ground to excited state transition densities written to RWF  633
 Ground to excited state transition electric dipole moments (Au):
       state          X           Y           Z        Dip. S.      Osc.
         1         0.2312      0.6270     -0.0000      0.4465      0.0307
 Ground to excited state transition velocity dipole moments (Au):
       state          X           Y           Z        Dip. S.      Osc.
         1        -0.0244     -0.0722      0.0000      0.0058      0.0376
 Ground to excited state transition magnetic dipole moments (Au):
       state          X           Y           Z
         1        -0.0000     -0.0000      0.3239
 Ground to excited state transition velocity quadrupole moments (Au):
       state          XX          YY          ZZ          XY          XZ          YZ
         1        -0.2851     -0.0359      0.0100      0.0593     -0.0000     -0.0000
 <0|del|b> * <b|rxdel|0> + <0|del|b> * <b|delr+rdel|0>
 Rotatory Strengths (R) in cgs (10**-40 erg-esu-cm/Gauss)
       state          XX          YY          ZZ    R(velocity)    E-M Angle
         1         0.0000      0.0000      0.0000      0.0000       90.00
 1/2[<0|r|b>*<b|rxdel|0> + (<0|rxdel|b>*<b|r|0>)*]
 Rotatory Strengths (R) in cgs (10**-40 erg-esu-cm/Gauss)
       state          XX          YY          ZZ     R(length)
         1         0.0000      0.0000      0.0000      0.0000
  1/2[<0|del|b>*<b|r|0> + (<0|r|b>*<b|del|0>)*] (Au)
       state          X           Y           Z        Dip. S.   Osc.(frdel)
         1        -0.0056     -0.0453     -0.0000      0.0509      0.0339

 Excitation energies and oscillator strengths:
 
 Excited State   1:      Singlet-A'     2.8038 eV  442.20 nm  f=0.0307  <S**2>=0.000
      47 -> 48         0.69991
 This state for optimization and/or second-order correction.
 Total Energy, E(TD-HF/TD-DFT) =  -539.644219014    
 Copying the excited state density for this state as the 1-particle RhoCI density.
 SavETr:  write IOETrn=   770 NScale= 10 NData=  16 NLR=1 NState=    1 LETran=      28.

 **********************************************************************

            Population analysis using the SCF Density.

 **********************************************************************

 Orbital symmetries:
       Occupied  (A') (A') (A') (A') (A') (A') (A') (A') (A') (A')
                 (A') (A') (A') (A') (A') (A') (A') (A') (A') (A')
                 (A') (A') (A') (A') (A') (A') (A') (A') (A') (A')
                 (A') (A") (A') (A') (A') (A') (A') (A") (A") (A')
                 (A') (A') (A') (A") (A") (A") (A")
       Virtual   (A") (A") (A") (A") (A') (A') (A') (A') (A") (A')
                 (A') (A") (A') (A') (A") (A') (A") (A') (A') (A')
                 (A") (A") (A') (A') (A') (A") (A') (A") (A') (A')
                 (A") (A') (A") (A') (A') (A') (A') (A') (A") (A')
                 (A") (A') (A') (A") (A") (A') (A") (A') (A") (A')
                 (A') (A') (A') (A') (A') (A") (A') (A') (A') (A')
                 (A') (A") (A') (A') (A') (A") (A') (A') (A') (A')
                 (A') (A') (A') (A') (A') (A') (A') (A') (A') (A')
                 (A') (A') (A') (A') (A') (A') (A') (A') (A') (A')
                 (A') (A') (A') (A") (A') (A") (A') (A") (A') (A')
                 (A") (A') (A') (A') (A") (A") (A') (A") (A") (A')
                 (A') (A') (A") (A') (A") (A') (A') (A") (A') (A")
                 (A") (A') (A") (A') (A') (A') (A") (A') (A') (A')
                 (A') (A') (A') (A') (A') (A') (A') (A') (A') (A')
                 (A') (A') (A') (A") (A') (A') (A') (A') (A') (A')
                 (A') (A') (A") (A') (A") (A') (A") (A") (A') (A")
                 (A") (A') (A") (A') (A") (A") (A') (A") (A') (A')
                 (A') (A') (A') (A") (A") (A') (A') (A') (A') (A")
                 (A') (A') (A') (A") (A') (A") (A') (A') (A") (A")
                 (A") (A') (A') (A") (A') (A") (A') (A') (A') (A')
                 (A") (A") (A") (A') (A') (A") (A') (A") (A') (A')
                 (A') (A") (A') (A") (A") (A') (A") (A') (A') (A")
                 (A') (A') (A') (A') (A') (A") (A') (A') (A") (A")
                 (A') (A') (A') (A") (A') (A') (A') (A") (A") (A')
                 (A") (A') (A') (A') (A") (A') (A') (A') (A') (A')
                 (A") (A') (A') (A') (A") (A') (A") (A') (A") (A')
                 (A') (A') (A') (A') (A') (A') (A") (A') (A') (A')
                 (A') (A") (A') (A") (A") (A") (A') (A") (A') (A")
                 (A') (A") (A") (A') (A") (A") (A') (A') (A') (A')
                 (A') (A') (A') (A') (A') (A') (A') (A') (A') (A')
                 (A') (A') (A') (A') (A") (A') (A') (A') (A') (A')
                 (A') (A') (A') (A') (A') (A') (A') (A') (A') (A')
                 (A') (A') (A') (A') (A') (A') (A') (A') (A') (A')
                 (A') (A')
 The electronic state is 1-A'.
 Alpha  occ. eigenvalues --  -10.77524 -10.74008 -10.72745 -10.72407 -10.72368
 Alpha  occ. eigenvalues --  -10.72126 -10.71989 -10.70983 -10.70535 -10.70423
 Alpha  occ. eigenvalues --  -10.70363 -10.69911 -10.69399 -10.68928  -1.16509
 Alpha  occ. eigenvalues --   -1.12496  -1.07065  -1.05976  -1.01206  -1.00157
 Alpha  occ. eigenvalues --   -0.95836  -0.91213  -0.86336  -0.85824  -0.83699
 Alpha  occ. eigenvalues --   -0.78440  -0.76037  -0.74390  -0.70255  -0.69057
 Alpha  occ. eigenvalues --   -0.68469  -0.68158  -0.67767  -0.65022  -0.63925
 Alpha  occ. eigenvalues --   -0.62906  -0.61775  -0.60106  -0.59680  -0.59484
 Alpha  occ. eigenvalues --   -0.56686  -0.55214  -0.54260  -0.52541  -0.46636
 Alpha  occ. eigenvalues --   -0.46117  -0.44422
 Alpha virt. eigenvalues --   -0.26145  -0.14774  -0.13927  -0.12685  -0.11194
 Alpha virt. eigenvalues --   -0.10106  -0.09260  -0.07997  -0.07904  -0.07470
 Alpha virt. eigenvalues --   -0.07213  -0.07119  -0.05644  -0.05586  -0.05367
 Alpha virt. eigenvalues --   -0.03852  -0.03656  -0.03306  -0.03124  -0.02149
 Alpha virt. eigenvalues --   -0.01366  -0.00931   0.00162   0.00494   0.00597
 Alpha virt. eigenvalues --    0.01033   0.01507   0.01803   0.02073   0.02258
 Alpha virt. eigenvalues --    0.02468   0.02692   0.02895   0.03159   0.03517
 Alpha virt. eigenvalues --    0.04221   0.04632   0.04769   0.05050   0.05351
 Alpha virt. eigenvalues --    0.06049   0.06261   0.06578   0.07050   0.07257
 Alpha virt. eigenvalues --    0.07868   0.08007   0.08262   0.08740   0.08853
 Alpha virt. eigenvalues --    0.09254   0.09527   0.09793   0.10448   0.10982
 Alpha virt. eigenvalues --    0.11127   0.11906   0.12217   0.12760   0.13041
 Alpha virt. eigenvalues --    0.13384   0.13539   0.13985   0.14852   0.15756
 Alpha virt. eigenvalues --    0.16361   0.16471   0.17302   0.17751   0.18019
 Alpha virt. eigenvalues --    0.18080   0.18721   0.19321   0.19733   0.19968
 Alpha virt. eigenvalues --    0.21474   0.21565   0.22753   0.23119   0.23462
 Alpha virt. eigenvalues --    0.23969   0.24675   0.25790   0.26867   0.27797
 Alpha virt. eigenvalues --    0.28625   0.29633   0.30077   0.31569   0.34799
 Alpha virt. eigenvalues --    0.37164   0.38097   0.39123   0.41251   0.41310
 Alpha virt. eigenvalues --    0.42044   0.42059   0.43064   0.43605   0.44079
 Alpha virt. eigenvalues --    0.44341   0.45247   0.46236   0.47059   0.47874
 Alpha virt. eigenvalues --    0.48466   0.48786   0.48962   0.50467   0.50666
 Alpha virt. eigenvalues --    0.51649   0.51683   0.52189   0.53157   0.54080
 Alpha virt. eigenvalues --    0.54167   0.54605   0.55664   0.56017   0.57424
 Alpha virt. eigenvalues --    0.58232   0.58932   0.61453   0.61832   0.62787
 Alpha virt. eigenvalues --    0.63452   0.63643   0.64738   0.65389   0.66922
 Alpha virt. eigenvalues --    0.70321   0.70749   0.70965   0.72124   0.72637
 Alpha virt. eigenvalues --    0.75554   0.76075   0.76233   0.77066   0.77187
 Alpha virt. eigenvalues --    0.77403   0.78224   0.78288   0.79921   0.80367
 Alpha virt. eigenvalues --    0.81111   0.81961   0.82413   0.83216   0.84988
 Alpha virt. eigenvalues --    0.87212   0.88162   0.88604   0.89277   0.90131
 Alpha virt. eigenvalues --    0.91198   0.91220   0.93545   0.94654   0.96265
 Alpha virt. eigenvalues --    0.96996   1.00620   1.01058   1.01140   1.03003
 Alpha virt. eigenvalues --    1.03414   1.03765   1.05116   1.05477   1.09047
 Alpha virt. eigenvalues --    1.19103   1.22951   1.23716   1.24352   1.28793
 Alpha virt. eigenvalues --    1.28960   1.32421   1.34472   1.35980   1.35984
 Alpha virt. eigenvalues --    1.38328   1.40775   1.41153   1.42440   1.43553
 Alpha virt. eigenvalues --    1.43979   1.44988   1.45341   1.45651   1.46988
 Alpha virt. eigenvalues --    1.47872   1.48275   1.51707   1.53581   1.53736
 Alpha virt. eigenvalues --    1.55829   1.55924   1.57439   1.58835   1.61551
 Alpha virt. eigenvalues --    1.62915   1.63060   1.64014   1.65982   1.67870
 Alpha virt. eigenvalues --    1.67941   1.69266   1.69351   1.74327   1.76364
 Alpha virt. eigenvalues --    1.76841   1.78589   1.79800   1.79876   1.81472
 Alpha virt. eigenvalues --    1.82757   1.83312   1.83381   1.84206   1.84430
 Alpha virt. eigenvalues --    1.85215   1.85688   1.86404   1.88057   1.91033
 Alpha virt. eigenvalues --    1.91201   1.94628   1.96787   1.97051   1.98897
 Alpha virt. eigenvalues --    1.99518   2.02776   2.04778   2.07090   2.11701
 Alpha virt. eigenvalues --    2.12287   2.14397   2.15162   2.19092   2.21085
 Alpha virt. eigenvalues --    2.23285   2.28229   2.29935   2.34400   2.34577
 Alpha virt. eigenvalues --    2.35700   2.38093   2.39741   2.41367   2.44712
 Alpha virt. eigenvalues --    2.46112   2.46273   2.48390   2.53995   2.54406
 Alpha virt. eigenvalues --    2.54903   2.56398   2.57980   2.58229   2.59136
 Alpha virt. eigenvalues --    2.59768   2.60118   2.61372   2.63198   2.63798
 Alpha virt. eigenvalues --    2.64967   2.65107   2.65599   2.65879   2.67807
 Alpha virt. eigenvalues --    2.70850   2.70871   2.71450   2.73446   2.74778
 Alpha virt. eigenvalues --    2.76298   2.79003   2.79802   2.81692   2.83172
 Alpha virt. eigenvalues --    2.85673   2.86258   2.92213   2.96830   2.98139
 Alpha virt. eigenvalues --    3.01351   3.03714   3.10787   3.11024   3.14251
 Alpha virt. eigenvalues --    3.18301   3.23347   3.26392   3.28874   3.30561
 Alpha virt. eigenvalues --    3.33674   3.35874   3.42034   3.45093   3.46674
 Alpha virt. eigenvalues --    3.47615   3.52620   3.56752   3.64575   3.66023
 Alpha virt. eigenvalues --    3.71692   3.93667   3.93754   3.95427   3.95853
 Alpha virt. eigenvalues --    4.03284   4.05333   4.07994   4.11982   4.34761
 Alpha virt. eigenvalues --    4.60021   4.66707   4.72895  23.44808  23.58614
 Alpha virt. eigenvalues --   23.75684  23.82049  23.83838  23.91379  23.93226
 Alpha virt. eigenvalues --   23.94147  23.98750  24.02449  24.04675  24.08355
 Alpha virt. eigenvalues --   24.09726  24.14590
          Condensed to atoms (all electrons):
               1          2          3          4          5          6
     1  C    8.857885  -0.128516  -0.363780   2.336240  -0.245886  -0.102614
     2  C   -0.128516   7.500636   0.145487  -1.402536   0.047228  -0.016251
     3  C   -0.363780   0.145487   6.521582   1.033450  -0.167964   0.017407
     4  C    2.336240  -1.402536   1.033450  10.448781  -0.773872  -0.115871
     5  C   -0.245886   0.047228  -0.167964  -0.773872  14.193900   0.750961
     6  C   -0.102614  -0.016251   0.017407  -0.115871   0.750961   6.678581
     7  C    0.032022  -0.006805  -0.010321   0.013919  -1.373563   0.433981
     8  C    0.377354  -0.024466  -0.106529  -0.002715   2.945362  -0.569929
     9  C   -0.591330  -0.874495   0.318062  -0.046056  -0.026445   0.286105
    10  C   -1.342763   0.260116  -0.305387  -2.312833  -2.986539  -0.279544
    11  C    0.593346  -1.119923   1.095536   1.316327  -1.832635  -0.265525
    12  C   -3.438861   2.249748  -1.713666  -3.348217  -0.049107  -0.030933
    13  C    0.737594  -0.484274  -0.055587  -0.468430  -2.621805   0.579749
    14  C   -1.198395   0.008187  -0.306424  -0.879131  -2.294151  -1.248845
    15  H    0.374480  -0.108765   0.006826   0.025207   0.004718   0.001282
    16  H   -0.020675   0.385212  -0.016519   0.015566  -0.001590  -0.000375
    17  H   -0.033767  -0.011437   0.383475  -0.081627  -0.000049   0.000459
    18  H    0.054701   0.001128  -0.080780   0.464477  -0.000421  -0.005194
    19  H   -0.038813  -0.008593   0.053739  -0.030219  -0.109603   0.046682
    20  H    0.006248   0.002837  -0.005248   0.003201   0.483563  -0.084151
    21  H   -0.001081  -0.000418   0.000346   0.000366  -0.069331   0.370963
    22  H    0.000931   0.000352  -0.000263  -0.001028   0.003983  -0.018602
    23  H    0.002807  -0.002021   0.000736   0.003213   0.046338  -0.006783
    24  H    0.040959   0.013491  -0.000217  -0.004952  -0.020026  -0.002833
    25  H    0.040959   0.013491  -0.000217  -0.004952  -0.020026  -0.002833
               7          8          9         10         11         12
     1  C    0.032022   0.377354  -0.591330  -1.342763   0.593346  -3.438861
     2  C   -0.006805  -0.024466  -0.874495   0.260116  -1.119923   2.249748
     3  C   -0.010321  -0.106529   0.318062  -0.305387   1.095536  -1.713666
     4  C    0.013919  -0.002715  -0.046056  -2.312833   1.316327  -3.348217
     5  C   -1.373563   2.945362  -0.026445  -2.986539  -1.832635  -0.049107
     6  C    0.433981  -0.569929   0.286105  -0.279544  -0.265525  -0.030933
     7  C    7.203791  -0.009843  -0.972490   0.298084  -0.205317  -0.262577
     8  C   -0.009843   9.359918  -1.092289  -1.506019  -0.013097  -1.043959
     9  C   -0.972490  -1.092289   9.804968   0.310931   1.659738  -2.166171
    10  C    0.298084  -1.506019   0.310931   8.736271  -0.370868   2.639920
    11  C   -0.205317  -0.013097   1.659738  -0.370868  12.811686  -3.687164
    12  C   -0.262577  -1.043959  -2.166171   2.639920  -3.687164  17.609009
    13  C   -0.166360  -0.507900   0.934212   0.176579   0.379550  -4.848569
    14  C    1.106004  -2.316930  -2.062738   2.211843  -3.818314   3.337569
    15  H   -0.002092   0.007300   0.086893  -0.005884  -0.037739  -0.033387
    16  H    0.000329   0.000518  -0.001723  -0.008803   0.013079  -0.020035
    17  H   -0.000371  -0.001593  -0.004239   0.017797  -0.021883   0.100826
    18  H    0.001926   0.006655  -0.019737  -0.005060   0.022664  -0.077131
    19  H   -0.006137  -0.056741   0.076212   0.420877   0.072392  -0.047136
    20  H   -0.000931   0.060345  -0.024774   0.009210  -0.007996  -0.019159
    21  H   -0.015201  -0.030011  -0.007439   0.018164  -0.006738   0.005710
    22  H    0.382337  -0.030403   0.002255  -0.005225   0.003509  -0.008641
    23  H   -0.121783   0.386319   0.103291  -0.014309   0.003951   0.008716
    24  H    0.015104   0.021156   0.357429   0.005375   0.002882  -0.053329
    25  H    0.015104   0.021156   0.357429   0.005375   0.002882  -0.053329
              13         14         15         16         17         18
     1  C    0.737594  -1.198395   0.374480  -0.020675  -0.033767   0.054701
     2  C   -0.484274   0.008187  -0.108765   0.385212  -0.011437   0.001128
     3  C   -0.055587  -0.306424   0.006826  -0.016519   0.383475  -0.080780
     4  C   -0.468430  -0.879131   0.025207   0.015566  -0.081627   0.464477
     5  C   -2.621805  -2.294151   0.004718  -0.001590  -0.000049  -0.000421
     6  C    0.579749  -1.248845   0.001282  -0.000375   0.000459  -0.005194
     7  C   -0.166360   1.106004  -0.002092   0.000329  -0.000371   0.001926
     8  C   -0.507900  -2.316930   0.007300   0.000518  -0.001593   0.006655
     9  C    0.934212  -2.062738   0.086893  -0.001723  -0.004239  -0.019737
    10  C    0.176579   2.211843  -0.005884  -0.008803   0.017797  -0.005060
    11  C    0.379550  -3.818314  -0.037739   0.013079  -0.021883   0.022664
    12  C   -4.848569   3.337569  -0.033387  -0.020035   0.100826  -0.077131
    13  C   15.297756  -2.359570   0.007309   0.001252  -0.005954  -0.007753
    14  C   -2.359570  15.486428  -0.000357  -0.008095   0.004182  -0.021266
    15  H    0.007309  -0.000357   0.450486  -0.010284   0.001711  -0.000090
    16  H    0.001252  -0.008095  -0.010284   0.423779  -0.007377   0.002148
    17  H   -0.005954   0.004182   0.001711  -0.007377   0.430304  -0.012766
    18  H   -0.007753  -0.021266  -0.000090   0.002148  -0.012766   0.454863
    19  H    0.075157  -0.074270   0.000368  -0.000623   0.001696  -0.005055
    20  H   -0.010092  -0.076192  -0.000138   0.000025  -0.000176   0.001116
    21  H   -0.020935   0.096258   0.000013  -0.000007   0.000011  -0.000121
    22  H    0.031004  -0.023827  -0.000133   0.000008  -0.000007   0.000012
    23  H   -0.054111  -0.025060   0.000488  -0.000129   0.000014  -0.000095
    24  H    0.023104  -0.062816  -0.001223   0.000616  -0.000118   0.000141
    25  H    0.023104  -0.062816  -0.001223   0.000616  -0.000118   0.000141
              19         20         21         22         23         24
     1  C   -0.038813   0.006248  -0.001081   0.000931   0.002807   0.040959
     2  C   -0.008593   0.002837  -0.000418   0.000352  -0.002021   0.013491
     3  C    0.053739  -0.005248   0.000346  -0.000263   0.000736  -0.000217
     4  C   -0.030219   0.003201   0.000366  -0.001028   0.003213  -0.004952
     5  C   -0.109603   0.483563  -0.069331   0.003983   0.046338  -0.020026
     6  C    0.046682  -0.084151   0.370963  -0.018602  -0.006783  -0.002833
     7  C   -0.006137  -0.000931  -0.015201   0.382337  -0.121783   0.015104
     8  C   -0.056741   0.060345  -0.030011  -0.030403   0.386319   0.021156
     9  C    0.076212  -0.024774  -0.007439   0.002255   0.103291   0.357429
    10  C    0.420877   0.009210   0.018164  -0.005225  -0.014309   0.005375
    11  C    0.072392  -0.007996  -0.006738   0.003509   0.003951   0.002882
    12  C   -0.047136  -0.019159   0.005710  -0.008641   0.008716  -0.053329
    13  C    0.075157  -0.010092  -0.020935   0.031004  -0.054111   0.023104
    14  C   -0.074270  -0.076192   0.096258  -0.023827  -0.025060  -0.062816
    15  H    0.000368  -0.000138   0.000013  -0.000133   0.000488  -0.001223
    16  H   -0.000623   0.000025  -0.000007   0.000008  -0.000129   0.000616
    17  H    0.001696  -0.000176   0.000011  -0.000007   0.000014  -0.000118
    18  H   -0.005055   0.001116  -0.000121   0.000012  -0.000095   0.000141
    19  H    0.443576  -0.007049   0.001218  -0.000422   0.000193   0.000615
    20  H   -0.007049   0.456713  -0.008573   0.001553   0.000406   0.000229
    21  H    0.001218  -0.008573   0.415047  -0.005516   0.001008  -0.000150
    22  H   -0.000422   0.001553  -0.005516   0.415389  -0.008019   0.000653
    23  H    0.000193   0.000406   0.001008  -0.008019   0.431618  -0.000611
    24  H    0.000615   0.000229  -0.000150   0.000653  -0.000611   0.494967
    25  H    0.000615   0.000229  -0.000150   0.000653  -0.000611  -0.080050
              25
     1  C    0.040959
     2  C    0.013491
     3  C   -0.000217
     4  C   -0.004952
     5  C   -0.020026
     6  C   -0.002833
     7  C    0.015104
     8  C    0.021156
     9  C    0.357429
    10  C    0.005375
    11  C    0.002882
    12  C   -0.053329
    13  C    0.023104
    14  C   -0.062816
    15  H   -0.001223
    16  H    0.000616
    17  H   -0.000118
    18  H    0.000141
    19  H    0.000615
    20  H    0.000229
    21  H   -0.000150
    22  H    0.000653
    23  H   -0.000611
    24  H   -0.080050
    25  H    0.494967
 Mulliken charges:
               1
     1  C    0.050953
     2  C   -0.439415
     3  C   -0.443745
     4  C   -0.188307
     5  C    0.116959
     6  C   -0.415890
     7  C   -0.348810
     8  C    0.126339
     9  C   -0.407597
    10  C    0.032691
    11  C   -0.590343
    12  C    0.949872
    13  C   -0.655030
    14  C    0.588724
    15  H    0.234232
    16  H    0.253089
    17  H    0.241005
    18  H    0.225498
    19  H    0.191318
    20  H    0.218805
    21  H    0.256567
    22  H    0.259448
    23  H    0.244434
    24  H    0.249603
    25  H    0.249603
 Sum of Mulliken charges =   1.00000
 Mulliken charges with hydrogens summed into heavy atoms:
               1
     1  C    0.285185
     2  C   -0.186326
     3  C   -0.202740
     4  C    0.037190
     5  C    0.335764
     6  C   -0.159323
     7  C   -0.089363
     8  C    0.370773
     9  C    0.091608
    10  C    0.224009
    11  C   -0.590343
    12  C    0.949872
    13  C   -0.655030
    14  C    0.588724
 Electronic spatial extent (au):  <R**2>=           2856.1227
 Charge=              1.0000 electrons
 Dipole moment (field-independent basis, Debye):
    X=             -1.1879    Y=              0.2049    Z=              0.0000  Tot=              1.2055
 Quadrupole moment (field-independent basis, Debye-Ang):
   XX=            -31.0262   YY=            -56.3386   ZZ=            -84.1186
   XY=              0.6218   XZ=             -0.0000   YZ=             -0.0000
 Traceless Quadrupole moment (field-independent basis, Debye-Ang):
   XX=             26.1349   YY=              0.8226   ZZ=            -26.9575
   XY=              0.6218   XZ=             -0.0000   YZ=             -0.0000
 Octapole moment (field-independent basis, Debye-Ang**2):
  XXX=            -21.4256  YYY=              5.2263  ZZZ=              0.0000  XYY=             -0.1345
  XXY=             -4.8222  XXZ=              0.0000  XZZ=             -0.9685  YZZ=             -3.0616
  YYZ=              0.0000  XYZ=              0.0000
 Hexadecapole moment (field-independent basis, Debye-Ang**3):
 XXXX=          -2119.9984 YYYY=           -610.8921 ZZZZ=            -99.2571 XXXY=             25.9085
 XXXZ=             -0.0000 YYYX=             17.3356 YYYZ=             -0.0000 ZZZX=             -0.0000
 ZZZY=              0.0000 XXYY=           -508.4791 XXZZ=           -590.7187 YYZZ=           -145.8518
 XXYZ=              0.0000 YYXZ=             -0.0000 ZZXY=              5.8674
 N-N= 7.812635573241D+02 E-N=-2.798887979084D+03  KE= 5.375454179099D+02
 Symmetry A'   KE= 5.228827473469D+02
 Symmetry A"   KE= 1.466267056294D+01
 Unable to Open any file for archive entry.
 1\1\GINC-GADI-CPU-CLX-2461\SP\RM062X TD-FC\6-311++G(d,p)\C14H11(1+)\TS
 1578\27-Jul-2022\0\\#n M062X/6-311++G(d,p) TD(NStates=1) EmpiricalDisp
 ersion=GD3 SP\\SP_18\\1,1\C,0,0.,2.503855,1.362231\C,0,0.,3.687108,0.6
 68589\C,0,0.,3.678461,-0.71883\C,0,0.,2.470756,-1.414538\C,0,0.,-2.455
 556,-1.400538\C,0,0.,-3.689261,-0.70883\C,0,0.,-3.715908,0.675389\C,0,
 0.,-2.481455,1.358631\C,0,0.,-0.016,1.453369\C,0,0.,-0.023,-1.429189\C
 ,0,0.,1.272855,0.652265\C,0,0.,1.255471,-0.698604\C,0,0.,-1.251255,0.7
 01865\C,0,0.,-1.219471,-0.763004\H,0,0.,2.431271,2.443647\H,0,0.,4.604
 353,1.237289\H,0,0.,4.583862,-1.308749\H,0,0.,2.53235,-2.495259\H,0,0.
 ,0.032,-2.510266\H,0,0.,-2.40275,-2.484859\H,0,0.,-4.634662,-1.235949\
 H,0,0.,-4.669153,1.186089\H,0,0.,-2.544871,2.443647\H,0,-0.859585,-0.0
 556,2.145787\H,0,0.859585,-0.0556,2.145787\\Version=ES64L-G16RevC.01\S
 tate=1-A'\HF=-539.7472563\RMSD=6.905e-09\PG=CS [SG(C14H9),X(H2)]\\@
 The archive entry for this job was punched.


 The arm of the moral universe is long, but it bends toward justice.
 -- Martin Luther King, Jr.
 Job cpu time:       0 days  0 hours 51 minutes 33.3 seconds.
 Elapsed time:       0 days  0 hours  1 minutes 45.2 seconds.
 File lengths (MBytes):  RWF=    460 Int=      0 D2E=      0 Chk=     15 Scr=      1
 Normal termination of Gaussian 16 at Wed Jul 27 14:43:18 2022.
