 Entering Gaussian System, Link 0=g16
 Initial command:
 /apps/gaussian/g16c01/g16/l1.exe "/jobfs/52822737.gadi-pbs/Gau-2050872.inp" -scrdir="/jobfs/52822737.gadi-pbs/"
 Entering Link 1 = /apps/gaussian/g16c01/g16/l1.exe PID=   2050873.
  
 Copyright (c) 1988-2019, Gaussian, Inc.  All Rights Reserved.
  
 This is part of the Gaussian(R) 16 program.  It is based on
 the Gaussian(R) 09 system (copyright 2009, Gaussian, Inc.),
 the Gaussian(R) 03 system (copyright 2003, Gaussian, Inc.),
 the Gaussian(R) 98 system (copyright 1998, Gaussian, Inc.),
 the Gaussian(R) 94 system (copyright 1995, Gaussian, Inc.),
 the Gaussian 92(TM) system (copyright 1992, Gaussian, Inc.),
 the Gaussian 90(TM) system (copyright 1990, Gaussian, Inc.),
 the Gaussian 88(TM) system (copyright 1988, Gaussian, Inc.),
 the Gaussian 86(TM) system (copyright 1986, Carnegie Mellon
 University), and the Gaussian 82(TM) system (copyright 1983,
 Carnegie Mellon University). Gaussian is a federally registered
 trademark of Gaussian, Inc.
  
 This software contains proprietary and confidential information,
 including trade secrets, belonging to Gaussian, Inc.
  
 This software is provided under written license and may be
 used, copied, transmitted, or stored only in accord with that
 written license.
  
 The following legend is applicable only to US Government
 contracts under FAR:
  
                    RESTRICTED RIGHTS LEGEND
  
 Use, reproduction and disclosure by the US Government is
 subject to restrictions as set forth in subparagraphs (a)
 and (c) of the Commercial Computer Software - Restricted
 Rights clause in FAR 52.227-19.
  
 Gaussian, Inc.
 340 Quinnipiac St., Bldg. 40, Wallingford CT 06492
  
  
 ---------------------------------------------------------------
 Warning -- This program may not be used in any manner that
 competes with the business of Gaussian, Inc. or will provide
 assistance to any competitor of Gaussian, Inc.  The licensee
 of this program is prohibited from giving any competitor of
 Gaussian, Inc. access to this program.  By using this program,
 the user acknowledges that Gaussian, Inc. is engaged in the
 business of creating and licensing software in the field of
 computational chemistry and represents and warrants to the
 licensee that it is not a competitor of Gaussian, Inc. and that
 it will not use this program in any manner prohibited above.
 ---------------------------------------------------------------
  

 Cite this work as:
 Gaussian 16, Revision C.01,
 M. J. Frisch, G. W. Trucks, H. B. Schlegel, G. E. Scuseria, 
 M. A. Robb, J. R. Cheeseman, G. Scalmani, V. Barone, 
 G. A. Petersson, H. Nakatsuji, X. Li, M. Caricato, A. V. Marenich, 
 J. Bloino, B. G. Janesko, R. Gomperts, B. Mennucci, H. P. Hratchian, 
 J. V. Ortiz, A. F. Izmaylov, J. L. Sonnenberg, D. Williams-Young, 
 F. Ding, F. Lipparini, F. Egidi, J. Goings, B. Peng, A. Petrone, 
 T. Henderson, D. Ranasinghe, V. G. Zakrzewski, J. Gao, N. Rega, 
 G. Zheng, W. Liang, M. Hada, M. Ehara, K. Toyota, R. Fukuda, 
 J. Hasegawa, M. Ishida, T. Nakajima, Y. Honda, O. Kitao, H. Nakai, 
 T. Vreven, K. Throssell, J. A. Montgomery, Jr., J. E. Peralta, 
 F. Ogliaro, M. J. Bearpark, J. J. Heyd, E. N. Brothers, K. N. Kudin, 
 V. N. Staroverov, T. A. Keith, R. Kobayashi, J. Normand, 
 K. Raghavachari, A. P. Rendell, J. C. Burant, S. S. Iyengar, 
 J. Tomasi, M. Cossi, J. M. Millam, M. Klene, C. Adamo, R. Cammi, 
 J. W. Ochterski, R. L. Martin, K. Morokuma, O. Farkas, 
 J. B. Foresman, and D. J. Fox, Gaussian, Inc., Wallingford CT, 2019.
 
 ******************************************
 Gaussian 16:  ES64L-G16RevC.01  3-Jul-2019
                27-Jul-2022 
 ******************************************
 %NProcShared=32
 Will use up to   32 processors via shared memory.
 %mem = 128GB
 ---------------------------------------------------------------
 #n M062X/6-311++G(d,p) TD(NStates=1) EmpiricalDispersion=GD3 SP
 ---------------------------------------------------------------
 1/38=1,172=1/1;
 2/12=2,17=6,18=5,40=1/2;
 3/5=4,6=6,7=1111,11=9,25=1,30=1,74=-55,124=31/1,2,3,8;
 4//1;
 5/5=2,38=5/2;
 8/6=1,10=2,108=1/1;
 9/41=1,42=1,70=2/14;
 6/7=2,8=2,9=2,10=2/1;
 99/5=1,9=1/99;
 -----
 SP_12
 -----
 Symbolic Z-matrix:
 Charge =  1 Multiplicity = 1
 C                     0.        2.48946   1.36163 
 C                     0.        3.67991   0.66439 
 C                     0.        3.67426  -0.72783 
 C                     0.        2.48156  -1.41754 
 C                     0.       -2.44476  -1.39754 
 C                     0.       -3.69346  -0.69983 
 C                     0.       -3.72311   0.67959 
 C                     0.       -2.49586   1.35923 
 C                     0.       -0.016     1.45337 
 C                     0.        0.004    -1.42919 
 C                     0.        1.27526   0.66787 
 C                     0.        1.25547  -0.71 
 C                     0.       -1.24886   0.68627 
 C                     0.       -1.21947  -0.7516 
 H                     0.        2.44687   2.44365 
 H                     0.        4.60315   1.22409 
 H                     0.        4.59166  -1.29795 
 H                     0.        2.51675  -2.49886 
 H                     0.        0.038    -2.51027 
 H                     0.       -2.41835  -2.48126 
 H                     0.       -4.62686  -1.24675 
 H                     0.       -4.67035   1.19929 
 H                     0.       -2.52927   2.44365 
 H                    -0.85959  -0.0664    2.14579 
 H                     0.85959  -0.0664    2.14579 
 
                          Input orientation:                          
 ---------------------------------------------------------------------
 Center     Atomic      Atomic             Coordinates (Angstroms)
 Number     Number       Type             X           Y           Z
 ---------------------------------------------------------------------
      1          6           0        0.000000    2.489455    1.361631
      2          6           0        0.000000    3.679908    0.664389
      3          6           0        0.000000    3.674261   -0.727830
      4          6           0        0.000000    2.481556   -1.417538
      5          6           0        0.000000   -2.444756   -1.397538
      6          6           0        0.000000   -3.693461   -0.699830
      7          6           0        0.000000   -3.723108    0.679589
      8          6           0        0.000000   -2.495855    1.359231
      9          6           0        0.000000   -0.016000    1.453369
     10          6           0        0.000000    0.004000   -1.429189
     11          6           0        0.000000    1.275255    0.667865
     12          6           0        0.000000    1.255471   -0.710004
     13          6           0        0.000000   -1.248855    0.686265
     14          6           0        0.000000   -1.219471   -0.751604
     15          1           0        0.000000    2.446871    2.443647
     16          1           0        0.000000    4.603153    1.224089
     17          1           0        0.000000    4.591662   -1.297949
     18          1           0        0.000000    2.516750   -2.498859
     19          1           0        0.000000    0.038000   -2.510266
     20          1           0        0.000000   -2.418350   -2.481259
     21          1           0        0.000000   -4.626862   -1.246749
     22          1           0        0.000000   -4.670353    1.199289
     23          1           0        0.000000   -2.529271    2.443647
     24          1           0       -0.859585   -0.066400    2.145787
     25          1           0        0.859585   -0.066400    2.145787
 ---------------------------------------------------------------------
                    Distance matrix (angstroms):
                    1          2          3          4          5
     1  C    0.000000
     2  C    1.379610   0.000000
     3  C    2.402002   1.392230   0.000000
     4  C    2.779180   2.402180   1.377767   0.000000
     5  C    5.653269   6.462434   6.155557   4.926353   0.000000
     6  C    6.517520   7.498511   7.367775   6.216586   1.430406
     7  C    6.249890   7.403032   7.530066   6.549488   2.438983
     8  C    4.985311   6.214729   6.513536   5.699567   2.757243
     9  C    2.507134   3.779183   4.286683   3.805245   3.745200
    10  C    3.737133   4.230292   3.736672   2.477583   2.448961
    11  C    1.398425   2.404656   2.775463   2.409163   4.254923
    12  C    2.411304   2.786907   2.418856   1.415588   3.763560
    13  C    3.798826   4.928812   5.122181   4.282751   2.402585
    14  C    4.268711   5.099897   4.893790   3.760461   1.385119
    15  H    1.082854   2.164749   3.400699   3.861341   6.219543
    16  H    2.118168   1.079651   2.161673   3.388121   7.519704
    17  H    3.390080   2.163808   1.080120   2.113492   7.037123
    18  H    3.860586   3.370323   2.115745   1.081894   5.082268
    19  H    4.582709   4.831348   4.049626   2.676756   2.720706
    20  H    6.233326   6.861767   6.339907   5.014038   1.084043
    21  H    7.579288   8.523783   8.317326   7.110469   2.187310
    22  H    7.161648   8.367376   8.564250   7.615615   3.420057
    23  H    5.134040   6.459076   6.967214   6.325910   3.842115
    24  H    2.808235   4.119254   4.794696   4.464107   4.353230
    25  H    2.808235   4.119254   4.794696   4.464107   4.353230
                    6          7          8          9         10
     6  C    0.000000
     7  C    1.379738   0.000000
     8  C    2.382014   1.402877   0.000000
     9  C    4.261453   3.787002   2.481641   0.000000
    10  C    3.768711   4.282322   3.744938   2.882627   0.000000
    11  C    5.153516   4.998377   3.833961   1.511409   2.452290
    12  C    4.948942   5.168870   4.284178   2.509347   1.443401
    13  C    2.810224   2.474262   1.417001   1.452026   2.458616
    14  C    2.474532   2.883836   2.466735   2.512021   1.398572
    15  H    6.898197   6.417207   5.060286   2.654503   4.578917
    16  H    8.516764   8.344046   7.100294   4.624840   5.309623
    17  H    8.306685   8.546699   7.569247   5.366591   4.589539
    18  H    6.465541   7.002739   6.325430   4.694138   2.730953
    19  H    4.147467   4.931644   4.625303   3.964003   1.081612
    20  H    2.190753   3.419555   3.841272   4.610052   2.640953
    21  H    1.081831   2.127804   3.366352   5.343284   4.634454
    22  H    2.135643   1.080445   2.180372   4.661283   5.362693
    23  H    3.352132   2.130058   1.084931   2.701330   4.627777
    24  H    4.689562   4.032386   2.694403   1.104930   3.677539
    25  H    4.689562   4.032386   2.694403   1.104930   3.677539
                   11         12         13         14         15
    11  C    0.000000
    12  C    1.378011   0.000000
    13  C    2.524177   2.867266   0.000000
    14  C    2.870287   2.475292   1.438169   0.000000
    15  H    2.127460   3.371194   4.092283   4.863301   0.000000
    16  H    3.374061   3.866224   5.876670   6.148684   2.477271
    17  H    3.855254   3.387602   6.168366   5.836759   4.312733
    18  H    3.401390   2.188796   4.932017   4.124591   4.943000
    19  H    3.410472   2.173288   3.445839   2.161973   5.508531
    20  H    4.853834   4.078518   3.376526   2.104523   6.922794
    21  H    6.204896   5.906770   3.891976   3.443179   7.978516
    22  H    5.969310   6.225816   3.459746   3.964161   7.225185
    23  H    4.198550   4.926438   2.174363   3.453289   4.976142
    24  H    2.173287   3.262173   2.065742   3.234708   2.672852
    25  H    2.173287   3.262173   2.065742   3.234708   2.672852
                   16         17         18         19         20
    16  H    0.000000
    17  H    2.522064   0.000000
    18  H    4.267718   2.397383   0.000000
    19  H    5.897968   4.712277   2.478776   0.000000
    20  H    7.939213   7.109184   4.935131   2.456521   0.000000
    21  H    9.555010   9.218666   7.252515   4.832951   2.530127
    22  H    9.273539   9.592764   8.082744   5.994113   4.314852
    23  H    7.235938   8.044080   7.063334   5.579618   4.926155
    24  H    4.836645   5.856257   5.383706   4.735886   5.261189
    25  H    4.836645   5.856257   5.383706   4.735886   5.261189
                   21         22         23         24         25
    21  H    0.000000
    22  H    2.446425   0.000000
    23  H    4.244869   2.476421   0.000000
    24  H    5.748565   4.778193   2.625517   0.000000
    25  H    5.748565   4.778193   2.625517   1.719170   0.000000
 Stoichiometry    C14H11(1+)
 Framework group  CS[SG(C14H9),X(H2)]
 Deg. of freedom    46
 Full point group                 CS      NOp   2
 Largest Abelian subgroup         CS      NOp   2
 Largest concise Abelian subgroup CS      NOp   2
                         Standard orientation:                         
 ---------------------------------------------------------------------
 Center     Atomic      Atomic             Coordinates (Angstroms)
 Number     Number       Type             X           Y           Z
 ---------------------------------------------------------------------
      1          6           0       -2.392974   -1.526045    0.000000
      2          6           0       -2.355575   -2.905149    0.000000
      3          6           0       -1.132889   -3.570990    0.000000
      4          6           0        0.046145   -2.858164    0.000000
      5          6           0        2.402183    1.468270    0.000000
      6          6           0        2.392443    2.898643    0.000000
      7          6           0        1.197978    3.589244    0.000000
      8          6           0        0.011119    2.841295    0.000000
      9          6           0       -1.266199    0.713620    0.000000
     10          6           0        1.250075   -0.692761    0.000000
     11          6           0       -1.200027   -0.796339    0.000000
     12          6           0        0.016896   -1.442879    0.000000
     13          6           0        0.000000    1.424338    0.000000
     14          6           0        1.245809    0.705805    0.000000
     15          1           0       -3.320598   -0.967400    0.000000
     16          1           0       -3.290857   -3.444493    0.000000
     17          1           0       -1.075325   -4.649576    0.000000
     18          1           0        0.976722   -3.409999    0.000000
     19          1           0        2.181012   -1.243431    0.000000
     20          1           0        3.339097    0.922980    0.000000
     21          1           0        3.321419    3.453045    0.000000
     22          1           0        1.198974    4.669689    0.000000
     23          1           0       -0.923026    3.393063    0.000000
     24          1           0       -1.848664    1.091401    0.859585
     25          1           0       -1.848664    1.091401   -0.859585
 ---------------------------------------------------------------------
 Rotational constants (GHZ):           2.1362237           0.4445951           0.3688051
 Standard basis: 6-311++G(d,p) (5D, 7F)
 There are   299 symmetry adapted cartesian basis functions of A'  symmetry.
 There are   100 symmetry adapted cartesian basis functions of A"  symmetry.
 There are   285 symmetry adapted basis functions of A'  symmetry.
 There are   100 symmetry adapted basis functions of A"  symmetry.
   385 basis functions,   603 primitive gaussians,   399 cartesian basis functions
    47 alpha electrons       47 beta electrons
       nuclear repulsion energy       781.2310606607 Hartrees.
 NAtoms=   25 NActive=   25 NUniq=   24 SFac= 1.09D+00 NAtFMM=   60 NAOKFM=F Big=F
 Integral buffers will be    131072 words long.
 Regular integral format.
 Two-electron integral symmetry is turned on.
 Nuclear repulsion after empirical dispersion term =      781.2300814735 Hartrees.
 One-electron integrals computed using PRISM.
 NBasis=   385 RedAO= T EigKep=  1.09D-06  NBF=   285   100
 NBsUse=   379 1.00D-06 EigRej=  8.29D-07 NBFU=   279   100
 ExpMin= 3.60D-02 ExpMax= 4.56D+03 ExpMxC= 6.82D+02 IAcc=3 IRadAn=         5 AccDes= 0.00D+00
 Harris functional with IExCor= 1009 and IRadAn=       5 diagonalized for initial guess.
 HarFok:  IExCor= 1009 AccDes= 0.00D+00 IRadAn=         5 IDoV= 1 UseB2=F ITyADJ=14
 ICtDFT=  3500011 ScaDFX=  1.000000  1.000000  1.000000  1.000000
 FoFCou: FMM=F IPFlag=           0 FMFlag=      100000 FMFlg1=           0
         NFxFlg=           0 DoJE=T BraDBF=F KetDBF=T FulRan=T
         wScrn=  0.000000 ICntrl=       500 IOpCl=  0 I1Cent=   200000004 NGrid=           0
         NMat0=    1 NMatS0=      1 NMatT0=    0 NMatD0=    1 NMtDS0=    0 NMtDT0=    0
 Petite list used in FoFCou.
 Initial guess orbital symmetries:
       Occupied  (A') (A') (A') (A') (A') (A') (A') (A') (A') (A')
                 (A') (A') (A') (A') (A') (A') (A') (A') (A') (A')
                 (A') (A') (A') (A') (A') (A') (A') (A') (A') (A')
                 (A') (A') (A") (A') (A') (A') (A') (A') (A") (A')
                 (A") (A') (A') (A") (A") (A") (A")
       Virtual   (A") (A") (A") (A") (A") (A') (A') (A') (A') (A")
                 (A") (A') (A') (A') (A") (A') (A') (A') (A') (A")
                 (A') (A") (A') (A') (A') (A") (A') (A") (A') (A')
                 (A') (A') (A') (A") (A') (A') (A") (A') (A') (A")
                 (A') (A') (A') (A") (A') (A') (A') (A') (A') (A")
                 (A') (A") (A') (A") (A') (A') (A') (A") (A") (A')
                 (A') (A') (A') (A') (A') (A') (A") (A') (A') (A")
                 (A') (A') (A') (A') (A') (A') (A') (A') (A') (A')
                 (A') (A') (A') (A') (A') (A') (A') (A') (A') (A')
                 (A') (A') (A') (A') (A') (A') (A') (A") (A') (A")
                 (A') (A") (A') (A") (A') (A") (A') (A") (A") (A')
                 (A") (A') (A') (A') (A") (A') (A') (A") (A") (A')
                 (A") (A") (A') (A') (A') (A") (A') (A') (A') (A")
                 (A') (A') (A') (A') (A') (A') (A") (A') (A') (A')
                 (A') (A') (A') (A') (A') (A') (A') (A') (A') (A")
                 (A") (A') (A") (A") (A') (A') (A') (A") (A") (A')
                 (A") (A') (A") (A") (A") (A') (A') (A') (A') (A')
                 (A') (A") (A') (A') (A") (A') (A') (A') (A') (A')
                 (A") (A') (A') (A") (A') (A') (A") (A') (A") (A")
                 (A") (A') (A') (A') (A") (A') (A') (A") (A') (A')
                 (A") (A") (A") (A') (A') (A") (A') (A") (A') (A')
                 (A") (A') (A") (A") (A') (A") (A') (A') (A') (A")
                 (A') (A') (A') (A') (A") (A') (A') (A') (A") (A")
                 (A') (A') (A') (A") (A') (A') (A") (A') (A") (A')
                 (A") (A') (A') (A') (A') (A") (A') (A') (A') (A")
                 (A') (A') (A') (A") (A") (A') (A') (A") (A') (A')
                 (A') (A") (A') (A") (A') (A') (A') (A") (A") (A')
                 (A') (A') (A') (A') (A") (A') (A") (A') (A") (A')
                 (A") (A') (A") (A") (A") (A') (A') (A') (A') (A')
                 (A') (A') (A') (A') (A') (A') (A') (A') (A') (A')
                 (A') (A') (A') (A') (A") (A') (A') (A') (A') (A')
                 (A') (A') (A') (A') (A') (A') (A') (A') (A') (A')
                 (A') (A') (A') (A') (A') (A') (A') (A') (A') (A')
                 (A') (A')
 The electronic state of the initial guess is 1-A'.
 Requested convergence on RMS density matrix=1.00D-08 within 128 cycles.
 Requested convergence on MAX density matrix=1.00D-06.
 Requested convergence on             energy=1.00D-06.
 No special actions if energy rises.
 SCF Done:  E(RM062X) =  -539.753351885     A.U. after   15 cycles
            NFock= 15  Conv=0.86D-08     -V/T= 2.0042
 DoSCS=F DFT=T ScalE2(SS,OS)=  1.000000  1.000000
 ExpMin= 3.60D-02 ExpMax= 4.56D+03 ExpMxC= 6.82D+02 IAcc=3 IRadAn=         5 AccDes= 0.00D+00
 HarFok:  IExCor=  205 AccDes= 0.00D+00 IRadAn=         5 IDoV=-2 UseB2=F ITyADJ=14
 ICtDFT= 12500011 ScaDFX=  1.000000  1.000000  1.000000  1.000000
 Range of M.O.s used for correlation:    15   379
 NBasis=   385 NAE=    47 NBE=    47 NFC=    14 NFV=     0
 NROrb=    365 NOA=    33 NOB=    33 NVA=   332 NVB=   332

 **** Warning!!: The largest alpha MO coefficient is  0.16164981D+03

 Orbital symmetries:
       Occupied  (A') (A') (A') (A') (A') (A') (A') (A') (A') (A')
                 (A') (A') (A') (A') (A') (A') (A') (A') (A') (A')
                 (A') (A') (A') (A') (A') (A') (A') (A') (A') (A')
                 (A') (A") (A') (A') (A') (A') (A') (A") (A") (A')
                 (A') (A') (A') (A") (A") (A") (A")
       Virtual   (A") (A") (A") (A") (A') (A') (A') (A') (A") (A')
                 (A') (A") (A') (A') (A") (A') (A") (A') (A') (A')
                 (A") (A") (A') (A') (A') (A") (A') (A") (A') (A')
                 (A") (A') (A") (A') (A') (A') (A') (A') (A") (A')
                 (A") (A') (A') (A") (A") (A') (A") (A') (A") (A')
                 (A') (A') (A') (A') (A') (A") (A') (A') (A') (A')
                 (A') (A") (A') (A') (A') (A") (A') (A') (A') (A')
                 (A') (A') (A') (A') (A') (A') (A') (A') (A') (A')
                 (A') (A') (A') (A') (A') (A') (A') (A') (A') (A')
                 (A') (A') (A') (A') (A") (A') (A") (A") (A') (A")
                 (A') (A') (A') (A') (A") (A") (A') (A") (A") (A')
                 (A') (A') (A") (A') (A') (A") (A') (A") (A') (A")
                 (A") (A') (A") (A') (A') (A') (A") (A') (A') (A')
                 (A') (A') (A') (A') (A') (A') (A') (A') (A') (A')
                 (A') (A') (A') (A") (A') (A') (A') (A') (A') (A')
                 (A') (A') (A") (A') (A") (A') (A") (A") (A') (A")
                 (A") (A') (A') (A") (A") (A') (A") (A") (A') (A')
                 (A') (A') (A') (A") (A') (A") (A') (A') (A') (A")
                 (A') (A') (A') (A") (A') (A") (A') (A') (A") (A")
                 (A") (A') (A') (A") (A') (A") (A') (A') (A') (A')
                 (A") (A") (A") (A') (A') (A") (A') (A") (A') (A')
                 (A') (A") (A") (A') (A") (A') (A') (A") (A') (A")
                 (A') (A') (A') (A') (A") (A') (A') (A') (A") (A")
                 (A') (A') (A') (A") (A') (A') (A') (A") (A") (A')
                 (A") (A') (A') (A") (A') (A') (A') (A') (A') (A')
                 (A") (A') (A') (A') (A') (A") (A") (A") (A') (A')
                 (A') (A') (A') (A') (A') (A') (A") (A') (A') (A')
                 (A') (A") (A') (A") (A") (A") (A') (A") (A') (A")
                 (A') (A") (A") (A') (A") (A") (A') (A') (A') (A')
                 (A') (A') (A') (A') (A') (A') (A') (A') (A') (A')
                 (A') (A') (A') (A') (A") (A') (A') (A') (A') (A')
                 (A') (A') (A') (A') (A') (A') (A') (A') (A') (A')
                 (A') (A') (A') (A') (A') (A') (A') (A') (A') (A')
                 (A') (A')
     4 initial guesses have been made.
 Convergence on wavefunction:    0.001000000000000
 Iteration     1 Dimension     4 NMult     0 NNew      4
 CISAX will form     4 AO SS matrices at one time.
 Iteration     2 Dimension     6 NMult     4 NNew      2
 Iteration     3 Dimension     8 NMult     6 NNew      2
 Iteration     4 Dimension    10 NMult     8 NNew      2
 Iteration     5 Dimension    12 NMult    10 NNew      2
 Iteration     6 Dimension    14 NMult    12 NNew      2
 ***********************************************************************
 Excited states from <AA,BB:AA,BB> singles matrix:
 ***********************************************************************
 
 Ground to excited state transition densities written to RWF  633
 Ground to excited state transition electric dipole moments (Au):
       state          X           Y           Z        Dip. S.      Osc.
         1        -0.4757      0.4540      0.0000      0.4324      0.0294
 Ground to excited state transition velocity dipole moments (Au):
       state          X           Y           Z        Dip. S.      Osc.
         1         0.0563     -0.0483     -0.0000      0.0055      0.0360
 Ground to excited state transition magnetic dipole moments (Au):
       state          X           Y           Z
         1        -0.0000      0.0000     -0.3442
 Ground to excited state transition velocity quadrupole moments (Au):
       state          XX          YY          ZZ          XY          XZ          YZ
         1         0.1694      0.1397     -0.0094      0.1536      0.0000      0.0000
 <0|del|b> * <b|rxdel|0> + <0|del|b> * <b|delr+rdel|0>
 Rotatory Strengths (R) in cgs (10**-40 erg-esu-cm/Gauss)
       state          XX          YY          ZZ    R(velocity)    E-M Angle
         1         0.0000      0.0000     -0.0000     -0.0000       90.00
 1/2[<0|r|b>*<b|rxdel|0> + (<0|rxdel|b>*<b|r|0>)*]
 Rotatory Strengths (R) in cgs (10**-40 erg-esu-cm/Gauss)
       state          XX          YY          ZZ     R(length)
         1        -0.0000     -0.0000      0.0000      0.0000
  1/2[<0|del|b>*<b|r|0> + (<0|r|b>*<b|del|0>)*] (Au)
       state          X           Y           Z        Dip. S.   Osc.(frdel)
         1        -0.0268     -0.0219     -0.0000      0.0487      0.0325

 Excitation energies and oscillator strengths:
 
 Excited State   1:      Singlet-A'     2.7794 eV  446.08 nm  f=0.0294  <S**2>=0.000
      47 -> 48         0.70246
 This state for optimization and/or second-order correction.
 Total Energy, E(TD-HF/TD-DFT) =  -539.651210813    
 Copying the excited state density for this state as the 1-particle RhoCI density.
 SavETr:  write IOETrn=   770 NScale= 10 NData=  16 NLR=1 NState=    1 LETran=      28.

 **********************************************************************

            Population analysis using the SCF Density.

 **********************************************************************

 Orbital symmetries:
       Occupied  (A') (A') (A') (A') (A') (A') (A') (A') (A') (A')
                 (A') (A') (A') (A') (A') (A') (A') (A') (A') (A')
                 (A') (A') (A') (A') (A') (A') (A') (A') (A') (A')
                 (A') (A") (A') (A') (A') (A') (A') (A") (A") (A')
                 (A') (A') (A') (A") (A") (A") (A")
       Virtual   (A") (A") (A") (A") (A') (A') (A') (A') (A") (A')
                 (A') (A") (A') (A') (A") (A') (A") (A') (A') (A')
                 (A") (A") (A') (A') (A') (A") (A') (A") (A') (A')
                 (A") (A') (A") (A') (A') (A') (A') (A') (A") (A')
                 (A") (A') (A') (A") (A") (A') (A") (A') (A") (A')
                 (A') (A') (A') (A') (A') (A") (A') (A') (A') (A')
                 (A') (A") (A') (A') (A') (A") (A') (A') (A') (A')
                 (A') (A') (A') (A') (A') (A') (A') (A') (A') (A')
                 (A') (A') (A') (A') (A') (A') (A') (A') (A') (A')
                 (A') (A') (A') (A') (A") (A') (A") (A") (A') (A")
                 (A') (A') (A') (A') (A") (A") (A') (A") (A") (A')
                 (A') (A') (A") (A') (A') (A") (A') (A") (A') (A")
                 (A") (A') (A") (A') (A') (A') (A") (A') (A') (A')
                 (A') (A') (A') (A') (A') (A') (A') (A') (A') (A')
                 (A') (A') (A') (A") (A') (A') (A') (A') (A') (A')
                 (A') (A') (A") (A') (A") (A') (A") (A") (A') (A")
                 (A") (A') (A') (A") (A") (A') (A") (A") (A') (A')
                 (A') (A') (A') (A") (A') (A") (A') (A') (A') (A")
                 (A') (A') (A') (A") (A') (A") (A') (A') (A") (A")
                 (A") (A') (A') (A") (A') (A") (A') (A') (A') (A')
                 (A") (A") (A") (A') (A') (A") (A') (A") (A') (A')
                 (A') (A") (A") (A') (A") (A') (A') (A") (A') (A")
                 (A') (A') (A') (A') (A") (A') (A') (A') (A") (A")
                 (A') (A') (A') (A") (A') (A') (A') (A") (A") (A')
                 (A") (A') (A') (A") (A') (A') (A') (A') (A') (A')
                 (A") (A') (A') (A') (A') (A") (A") (A") (A') (A')
                 (A') (A') (A') (A') (A') (A') (A") (A') (A') (A')
                 (A') (A") (A') (A") (A") (A") (A') (A") (A') (A")
                 (A') (A") (A") (A') (A") (A") (A') (A') (A') (A')
                 (A') (A') (A') (A') (A') (A') (A') (A') (A') (A')
                 (A') (A') (A') (A') (A") (A') (A') (A') (A') (A')
                 (A') (A') (A') (A') (A') (A') (A') (A') (A') (A')
                 (A') (A') (A') (A') (A') (A') (A') (A') (A') (A')
                 (A') (A')
 The electronic state is 1-A'.
 Alpha  occ. eigenvalues --  -10.77657 -10.73547 -10.72940 -10.72472 -10.72385
 Alpha  occ. eigenvalues --  -10.71819 -10.71248 -10.71001 -10.70927 -10.70748
 Alpha  occ. eigenvalues --  -10.70244 -10.69983 -10.69697 -10.69266  -1.16480
 Alpha  occ. eigenvalues --   -1.12508  -1.06952  -1.05812  -1.01314  -1.00303
 Alpha  occ. eigenvalues --   -0.95725  -0.91084  -0.86417  -0.85872  -0.83783
 Alpha  occ. eigenvalues --   -0.78395  -0.76048  -0.74385  -0.69788  -0.69090
 Alpha  occ. eigenvalues --   -0.68545  -0.68122  -0.68113  -0.64794  -0.64267
 Alpha  occ. eigenvalues --   -0.63019  -0.61757  -0.60129  -0.59602  -0.59132
 Alpha  occ. eigenvalues --   -0.56889  -0.55125  -0.54744  -0.52457  -0.46681
 Alpha  occ. eigenvalues --   -0.46120  -0.44384
 Alpha virt. eigenvalues --   -0.26098  -0.14773  -0.14003  -0.12737  -0.11181
 Alpha virt. eigenvalues --   -0.10092  -0.09232  -0.07992  -0.07951  -0.07474
 Alpha virt. eigenvalues --   -0.07205  -0.07139  -0.05646  -0.05585  -0.05341
 Alpha virt. eigenvalues --   -0.03837  -0.03649  -0.03304  -0.03127  -0.02160
 Alpha virt. eigenvalues --   -0.01367  -0.00937   0.00180   0.00569   0.00625
 Alpha virt. eigenvalues --    0.01046   0.01514   0.01906   0.02168   0.02254
 Alpha virt. eigenvalues --    0.02460   0.02673   0.02779   0.03313   0.03378
 Alpha virt. eigenvalues --    0.04230   0.04530   0.04699   0.05032   0.05363
 Alpha virt. eigenvalues --    0.06033   0.06281   0.06581   0.07049   0.07252
 Alpha virt. eigenvalues --    0.07890   0.08138   0.08324   0.08579   0.08902
 Alpha virt. eigenvalues --    0.09347   0.09708   0.09845   0.10709   0.11022
 Alpha virt. eigenvalues --    0.11109   0.12053   0.12271   0.12907   0.12966
 Alpha virt. eigenvalues --    0.13341   0.13523   0.14029   0.14558   0.16082
 Alpha virt. eigenvalues --    0.16322   0.16362   0.17308   0.17657   0.17770
 Alpha virt. eigenvalues --    0.18097   0.18787   0.19239   0.19687   0.19952
 Alpha virt. eigenvalues --    0.21522   0.21547   0.22780   0.23102   0.23508
 Alpha virt. eigenvalues --    0.23926   0.24605   0.25469   0.26837   0.27701
 Alpha virt. eigenvalues --    0.28753   0.29483   0.29880   0.31453   0.35228
 Alpha virt. eigenvalues --    0.36765   0.38171   0.39232   0.41227   0.41388
 Alpha virt. eigenvalues --    0.42025   0.42029   0.43032   0.43575   0.44290
 Alpha virt. eigenvalues --    0.44489   0.45346   0.45985   0.46710   0.47886
 Alpha virt. eigenvalues --    0.48523   0.48803   0.49072   0.50413   0.51007
 Alpha virt. eigenvalues --    0.51381   0.51918   0.52127   0.52967   0.53997
 Alpha virt. eigenvalues --    0.54113   0.54744   0.55616   0.55792   0.57443
 Alpha virt. eigenvalues --    0.58239   0.58904   0.61455   0.61885   0.62617
 Alpha virt. eigenvalues --    0.63300   0.63537   0.64828   0.65379   0.67197
 Alpha virt. eigenvalues --    0.70276   0.70677   0.70999   0.72294   0.72742
 Alpha virt. eigenvalues --    0.75537   0.76131   0.76414   0.77020   0.77061
 Alpha virt. eigenvalues --    0.77583   0.78145   0.78218   0.79905   0.80352
 Alpha virt. eigenvalues --    0.81291   0.81669   0.82278   0.83139   0.85101
 Alpha virt. eigenvalues --    0.87105   0.88133   0.88449   0.89260   0.90194
 Alpha virt. eigenvalues --    0.91135   0.91397   0.93368   0.94597   0.96234
 Alpha virt. eigenvalues --    0.96965   1.00463   1.01317   1.01388   1.02757
 Alpha virt. eigenvalues --    1.03334   1.03438   1.04886   1.05757   1.08892
 Alpha virt. eigenvalues --    1.19429   1.22999   1.24027   1.24043   1.28874
 Alpha virt. eigenvalues --    1.29043   1.32451   1.34334   1.35756   1.35972
 Alpha virt. eigenvalues --    1.38725   1.40603   1.41101   1.42572   1.43382
 Alpha virt. eigenvalues --    1.43852   1.44709   1.45641   1.46100   1.46908
 Alpha virt. eigenvalues --    1.47615   1.48254   1.51757   1.53605   1.54544
 Alpha virt. eigenvalues --    1.55796   1.56199   1.57316   1.58418   1.61476
 Alpha virt. eigenvalues --    1.63181   1.63511   1.63738   1.66035   1.68142
 Alpha virt. eigenvalues --    1.68238   1.68975   1.69587   1.74372   1.76226
 Alpha virt. eigenvalues --    1.76932   1.78086   1.79692   1.79968   1.81444
 Alpha virt. eigenvalues --    1.83060   1.83201   1.83254   1.83847   1.84257
 Alpha virt. eigenvalues --    1.84973   1.85609   1.86349   1.88143   1.91295
 Alpha virt. eigenvalues --    1.91497   1.94247   1.96176   1.97350   1.98553
 Alpha virt. eigenvalues --    1.99573   2.02613   2.04721   2.07058   2.11750
 Alpha virt. eigenvalues --    2.12139   2.14206   2.15170   2.19012   2.21137
 Alpha virt. eigenvalues --    2.22940   2.28418   2.30164   2.34416   2.34741
 Alpha virt. eigenvalues --    2.35972   2.38445   2.39624   2.41858   2.44561
 Alpha virt. eigenvalues --    2.46041   2.46604   2.48892   2.53309   2.54086
 Alpha virt. eigenvalues --    2.54437   2.56563   2.58020   2.58231   2.59551
 Alpha virt. eigenvalues --    2.59683   2.60709   2.61670   2.63166   2.63798
 Alpha virt. eigenvalues --    2.64979   2.65079   2.65315   2.65691   2.67632
 Alpha virt. eigenvalues --    2.70192   2.70971   2.71268   2.73338   2.74783
 Alpha virt. eigenvalues --    2.76317   2.78928   2.79745   2.82084   2.83101
 Alpha virt. eigenvalues --    2.85358   2.86278   2.92105   2.96915   2.98747
 Alpha virt. eigenvalues --    3.00755   3.04526   3.10130   3.11442   3.14234
 Alpha virt. eigenvalues --    3.20151   3.23688   3.26319   3.28397   3.30026
 Alpha virt. eigenvalues --    3.33954   3.34184   3.42884   3.45633   3.46794
 Alpha virt. eigenvalues --    3.47714   3.51923   3.56704   3.65024   3.65811
 Alpha virt. eigenvalues --    3.69615   3.93870   3.94363   3.95184   3.95984
 Alpha virt. eigenvalues --    4.03766   4.05913   4.08072   4.12345   4.35250
 Alpha virt. eigenvalues --    4.61037   4.67825   4.72648  23.45123  23.59920
 Alpha virt. eigenvalues --   23.79745  23.84571  23.84792  23.90534  23.91720
 Alpha virt. eigenvalues --   23.92495  23.95889  24.01811  24.02471  24.04766
 Alpha virt. eigenvalues --   24.08816  24.13534
          Condensed to atoms (all electrons):
               1          2          3          4          5          6
     1  C    8.390520   0.283687  -0.522470   1.913979  -0.110506  -0.093938
     2  C    0.283687   7.287754   0.301942  -1.145933  -0.010395  -0.016323
     3  C   -0.522470   0.301942   6.540569   0.862607  -0.139634   0.017030
     4  C    1.913979  -1.145933   0.862607  10.466699  -0.503524  -0.115620
     5  C   -0.110506  -0.010395  -0.139634  -0.503524  12.370594   0.759680
     6  C   -0.093938  -0.016323   0.017030  -0.115620   0.759680   6.610904
     7  C    0.000567  -0.000483  -0.012161  -0.001909  -1.204551   0.385017
     8  C    0.392295  -0.026179  -0.102729   0.000469   2.457883  -0.524764
     9  C   -0.894823  -0.813315   0.300268  -0.076424  -0.247936   0.284511
    10  C   -1.251138   0.203197  -0.303205  -2.467751  -2.746949  -0.358470
    11  C    0.519528  -1.078525   1.083925   0.881476  -1.847151  -0.214853
    12  C   -2.420770   1.642627  -1.551151  -2.424270  -0.028814  -0.136705
    13  C    0.437931  -0.336860  -0.132266  -0.953214  -1.579497   0.793197
    14  C   -1.129640  -0.141134  -0.233090  -0.713530  -1.580961  -1.266192
    15  H    0.367782  -0.103123   0.001719   0.022554   0.006366   0.001269
    16  H   -0.019504   0.382873  -0.017455   0.017430  -0.001771  -0.000370
    17  H   -0.025185  -0.018203   0.383401  -0.075793   0.000130   0.000437
    18  H    0.048885   0.003332  -0.082948   0.460067   0.003512  -0.004995
    19  H   -0.041086  -0.007811   0.052770  -0.049038  -0.089020   0.048246
    20  H    0.006840   0.002410  -0.005161   0.005534   0.463361  -0.083947
    21  H   -0.001129  -0.000419   0.000360   0.000455  -0.065844   0.369143
    22  H    0.000658   0.000350  -0.000280  -0.001242   0.007769  -0.015918
    23  H    0.004634  -0.002367   0.000855   0.004269   0.037597  -0.004168
    24  H    0.039665   0.014857  -0.000545  -0.007298  -0.017830  -0.002515
    25  H    0.039665   0.014857  -0.000545  -0.007298  -0.017830  -0.002515
               7          8          9         10         11         12
     1  C    0.000567   0.392295  -0.894823  -1.251138   0.519528  -2.420770
     2  C   -0.000483  -0.026179  -0.813315   0.203197  -1.078525   1.642627
     3  C   -0.012161  -0.102729   0.300268  -0.303205   1.083925  -1.551151
     4  C   -0.001909   0.000469  -0.076424  -2.467751   0.881476  -2.424270
     5  C   -1.204551   2.457883  -0.247936  -2.746949  -1.847151  -0.028814
     6  C    0.385017  -0.524764   0.284511  -0.358470  -0.214853  -0.136705
     7  C    7.107787   0.129744  -0.849552   0.310617  -0.197524  -0.224571
     8  C    0.129744   9.064868  -1.238253  -1.416927   0.026982  -1.019199
     9  C   -0.849552  -1.238253   9.645870   0.280180   1.819078  -2.179378
    10  C    0.310617  -1.416927   0.280180   9.019352  -0.469996   2.571305
    11  C   -0.197524   0.026982   1.819078  -0.469996  13.923901  -4.336072
    12  C   -0.224571  -1.019199  -2.179378   2.571305  -4.336072  17.182651
    13  C   -0.555983  -0.084469   1.261190  -0.170533   0.899756  -4.913004
    14  C    1.213944  -2.172434  -1.856925   2.274329  -4.433750   3.206499
    15  H   -0.002673   0.006596   0.085224  -0.006364  -0.031614  -0.021489
    16  H    0.000369   0.000721   0.000579  -0.010132   0.020247  -0.028110
    17  H   -0.000377  -0.001509  -0.004421   0.019603  -0.025045   0.092647
    18  H    0.001868   0.007083  -0.021410   0.001362   0.006654  -0.055326
    19  H   -0.006678  -0.053543   0.075670   0.421578   0.075634  -0.066515
    20  H    0.000780   0.055534  -0.026182   0.015252  -0.010621  -0.011483
    21  H   -0.013300  -0.028881  -0.007212   0.020126  -0.006479   0.005659
    22  H    0.377002  -0.022908   0.004443  -0.007006   0.003301  -0.008357
    23  H   -0.113594   0.375421   0.099016  -0.013408   0.003777   0.008240
    24  H    0.014256   0.023313   0.358031   0.005635   0.013482  -0.057156
    25  H    0.014256   0.023313   0.358031   0.005635   0.013482  -0.057156
              13         14         15         16         17         18
     1  C    0.437931  -1.129640   0.367782  -0.019504  -0.025185   0.048885
     2  C   -0.336860  -0.141134  -0.103123   0.382873  -0.018203   0.003332
     3  C   -0.132266  -0.233090   0.001719  -0.017455   0.383401  -0.082948
     4  C   -0.953214  -0.713530   0.022554   0.017430  -0.075793   0.460067
     5  C   -1.579497  -1.580961   0.006366  -0.001771   0.000130   0.003512
     6  C    0.793197  -1.266192   0.001269  -0.000370   0.000437  -0.004995
     7  C   -0.555983   1.213944  -0.002673   0.000369  -0.000377   0.001868
     8  C   -0.084469  -2.172434   0.006596   0.000721  -0.001509   0.007083
     9  C    1.261190  -1.856925   0.085224   0.000579  -0.004421  -0.021410
    10  C   -0.170533   2.274329  -0.006364  -0.010132   0.019603   0.001362
    11  C    0.899756  -4.433750  -0.031614   0.020247  -0.025045   0.006654
    12  C   -4.913004   3.206499  -0.021489  -0.028110   0.092647  -0.055326
    13  C   14.790838  -2.866679   0.000628   0.002489  -0.006237  -0.010531
    14  C   -2.866679  15.334979   0.004356  -0.009503   0.004912  -0.020932
    15  H    0.000628   0.004356   0.443281  -0.009644   0.001734   0.000064
    16  H    0.002489  -0.009503  -0.009644   0.420082  -0.007351   0.002111
    17  H   -0.006237   0.004912   0.001734  -0.007351   0.427106  -0.011956
    18  H   -0.010531  -0.020932   0.000064   0.002111  -0.011956   0.451834
    19  H    0.076731  -0.061957   0.000379  -0.000610   0.001698  -0.005279
    20  H   -0.008518  -0.066500  -0.000134   0.000022  -0.000173   0.001211
    21  H   -0.025906   0.095144   0.000014  -0.000007   0.000010  -0.000118
    22  H    0.029508  -0.030481  -0.000127   0.000008  -0.000007   0.000010
    23  H   -0.040405  -0.028790   0.000550  -0.000128   0.000012  -0.000093
    24  H    0.014070  -0.062928  -0.001156   0.000617  -0.000126   0.000131
    25  H    0.014070  -0.062928  -0.001156   0.000617  -0.000126   0.000131
              19         20         21         22         23         24
     1  C   -0.041086   0.006840  -0.001129   0.000658   0.004634   0.039665
     2  C   -0.007811   0.002410  -0.000419   0.000350  -0.002367   0.014857
     3  C    0.052770  -0.005161   0.000360  -0.000280   0.000855  -0.000545
     4  C   -0.049038   0.005534   0.000455  -0.001242   0.004269  -0.007298
     5  C   -0.089020   0.463361  -0.065844   0.007769   0.037597  -0.017830
     6  C    0.048246  -0.083947   0.369143  -0.015918  -0.004168  -0.002515
     7  C   -0.006678   0.000780  -0.013300   0.377002  -0.113594   0.014256
     8  C   -0.053543   0.055534  -0.028881  -0.022908   0.375421   0.023313
     9  C    0.075670  -0.026182  -0.007212   0.004443   0.099016   0.358031
    10  C    0.421578   0.015252   0.020126  -0.007006  -0.013408   0.005635
    11  C    0.075634  -0.010621  -0.006479   0.003301   0.003777   0.013482
    12  C   -0.066515  -0.011483   0.005659  -0.008357   0.008240  -0.057156
    13  C    0.076731  -0.008518  -0.025906   0.029508  -0.040405   0.014070
    14  C   -0.061957  -0.066500   0.095144  -0.030481  -0.028790  -0.062928
    15  H    0.000379  -0.000134   0.000014  -0.000127   0.000550  -0.001156
    16  H   -0.000610   0.000022  -0.000007   0.000008  -0.000128   0.000617
    17  H    0.001698  -0.000173   0.000010  -0.000007   0.000012  -0.000126
    18  H   -0.005279   0.001211  -0.000118   0.000010  -0.000093   0.000131
    19  H    0.443011  -0.006985   0.001166  -0.000453   0.000198   0.000616
    20  H   -0.006985   0.457258  -0.008991   0.001673   0.000279   0.000234
    21  H    0.001166  -0.008991   0.418711  -0.005785   0.001108  -0.000151
    22  H   -0.000453   0.001673  -0.005785   0.418663  -0.008265   0.000641
    23  H    0.000198   0.000279   0.001108  -0.008265   0.436111  -0.000668
    24  H    0.000616   0.000234  -0.000151   0.000641  -0.000668   0.494040
    25  H    0.000616   0.000234  -0.000151   0.000641  -0.000668  -0.079619
              25
     1  C    0.039665
     2  C    0.014857
     3  C   -0.000545
     4  C   -0.007298
     5  C   -0.017830
     6  C   -0.002515
     7  C    0.014256
     8  C    0.023313
     9  C    0.358031
    10  C    0.005635
    11  C    0.013482
    12  C   -0.057156
    13  C    0.014070
    14  C   -0.062928
    15  H   -0.001156
    16  H    0.000617
    17  H   -0.000126
    18  H    0.000131
    19  H    0.000616
    20  H    0.000234
    21  H   -0.000151
    22  H    0.000641
    23  H   -0.000668
    24  H   -0.079619
    25  H    0.494040
 Mulliken charges:
               1
     1  C    0.063553
     2  C   -0.436815
     3  C   -0.441808
     4  C   -0.092696
     5  C    0.085323
     6  C   -0.428138
     7  C   -0.372850
     8  C    0.127571
     9  C   -0.356259
    10  C    0.073709
    11  C   -0.639595
    12  C    0.829900
    13  C   -0.636304
    14  C    0.604194
    15  H    0.234964
    16  H    0.256420
    17  H    0.244819
    18  H    0.225333
    19  H    0.190663
    20  H    0.218072
    21  H    0.252476
    22  H    0.256164
    23  H    0.240488
    24  H    0.250408
    25  H    0.250408
 Sum of Mulliken charges =   1.00000
 Mulliken charges with hydrogens summed into heavy atoms:
               1
     1  C    0.298518
     2  C   -0.180395
     3  C   -0.196989
     4  C    0.132637
     5  C    0.303395
     6  C   -0.175662
     7  C   -0.116686
     8  C    0.368060
     9  C    0.144556
    10  C    0.264372
    11  C   -0.639595
    12  C    0.829900
    13  C   -0.636304
    14  C    0.604194
 Electronic spatial extent (au):  <R**2>=           2856.1348
 Charge=              1.0000 electrons
 Dipole moment (field-independent basis, Debye):
    X=              0.3057    Y=              0.1647    Z=              0.0000  Tot=              0.3473
 Quadrupole moment (field-independent basis, Debye-Ang):
   XX=            -51.1498   YY=            -36.2787   ZZ=            -84.1350
   XY=             10.1629   XZ=              0.0000   YZ=             -0.0000
 Traceless Quadrupole moment (field-independent basis, Debye-Ang):
   XX=              6.0380   YY=             20.9092   ZZ=            -26.9472
   XY=             10.1629   XZ=              0.0000   YZ=             -0.0000
 Octapole moment (field-independent basis, Debye-Ang**2):
  XXX=              0.3586  YYY=             10.3773  ZZZ=              0.0000  XYY=              3.4483
  XXY=             -3.6473  XXZ=             -0.0000  XZZ=             -2.7644  YZZ=              1.3555
  YYZ=              0.0000  XYZ=             -0.0000
 Hexadecapole moment (field-independent basis, Debye-Ang**3):
 XXXX=          -1019.3352 YYYY=          -1817.3427 ZZZZ=            -99.3103 XXXY=           -358.9659
 XXXZ=              0.0000 YYYX=           -283.9790 YYYZ=              0.0000 ZZZX=             -0.0000
 ZZZY=             -0.0000 XXYY=           -455.8240 XXZZ=           -247.3388 YYZZ=           -489.2038
 XXYZ=             -0.0000 YYXZ=             -0.0000 ZZXY=           -186.8259
 N-N= 7.812300814735D+02 E-N=-2.798803601168D+03  KE= 5.375223227362D+02
 Symmetry A'   KE= 5.228699976385D+02
 Symmetry A"   KE= 1.465232509772D+01
 Unable to Open any file for archive entry.
 1\1\GINC-GADI-CPU-CLX-2461\SP\RM062X TD-FC\6-311++G(d,p)\C14H11(1+)\TS
 1578\27-Jul-2022\0\\#n M062X/6-311++G(d,p) TD(NStates=1) EmpiricalDisp
 ersion=GD3 SP\\SP_12\\1,1\C,0,0.,2.489455,1.361631\C,0,0.,3.679908,0.6
 64389\C,0,0.,3.674261,-0.72783\C,0,0.,2.481556,-1.417538\C,0,0.,-2.444
 756,-1.397538\C,0,0.,-3.693461,-0.69983\C,0,0.,-3.723108,0.679589\C,0,
 0.,-2.495855,1.359231\C,0,0.,-0.016,1.453369\C,0,0.,0.004,-1.429189\C,
 0,0.,1.275255,0.667865\C,0,0.,1.255471,-0.710004\C,0,0.,-1.248855,0.68
 6265\C,0,0.,-1.219471,-0.751604\H,0,0.,2.446871,2.443647\H,0,0.,4.6031
 53,1.224089\H,0,0.,4.591662,-1.297949\H,0,0.,2.51675,-2.498859\H,0,0.,
 0.038,-2.510266\H,0,0.,-2.41835,-2.481259\H,0,0.,-4.626862,-1.246749\H
 ,0,0.,-4.670353,1.199289\H,0,0.,-2.529271,2.443647\H,0,-0.859585,-0.06
 64,2.145787\H,0,0.859585,-0.0664,2.145787\\Version=ES64L-G16RevC.01\St
 ate=1-A'\HF=-539.7533519\RMSD=8.551e-09\PG=CS [SG(C14H9),X(H2)]\\@
 The archive entry for this job was punched.


 THIS CURIOUS WORLD WHICH WE INHABIT IS MORE WONDERFUL THAN IT IS CONVENIENT;
 MORE BEAUTIFUL THAN IT IS USEFUL;
 IT IS MORE TO BE ADMIRED THAN IT IS TO BE USED.

                                                                 -- THOREAU
 Job cpu time:       0 days  0 hours 44 minutes 52.1 seconds.
 Elapsed time:       0 days  0 hours  1 minutes 24.6 seconds.
 File lengths (MBytes):  RWF=    460 Int=      0 D2E=      0 Chk=     15 Scr=      1
 Normal termination of Gaussian 16 at Wed Jul 27 14:03:30 2022.
