 Entering Gaussian System, Link 0=g16
 Initial command:
 /apps/gaussian/g16c01/g16/l1.exe "/jobfs/52822737.gadi-pbs/Gau-2067040.inp" -scrdir="/jobfs/52822737.gadi-pbs/"
 Entering Link 1 = /apps/gaussian/g16c01/g16/l1.exe PID=   2067041.
  
 Copyright (c) 1988-2019, Gaussian, Inc.  All Rights Reserved.
  
 This is part of the Gaussian(R) 16 program.  It is based on
 the Gaussian(R) 09 system (copyright 2009, Gaussian, Inc.),
 the Gaussian(R) 03 system (copyright 2003, Gaussian, Inc.),
 the Gaussian(R) 98 system (copyright 1998, Gaussian, Inc.),
 the Gaussian(R) 94 system (copyright 1995, Gaussian, Inc.),
 the Gaussian 92(TM) system (copyright 1992, Gaussian, Inc.),
 the Gaussian 90(TM) system (copyright 1990, Gaussian, Inc.),
 the Gaussian 88(TM) system (copyright 1988, Gaussian, Inc.),
 the Gaussian 86(TM) system (copyright 1986, Carnegie Mellon
 University), and the Gaussian 82(TM) system (copyright 1983,
 Carnegie Mellon University). Gaussian is a federally registered
 trademark of Gaussian, Inc.
  
 This software contains proprietary and confidential information,
 including trade secrets, belonging to Gaussian, Inc.
  
 This software is provided under written license and may be
 used, copied, transmitted, or stored only in accord with that
 written license.
  
 The following legend is applicable only to US Government
 contracts under FAR:
  
                    RESTRICTED RIGHTS LEGEND
  
 Use, reproduction and disclosure by the US Government is
 subject to restrictions as set forth in subparagraphs (a)
 and (c) of the Commercial Computer Software - Restricted
 Rights clause in FAR 52.227-19.
  
 Gaussian, Inc.
 340 Quinnipiac St., Bldg. 40, Wallingford CT 06492
  
  
 ---------------------------------------------------------------
 Warning -- This program may not be used in any manner that
 competes with the business of Gaussian, Inc. or will provide
 assistance to any competitor of Gaussian, Inc.  The licensee
 of this program is prohibited from giving any competitor of
 Gaussian, Inc. access to this program.  By using this program,
 the user acknowledges that Gaussian, Inc. is engaged in the
 business of creating and licensing software in the field of
 computational chemistry and represents and warrants to the
 licensee that it is not a competitor of Gaussian, Inc. and that
 it will not use this program in any manner prohibited above.
 ---------------------------------------------------------------
  

 Cite this work as:
 Gaussian 16, Revision C.01,
 M. J. Frisch, G. W. Trucks, H. B. Schlegel, G. E. Scuseria, 
 M. A. Robb, J. R. Cheeseman, G. Scalmani, V. Barone, 
 G. A. Petersson, H. Nakatsuji, X. Li, M. Caricato, A. V. Marenich, 
 J. Bloino, B. G. Janesko, R. Gomperts, B. Mennucci, H. P. Hratchian, 
 J. V. Ortiz, A. F. Izmaylov, J. L. Sonnenberg, D. Williams-Young, 
 F. Ding, F. Lipparini, F. Egidi, J. Goings, B. Peng, A. Petrone, 
 T. Henderson, D. Ranasinghe, V. G. Zakrzewski, J. Gao, N. Rega, 
 G. Zheng, W. Liang, M. Hada, M. Ehara, K. Toyota, R. Fukuda, 
 J. Hasegawa, M. Ishida, T. Nakajima, Y. Honda, O. Kitao, H. Nakai, 
 T. Vreven, K. Throssell, J. A. Montgomery, Jr., J. E. Peralta, 
 F. Ogliaro, M. J. Bearpark, J. J. Heyd, E. N. Brothers, K. N. Kudin, 
 V. N. Staroverov, T. A. Keith, R. Kobayashi, J. Normand, 
 K. Raghavachari, A. P. Rendell, J. C. Burant, S. S. Iyengar, 
 J. Tomasi, M. Cossi, J. M. Millam, M. Klene, C. Adamo, R. Cammi, 
 J. W. Ochterski, R. L. Martin, K. Morokuma, O. Farkas, 
 J. B. Foresman, and D. J. Fox, Gaussian, Inc., Wallingford CT, 2019.
 
 ******************************************
 Gaussian 16:  ES64L-G16RevC.01  3-Jul-2019
                27-Jul-2022 
 ******************************************
 %NProcShared=32
 Will use up to   32 processors via shared memory.
 %mem = 128GB
 ---------------------------------------------------------------
 #n M062X/6-311++G(d,p) TD(NStates=1) EmpiricalDispersion=GD3 SP
 ---------------------------------------------------------------
 1/38=1,172=1/1;
 2/12=2,17=6,18=5,40=1/2;
 3/5=4,6=6,7=1111,11=9,25=1,30=1,74=-55,124=31/1,2,3,8;
 4//1;
 5/5=2,38=5/2;
 8/6=1,10=2,108=1/1;
 9/41=1,42=1,70=2/14;
 6/7=2,8=2,9=2,10=2/1;
 99/5=1,9=1/99;
 -----
 SP_16
 -----
 Symbolic Z-matrix:
 Charge =  1 Multiplicity = 1
 C                     0.        2.47986   1.36203 
 C                     0.        3.66311   0.65759 
 C                     0.        3.66626  -0.74103 
 C                     0.        2.49836  -1.42514 
 C                     0.       -2.42796  -1.38994 
 C                     0.       -3.70146  -0.68663 
 C                     0.       -3.73991   0.68639 
 C                     0.       -2.50546   1.35883 
 C                     0.       -0.0256    1.45337 
 C                     0.        0.0208   -1.42919 
 C                     0.        1.28446   0.67067 
 C                     0.        1.26627  -0.7036 
 C                     0.       -1.23966   0.68347 
 C                     0.       -1.20867  -0.758 
 H                     0.        2.43047   2.44365 
 H                     0.        4.58235   1.22449 
 H                     0.        4.58526  -1.30755 
 H                     0.        2.53795  -2.50606 
 H                     0.        0.064    -2.51027 
 H                     0.       -2.39715  -2.47406 
 H                     0.       -4.63326  -1.23715 
 H                     0.       -4.69115   1.19889 
 H                     0.       -2.54567   2.44365 
 H                    -0.85959  -0.112     2.14579 
 H                     0.85959  -0.112     2.14579 
 
                          Input orientation:                          
 ---------------------------------------------------------------------
 Center     Atomic      Atomic             Coordinates (Angstroms)
 Number     Number       Type             X           Y           Z
 ---------------------------------------------------------------------
      1          6           0        0.000000    2.479855    1.362031
      2          6           0        0.000000    3.663108    0.657589
      3          6           0        0.000000    3.666261   -0.741030
      4          6           0        0.000000    2.498356   -1.425138
      5          6           0        0.000000   -2.427956   -1.389938
      6          6           0        0.000000   -3.701461   -0.686630
      7          6           0        0.000000   -3.739908    0.686389
      8          6           0        0.000000   -2.505455    1.358831
      9          6           0        0.000000   -0.025600    1.453369
     10          6           0        0.000000    0.020800   -1.429189
     11          6           0        0.000000    1.284455    0.670665
     12          6           0        0.000000    1.266271   -0.703604
     13          6           0        0.000000   -1.239655    0.683465
     14          6           0        0.000000   -1.208671   -0.758004
     15          1           0        0.000000    2.430471    2.443647
     16          1           0        0.000000    4.582353    1.224489
     17          1           0        0.000000    4.585262   -1.307549
     18          1           0        0.000000    2.537950   -2.506059
     19          1           0        0.000000    0.064000   -2.510266
     20          1           0        0.000000   -2.397150   -2.474059
     21          1           0        0.000000   -4.633262   -1.237149
     22          1           0        0.000000   -4.691153    1.198889
     23          1           0        0.000000   -2.545671    2.443647
     24          1           0       -0.859585   -0.112000    2.145787
     25          1           0        0.859585   -0.112000    2.145787
 ---------------------------------------------------------------------
                    Distance matrix (angstroms):
                    1          2          3          4          5
     1  C    0.000000
     2  C    1.377072   0.000000
     3  C    2.414627   1.398623   0.000000
     4  C    2.787230   2.386294   1.353516   0.000000
     5  C    5.626717   6.425996   6.128667   4.926438   0.000000
     6  C    6.511964   7.486241   7.367923   6.243647   1.454805
     7  C    6.256352   7.403072   7.542471   6.585931   2.456085
     8  C    4.985311   6.208294   6.519164   5.726134   2.749861
     9  C    2.507119   3.773570   4.294790   3.828336   3.722326
    10  C    3.719927   4.197743   3.709845   2.477559   2.449071
    11  C    1.380930   2.378689   2.768733   2.421971   4.245949
    12  C    2.395753   2.756388   2.400282   1.427811   3.757442
    13  C    3.780900   4.902831   5.108542   4.291728   2.389782
    14  C    4.254383   5.073276   4.874962   3.766579   1.373316
    15  H    1.082743   2.170115   3.416042   3.869381   6.188755
    16  H    2.106992   1.079994   2.168522   3.370989   7.481956
    17  H    3.399911   2.170745   1.079586   2.090216   7.013702
    18  H    3.868526   3.357774   2.094854   1.081646   5.089789
    19  H    4.564103   4.794672   4.013288   2.665256   2.732211
    20  H    6.204898   6.821579   6.306215   5.006617   1.084559
    21  H    7.573122   8.509982   8.314338   7.134095   2.210592
    22  H    7.172864   8.371779   8.579607   7.653402   3.438617
    23  H    5.140604   6.460568   6.980707   6.356863   3.835392
    24  H    2.840928   4.147898   4.831962   4.506035   4.313223
    25  H    2.840928   4.147898   4.831962   4.506035   4.313223
                    6          7          8          9         10
     6  C    0.000000
     7  C    1.373557   0.000000
     8  C    2.369460   1.405721   0.000000
     9  C    4.253416   3.792670   2.481656   0.000000
    10  C    3.795605   4.314927   3.762316   2.882931   0.000000
    11  C    5.167360   5.024388   3.851881   1.526063   2.450757
    12  C    4.967761   5.195566   4.298785   2.514252   1.441413
    13  C    2.817383   2.500255   1.434702   1.437596   2.460092
    14  C    2.493812   2.914349   2.482466   2.507953   1.400746
    15  H    6.884709   6.415725   5.053730   2.648195   4.561291
    16  H    8.501409   8.339639   7.089081   4.613634   5.277288
    17  H    8.309953   8.560622   7.575477   5.374264   4.566083
    18  H    6.499275   7.042956   6.353999   4.716870   2.737826
    19  H    4.183819   4.968734   4.644568   3.964648   1.081940
    20  H    2.212720   3.433865   3.834420   4.587912   2.634053
    21  H    1.082277   2.120868   3.356587   5.335676   4.658022
    22  H    2.129477   1.080520   2.191542   4.672488   5.395303
    23  H    3.336838   2.124655   1.085561   2.707657   4.646034
    24  H    4.652494   4.003804   2.662107   1.107156   3.679263
    25  H    4.652494   4.003804   2.662107   1.107156   3.679263
                   11         12         13         14         15
    11  C    0.000000
    12  C    1.374389   0.000000
    13  C    2.524142   2.864197   0.000000
    14  C    2.873460   2.475540   1.441802   0.000000
    15  H    2.111118   3.355674   4.070389   4.847053   0.000000
    16  H    3.344077   3.835876   5.847092   6.120967   2.473245
    17  H    3.848202   3.373492   6.155794   5.819936   4.326037
    18  H    3.415088   2.205904   4.944023   4.134352   4.950873
    19  H    3.407027   2.170134   3.449556   2.165667   5.490122
    20  H    4.841849   4.068804   3.362998   2.087421   6.891281
    21  H    6.217647   5.923610   3.899401   3.457948   7.965211
    22  H    5.998909   6.253829   3.489771   3.994635   7.229589
    23  H    4.220584   4.943287   2.191784   3.469602   4.976142
    24  H    2.205665   3.279870   2.036879   3.220804   2.700327
    25  H    2.205665   3.279870   2.036879   3.220804   2.700327
                   16         17         18         19         20
    16  H    0.000000
    17  H    2.532040   0.000000
    18  H    4.254007   2.372322   0.000000
    19  H    5.862074   4.678497   2.473954   0.000000
    20  H    7.898906   7.079182   4.935204   2.461416   0.000000
    21  H    9.538722   9.218793   7.282610   4.866734   2.555414
    22  H    9.273541   9.609064   8.123212   6.030697   4.330473
    23  H    7.231533   8.057399   7.095265   5.599253   4.919948
    24  H    4.860517   5.893105   5.422250   4.738005   5.225301
    25  H    4.860517   5.893105   5.422250   4.738005   5.225301
                   21         22         23         24         25
    21  H    0.000000
    22  H    2.436726   0.000000
    23  H    4.231583   2.480426   0.000000
    24  H    5.711826   4.754382   2.598146   0.000000
    25  H    5.711826   4.754382   2.598146   1.719170   0.000000
 Stoichiometry    C14H11(1+)
 Framework group  CS[SG(C14H9),X(H2)]
 Deg. of freedom    46
 Full point group                 CS      NOp   2
 Largest Abelian subgroup         CS      NOp   2
 Largest concise Abelian subgroup CS      NOp   2
                         Standard orientation:                         
 ---------------------------------------------------------------------
 Center     Atomic      Atomic             Coordinates (Angstroms)
 Number     Number       Type             X           Y           Z
 ---------------------------------------------------------------------
      1          6           0       -2.391219   -1.514121    0.000000
      2          6           0       -2.346155   -2.890455    0.000000
      3          6           0       -1.123141   -3.568970    0.000000
      4          6           0        0.040101   -2.876963    0.000000
      5          6           0        2.389470    1.453193    0.000000
      6          6           0        2.389005    2.907998    0.000000
      7          6           0        1.205458    3.605045    0.000000
      8          6           0        0.020276    2.849136    0.000000
      9          6           0       -1.260657    0.723618    0.000000
     10          6           0        1.240699   -0.709738    0.000000
     11          6           0       -1.208338   -0.801548    0.000000
     12          6           0        0.003666   -1.449617    0.000000
     13          6           0        0.000000    1.414578    0.000000
     14          6           0        1.247084    0.690993    0.000000
     15          1           0       -3.314349   -0.948292    0.000000
     16          1           0       -3.286636   -3.421382    0.000000
     17          1           0       -1.071158   -4.647304    0.000000
     18          1           0        0.967353   -3.433885    0.000000
     19          1           0        2.166345   -1.269893    0.000000
     20          1           0        3.323770    0.902419    0.000000
     21          1           0        3.321210    3.457833    0.000000
     22          1           0        1.216349    4.685510    0.000000
     23          1           0       -0.910085    3.408485    0.000000
     24          1           0       -1.825147    1.133812    0.859585
     25          1           0       -1.825147    1.133812   -0.859585
 ---------------------------------------------------------------------
 Rotational constants (GHZ):           2.1364836           0.4445269           0.3687659
 Standard basis: 6-311++G(d,p) (5D, 7F)
 There are   299 symmetry adapted cartesian basis functions of A'  symmetry.
 There are   100 symmetry adapted cartesian basis functions of A"  symmetry.
 There are   285 symmetry adapted basis functions of A'  symmetry.
 There are   100 symmetry adapted basis functions of A"  symmetry.
   385 basis functions,   603 primitive gaussians,   399 cartesian basis functions
    47 alpha electrons       47 beta electrons
       nuclear repulsion energy       781.2841968227 Hartrees.
 NAtoms=   25 NActive=   25 NUniq=   24 SFac= 1.09D+00 NAtFMM=   60 NAOKFM=F Big=F
 Integral buffers will be    131072 words long.
 Regular integral format.
 Two-electron integral symmetry is turned on.
 Nuclear repulsion after empirical dispersion term =      781.2832182595 Hartrees.
 One-electron integrals computed using PRISM.
 NBasis=   385 RedAO= T EigKep=  1.08D-06  NBF=   285   100
 NBsUse=   379 1.00D-06 EigRej=  8.18D-07 NBFU=   279   100
 ExpMin= 3.60D-02 ExpMax= 4.56D+03 ExpMxC= 6.82D+02 IAcc=3 IRadAn=         5 AccDes= 0.00D+00
 Harris functional with IExCor= 1009 and IRadAn=       5 diagonalized for initial guess.
 HarFok:  IExCor= 1009 AccDes= 0.00D+00 IRadAn=         5 IDoV= 1 UseB2=F ITyADJ=14
 ICtDFT=  3500011 ScaDFX=  1.000000  1.000000  1.000000  1.000000
 FoFCou: FMM=F IPFlag=           0 FMFlag=      100000 FMFlg1=           0
         NFxFlg=           0 DoJE=T BraDBF=F KetDBF=T FulRan=T
         wScrn=  0.000000 ICntrl=       500 IOpCl=  0 I1Cent=   200000004 NGrid=           0
         NMat0=    1 NMatS0=      1 NMatT0=    0 NMatD0=    1 NMtDS0=    0 NMtDT0=    0
 Petite list used in FoFCou.
 Initial guess orbital symmetries:
       Occupied  (A') (A') (A') (A') (A') (A') (A') (A') (A') (A')
                 (A') (A') (A') (A') (A') (A') (A') (A') (A') (A')
                 (A') (A') (A') (A') (A') (A') (A') (A') (A') (A')
                 (A') (A') (A") (A') (A') (A') (A') (A') (A") (A')
                 (A") (A') (A') (A") (A") (A") (A")
       Virtual   (A") (A") (A") (A") (A") (A') (A') (A') (A') (A")
                 (A") (A') (A') (A') (A") (A') (A') (A') (A') (A")
                 (A') (A") (A') (A') (A') (A") (A') (A') (A") (A')
                 (A') (A') (A') (A") (A') (A') (A') (A") (A') (A")
                 (A') (A') (A') (A") (A') (A') (A') (A') (A') (A")
                 (A') (A") (A') (A") (A') (A') (A') (A") (A") (A')
                 (A') (A') (A') (A') (A') (A') (A") (A') (A') (A")
                 (A') (A') (A') (A') (A') (A') (A') (A') (A') (A')
                 (A') (A') (A') (A') (A') (A') (A') (A') (A') (A')
                 (A') (A') (A') (A') (A') (A') (A') (A") (A") (A')
                 (A') (A") (A') (A") (A') (A") (A') (A") (A") (A')
                 (A") (A') (A') (A') (A") (A') (A') (A") (A") (A')
                 (A") (A") (A') (A') (A') (A") (A') (A') (A') (A")
                 (A') (A') (A') (A') (A') (A') (A") (A') (A') (A')
                 (A') (A') (A') (A') (A') (A') (A') (A') (A') (A")
                 (A") (A') (A") (A') (A") (A') (A") (A') (A") (A')
                 (A") (A') (A") (A") (A") (A') (A') (A') (A') (A')
                 (A') (A") (A') (A') (A') (A") (A') (A') (A') (A')
                 (A") (A') (A') (A") (A') (A') (A") (A') (A") (A")
                 (A") (A') (A') (A') (A") (A') (A') (A") (A') (A')
                 (A") (A") (A") (A') (A') (A") (A') (A") (A') (A')
                 (A") (A') (A") (A") (A') (A') (A") (A') (A') (A')
                 (A") (A') (A') (A') (A") (A') (A') (A') (A") (A")
                 (A') (A') (A') (A") (A') (A') (A") (A') (A") (A')
                 (A") (A') (A') (A') (A') (A") (A') (A') (A') (A")
                 (A') (A') (A') (A") (A") (A') (A') (A") (A') (A')
                 (A') (A") (A') (A") (A') (A') (A") (A') (A") (A')
                 (A') (A') (A') (A') (A") (A') (A") (A') (A") (A')
                 (A") (A') (A") (A") (A') (A") (A') (A') (A') (A')
                 (A') (A') (A') (A') (A') (A') (A') (A') (A') (A')
                 (A') (A') (A') (A') (A") (A') (A') (A') (A') (A')
                 (A') (A') (A') (A') (A') (A') (A') (A') (A') (A')
                 (A') (A') (A') (A') (A') (A') (A') (A') (A') (A')
                 (A') (A')
 The electronic state of the initial guess is 1-A'.
 Requested convergence on RMS density matrix=1.00D-08 within 128 cycles.
 Requested convergence on MAX density matrix=1.00D-06.
 Requested convergence on             energy=1.00D-06.
 No special actions if energy rises.
 SCF Done:  E(RM062X) =  -539.744139488     A.U. after   16 cycles
            NFock= 16  Conv=0.32D-08     -V/T= 2.0041
 DoSCS=F DFT=T ScalE2(SS,OS)=  1.000000  1.000000
 ExpMin= 3.60D-02 ExpMax= 4.56D+03 ExpMxC= 6.82D+02 IAcc=3 IRadAn=         5 AccDes= 0.00D+00
 HarFok:  IExCor=  205 AccDes= 0.00D+00 IRadAn=         5 IDoV=-2 UseB2=F ITyADJ=14
 ICtDFT= 12500011 ScaDFX=  1.000000  1.000000  1.000000  1.000000
 Range of M.O.s used for correlation:    15   379
 NBasis=   385 NAE=    47 NBE=    47 NFC=    14 NFV=     0
 NROrb=    365 NOA=    33 NOB=    33 NVA=   332 NVB=   332

 **** Warning!!: The largest alpha MO coefficient is  0.15816910D+03

 Orbital symmetries:
       Occupied  (A') (A') (A') (A') (A') (A') (A') (A') (A') (A')
                 (A') (A') (A') (A') (A') (A') (A') (A') (A') (A')
                 (A') (A') (A') (A') (A') (A') (A') (A') (A') (A')
                 (A') (A") (A') (A') (A') (A') (A') (A") (A") (A')
                 (A') (A') (A') (A") (A") (A") (A")
       Virtual   (A") (A") (A") (A") (A') (A') (A') (A') (A") (A')
                 (A') (A") (A') (A') (A") (A') (A") (A') (A') (A')
                 (A") (A") (A') (A') (A') (A") (A') (A") (A') (A')
                 (A") (A') (A") (A') (A') (A') (A') (A') (A") (A')
                 (A") (A') (A') (A") (A") (A') (A") (A') (A") (A')
                 (A') (A') (A') (A') (A') (A") (A') (A') (A') (A')
                 (A') (A") (A') (A') (A') (A') (A") (A') (A') (A')
                 (A') (A') (A') (A') (A') (A') (A') (A') (A') (A')
                 (A') (A') (A') (A') (A') (A') (A') (A') (A') (A')
                 (A') (A') (A') (A') (A") (A") (A') (A") (A') (A")
                 (A') (A') (A') (A') (A") (A") (A') (A") (A") (A')
                 (A') (A") (A') (A') (A') (A") (A') (A") (A') (A")
                 (A") (A') (A") (A') (A') (A') (A") (A') (A') (A')
                 (A') (A') (A') (A') (A') (A') (A') (A') (A') (A')
                 (A') (A') (A') (A") (A') (A') (A') (A') (A') (A')
                 (A') (A") (A') (A') (A") (A') (A") (A") (A') (A")
                 (A") (A') (A") (A') (A') (A") (A") (A") (A') (A')
                 (A') (A') (A") (A') (A') (A") (A') (A') (A') (A")
                 (A') (A') (A') (A") (A') (A") (A') (A") (A') (A")
                 (A") (A') (A') (A") (A') (A") (A') (A') (A') (A')
                 (A") (A") (A") (A') (A') (A") (A') (A") (A') (A')
                 (A') (A") (A") (A') (A") (A') (A') (A") (A') (A")
                 (A') (A') (A') (A') (A") (A') (A') (A') (A") (A")
                 (A') (A') (A') (A") (A') (A') (A') (A") (A") (A')
                 (A") (A') (A') (A") (A') (A') (A') (A') (A') (A')
                 (A") (A') (A') (A') (A') (A") (A") (A') (A") (A')
                 (A') (A') (A') (A') (A') (A") (A') (A') (A') (A')
                 (A') (A") (A') (A") (A") (A") (A') (A") (A') (A")
                 (A') (A") (A") (A') (A") (A") (A') (A') (A') (A')
                 (A') (A') (A') (A') (A') (A') (A') (A') (A') (A')
                 (A') (A') (A') (A') (A") (A') (A') (A') (A') (A')
                 (A') (A') (A') (A') (A') (A') (A') (A') (A') (A')
                 (A') (A') (A') (A') (A') (A') (A') (A') (A') (A')
                 (A') (A')
     4 initial guesses have been made.
 Convergence on wavefunction:    0.001000000000000
 Iteration     1 Dimension     4 NMult     0 NNew      4
 CISAX will form     4 AO SS matrices at one time.
 Iteration     2 Dimension     6 NMult     4 NNew      2
 Iteration     3 Dimension     8 NMult     6 NNew      2
 Iteration     4 Dimension    10 NMult     8 NNew      2
 Iteration     5 Dimension    12 NMult    10 NNew      2
 Iteration     6 Dimension    14 NMult    12 NNew      2
 ***********************************************************************
 Excited states from <AA,BB:AA,BB> singles matrix:
 ***********************************************************************
 
 Ground to excited state transition densities written to RWF  633
 Ground to excited state transition electric dipole moments (Au):
       state          X           Y           Z        Dip. S.      Osc.
         1        -0.4278      0.4727     -0.0000      0.4064      0.0266
 Ground to excited state transition velocity dipole moments (Au):
       state          X           Y           Z        Dip. S.      Osc.
         1         0.0502     -0.0469     -0.0000      0.0047      0.0321
 Ground to excited state transition magnetic dipole moments (Au):
       state          X           Y           Z
         1        -0.0000     -0.0000     -0.4202
 Ground to excited state transition velocity quadrupole moments (Au):
       state          XX          YY          ZZ          XY          XZ          YZ
         1         0.1847      0.0797     -0.0084      0.1581     -0.0000      0.0000
 <0|del|b> * <b|rxdel|0> + <0|del|b> * <b|delr+rdel|0>
 Rotatory Strengths (R) in cgs (10**-40 erg-esu-cm/Gauss)
       state          XX          YY          ZZ    R(velocity)    E-M Angle
         1         0.0000      0.0000     -0.0000      0.0000       90.00
 1/2[<0|r|b>*<b|rxdel|0> + (<0|rxdel|b>*<b|r|0>)*]
 Rotatory Strengths (R) in cgs (10**-40 erg-esu-cm/Gauss)
       state          XX          YY          ZZ     R(length)
         1        -0.0000      0.0000     -0.0000     -0.0000
  1/2[<0|del|b>*<b|r|0> + (<0|r|b>*<b|del|0>)*] (Au)
       state          X           Y           Z        Dip. S.   Osc.(frdel)
         1        -0.0215     -0.0222      0.0000      0.0437      0.0291

 Excitation energies and oscillator strengths:
 
 Excited State   1:      Singlet-A'     2.6673 eV  464.83 nm  f=0.0266  <S**2>=0.000
      47 -> 48         0.70281
 This state for optimization and/or second-order correction.
 Total Energy, E(TD-HF/TD-DFT) =  -539.646116969    
 Copying the excited state density for this state as the 1-particle RhoCI density.
 SavETr:  write IOETrn=   770 NScale= 10 NData=  16 NLR=1 NState=    1 LETran=      28.

 **********************************************************************

            Population analysis using the SCF Density.

 **********************************************************************

 Orbital symmetries:
       Occupied  (A') (A') (A') (A') (A') (A') (A') (A') (A') (A')
                 (A') (A') (A') (A') (A') (A') (A') (A') (A') (A')
                 (A') (A') (A') (A') (A') (A') (A') (A') (A') (A')
                 (A') (A") (A') (A') (A') (A') (A') (A") (A") (A')
                 (A') (A') (A') (A") (A") (A") (A")
       Virtual   (A") (A") (A") (A") (A') (A') (A') (A') (A") (A')
                 (A') (A") (A') (A') (A") (A') (A") (A') (A') (A')
                 (A") (A") (A') (A') (A') (A") (A') (A") (A') (A')
                 (A") (A') (A") (A') (A') (A') (A') (A') (A") (A')
                 (A") (A') (A') (A") (A") (A') (A") (A') (A") (A')
                 (A') (A') (A') (A') (A') (A") (A') (A') (A') (A')
                 (A') (A") (A') (A') (A') (A') (A") (A') (A') (A')
                 (A') (A') (A') (A') (A') (A') (A') (A') (A') (A')
                 (A') (A') (A') (A') (A') (A') (A') (A') (A') (A')
                 (A') (A') (A') (A') (A") (A") (A') (A") (A') (A")
                 (A') (A') (A') (A') (A") (A") (A') (A") (A") (A')
                 (A') (A") (A') (A') (A') (A") (A') (A") (A') (A")
                 (A") (A') (A") (A') (A') (A') (A") (A') (A') (A')
                 (A') (A') (A') (A') (A') (A') (A') (A') (A') (A')
                 (A') (A') (A') (A") (A') (A') (A') (A') (A') (A')
                 (A') (A") (A') (A') (A") (A') (A") (A") (A') (A")
                 (A") (A') (A") (A') (A') (A") (A") (A") (A') (A')
                 (A') (A') (A") (A') (A') (A") (A') (A') (A') (A")
                 (A') (A') (A') (A") (A') (A") (A') (A") (A') (A")
                 (A") (A') (A') (A") (A') (A") (A') (A') (A') (A')
                 (A") (A") (A") (A') (A') (A") (A') (A") (A') (A')
                 (A') (A") (A") (A') (A") (A') (A') (A") (A') (A")
                 (A') (A') (A') (A') (A") (A') (A') (A') (A") (A")
                 (A') (A') (A') (A") (A') (A') (A') (A") (A") (A')
                 (A") (A') (A') (A") (A') (A') (A') (A') (A') (A')
                 (A") (A') (A') (A') (A') (A") (A") (A') (A") (A')
                 (A') (A') (A') (A') (A') (A") (A') (A') (A') (A')
                 (A') (A") (A') (A") (A") (A") (A') (A") (A') (A")
                 (A') (A") (A") (A') (A") (A") (A') (A') (A') (A')
                 (A') (A') (A') (A') (A') (A') (A') (A') (A') (A')
                 (A') (A') (A') (A') (A") (A') (A') (A') (A') (A')
                 (A') (A') (A') (A') (A') (A') (A') (A') (A') (A')
                 (A') (A') (A') (A') (A') (A') (A') (A') (A') (A')
                 (A') (A')
 The electronic state is 1-A'.
 Alpha  occ. eigenvalues --  -10.77673 -10.73478 -10.73060 -10.72540 -10.72320
 Alpha  occ. eigenvalues --  -10.71759 -10.71055 -10.71045 -10.70933 -10.70927
 Alpha  occ. eigenvalues --  -10.70245 -10.69982 -10.69692 -10.69224  -1.16557
 Alpha  occ. eigenvalues --   -1.12575  -1.06904  -1.05886  -1.01377  -1.00593
 Alpha  occ. eigenvalues --   -0.95533  -0.91051  -0.86468  -0.85846  -0.83768
 Alpha  occ. eigenvalues --   -0.78338  -0.76126  -0.74317  -0.69767  -0.69118
 Alpha  occ. eigenvalues --   -0.68551  -0.68125  -0.68125  -0.64881  -0.64471
 Alpha  occ. eigenvalues --   -0.62840  -0.61551  -0.60406  -0.59378  -0.59032
 Alpha  occ. eigenvalues --   -0.56988  -0.55056  -0.54668  -0.52442  -0.47081
 Alpha  occ. eigenvalues --   -0.46169  -0.43962
 Alpha virt. eigenvalues --   -0.26096  -0.14887  -0.13934  -0.12702  -0.11182
 Alpha virt. eigenvalues --   -0.10097  -0.09233  -0.07995  -0.07928  -0.07477
 Alpha virt. eigenvalues --   -0.07207  -0.07136  -0.05652  -0.05586  -0.05348
 Alpha virt. eigenvalues --   -0.03854  -0.03656  -0.03334  -0.03123  -0.02154
 Alpha virt. eigenvalues --   -0.01360  -0.00959   0.00168   0.00559   0.00592
 Alpha virt. eigenvalues --    0.01038   0.01510   0.01920   0.02100   0.02231
 Alpha virt. eigenvalues --    0.02465   0.02668   0.02782   0.03284   0.03426
 Alpha virt. eigenvalues --    0.04213   0.04504   0.04684   0.05028   0.05374
 Alpha virt. eigenvalues --    0.06022   0.06269   0.06555   0.07059   0.07253
 Alpha virt. eigenvalues --    0.07899   0.08162   0.08285   0.08572   0.08874
 Alpha virt. eigenvalues --    0.09242   0.09693   0.09775   0.10614   0.11005
 Alpha virt. eigenvalues --    0.11093   0.11964   0.12291   0.12858   0.13042
 Alpha virt. eigenvalues --    0.13284   0.13512   0.13985   0.14585   0.16100
 Alpha virt. eigenvalues --    0.16239   0.16256   0.17237   0.17578   0.17616
 Alpha virt. eigenvalues --    0.18085   0.18656   0.19247   0.19677   0.20202
 Alpha virt. eigenvalues --    0.21473   0.21503   0.22772   0.23151   0.23517
 Alpha virt. eigenvalues --    0.24017   0.24633   0.25565   0.26793   0.27731
 Alpha virt. eigenvalues --    0.28764   0.29576   0.29867   0.31534   0.34950
 Alpha virt. eigenvalues --    0.36731   0.38206   0.39237   0.41208   0.41380
 Alpha virt. eigenvalues --    0.41780   0.42085   0.43048   0.43443   0.44303
 Alpha virt. eigenvalues --    0.44525   0.45307   0.46121   0.46922   0.47800
 Alpha virt. eigenvalues --    0.48483   0.48688   0.49175   0.50425   0.50851
 Alpha virt. eigenvalues --    0.51199   0.52124   0.52229   0.52925   0.54014
 Alpha virt. eigenvalues --    0.54172   0.54910   0.55479   0.55809   0.57444
 Alpha virt. eigenvalues --    0.58237   0.59075   0.61501   0.61772   0.62594
 Alpha virt. eigenvalues --    0.63427   0.63544   0.64803   0.65527   0.67362
 Alpha virt. eigenvalues --    0.70069   0.70605   0.71082   0.72272   0.72691
 Alpha virt. eigenvalues --    0.75294   0.76271   0.76546   0.76944   0.77095
 Alpha virt. eigenvalues --    0.77681   0.78168   0.78293   0.79947   0.80316
 Alpha virt. eigenvalues --    0.81435   0.81531   0.82481   0.83263   0.85087
 Alpha virt. eigenvalues --    0.86984   0.88037   0.88072   0.89449   0.90083
 Alpha virt. eigenvalues --    0.91178   0.91671   0.93525   0.94526   0.96112
 Alpha virt. eigenvalues --    0.97241   1.00411   1.01237   1.01432   1.02644
 Alpha virt. eigenvalues --    1.02664   1.03761   1.05026   1.06189   1.09066
 Alpha virt. eigenvalues --    1.19444   1.22660   1.22679   1.24068   1.28052
 Alpha virt. eigenvalues --    1.30107   1.33023   1.34303   1.35624   1.35922
 Alpha virt. eigenvalues --    1.38375   1.40604   1.41262   1.42194   1.43319
 Alpha virt. eigenvalues --    1.43994   1.44143   1.46070   1.46098   1.47077
 Alpha virt. eigenvalues --    1.47452   1.48592   1.51841   1.53601   1.54138
 Alpha virt. eigenvalues --    1.55827   1.56114   1.57609   1.58885   1.61473
 Alpha virt. eigenvalues --    1.63136   1.63568   1.63812   1.66010   1.68096
 Alpha virt. eigenvalues --    1.68186   1.69196   1.69566   1.74374   1.76403
 Alpha virt. eigenvalues --    1.76734   1.77804   1.79491   1.79960   1.81999
 Alpha virt. eigenvalues --    1.82627   1.83214   1.83339   1.83895   1.84323
 Alpha virt. eigenvalues --    1.85045   1.85613   1.86684   1.88108   1.91248
 Alpha virt. eigenvalues --    1.91371   1.94072   1.97000   1.97254   1.98760
 Alpha virt. eigenvalues --    1.99449   2.02799   2.05156   2.06794   2.11628
 Alpha virt. eigenvalues --    2.12277   2.14346   2.15132   2.18886   2.21022
 Alpha virt. eigenvalues --    2.22910   2.28195   2.30296   2.34016   2.34568
 Alpha virt. eigenvalues --    2.35745   2.38400   2.39493   2.41648   2.44270
 Alpha virt. eigenvalues --    2.45796   2.46652   2.48753   2.53324   2.54056
 Alpha virt. eigenvalues --    2.54754   2.56429   2.58033   2.58141   2.59416
 Alpha virt. eigenvalues --    2.59473   2.60223   2.61589   2.63018   2.63608
 Alpha virt. eigenvalues --    2.65008   2.65056   2.65562   2.65784   2.67701
 Alpha virt. eigenvalues --    2.70686   2.71026   2.71612   2.73299   2.74732
 Alpha virt. eigenvalues --    2.76343   2.78801   2.79714   2.81684   2.83193
 Alpha virt. eigenvalues --    2.85639   2.86276   2.92056   2.96852   2.98487
 Alpha virt. eigenvalues --    3.00948   3.04177   3.08875   3.11415   3.15376
 Alpha virt. eigenvalues --    3.20045   3.22741   3.26356   3.28129   3.29671
 Alpha virt. eigenvalues --    3.33406   3.35672   3.42867   3.45022   3.47558
 Alpha virt. eigenvalues --    3.48343   3.52783   3.56992   3.64380   3.65486
 Alpha virt. eigenvalues --    3.70298   3.93424   3.94047   3.95176   3.95762
 Alpha virt. eigenvalues --    4.03636   4.05272   4.08355   4.12225   4.34986
 Alpha virt. eigenvalues --    4.60846   4.66296   4.72826  23.44914  23.59591
 Alpha virt. eigenvalues --   23.78010  23.82763  23.84054  23.89890  23.91812
 Alpha virt. eigenvalues --   23.93398  23.93742  24.02504  24.04945  24.09138
 Alpha virt. eigenvalues --   24.09560  24.16679
          Condensed to atoms (all electrons):
               1          2          3          4          5          6
     1  C    8.245218   0.340438  -0.557296   1.854078  -0.133422  -0.090319
     2  C    0.340438   7.351367   0.334738  -1.154022  -0.020098  -0.017063
     3  C   -0.557296   0.334738   6.509230   0.865731  -0.132970   0.017179
     4  C    1.854078  -1.154022   0.865731  10.585500  -0.576190  -0.116668
     5  C   -0.133422  -0.020098  -0.132970  -0.576190  12.599598   0.793547
     6  C   -0.090319  -0.017063   0.017179  -0.116668   0.793547   6.597673
     7  C    0.003839  -0.001230  -0.011545   0.013703  -1.294719   0.354045
     8  C    0.375974  -0.023460  -0.108633  -0.013634   2.759000  -0.465016
     9  C   -0.771043  -0.832293   0.289191   0.077192  -0.350761   0.278440
    10  C   -1.212583   0.147904  -0.236326  -2.483296  -2.703046  -0.387291
    11  C    0.571586  -1.041170   0.994156   1.211497  -1.894105  -0.201654
    12  C   -2.435011   1.587123  -1.526268  -2.828033   0.158182  -0.149156
    13  C    0.501831  -0.344588  -0.153864  -0.801965  -2.016366   0.751434
    14  C   -1.171745  -0.171291  -0.187436  -0.884238  -1.606886  -1.243496
    15  H    0.368423  -0.100574   0.001580   0.020450   0.006890   0.001330
    16  H   -0.020435   0.384555  -0.018518   0.019928  -0.001934  -0.000392
    17  H   -0.022843  -0.021900   0.389663  -0.079561   0.000051   0.000449
    18  H    0.047771   0.003352  -0.081478   0.466604   0.001782  -0.004918
    19  H   -0.038467  -0.007318   0.052297  -0.047088  -0.088451   0.047441
    20  H    0.006553   0.002523  -0.005121   0.005061   0.460544  -0.083079
    21  H   -0.001053  -0.000429   0.000342   0.000539  -0.065302   0.365730
    22  H    0.000515   0.000323  -0.000253  -0.001081   0.004233  -0.014062
    23  H    0.004372  -0.002137   0.000740   0.003286   0.042451  -0.003946
    24  H    0.042926   0.015535  -0.000187  -0.005471  -0.020477  -0.002897
    25  H    0.042926   0.015535  -0.000187  -0.005471  -0.020477  -0.002897
               7          8          9         10         11         12
     1  C    0.003839   0.375974  -0.771043  -1.212583   0.571586  -2.435011
     2  C   -0.001230  -0.023460  -0.832293   0.147904  -1.041170   1.587123
     3  C   -0.011545  -0.108633   0.289191  -0.236326   0.994156  -1.526268
     4  C    0.013703  -0.013634   0.077192  -2.483296   1.211497  -2.828033
     5  C   -1.294719   2.759000  -0.350761  -2.703046  -1.894105   0.158182
     6  C    0.354045  -0.465016   0.278440  -0.387291  -0.201654  -0.149156
     7  C    7.117831  -0.063756  -0.839192   0.361679  -0.201605  -0.201711
     8  C   -0.063756   9.413663  -1.253888  -1.497872  -0.033537  -0.943102
     9  C   -0.839192  -1.253888   9.651281   0.305202   1.884837  -2.383684
    10  C    0.361679  -1.497872   0.305202   8.920804  -0.362429   2.531842
    11  C   -0.201605  -0.033537   1.884837  -0.362429  13.720837  -4.584697
    12  C   -0.201711  -0.943102  -2.383684   2.531842  -4.584697  17.706354
    13  C   -0.429164  -0.333024   1.139584  -0.093888   0.795140  -4.882462
    14  C    1.286378  -2.334219  -1.754228   2.202405  -4.293927   3.257159
    15  H   -0.002817   0.006535   0.081111  -0.004806  -0.033919  -0.014256
    16  H    0.000385   0.000813  -0.000807  -0.010649   0.017738  -0.025028
    17  H   -0.000360  -0.001597  -0.003552   0.019117  -0.021827   0.087988
    18  H    0.001859   0.006890  -0.018784  -0.005882   0.013022  -0.055897
    19  H   -0.006143  -0.056680   0.075246   0.421486   0.072803  -0.077534
    20  H   -0.000462   0.058515  -0.026931   0.017120  -0.009774  -0.007055
    21  H   -0.008784  -0.033560  -0.007976   0.019949  -0.006606   0.005755
    22  H    0.375231  -0.024903   0.004487  -0.005610   0.003059  -0.007577
    23  H   -0.117049   0.381402   0.101662  -0.015347   0.006595   0.008587
    24  H    0.013949   0.016460   0.360859   0.006174   0.017451  -0.056782
    25  H    0.013949   0.016460   0.360859   0.006174   0.017451  -0.056782
              13         14         15         16         17         18
     1  C    0.501831  -1.171745   0.368423  -0.020435  -0.022843   0.047771
     2  C   -0.344588  -0.171291  -0.100574   0.384555  -0.021900   0.003352
     3  C   -0.153864  -0.187436   0.001580  -0.018518   0.389663  -0.081478
     4  C   -0.801965  -0.884238   0.020450   0.019928  -0.079561   0.466604
     5  C   -2.016366  -1.606886   0.006890  -0.001934   0.000051   0.001782
     6  C    0.751434  -1.243496   0.001330  -0.000392   0.000449  -0.004918
     7  C   -0.429164   1.286378  -0.002817   0.000385  -0.000360   0.001859
     8  C   -0.333024  -2.334219   0.006535   0.000813  -0.001597   0.006890
     9  C    1.139584  -1.754228   0.081111  -0.000807  -0.003552  -0.018784
    10  C   -0.093888   2.202405  -0.004806  -0.010649   0.019117  -0.005882
    11  C    0.795140  -4.293927  -0.033919   0.017738  -0.021827   0.013022
    12  C   -4.882462   3.257159  -0.014256  -0.025028   0.087988  -0.055897
    13  C   14.909536  -2.444410  -0.002489   0.002492  -0.006233  -0.009997
    14  C   -2.444410  15.024446   0.004549  -0.010219   0.004932  -0.027439
    15  H   -0.002489   0.004549   0.442767  -0.009587   0.001843   0.000059
    16  H    0.002492  -0.010219  -0.009587   0.418358  -0.007667   0.002185
    17  H   -0.006233   0.004932   0.001843  -0.007667   0.428412  -0.012639
    18  H   -0.009997  -0.027439   0.000059   0.002185  -0.012639   0.450008
    19  H    0.077607  -0.050728   0.000423  -0.000646   0.001898  -0.004796
    20  H   -0.006513  -0.074413  -0.000144   0.000027  -0.000191   0.001185
    21  H   -0.025586   0.098488   0.000015  -0.000007   0.000010  -0.000104
    22  H    0.030085  -0.027713  -0.000127   0.000008  -0.000006   0.000008
    23  H   -0.046795  -0.034392   0.000535  -0.000129   0.000010  -0.000085
    24  H    0.010623  -0.063990  -0.001258   0.000601  -0.000116   0.000103
    25  H    0.010623  -0.063990  -0.001258   0.000601  -0.000116   0.000103
              19         20         21         22         23         24
     1  C   -0.038467   0.006553  -0.001053   0.000515   0.004372   0.042926
     2  C   -0.007318   0.002523  -0.000429   0.000323  -0.002137   0.015535
     3  C    0.052297  -0.005121   0.000342  -0.000253   0.000740  -0.000187
     4  C   -0.047088   0.005061   0.000539  -0.001081   0.003286  -0.005471
     5  C   -0.088451   0.460544  -0.065302   0.004233   0.042451  -0.020477
     6  C    0.047441  -0.083079   0.365730  -0.014062  -0.003946  -0.002897
     7  C   -0.006143  -0.000462  -0.008784   0.375231  -0.117049   0.013949
     8  C   -0.056680   0.058515  -0.033560  -0.024903   0.381402   0.016460
     9  C    0.075246  -0.026931  -0.007976   0.004487   0.101662   0.360859
    10  C    0.421486   0.017120   0.019949  -0.005610  -0.015347   0.006174
    11  C    0.072803  -0.009774  -0.006606   0.003059   0.006595   0.017451
    12  C   -0.077534  -0.007055   0.005755  -0.007577   0.008587  -0.056782
    13  C    0.077607  -0.006513  -0.025586   0.030085  -0.046795   0.010623
    14  C   -0.050728  -0.074413   0.098488  -0.027713  -0.034392  -0.063990
    15  H    0.000423  -0.000144   0.000015  -0.000127   0.000535  -0.001258
    16  H   -0.000646   0.000027  -0.000007   0.000008  -0.000129   0.000601
    17  H    0.001898  -0.000191   0.000010  -0.000006   0.000010  -0.000116
    18  H   -0.004796   0.001185  -0.000104   0.000008  -0.000085   0.000103
    19  H    0.443574  -0.007490   0.000996  -0.000408   0.000126   0.000640
    20  H   -0.007490   0.460726  -0.008597   0.001551   0.000269   0.000265
    21  H    0.000996  -0.008597   0.418650  -0.005300   0.000908  -0.000155
    22  H   -0.000408   0.001551  -0.005300   0.419875  -0.007957   0.000645
    23  H    0.000126   0.000269   0.000908  -0.007957   0.437533  -0.000570
    24  H    0.000640   0.000265  -0.000155   0.000645  -0.000570   0.493503
    25  H    0.000640   0.000265  -0.000155   0.000645  -0.000570  -0.079256
              25
     1  C    0.042926
     2  C    0.015535
     3  C   -0.000187
     4  C   -0.005471
     5  C   -0.020477
     6  C   -0.002897
     7  C    0.013949
     8  C    0.016460
     9  C    0.360859
    10  C    0.006174
    11  C    0.017451
    12  C   -0.056782
    13  C    0.010623
    14  C   -0.063990
    15  H   -0.001258
    16  H    0.000601
    17  H   -0.000116
    18  H    0.000103
    19  H    0.000640
    20  H    0.000265
    21  H   -0.000155
    22  H    0.000645
    23  H   -0.000570
    24  H   -0.079256
    25  H    0.493503
 Mulliken charges:
               1
     1  C    0.047767
     2  C   -0.445818
     3  C   -0.434765
     4  C   -0.126851
     5  C    0.098927
     6  C   -0.424416
     7  C   -0.364311
     8  C    0.151168
     9  C   -0.366812
    10  C    0.059169
    11  C   -0.640923
    12  C    0.892045
    13  C   -0.631612
    14  C    0.566404
    15  H    0.234726
    16  H    0.258327
    17  H    0.244232
    18  H    0.227090
    19  H    0.190570
    20  H    0.215164
    21  H    0.252231
    22  H    0.254335
    23  H    0.240499
    24  H    0.251427
    25  H    0.251427
 Sum of Mulliken charges =   1.00000
 Mulliken charges with hydrogens summed into heavy atoms:
               1
     1  C    0.282493
     2  C   -0.187491
     3  C   -0.190533
     4  C    0.100238
     5  C    0.314091
     6  C   -0.172185
     7  C   -0.109976
     8  C    0.391667
     9  C    0.136042
    10  C    0.249739
    11  C   -0.640923
    12  C    0.892045
    13  C   -0.631612
    14  C    0.566404
 Electronic spatial extent (au):  <R**2>=           2856.4912
 Charge=              1.0000 electrons
 Dipole moment (field-independent basis, Debye):
    X=              0.1513    Y=             -0.1044    Z=             -0.0000  Tot=              0.1838
 Quadrupole moment (field-independent basis, Debye-Ang):
   XX=            -51.4814   YY=            -36.0047   ZZ=            -84.1285
   XY=              9.9562   XZ=             -0.0000   YZ=             -0.0000
 Traceless Quadrupole moment (field-independent basis, Debye-Ang):
   XX=              5.7235   YY=             21.2001   ZZ=            -26.9236
   XY=              9.9562   XZ=             -0.0000   YZ=             -0.0000
 Octapole moment (field-independent basis, Debye-Ang**2):
  XXX=             -1.1691  YYY=              8.5339  ZZZ=              0.0000  XYY=              3.6649
  XXY=             -4.2942  XXZ=             -0.0000  XZZ=             -3.0664  YZZ=              0.7733
  YYZ=             -0.0000  XYZ=             -0.0000
 Hexadecapole moment (field-independent basis, Debye-Ang**3):
 XXXX=          -1018.7746 YYYY=          -1816.6399 ZZZZ=            -99.3019 XXXY=           -359.5972
 XXXZ=              0.0000 YYYX=           -283.7055 YYYZ=             -0.0000 ZZZX=              0.0000
 ZZZY=             -0.0000 XXYY=           -457.1163 XXZZ=           -246.4584 YYZZ=           -490.1420
 XXYZ=              0.0000 YYXZ=              0.0000 ZZXY=           -186.2671
 N-N= 7.812832182595D+02 E-N=-2.798912016531D+03  KE= 5.375465194592D+02
 Symmetry A'   KE= 5.228891414477D+02
 Symmetry A"   KE= 1.465737801153D+01
 Unable to Open any file for archive entry.
 1\1\GINC-GADI-CPU-CLX-2461\SP\RM062X TD-FC\6-311++G(d,p)\C14H11(1+)\TS
 1578\27-Jul-2022\0\\#n M062X/6-311++G(d,p) TD(NStates=1) EmpiricalDisp
 ersion=GD3 SP\\SP_16\\1,1\C,0,0.,2.479855,1.362031\C,0,0.,3.663108,0.6
 57589\C,0,0.,3.666261,-0.74103\C,0,0.,2.498356,-1.425138\C,0,0.,-2.427
 956,-1.389938\C,0,0.,-3.701461,-0.68663\C,0,0.,-3.739908,0.686389\C,0,
 0.,-2.505455,1.358831\C,0,0.,-0.0256,1.453369\C,0,0.,0.0208,-1.429189\
 C,0,0.,1.284455,0.670665\C,0,0.,1.266271,-0.703604\C,0,0.,-1.239655,0.
 683465\C,0,0.,-1.208671,-0.758004\H,0,0.,2.430471,2.443647\H,0,0.,4.58
 2353,1.224489\H,0,0.,4.585262,-1.307549\H,0,0.,2.53795,-2.506059\H,0,0
 .,0.064,-2.510266\H,0,0.,-2.39715,-2.474059\H,0,0.,-4.633262,-1.237149
 \H,0,0.,-4.691153,1.198889\H,0,0.,-2.545671,2.443647\H,0,-0.859585,-0.
 112,2.145787\H,0,0.859585,-0.112,2.145787\\Version=ES64L-G16RevC.01\St
 ate=1-A'\HF=-539.7441395\RMSD=3.191e-09\PG=CS [SG(C14H9),X(H2)]\\@
 The archive entry for this job was punched.


 Statistics are no substitute for judgment.
                            -- Henry Clay
 Job cpu time:       0 days  0 hours 45 minutes 44.1 seconds.
 Elapsed time:       0 days  0 hours  1 minutes 26.0 seconds.
 File lengths (MBytes):  RWF=    460 Int=      0 D2E=      0 Chk=     15 Scr=      1
 Normal termination of Gaussian 16 at Wed Jul 27 14:38:31 2022.
