 Entering Gaussian System, Link 0=g16
 Initial command:
 /apps/gaussian/g16c01/g16/l1.exe "/jobfs/52822737.gadi-pbs/Gau-2061945.inp" -scrdir="/jobfs/52822737.gadi-pbs/"
 Entering Link 1 = /apps/gaussian/g16c01/g16/l1.exe PID=   2061946.
  
 Copyright (c) 1988-2019, Gaussian, Inc.  All Rights Reserved.
  
 This is part of the Gaussian(R) 16 program.  It is based on
 the Gaussian(R) 09 system (copyright 2009, Gaussian, Inc.),
 the Gaussian(R) 03 system (copyright 2003, Gaussian, Inc.),
 the Gaussian(R) 98 system (copyright 1998, Gaussian, Inc.),
 the Gaussian(R) 94 system (copyright 1995, Gaussian, Inc.),
 the Gaussian 92(TM) system (copyright 1992, Gaussian, Inc.),
 the Gaussian 90(TM) system (copyright 1990, Gaussian, Inc.),
 the Gaussian 88(TM) system (copyright 1988, Gaussian, Inc.),
 the Gaussian 86(TM) system (copyright 1986, Carnegie Mellon
 University), and the Gaussian 82(TM) system (copyright 1983,
 Carnegie Mellon University). Gaussian is a federally registered
 trademark of Gaussian, Inc.
  
 This software contains proprietary and confidential information,
 including trade secrets, belonging to Gaussian, Inc.
  
 This software is provided under written license and may be
 used, copied, transmitted, or stored only in accord with that
 written license.
  
 The following legend is applicable only to US Government
 contracts under FAR:
  
                    RESTRICTED RIGHTS LEGEND
  
 Use, reproduction and disclosure by the US Government is
 subject to restrictions as set forth in subparagraphs (a)
 and (c) of the Commercial Computer Software - Restricted
 Rights clause in FAR 52.227-19.
  
 Gaussian, Inc.
 340 Quinnipiac St., Bldg. 40, Wallingford CT 06492
  
  
 ---------------------------------------------------------------
 Warning -- This program may not be used in any manner that
 competes with the business of Gaussian, Inc. or will provide
 assistance to any competitor of Gaussian, Inc.  The licensee
 of this program is prohibited from giving any competitor of
 Gaussian, Inc. access to this program.  By using this program,
 the user acknowledges that Gaussian, Inc. is engaged in the
 business of creating and licensing software in the field of
 computational chemistry and represents and warrants to the
 licensee that it is not a competitor of Gaussian, Inc. and that
 it will not use this program in any manner prohibited above.
 ---------------------------------------------------------------
  

 Cite this work as:
 Gaussian 16, Revision C.01,
 M. J. Frisch, G. W. Trucks, H. B. Schlegel, G. E. Scuseria, 
 M. A. Robb, J. R. Cheeseman, G. Scalmani, V. Barone, 
 G. A. Petersson, H. Nakatsuji, X. Li, M. Caricato, A. V. Marenich, 
 J. Bloino, B. G. Janesko, R. Gomperts, B. Mennucci, H. P. Hratchian, 
 J. V. Ortiz, A. F. Izmaylov, J. L. Sonnenberg, D. Williams-Young, 
 F. Ding, F. Lipparini, F. Egidi, J. Goings, B. Peng, A. Petrone, 
 T. Henderson, D. Ranasinghe, V. G. Zakrzewski, J. Gao, N. Rega, 
 G. Zheng, W. Liang, M. Hada, M. Ehara, K. Toyota, R. Fukuda, 
 J. Hasegawa, M. Ishida, T. Nakajima, Y. Honda, O. Kitao, H. Nakai, 
 T. Vreven, K. Throssell, J. A. Montgomery, Jr., J. E. Peralta, 
 F. Ogliaro, M. J. Bearpark, J. J. Heyd, E. N. Brothers, K. N. Kudin, 
 V. N. Staroverov, T. A. Keith, R. Kobayashi, J. Normand, 
 K. Raghavachari, A. P. Rendell, J. C. Burant, S. S. Iyengar, 
 J. Tomasi, M. Cossi, J. M. Millam, M. Klene, C. Adamo, R. Cammi, 
 J. W. Ochterski, R. L. Martin, K. Morokuma, O. Farkas, 
 J. B. Foresman, and D. J. Fox, Gaussian, Inc., Wallingford CT, 2019.
 
 ******************************************
 Gaussian 16:  ES64L-G16RevC.01  3-Jul-2019
                27-Jul-2022 
 ******************************************
 %NProcShared=32
 Will use up to   32 processors via shared memory.
 %mem = 128GB
 ---------------------------------------------------------------
 #n M062X/6-311++G(d,p) TD(NStates=1) EmpiricalDispersion=GD3 SP
 ---------------------------------------------------------------
 1/38=1,172=1/1;
 2/12=2,17=6,18=5,40=1/2;
 3/5=4,6=6,7=1111,11=9,25=1,30=1,74=-55,124=31/1,2,3,8;
 4//1;
 5/5=2,38=5/2;
 8/6=1,10=2,108=1/1;
 9/41=1,42=1,70=2/14;
 6/7=2,8=2,9=2,10=2/1;
 99/5=1,9=1/99;
 -----
 SP_16
 -----
 Symbolic Z-matrix:
 Charge =  1 Multiplicity = 1
 C                     0.        2.49906   1.36203 
 C                     0.        3.68471   0.66719 
 C                     0.        3.67706  -0.72183 
 C                     0.        2.47436  -1.41554 
 C                     0.       -2.45196  -1.39954 
 C                     0.       -3.69066  -0.70583 
 C                     0.       -3.71831   0.67679 
 C                     0.       -2.48626   1.35883 
 C                     0.       -0.016     1.45337 
 C                     0.       -0.014    -1.42919 
 C                     0.        1.27366   0.65747 
 C                     0.        1.25547  -0.7024 
 C                     0.       -1.25046   0.69667 
 C                     0.       -1.21947  -0.7592 
 H                     0.        2.43647   2.44365 
 H                     0.        4.60395   1.23289 
 H                     0.        4.58646  -1.30515 
 H                     0.        2.52715  -2.49646 
 H                     0.        0.034    -2.51027 
 H                     0.       -2.40795  -2.48366 
 H                     0.       -4.63206  -1.23955 
 H                     0.       -4.66955   1.19049 
 H                     0.       -2.53967   2.44365 
 H                    -0.85959  -0.0592    2.14579 
 H                     0.85959  -0.0592    2.14579 
 
                          Input orientation:                          
 ---------------------------------------------------------------------
 Center     Atomic      Atomic             Coordinates (Angstroms)
 Number     Number       Type             X           Y           Z
 ---------------------------------------------------------------------
      1          6           0        0.000000    2.499055    1.362031
      2          6           0        0.000000    3.684708    0.667189
      3          6           0        0.000000    3.677061   -0.721830
      4          6           0        0.000000    2.474356   -1.415538
      5          6           0        0.000000   -2.451956   -1.399538
      6          6           0        0.000000   -3.690661   -0.705830
      7          6           0        0.000000   -3.718308    0.676789
      8          6           0        0.000000   -2.486255    1.358831
      9          6           0        0.000000   -0.016000    1.453369
     10          6           0        0.000000   -0.014000   -1.429189
     11          6           0        0.000000    1.273655    0.657465
     12          6           0        0.000000    1.255471   -0.702404
     13          6           0        0.000000   -1.250455    0.696665
     14          6           0        0.000000   -1.219471   -0.759204
     15          1           0        0.000000    2.436471    2.443647
     16          1           0        0.000000    4.603953    1.232889
     17          1           0        0.000000    4.586462   -1.305149
     18          1           0        0.000000    2.527150   -2.496459
     19          1           0        0.000000    0.034000   -2.510266
     20          1           0        0.000000   -2.407950   -2.483659
     21          1           0        0.000000   -4.632062   -1.239549
     22          1           0        0.000000   -4.669553    1.190489
     23          1           0        0.000000   -2.539671    2.443647
     24          1           0       -0.859585   -0.059200    2.145787
     25          1           0        0.859585   -0.059200    2.145787
 ---------------------------------------------------------------------
                    Distance matrix (angstroms):
                    1          2          3          4          5
     1  C    0.000000
     2  C    1.374256   0.000000
     3  C    2.393778   1.389040   0.000000
     4  C    2.777679   2.408880   1.388427   0.000000
     5  C    5.669107   6.475338   6.166372   4.926338   0.000000
     6  C    6.525997   7.502083   7.367739   6.205733   1.419726
     7  C    6.255011   7.403022   7.526461   6.536583   2.432032
     8  C    4.985311   6.209602   6.505045   5.683730   2.758582
     9  C    2.516713   3.783295   4.286046   3.799013   3.751394
    10  C    3.755843   4.251499   3.758229   2.488393   2.438136
    11  C    1.413513   2.411073   2.771068   2.395626   4.255754
    12  C    2.410061   2.788723   2.421668   1.412176   3.772401
    13  C    3.808088   4.935251   5.127625   4.282011   2.416127
    14  C    4.281013   5.107403   4.896675   3.751684   1.388901
    15  H    1.083425   2.171151   3.399898   3.859371   6.218263
    16  H    2.108856   1.079365   2.163344   3.398433   7.530971
    17  H    3.386904   2.168704   1.080403   2.114989   7.039051
    18  H    3.858592   3.368770   2.114617   1.082210   5.098503
    19  H    4.590336   4.839823   4.058374   2.674653   2.722810
    20  H    6.234423   6.859178   6.334935   4.997779   1.085014
    21  H    7.590853   8.532544   8.325236   7.108597   2.185969
    22  H    7.170660   8.370634   8.562881   7.604394   3.409689
    23  H    5.153509   6.472920   6.976246   6.327225   3.844186
    24  H    2.810308   4.116064   4.787667   4.454304   4.362740
    25  H    2.810308   4.116064   4.787667   4.454304   4.362740
                    6          7          8          9         10
     6  C    0.000000
     7  C    1.382895   0.000000
     8  C    2.390276   1.408239   0.000000
     9  C    4.262074   3.782877   2.472063   0.000000
    10  C    3.747143   4.261108   3.726272   2.882559   0.000000
    11  C    5.148107   4.992000   3.824766   1.515478   2.451975
    12  C    4.946133   5.161458   4.271909   2.502798   1.462796
    13  C    2.814533   2.467933   1.402022   1.447923   2.459284
    14  C    2.471766   2.882059   2.467957   2.518694   1.379145
    15  H    6.889191   6.403366   5.040839   2.644856   4.582976
    16  H    8.518172   8.340820   7.091326   4.625211   5.330305
    17  H    8.298792   8.537991   7.557785   5.365825   4.602134
    18  H    6.470512   7.005373   6.324357   4.697739   2.756176
    19  H    4.138730   4.923122   4.617531   3.963950   1.082142
    20  H    2.192264   3.421326   3.843288   4.606692   2.615894
    21  H    1.082170   2.123040   3.369876   5.344140   4.621954
    22  H    2.134070   1.081090   2.189778   4.660972   5.341993
    23  H    3.353205   2.123905   1.086130   2.711008   4.623621
    24  H    4.696607   4.035581   2.692356   1.104625   3.677143
    25  H    4.696607   4.035581   2.692356   1.104625   3.677143
                   11         12         13         14         15
    11  C    0.000000
    12  C    1.359991   0.000000
    13  C    2.524414   2.870028   0.000000
    14  C    2.867513   2.475594   1.456199   0.000000
    15  H    2.131335   3.360416   4.079874   4.860470   0.000000
    16  H    3.379645   3.867517   5.878914   6.154730   2.482723
    17  H    3.850525   3.385085   6.170645   5.831545   4.321566
    18  H    3.393890   2.199045   4.946346   4.129797   4.940938
    19  H    3.401656   2.181824   3.454596   2.153464   5.505735
    20  H    4.839512   4.073515   3.384414   2.094332   6.909903
    21  H    6.202915   5.911985   3.896690   3.446231   7.970577
    22  H    5.967063   6.220044   3.454576   3.962874   7.215676
    23  H    4.210926   4.929578   2.171180   3.464272   4.976142
    24  H    2.174969   3.252605   2.063475   3.244085   2.656310
    25  H    2.174969   3.252605   2.063475   3.244085   2.656310
                   16         17         18         19         20
    16  H    0.000000
    17  H    2.538098   0.000000
    18  H    4.268624   2.379072   0.000000
    19  H    5.907257   4.709269   2.493188   0.000000
    20  H    7.935963   7.093003   4.935117   2.442095   0.000000
    21  H    9.561220   9.218757   7.268710   4.835996   2.548428
    22  H    9.273603   9.586554   8.086168   5.984898   4.314419
    23  H    7.245502   8.052033   7.076533   5.582565   4.929066
    24  H    4.828795   5.850643   5.383172   4.735652   5.261871
    25  H    4.828795   5.850643   5.383172   4.735652   5.261871
                   21         22         23         24         25
    21  H    0.000000
    22  H    2.430327   0.000000
    23  H    4.236040   2.471195   0.000000
    24  H    5.754168   4.786109   2.642034   0.000000
    25  H    5.754168   4.786109   2.642034   1.719170   0.000000
 Stoichiometry    C14H11(1+)
 Framework group  CS[SG(C14H9),X(H2)]
 Deg. of freedom    46
 Full point group                 CS      NOp   2
 Largest Abelian subgroup         CS      NOp   2
 Largest concise Abelian subgroup CS      NOp   2
                         Standard orientation:                         
 ---------------------------------------------------------------------
 Center     Atomic      Atomic             Coordinates (Angstroms)
 Number     Number       Type             X           Y           Z
 ---------------------------------------------------------------------
      1          6           0        2.487177   -1.385053    0.000000
      2          6           0        3.679195   -0.701188    0.000000
      3          6           0        3.684373    0.687843    0.000000
      4          6           0        2.488124    1.392625    0.000000
      5          6           0       -2.438126    1.422109    0.000000
      6          6           0       -3.683183    0.739867    0.000000
      7          6           0       -3.723594   -0.642438    0.000000
      8          6           0       -2.497890   -1.335826    0.000000
      9          6           0       -0.028614   -1.453167    0.000000
     10          6           0        0.000000    1.429250    0.000000
     11          6           0        1.268335   -0.669204    0.000000
     12          6           0        1.262707    0.690775    0.000000
     13          6           0       -1.256030   -0.685098    0.000000
     14          6           0       -1.211605    0.770423    0.000000
     15          1           0        2.414610   -2.466045    0.000000
     16          1           0        4.593178   -1.275351    0.000000
     17          1           0        4.599121    1.262741    0.000000
     18          1           0        2.550895    2.473013    0.000000
     19          1           0        0.057979    2.509838    0.000000
     20          1           0       -2.384112    2.505778    0.000000
     21          1           0       -4.619616    1.282255    0.000000
     22          1           0       -4.679541   -1.147333    0.000000
     23          1           0       -2.561320   -2.420102    0.000000
     24          1           0       -0.078205   -2.145156    0.859585
     25          1           0       -0.078205   -2.145156   -0.859585
 ---------------------------------------------------------------------
 Rotational constants (GHZ):           2.1359861           0.4446029           0.3688034
 Standard basis: 6-311++G(d,p) (5D, 7F)
 There are   299 symmetry adapted cartesian basis functions of A'  symmetry.
 There are   100 symmetry adapted cartesian basis functions of A"  symmetry.
 There are   285 symmetry adapted basis functions of A'  symmetry.
 There are   100 symmetry adapted basis functions of A"  symmetry.
   385 basis functions,   603 primitive gaussians,   399 cartesian basis functions
    47 alpha electrons       47 beta electrons
       nuclear repulsion energy       781.2476416102 Hartrees.
 NAtoms=   25 NActive=   25 NUniq=   24 SFac= 1.09D+00 NAtFMM=   60 NAOKFM=F Big=F
 Integral buffers will be    131072 words long.
 Regular integral format.
 Two-electron integral symmetry is turned on.
 Nuclear repulsion after empirical dispersion term =      781.2466623090 Hartrees.
 One-electron integrals computed using PRISM.
 NBasis=   385 RedAO= T EigKep=  1.05D-06  NBF=   285   100
 NBsUse=   379 1.00D-06 EigRej=  8.24D-07 NBFU=   279   100
 ExpMin= 3.60D-02 ExpMax= 4.56D+03 ExpMxC= 6.82D+02 IAcc=3 IRadAn=         5 AccDes= 0.00D+00
 Harris functional with IExCor= 1009 and IRadAn=       5 diagonalized for initial guess.
 HarFok:  IExCor= 1009 AccDes= 0.00D+00 IRadAn=         5 IDoV= 1 UseB2=F ITyADJ=14
 ICtDFT=  3500011 ScaDFX=  1.000000  1.000000  1.000000  1.000000
 FoFCou: FMM=F IPFlag=           0 FMFlag=      100000 FMFlg1=           0
         NFxFlg=           0 DoJE=T BraDBF=F KetDBF=T FulRan=T
         wScrn=  0.000000 ICntrl=       500 IOpCl=  0 I1Cent=   200000004 NGrid=           0
         NMat0=    1 NMatS0=      1 NMatT0=    0 NMatD0=    1 NMtDS0=    0 NMtDT0=    0
 Petite list used in FoFCou.
 Initial guess orbital symmetries:
       Occupied  (A') (A') (A') (A') (A') (A') (A') (A') (A') (A')
                 (A') (A') (A') (A') (A') (A') (A') (A') (A') (A')
                 (A') (A') (A') (A') (A') (A') (A') (A') (A') (A')
                 (A') (A') (A") (A') (A') (A') (A') (A') (A") (A')
                 (A") (A') (A') (A") (A") (A") (A")
       Virtual   (A") (A") (A") (A") (A") (A') (A') (A') (A') (A")
                 (A") (A') (A') (A') (A") (A') (A') (A') (A') (A")
                 (A') (A") (A') (A') (A') (A") (A') (A') (A") (A')
                 (A') (A') (A') (A") (A') (A') (A") (A') (A') (A")
                 (A') (A') (A') (A") (A') (A') (A') (A') (A') (A")
                 (A') (A") (A") (A') (A') (A') (A') (A") (A") (A')
                 (A') (A') (A') (A') (A') (A') (A") (A') (A') (A")
                 (A') (A') (A') (A') (A') (A') (A') (A') (A') (A')
                 (A') (A') (A') (A') (A') (A') (A') (A') (A') (A')
                 (A') (A') (A') (A') (A') (A') (A') (A") (A") (A')
                 (A') (A") (A') (A") (A') (A") (A') (A") (A') (A")
                 (A") (A') (A') (A') (A") (A') (A') (A") (A") (A')
                 (A") (A") (A') (A') (A') (A") (A') (A') (A') (A")
                 (A') (A') (A') (A') (A') (A') (A") (A') (A') (A')
                 (A') (A') (A') (A') (A') (A') (A') (A') (A') (A")
                 (A") (A') (A") (A") (A') (A') (A') (A") (A") (A')
                 (A") (A') (A") (A") (A") (A') (A') (A') (A') (A')
                 (A') (A") (A') (A') (A") (A') (A') (A') (A') (A')
                 (A") (A') (A') (A') (A") (A') (A") (A') (A") (A")
                 (A") (A') (A') (A') (A") (A') (A') (A") (A') (A')
                 (A") (A") (A") (A') (A') (A") (A') (A") (A') (A')
                 (A") (A') (A") (A") (A') (A') (A") (A') (A') (A")
                 (A') (A') (A') (A') (A") (A') (A') (A') (A") (A")
                 (A') (A') (A') (A") (A') (A') (A") (A') (A") (A')
                 (A") (A') (A') (A') (A') (A") (A') (A') (A') (A")
                 (A') (A') (A') (A") (A") (A') (A') (A") (A') (A')
                 (A') (A") (A') (A") (A') (A') (A") (A') (A") (A')
                 (A') (A') (A') (A') (A") (A') (A") (A") (A') (A')
                 (A") (A') (A") (A") (A') (A") (A') (A') (A') (A')
                 (A') (A') (A') (A') (A') (A') (A') (A') (A') (A')
                 (A') (A') (A') (A') (A") (A') (A') (A') (A') (A')
                 (A') (A') (A') (A') (A') (A') (A') (A') (A') (A')
                 (A') (A') (A') (A') (A') (A') (A') (A') (A') (A')
                 (A') (A')
 The electronic state of the initial guess is 1-A'.
 Requested convergence on RMS density matrix=1.00D-08 within 128 cycles.
 Requested convergence on MAX density matrix=1.00D-06.
 Requested convergence on             energy=1.00D-06.
 No special actions if energy rises.
 SCF Done:  E(RM062X) =  -539.750012042     A.U. after   15 cycles
            NFock= 15  Conv=0.74D-08     -V/T= 2.0041
 DoSCS=F DFT=T ScalE2(SS,OS)=  1.000000  1.000000
 ExpMin= 3.60D-02 ExpMax= 4.56D+03 ExpMxC= 6.82D+02 IAcc=3 IRadAn=         5 AccDes= 0.00D+00
 HarFok:  IExCor=  205 AccDes= 0.00D+00 IRadAn=         5 IDoV=-2 UseB2=F ITyADJ=14
 ICtDFT= 12500011 ScaDFX=  1.000000  1.000000  1.000000  1.000000
 Range of M.O.s used for correlation:    15   379
 NBasis=   385 NAE=    47 NBE=    47 NFC=    14 NFV=     0
 NROrb=    365 NOA=    33 NOB=    33 NVA=   332 NVB=   332

 **** Warning!!: The largest alpha MO coefficient is  0.15131587D+03

 Orbital symmetries:
       Occupied  (A') (A') (A') (A') (A') (A') (A') (A') (A') (A')
                 (A') (A') (A') (A') (A') (A') (A') (A') (A') (A')
                 (A') (A') (A') (A') (A') (A') (A') (A') (A') (A')
                 (A') (A") (A') (A') (A') (A') (A') (A") (A") (A')
                 (A') (A') (A') (A") (A") (A") (A")
       Virtual   (A") (A") (A") (A") (A') (A') (A') (A') (A") (A')
                 (A') (A") (A') (A') (A") (A') (A") (A') (A') (A')
                 (A") (A") (A') (A') (A') (A") (A') (A") (A') (A')
                 (A") (A') (A") (A') (A') (A') (A') (A') (A") (A')
                 (A") (A') (A') (A") (A") (A') (A") (A') (A") (A')
                 (A') (A') (A') (A') (A') (A") (A') (A') (A') (A')
                 (A') (A") (A') (A') (A') (A") (A') (A') (A') (A')
                 (A') (A') (A') (A') (A') (A') (A') (A') (A') (A')
                 (A') (A') (A') (A') (A') (A') (A') (A') (A') (A')
                 (A') (A') (A') (A') (A") (A") (A') (A") (A') (A')
                 (A") (A') (A') (A') (A") (A") (A') (A") (A") (A')
                 (A') (A') (A") (A') (A') (A") (A') (A") (A') (A")
                 (A") (A') (A") (A') (A') (A') (A") (A') (A') (A')
                 (A') (A') (A') (A') (A') (A') (A') (A') (A') (A')
                 (A') (A') (A') (A") (A') (A') (A') (A') (A') (A')
                 (A') (A') (A") (A') (A") (A') (A") (A") (A') (A")
                 (A") (A') (A") (A') (A") (A") (A') (A") (A') (A')
                 (A') (A') (A') (A") (A") (A') (A') (A') (A') (A")
                 (A') (A') (A') (A") (A') (A") (A') (A') (A") (A")
                 (A") (A') (A') (A") (A') (A") (A') (A') (A') (A')
                 (A") (A") (A") (A') (A') (A") (A') (A") (A') (A')
                 (A') (A") (A") (A') (A") (A') (A") (A') (A') (A")
                 (A') (A') (A') (A') (A') (A") (A') (A') (A") (A")
                 (A') (A') (A') (A") (A') (A') (A') (A") (A") (A')
                 (A") (A') (A') (A") (A') (A') (A') (A') (A') (A')
                 (A") (A') (A') (A') (A") (A') (A") (A') (A") (A')
                 (A') (A') (A') (A') (A') (A') (A") (A') (A') (A')
                 (A") (A') (A') (A") (A") (A") (A') (A") (A') (A")
                 (A') (A") (A") (A') (A") (A") (A') (A') (A') (A')
                 (A') (A') (A') (A') (A') (A') (A') (A') (A') (A')
                 (A') (A') (A') (A') (A") (A') (A') (A') (A') (A')
                 (A') (A') (A') (A') (A') (A') (A') (A') (A') (A')
                 (A') (A') (A') (A') (A') (A') (A') (A') (A') (A')
                 (A') (A')
     4 initial guesses have been made.
 Convergence on wavefunction:    0.001000000000000
 Iteration     1 Dimension     4 NMult     0 NNew      4
 CISAX will form     4 AO SS matrices at one time.
 Iteration     2 Dimension     6 NMult     4 NNew      2
 Iteration     3 Dimension     8 NMult     6 NNew      2
 Iteration     4 Dimension    10 NMult     8 NNew      2
 Iteration     5 Dimension    12 NMult    10 NNew      2
 Iteration     6 Dimension    14 NMult    12 NNew      2
 ***********************************************************************
 Excited states from <AA,BB:AA,BB> singles matrix:
 ***********************************************************************
 
 Ground to excited state transition densities written to RWF  633
 Ground to excited state transition electric dipole moments (Au):
       state          X           Y           Z        Dip. S.      Osc.
         1        -0.2150     -0.6435      0.0000      0.4603      0.0317
 Ground to excited state transition velocity dipole moments (Au):
       state          X           Y           Z        Dip. S.      Osc.
         1         0.0219      0.0742      0.0000      0.0060      0.0387
 Ground to excited state transition magnetic dipole moments (Au):
       state          X           Y           Z
         1         0.0000     -0.0000     -0.3414
 Ground to excited state transition velocity quadrupole moments (Au):
       state          XX          YY          ZZ          XY          XZ          YZ
         1         0.2870      0.0362     -0.0100     -0.0737     -0.0000     -0.0000
 <0|del|b> * <b|rxdel|0> + <0|del|b> * <b|delr+rdel|0>
 Rotatory Strengths (R) in cgs (10**-40 erg-esu-cm/Gauss)
       state          XX          YY          ZZ    R(velocity)    E-M Angle
         1         0.0000     -0.0000      0.0000     -0.0000       90.00
 1/2[<0|r|b>*<b|rxdel|0> + (<0|rxdel|b>*<b|r|0>)*]
 Rotatory Strengths (R) in cgs (10**-40 erg-esu-cm/Gauss)
       state          XX          YY          ZZ     R(length)
         1         0.0000     -0.0000      0.0000      0.0000
  1/2[<0|del|b>*<b|r|0> + (<0|r|b>*<b|del|0>)*] (Au)
       state          X           Y           Z        Dip. S.   Osc.(frdel)
         1        -0.0047     -0.0478      0.0000      0.0525      0.0350

 Excitation energies and oscillator strengths:
 
 Excited State   1:      Singlet-A'     2.8071 eV  441.68 nm  f=0.0317  <S**2>=0.000
      47 -> 48         0.70063
 This state for optimization and/or second-order correction.
 Total Energy, E(TD-HF/TD-DFT) =  -539.646853778    
 Copying the excited state density for this state as the 1-particle RhoCI density.
 SavETr:  write IOETrn=   770 NScale= 10 NData=  16 NLR=1 NState=    1 LETran=      28.

 **********************************************************************

            Population analysis using the SCF Density.

 **********************************************************************

 Orbital symmetries:
       Occupied  (A') (A') (A') (A') (A') (A') (A') (A') (A') (A')
                 (A') (A') (A') (A') (A') (A') (A') (A') (A') (A')
                 (A') (A') (A') (A') (A') (A') (A') (A') (A') (A')
                 (A') (A") (A') (A') (A') (A') (A') (A") (A") (A')
                 (A') (A') (A') (A") (A") (A") (A")
       Virtual   (A") (A") (A") (A") (A') (A') (A') (A') (A") (A')
                 (A') (A") (A') (A') (A") (A') (A") (A') (A') (A')
                 (A") (A") (A') (A') (A') (A") (A') (A") (A') (A')
                 (A") (A') (A") (A') (A') (A') (A') (A') (A") (A')
                 (A") (A') (A') (A") (A") (A') (A") (A') (A") (A')
                 (A') (A') (A') (A') (A') (A") (A') (A') (A') (A')
                 (A') (A") (A') (A') (A') (A") (A') (A') (A') (A')
                 (A') (A') (A') (A') (A') (A') (A') (A') (A') (A')
                 (A') (A') (A') (A') (A') (A') (A') (A') (A') (A')
                 (A') (A') (A') (A') (A") (A") (A') (A") (A') (A')
                 (A") (A') (A') (A') (A") (A") (A') (A") (A") (A')
                 (A') (A') (A") (A') (A') (A") (A') (A") (A') (A")
                 (A") (A') (A") (A') (A') (A') (A") (A') (A') (A')
                 (A') (A') (A') (A') (A') (A') (A') (A') (A') (A')
                 (A') (A') (A') (A") (A') (A') (A') (A') (A') (A')
                 (A') (A') (A") (A') (A") (A') (A") (A") (A') (A")
                 (A") (A') (A") (A') (A") (A") (A') (A") (A') (A')
                 (A') (A') (A') (A") (A") (A') (A') (A') (A') (A")
                 (A') (A') (A') (A") (A') (A") (A') (A') (A") (A")
                 (A") (A') (A') (A") (A') (A") (A') (A') (A') (A')
                 (A") (A") (A") (A') (A') (A") (A') (A") (A') (A')
                 (A') (A") (A") (A') (A") (A') (A") (A') (A') (A")
                 (A') (A') (A') (A') (A') (A") (A') (A') (A") (A")
                 (A') (A') (A') (A") (A') (A') (A') (A") (A") (A')
                 (A") (A') (A') (A") (A') (A') (A') (A') (A') (A')
                 (A") (A') (A') (A') (A") (A') (A") (A') (A") (A')
                 (A') (A') (A') (A') (A') (A') (A") (A') (A') (A')
                 (A") (A') (A') (A") (A") (A") (A') (A") (A') (A")
                 (A') (A") (A") (A') (A") (A") (A') (A') (A') (A')
                 (A') (A') (A') (A') (A') (A') (A') (A') (A') (A')
                 (A') (A') (A') (A') (A") (A') (A') (A') (A') (A')
                 (A') (A') (A') (A') (A') (A') (A') (A') (A') (A')
                 (A') (A') (A') (A') (A') (A') (A') (A') (A') (A')
                 (A') (A')
 The electronic state is 1-A'.
 Alpha  occ. eigenvalues --  -10.77585 -10.73861 -10.72663 -10.72562 -10.72213
 Alpha  occ. eigenvalues --  -10.72127 -10.71830 -10.70990 -10.70589 -10.70440
 Alpha  occ. eigenvalues --  -10.70237 -10.70183 -10.69497 -10.69038  -1.16491
 Alpha  occ. eigenvalues --   -1.12501  -1.07020  -1.05906  -1.01247  -1.00204
 Alpha  occ. eigenvalues --   -0.95805  -0.91163  -0.86367  -0.85843  -0.83733
 Alpha  occ. eigenvalues --   -0.78428  -0.76032  -0.74391  -0.70090  -0.69041
 Alpha  occ. eigenvalues --   -0.68509  -0.68146  -0.67906  -0.64926  -0.64021
 Alpha  occ. eigenvalues --   -0.62991  -0.61777  -0.60063  -0.59701  -0.59348
 Alpha  occ. eigenvalues --   -0.56758  -0.55184  -0.54460  -0.52507  -0.46592
 Alpha  occ. eigenvalues --   -0.46112  -0.44472
 Alpha virt. eigenvalues --   -0.26125  -0.14776  -0.13957  -0.12707  -0.11188
 Alpha virt. eigenvalues --   -0.10100  -0.09246  -0.07997  -0.07926  -0.07471
 Alpha virt. eigenvalues --   -0.07209  -0.07129  -0.05644  -0.05587  -0.05356
 Alpha virt. eigenvalues --   -0.03845  -0.03652  -0.03306  -0.03125  -0.02154
 Alpha virt. eigenvalues --   -0.01368  -0.00931   0.00170   0.00524   0.00608
 Alpha virt. eigenvalues --    0.01036   0.01512   0.01840   0.02116   0.02252
 Alpha virt. eigenvalues --    0.02466   0.02685   0.02849   0.03219   0.03460
 Alpha virt. eigenvalues --    0.04224   0.04595   0.04738   0.05042   0.05354
 Alpha virt. eigenvalues --    0.06044   0.06269   0.06580   0.07049   0.07254
 Alpha virt. eigenvalues --    0.07877   0.08055   0.08289   0.08679   0.08874
 Alpha virt. eigenvalues --    0.09289   0.09630   0.09787   0.10552   0.10997
 Alpha virt. eigenvalues --    0.11119   0.11964   0.12244   0.12814   0.12992
 Alpha virt. eigenvalues --    0.13374   0.13532   0.14002   0.14760   0.15867
 Alpha virt. eigenvalues --    0.16344   0.16464   0.17305   0.17725   0.17918
 Alpha virt. eigenvalues --    0.18086   0.18739   0.19282   0.19718   0.19950
 Alpha virt. eigenvalues --    0.21491   0.21560   0.22778   0.23101   0.23476
 Alpha virt. eigenvalues --    0.23961   0.24640   0.25655   0.26837   0.27761
 Alpha virt. eigenvalues --    0.28671   0.29591   0.29988   0.31521   0.34930
 Alpha virt. eigenvalues --    0.37034   0.38125   0.39162   0.41296   0.41314
 Alpha virt. eigenvalues --    0.42040   0.42044   0.43054   0.43588   0.44200
 Alpha virt. eigenvalues --    0.44312   0.45285   0.46164   0.46945   0.47881
 Alpha virt. eigenvalues --    0.48500   0.48797   0.49006   0.50436   0.50808
 Alpha virt. eigenvalues --    0.51556   0.51767   0.52163   0.53090   0.54085
 Alpha virt. eigenvalues --    0.54091   0.54661   0.55646   0.55919   0.57425
 Alpha virt. eigenvalues --    0.58236   0.58911   0.61448   0.61841   0.62723
 Alpha virt. eigenvalues --    0.63390   0.63603   0.64769   0.65398   0.67009
 Alpha virt. eigenvalues --    0.70311   0.70737   0.70960   0.72176   0.72666
 Alpha virt. eigenvalues --    0.75551   0.76105   0.76291   0.77054   0.77179
 Alpha virt. eigenvalues --    0.77420   0.78209   0.78241   0.79912   0.80363
 Alpha virt. eigenvalues --    0.81172   0.81850   0.82352   0.83190   0.85024
 Alpha virt. eigenvalues --    0.87171   0.88151   0.88570   0.89265   0.90130
 Alpha virt. eigenvalues --    0.91175   0.91279   0.93476   0.94631   0.96251
 Alpha virt. eigenvalues --    0.96981   1.00565   1.01171   1.01211   1.02922
 Alpha virt. eigenvalues --    1.03414   1.03612   1.05021   1.05558   1.08979
 Alpha virt. eigenvalues --    1.19226   1.22980   1.23827   1.24247   1.28871
 Alpha virt. eigenvalues --    1.28929   1.32434   1.34420   1.35887   1.35979
 Alpha virt. eigenvalues --    1.38465   1.40791   1.41104   1.42486   1.43461
 Alpha virt. eigenvalues --    1.43945   1.45080   1.45238   1.45809   1.46966
 Alpha virt. eigenvalues --    1.47778   1.48261   1.51725   1.53587   1.54014
 Alpha virt. eigenvalues --    1.55814   1.56016   1.57404   1.58712   1.61521
 Alpha virt. eigenvalues --    1.63069   1.63177   1.63918   1.66001   1.67965
 Alpha virt. eigenvalues --    1.68063   1.69160   1.69426   1.74343   1.76331
 Alpha virt. eigenvalues --    1.76858   1.78405   1.79802   1.79868   1.81450
 Alpha virt. eigenvalues --    1.82848   1.83292   1.83320   1.84087   1.84360
 Alpha virt. eigenvalues --    1.85120   1.85680   1.86363   1.88076   1.91172
 Alpha virt. eigenvalues --    1.91231   1.94497   1.96561   1.97152   1.98769
 Alpha virt. eigenvalues --    1.99531   2.02718   2.04749   2.07065   2.11729
 Alpha virt. eigenvalues --    2.12212   2.14305   2.15158   2.19053   2.21100
 Alpha virt. eigenvalues --    2.23156   2.28312   2.30017   2.34518   2.34555
 Alpha virt. eigenvalues --    2.35785   2.38206   2.39721   2.41521   2.44666
 Alpha virt. eigenvalues --    2.46084   2.46432   2.48520   2.53756   2.54417
 Alpha virt. eigenvalues --    2.54606   2.56449   2.58113   2.58146   2.59306
 Alpha virt. eigenvalues --    2.59741   2.60254   2.61463   2.63176   2.63806
 Alpha virt. eigenvalues --    2.64975   2.65097   2.65484   2.65817   2.67718
 Alpha virt. eigenvalues --    2.70913   2.70919   2.71109   2.73400   2.74779
 Alpha virt. eigenvalues --    2.76307   2.79036   2.79787   2.81767   2.83131
 Alpha virt. eigenvalues --    2.85564   2.86266   2.92167   2.96855   2.98339
 Alpha virt. eigenvalues --    3.01151   3.04013   3.10594   3.11238   3.14199
 Alpha virt. eigenvalues --    3.18971   3.23691   3.26233   3.28756   3.30323
 Alpha virt. eigenvalues --    3.33802   3.35187   3.42308   3.45248   3.46881
 Alpha virt. eigenvalues --    3.47472   3.52403   3.56725   3.64651   3.65955
 Alpha virt. eigenvalues --    3.70922   3.93763   3.94021   3.95323   3.95905
 Alpha virt. eigenvalues --    4.03473   4.05559   4.08043   4.12127   4.34970
 Alpha virt. eigenvalues --    4.60463   4.67120   4.72879  23.44940  23.59141
 Alpha virt. eigenvalues --   23.77215  23.83040  23.84078  23.91330  23.92666
 Alpha virt. eigenvalues --   23.93660  23.97639  24.02966  24.03385  24.07164
 Alpha virt. eigenvalues --   24.08298  24.13990
          Condensed to atoms (all electrons):
               1          2          3          4          5          6
     1  C    8.636762   0.045673  -0.426789   2.157790  -0.189325  -0.099689
     2  C    0.045673   7.409491   0.203531  -1.296713   0.024136  -0.016318
     3  C   -0.426789   0.203531   6.525716   0.970617  -0.158165   0.017188
     4  C    2.157790  -1.296713   0.970617  10.397344  -0.667173  -0.115171
     5  C   -0.189325   0.024136  -0.158165  -0.667173  13.519434   0.757033
     6  C   -0.099689  -0.016318   0.017188  -0.115171   0.757033   6.654020
     7  C    0.019719  -0.004135  -0.010983   0.006603  -1.306064   0.420897
     8  C    0.385474  -0.027051  -0.104363   0.003756   2.735829  -0.555987
     9  C   -0.714333  -0.843837   0.311572  -0.067375  -0.102288   0.286210
    10  C   -1.312127   0.241598  -0.310246  -2.370316  -2.912291  -0.309408
    11  C    0.592196  -1.133148   1.113934   1.214837  -1.871716  -0.251573
    12  C   -3.028376   2.025882  -1.661487  -2.998987  -0.044771  -0.067342
    13  C    0.612568  -0.428946  -0.079946  -0.638391  -2.234900   0.648353
    14  C   -1.160779  -0.045521  -0.285471  -0.823401  -1.978669  -1.248289
    15  H    0.371321  -0.106348   0.004908   0.023859   0.005473   0.001280
    16  H   -0.020065   0.384259  -0.016666   0.016346  -0.001678  -0.000374
    17  H   -0.030608  -0.013957   0.383386  -0.079611   0.000040   0.000451
    18  H    0.052150   0.002258  -0.081609   0.461672   0.001107  -0.005118
    19  H   -0.039824  -0.008304   0.053558  -0.036191  -0.102739   0.047086
    20  H    0.006534   0.002671  -0.005216   0.004132   0.475564  -0.084068
    21  H   -0.001097  -0.000419   0.000351   0.000397  -0.067730   0.370266
    22  H    0.000831   0.000355  -0.000269  -0.001116   0.005692  -0.017760
    23  H    0.003536  -0.002180   0.000780   0.003657   0.042947  -0.005973
    24  H    0.040355   0.013984  -0.000310  -0.005726  -0.019360  -0.002739
    25  H    0.040355   0.013984  -0.000310  -0.005726  -0.019360  -0.002739
               7          8          9         10         11         12
     1  C    0.019719   0.385474  -0.714333  -1.312127   0.592196  -3.028376
     2  C   -0.004135  -0.027051  -0.843837   0.241598  -1.133148   2.025882
     3  C   -0.010983  -0.104363   0.311572  -0.310246   1.113934  -1.661487
     4  C    0.006603   0.003756  -0.067375  -2.370316   1.214837  -2.998987
     5  C   -1.306064   2.735829  -0.102288  -2.912291  -1.871716  -0.044771
     6  C    0.420897  -0.555987   0.286210  -0.309408  -0.251573  -0.067342
     7  C    7.165302   0.058539  -0.929354   0.302065  -0.196073  -0.254008
     8  C    0.058539   9.228483  -1.158769  -1.470838  -0.006408  -1.039270
     9  C   -0.929354  -1.158769   9.742907   0.294448   1.740615  -2.169062
    10  C    0.302065  -1.470838   0.294448   8.856050  -0.433495   2.640644
    11  C   -0.196073  -0.006408   1.740615  -0.433495  13.262960  -4.007589
    12  C   -0.254008  -1.039270  -2.169062   2.640644  -4.007589  17.491582
    13  C   -0.310107  -0.324028   1.059572   0.052580   0.610196  -4.898121
    14  C    1.125790  -2.238235  -1.988141   2.237622  -4.072887   3.301995
    15  H   -0.002337   0.007171   0.086131  -0.006061  -0.034697  -0.029051
    16  H    0.000345   0.000579  -0.000840  -0.009334   0.015675  -0.023285
    17  H   -0.000375  -0.001560  -0.004367   0.018709  -0.023781   0.098594
    18  H    0.001895   0.006835  -0.020479  -0.002737   0.016887  -0.067981
    19  H   -0.006283  -0.055531   0.075988   0.421115   0.074278  -0.053270
    20  H   -0.000285   0.058307  -0.025290   0.011396  -0.009073  -0.016520
    21  H   -0.014838  -0.029199  -0.007359   0.018928  -0.006634   0.005704
    22  H    0.380072  -0.027123   0.003284  -0.005906   0.003495  -0.008591
    23  H   -0.118638   0.381630   0.101859  -0.014004   0.003590   0.008702
    24  H    0.014867   0.022085   0.357611   0.005465   0.006661  -0.054941
    25  H    0.014867   0.022085   0.357611   0.005465   0.006661  -0.054941
              13         14         15         16         17         18
     1  C    0.612568  -1.160779   0.371321  -0.020065  -0.030608   0.052150
     2  C   -0.428946  -0.045521  -0.106348   0.384259  -0.013957   0.002258
     3  C   -0.079946  -0.285471   0.004908  -0.016666   0.383386  -0.081609
     4  C   -0.638391  -0.823401   0.023859   0.016346  -0.079611   0.461672
     5  C   -2.234900  -1.978669   0.005473  -0.001678   0.000040   0.001107
     6  C    0.648353  -1.248289   0.001280  -0.000374   0.000451  -0.005118
     7  C   -0.310107   1.125790  -0.002337   0.000345  -0.000375   0.001895
     8  C   -0.324028  -2.238235   0.007171   0.000579  -0.001560   0.006835
     9  C    1.059572  -1.988141   0.086131  -0.000840  -0.004367  -0.020479
    10  C    0.052580   2.237622  -0.006061  -0.009334   0.018709  -0.002737
    11  C    0.610196  -4.072887  -0.034697   0.015675  -0.023781   0.016887
    12  C   -4.898121   3.301995  -0.029051  -0.023285   0.098594  -0.067981
    13  C   15.088566  -2.566687   0.004710   0.001743  -0.006094  -0.008803
    14  C   -2.566687  15.397639   0.001514  -0.008631   0.004505  -0.020886
    15  H    0.004710   0.001514   0.447970  -0.010067   0.001729  -0.000037
    16  H    0.001743  -0.008631  -0.010067   0.422557  -0.007385   0.002138
    17  H   -0.006094   0.004505   0.001729  -0.007385   0.429301  -0.012519
    18  H   -0.008803  -0.020886  -0.000037   0.002138  -0.012519   0.453796
    19  H    0.075270  -0.071032   0.000369  -0.000619   0.001694  -0.005135
    20  H   -0.009429  -0.071640  -0.000137   0.000024  -0.000174   0.001154
    21  H   -0.022753   0.095359   0.000014  -0.000007   0.000011  -0.000120
    22  H    0.030335  -0.026747  -0.000131   0.000008  -0.000007   0.000011
    23  H   -0.048600  -0.025969   0.000513  -0.000129   0.000013  -0.000093
    24  H    0.020237  -0.063016  -0.001204   0.000617  -0.000121   0.000137
    25  H    0.020237  -0.063016  -0.001204   0.000617  -0.000121   0.000137
              19         20         21         22         23         24
     1  C   -0.039824   0.006534  -0.001097   0.000831   0.003536   0.040355
     2  C   -0.008304   0.002671  -0.000419   0.000355  -0.002180   0.013984
     3  C    0.053558  -0.005216   0.000351  -0.000269   0.000780  -0.000310
     4  C   -0.036191   0.004132   0.000397  -0.001116   0.003657  -0.005726
     5  C   -0.102739   0.475564  -0.067730   0.005692   0.042947  -0.019360
     6  C    0.047086  -0.084068   0.370266  -0.017760  -0.005973  -0.002739
     7  C   -0.006283  -0.000285  -0.014838   0.380072  -0.118638   0.014867
     8  C   -0.055531   0.058307  -0.029199  -0.027123   0.381630   0.022085
     9  C    0.075988  -0.025290  -0.007359   0.003284   0.101859   0.357611
    10  C    0.421115   0.011396   0.018928  -0.005906  -0.014004   0.005465
    11  C    0.074278  -0.009073  -0.006634   0.003495   0.003590   0.006661
    12  C   -0.053270  -0.016520   0.005704  -0.008591   0.008702  -0.054941
    13  C    0.075270  -0.009429  -0.022753   0.030335  -0.048600   0.020237
    14  C   -0.071032  -0.071640   0.095359  -0.026747  -0.025969  -0.063016
    15  H    0.000369  -0.000137   0.000014  -0.000131   0.000513  -0.001204
    16  H   -0.000619   0.000024  -0.000007   0.000008  -0.000129   0.000617
    17  H    0.001694  -0.000174   0.000011  -0.000007   0.000013  -0.000121
    18  H   -0.005135   0.001154  -0.000120   0.000011  -0.000093   0.000137
    19  H    0.443307  -0.007027   0.001201  -0.000434   0.000196   0.000617
    20  H   -0.007027   0.456813  -0.008699   0.001599   0.000363   0.000231
    21  H    0.001201  -0.008699   0.416305  -0.005620   0.001044  -0.000150
    22  H   -0.000434   0.001599  -0.005620   0.416451  -0.008079   0.000647
    23  H    0.000196   0.000363   0.001044  -0.008079   0.433025  -0.000631
    24  H    0.000617   0.000231  -0.000150   0.000647  -0.000631   0.494651
    25  H    0.000617   0.000231  -0.000150   0.000647  -0.000631  -0.079905
              25
     1  C    0.040355
     2  C    0.013984
     3  C   -0.000310
     4  C   -0.005726
     5  C   -0.019360
     6  C   -0.002739
     7  C    0.014867
     8  C    0.022085
     9  C    0.357611
    10  C    0.005465
    11  C    0.006661
    12  C   -0.054941
    13  C    0.020237
    14  C   -0.063016
    15  H   -0.001204
    16  H    0.000617
    17  H   -0.000121
    18  H    0.000137
    19  H    0.000617
    20  H    0.000231
    21  H   -0.000150
    22  H    0.000647
    23  H   -0.000631
    24  H   -0.079905
    25  H    0.494651
 Mulliken charges:
               1
     1  C    0.057746
     2  C   -0.440944
     3  C   -0.443709
     4  C   -0.155114
     5  C    0.108976
     6  C   -0.420236
     7  C   -0.357483
     8  C    0.127589
     9  C   -0.386313
    10  C    0.050677
    11  C   -0.614912
    12  C    0.904490
    13  C   -0.647562
    14  C    0.594595
    15  H    0.234312
    16  H    0.254172
    17  H    0.242248
    18  H    0.225342
    19  H    0.191091
    20  H    0.218540
    21  H    0.255195
    22  H    0.258355
    23  H    0.243072
    24  H    0.249936
    25  H    0.249936
 Sum of Mulliken charges =   1.00000
 Mulliken charges with hydrogens summed into heavy atoms:
               1
     1  C    0.292058
     2  C   -0.186772
     3  C   -0.201461
     4  C    0.070227
     5  C    0.327517
     6  C   -0.165041
     7  C   -0.099127
     8  C    0.370661
     9  C    0.113559
    10  C    0.241768
    11  C   -0.614912
    12  C    0.904490
    13  C   -0.647562
    14  C    0.594595
 Electronic spatial extent (au):  <R**2>=           2856.1252
 Charge=              1.0000 electrons
 Dipole moment (field-independent basis, Debye):
    X=             -0.8918    Y=              0.1971    Z=             -0.0000  Tot=              0.9133
 Quadrupole moment (field-independent basis, Debye-Ang):
   XX=            -31.0861   YY=            -56.3140   ZZ=            -84.1261
   XY=              0.7218   XZ=             -0.0000   YZ=              0.0000
 Traceless Quadrupole moment (field-independent basis, Debye-Ang):
   XX=             26.0893   YY=              0.8614   ZZ=            -26.9507
   XY=              0.7218   XZ=             -0.0000   YZ=              0.0000
 Octapole moment (field-independent basis, Debye-Ang**2):
  XXX=            -17.1708  YYY=              5.2195  ZZZ=             -0.0000  XYY=              0.1868
  XXY=             -4.9728  XXZ=              0.0000  XZZ=             -0.5966  YZZ=             -3.0699
  YYZ=              0.0000  XYZ=              0.0000
 Hexadecapole moment (field-independent basis, Debye-Ang**3):
 XXXX=          -2121.4900 YYYY=           -610.2210 ZZZZ=            -99.2797 XXXY=             19.3818
 XXXZ=             -0.0000 YYYX=             10.3084 YYYZ=             -0.0000 ZZZX=              0.0000
 ZZZY=              0.0000 XXYY=           -508.2416 XXZZ=           -590.8018 YYZZ=           -145.7699
 XXYZ=             -0.0000 YYXZ=              0.0000 ZZXY=              2.7441
 N-N= 7.812466623090D+02 E-N=-2.798845672479D+03  KE= 5.375342671134D+02
 Symmetry A'   KE= 5.228761617546D+02
 Symmetry A"   KE= 1.465810535881D+01
 Unable to Open any file for archive entry.
 1\1\GINC-GADI-CPU-CLX-2461\SP\RM062X TD-FC\6-311++G(d,p)\C14H11(1+)\TS
 1578\27-Jul-2022\0\\#n M062X/6-311++G(d,p) TD(NStates=1) EmpiricalDisp
 ersion=GD3 SP\\SP_16\\1,1\C,0,0.,2.499055,1.362031\C,0,0.,3.684708,0.6
 67189\C,0,0.,3.677061,-0.72183\C,0,0.,2.474356,-1.415538\C,0,0.,-2.451
 956,-1.399538\C,0,0.,-3.690661,-0.70583\C,0,0.,-3.718308,0.676789\C,0,
 0.,-2.486255,1.358831\C,0,0.,-0.016,1.453369\C,0,0.,-0.014,-1.429189\C
 ,0,0.,1.273655,0.657465\C,0,0.,1.255471,-0.702404\C,0,0.,-1.250455,0.6
 96665\C,0,0.,-1.219471,-0.759204\H,0,0.,2.436471,2.443647\H,0,0.,4.603
 953,1.232889\H,0,0.,4.586462,-1.305149\H,0,0.,2.52715,-2.496459\H,0,0.
 ,0.034,-2.510266\H,0,0.,-2.40795,-2.483659\H,0,0.,-4.632062,-1.239549\
 H,0,0.,-4.669553,1.190489\H,0,0.,-2.539671,2.443647\H,0,-0.859585,-0.0
 592,2.145787\H,0,0.859585,-0.0592,2.145787\\Version=ES64L-G16RevC.01\S
 tate=1-A'\HF=-539.750012\RMSD=7.386e-09\PG=CS [SG(C14H9),X(H2)]\\@
 The archive entry for this job was punched.


 HE THAT FOLLOWS NATURE IS NEVER LOST.

                             -- BACON
 Job cpu time:       0 days  0 hours 45 minutes  9.3 seconds.
 Elapsed time:       0 days  0 hours  1 minutes 25.6 seconds.
 File lengths (MBytes):  RWF=    460 Int=      0 D2E=      0 Chk=     15 Scr=      1
 Normal termination of Gaussian 16 at Wed Jul 27 14:29:49 2022.
