 Entering Gaussian System, Link 0=g16
 Initial command:
 /apps/gaussian/g16c01/g16/l1.exe "/jobfs/52822737.gadi-pbs/Gau-2037292.inp" -scrdir="/jobfs/52822737.gadi-pbs/"
 Entering Link 1 = /apps/gaussian/g16c01/g16/l1.exe PID=   2037293.
  
 Copyright (c) 1988-2019, Gaussian, Inc.  All Rights Reserved.
  
 This is part of the Gaussian(R) 16 program.  It is based on
 the Gaussian(R) 09 system (copyright 2009, Gaussian, Inc.),
 the Gaussian(R) 03 system (copyright 2003, Gaussian, Inc.),
 the Gaussian(R) 98 system (copyright 1998, Gaussian, Inc.),
 the Gaussian(R) 94 system (copyright 1995, Gaussian, Inc.),
 the Gaussian 92(TM) system (copyright 1992, Gaussian, Inc.),
 the Gaussian 90(TM) system (copyright 1990, Gaussian, Inc.),
 the Gaussian 88(TM) system (copyright 1988, Gaussian, Inc.),
 the Gaussian 86(TM) system (copyright 1986, Carnegie Mellon
 University), and the Gaussian 82(TM) system (copyright 1983,
 Carnegie Mellon University). Gaussian is a federally registered
 trademark of Gaussian, Inc.
  
 This software contains proprietary and confidential information,
 including trade secrets, belonging to Gaussian, Inc.
  
 This software is provided under written license and may be
 used, copied, transmitted, or stored only in accord with that
 written license.
  
 The following legend is applicable only to US Government
 contracts under FAR:
  
                    RESTRICTED RIGHTS LEGEND
  
 Use, reproduction and disclosure by the US Government is
 subject to restrictions as set forth in subparagraphs (a)
 and (c) of the Commercial Computer Software - Restricted
 Rights clause in FAR 52.227-19.
  
 Gaussian, Inc.
 340 Quinnipiac St., Bldg. 40, Wallingford CT 06492
  
  
 ---------------------------------------------------------------
 Warning -- This program may not be used in any manner that
 competes with the business of Gaussian, Inc. or will provide
 assistance to any competitor of Gaussian, Inc.  The licensee
 of this program is prohibited from giving any competitor of
 Gaussian, Inc. access to this program.  By using this program,
 the user acknowledges that Gaussian, Inc. is engaged in the
 business of creating and licensing software in the field of
 computational chemistry and represents and warrants to the
 licensee that it is not a competitor of Gaussian, Inc. and that
 it will not use this program in any manner prohibited above.
 ---------------------------------------------------------------
  

 Cite this work as:
 Gaussian 16, Revision C.01,
 M. J. Frisch, G. W. Trucks, H. B. Schlegel, G. E. Scuseria, 
 M. A. Robb, J. R. Cheeseman, G. Scalmani, V. Barone, 
 G. A. Petersson, H. Nakatsuji, X. Li, M. Caricato, A. V. Marenich, 
 J. Bloino, B. G. Janesko, R. Gomperts, B. Mennucci, H. P. Hratchian, 
 J. V. Ortiz, A. F. Izmaylov, J. L. Sonnenberg, D. Williams-Young, 
 F. Ding, F. Lipparini, F. Egidi, J. Goings, B. Peng, A. Petrone, 
 T. Henderson, D. Ranasinghe, V. G. Zakrzewski, J. Gao, N. Rega, 
 G. Zheng, W. Liang, M. Hada, M. Ehara, K. Toyota, R. Fukuda, 
 J. Hasegawa, M. Ishida, T. Nakajima, Y. Honda, O. Kitao, H. Nakai, 
 T. Vreven, K. Throssell, J. A. Montgomery, Jr., J. E. Peralta, 
 F. Ogliaro, M. J. Bearpark, J. J. Heyd, E. N. Brothers, K. N. Kudin, 
 V. N. Staroverov, T. A. Keith, R. Kobayashi, J. Normand, 
 K. Raghavachari, A. P. Rendell, J. C. Burant, S. S. Iyengar, 
 J. Tomasi, M. Cossi, J. M. Millam, M. Klene, C. Adamo, R. Cammi, 
 J. W. Ochterski, R. L. Martin, K. Morokuma, O. Farkas, 
 J. B. Foresman, and D. J. Fox, Gaussian, Inc., Wallingford CT, 2019.
 
 ******************************************
 Gaussian 16:  ES64L-G16RevC.01  3-Jul-2019
                27-Jul-2022 
 ******************************************
 %NProcShared=32
 Will use up to   32 processors via shared memory.
 %mem = 128GB
 ---------------------------------------------------------------
 #n M062X/6-311++G(d,p) TD(NStates=1) EmpiricalDispersion=GD3 SP
 ---------------------------------------------------------------
 1/38=1,172=1/1;
 2/12=2,17=6,18=5,40=1/2;
 3/5=4,6=6,7=1111,11=9,25=1,30=1,74=-55,124=31/1,2,3,8;
 4//1;
 5/5=2,38=5/2;
 8/6=1,10=2,108=1/1;
 9/41=1,42=1,70=2/14;
 6/7=2,8=2,9=2,10=2/1;
 99/5=1,9=1/99;
 ----
 SP_6
 ----
 Symbolic Z-matrix:
 Charge =  1 Multiplicity = 1
 C                     0.        2.48466   1.36103 
 C                     0.        3.68351   0.66499 
 C                     0.        3.67546  -0.72723 
 C                     0.        2.48036  -1.41574 
 C                     0.       -2.44596  -1.39934 
 C                     0.       -3.69226  -0.70043 
 C                     0.       -3.71951   0.67899 
 C                     0.       -2.50066   1.35983 
 C                     0.       -0.0112    1.45337 
 C                     0.        0.0136   -1.42919 
 C                     0.        1.27226   0.67687 
 C                     0.        1.25007  -0.7208 
 C                     0.       -1.25186   0.67727 
 C                     0.       -1.22487  -0.7408 
 H                     0.        2.46547   2.44365 
 H                     0.        4.61275   1.21509 
 H                     0.        4.60006  -1.28595 
 H                     0.        2.49575  -2.49766 
 H                     0.        0.029    -2.51027 
 H                     0.       -2.43935  -2.48246 
 H                     0.       -4.61846  -1.25875 
 H                     0.       -4.66075   1.20829 
 H                     0.       -2.51067   2.44365 
 H                    -0.85959  -0.0508    2.14579 
 H                     0.85959  -0.0508    2.14579 
 
                          Input orientation:                          
 ---------------------------------------------------------------------
 Center     Atomic      Atomic             Coordinates (Angstroms)
 Number     Number       Type             X           Y           Z
 ---------------------------------------------------------------------
      1          6           0        0.000000    2.484655    1.361031
      2          6           0        0.000000    3.683508    0.664989
      3          6           0        0.000000    3.675461   -0.727230
      4          6           0        0.000000    2.480356   -1.415738
      5          6           0        0.000000   -2.445956   -1.399338
      6          6           0        0.000000   -3.692261   -0.700430
      7          6           0        0.000000   -3.719508    0.678989
      8          6           0        0.000000   -2.500655    1.359831
      9          6           0        0.000000   -0.011200    1.453369
     10          6           0        0.000000    0.013600   -1.429189
     11          6           0        0.000000    1.272255    0.676865
     12          6           0        0.000000    1.250071   -0.720804
     13          6           0        0.000000   -1.251855    0.677265
     14          6           0        0.000000   -1.224871   -0.740804
     15          1           0        0.000000    2.465471    2.443647
     16          1           0        0.000000    4.612753    1.215089
     17          1           0        0.000000    4.600062   -1.285949
     18          1           0        0.000000    2.495750   -2.497659
     19          1           0        0.000000    0.029000   -2.510266
     20          1           0        0.000000   -2.439350   -2.482459
     21          1           0        0.000000   -4.618462   -1.258749
     22          1           0        0.000000   -4.660753    1.208289
     23          1           0        0.000000   -2.510671    2.443647
     24          1           0       -0.859585   -0.050800    2.145787
     25          1           0        0.859585   -0.050800    2.145787
 ---------------------------------------------------------------------
                    Distance matrix (angstroms):
                    1          2          3          4          5
     1  C    0.000000
     2  C    1.386262   0.000000
     3  C    2.403924   1.392242   0.000000
     4  C    2.776772   2.403539   1.379246   0.000000
     5  C    5.650713   6.467749   6.158204   4.926339   0.000000
     6  C    6.511829   7.501089   7.367771   6.213925   1.428898
     7  C    6.241540   7.403029   7.527484   6.544173   2.437494
     8  C    4.985310   6.223076   6.519220   5.702127   2.759711
     9  C    2.497563   3.777884   4.283279   3.799951   3.750463
    10  C    3.727122   4.225376   3.728535   2.466793   2.459737
    11  C    1.392120   2.411282   2.783322   2.416298   4.258604
    12  C    2.420379   2.800364   2.425399   1.412988   3.757795
    13  C    3.798558   4.935378   5.123578   4.279026   2.395445
    14  C    4.263601   5.105726   4.900351   3.766197   1.387341
    15  H    1.082786   2.155745   3.393897   3.859414   6.236237
    16  H    2.133096   1.079864   2.156645   3.386498   7.527324
    17  H    3.388429   2.155512   1.080303   2.123676   7.046930
    18  H    3.858706   3.378330   2.127472   1.082031   5.062289
    19  H    4.584450   4.841247   4.059051   2.684611   2.712852
    20  H    6.246458   6.884462   6.361741   5.034024   1.083141
    21  H    7.570833   8.521941   8.310937   7.100554   2.177050
    22  H    7.147040   8.361930   8.557961   7.607953   3.421264
    23  H    5.111295   6.444492   6.951452   6.309136   3.843530
    24  H    2.789850   4.108127   4.783109   4.453100   4.363894
    25  H    2.789850   4.108127   4.783109   4.453100   4.363894
                    6          7          8          9         10
     6  C    0.000000
     7  C    1.379688   0.000000
     8  C    2.380042   1.396119   0.000000
     9  C    4.264863   3.788299   2.491212   0.000000
    10  C    3.776837   4.287250   3.755011   2.882665   0.000000
    11  C    5.152025   4.991763   3.834226   1.500072   2.453503
    12  C    4.942374   5.162958   4.289171   2.513530   1.425016
    13  C    2.802432   2.467654   1.423165   1.463408   2.457341
    14  C    2.467720   2.870370   2.457701   2.507467   1.416928
    15  H    6.913963   6.431795   5.083017   2.667311   4.583724
    16  H    8.523055   8.349490   7.114880   4.630088   5.305131
    17  H    8.312969   8.548463   7.577621   5.363544   4.588698
    18  H    6.443719   6.980009   6.312234   4.679254   2.702350
    19  H    4.138030   4.921652   4.623506   3.963839   1.081187
    20  H    2.178397   3.410800   3.842779   4.624571   2.669521
    21  H    1.081466   2.136106   3.367799   5.346255   4.635197
    22  H    2.140370   1.079861   2.165407   4.656008   5.367110
    23  H    3.358776   2.138996   1.083862   2.688495   4.622857
    24  H    4.701072   4.043489   2.712638   1.104490   3.677429
    25  H    4.701072   4.043489   2.712638   1.104490   3.677429
                   11         12         13         14         15
    11  C    0.000000
    12  C    1.397845   0.000000
    13  C    2.524110   2.866048   0.000000
    14  C    2.871485   2.475023   1.418326   0.000000
    15  H    2.131967   3.389830   4.115655   4.874357   0.000000
    16  H    3.383580   3.880118   5.889217   6.156571   2.473899
    17  H    3.863540   3.397327   6.172450   5.850387   4.297251
    18  H    3.402138   2.170007   4.911689   4.114555   4.941399
    19  H    3.421036   2.166377   3.435250   2.168684   5.520656
    20  H    4.874150   4.088429   3.375500   2.123281   6.951531
    21  H    6.200576   5.893137   3.883580   3.432889   7.993112
    22  H    5.956760   6.217656   3.450010   3.950221   7.232508
    23  H    4.175170   4.914970   2.169037   3.434241   4.976142
    24  H    2.155712   3.263203   2.082781   3.232605   2.675673
    25  H    2.155712   3.263203   2.082781   3.232605   2.675673
                   16         17         18         19         20
    16  H    0.000000
    17  H    2.501070   0.000000
    18  H    4.273897   2.428244   0.000000
    19  H    5.906696   4.732183   2.466782   0.000000
    20  H    7.962664   7.140375   4.935123   2.468507   0.000000
    21  H    9.556945   9.218564   7.221282   4.813024   2.499199
    22  H    9.273508   9.590825   8.059131   5.985101   4.307697
    23  H    7.228591   8.029471   7.034256   5.566972   4.926622
    24  H    4.832578   5.843476   5.365202   4.735407   5.278704
    25  H    4.832578   5.843476   5.365202   4.735407   5.278704
                   21         22         23         24         25
    21  H    0.000000
    22  H    2.467400   0.000000
    23  H    4.260343   2.479710   0.000000
    24  H    5.761362   4.782202   2.622703   0.000000
    25  H    5.761362   4.782202   2.622703   1.719170   0.000000
 Stoichiometry    C14H11(1+)
 Framework group  CS[SG(C14H9),X(H2)]
 Deg. of freedom    46
 Full point group                 CS      NOp   2
 Largest Abelian subgroup         CS      NOp   2
 Largest concise Abelian subgroup CS      NOp   2
                         Standard orientation:                         
 ---------------------------------------------------------------------
 Center     Atomic      Atomic             Coordinates (Angstroms)
 Number     Number       Type             X           Y           Z
 ---------------------------------------------------------------------
      1          6           0       -2.379843   -1.537752    0.000000
      2          6           0       -2.338333   -2.923393    0.000000
      3          6           0       -1.110106   -3.578983    0.000000
      4          6           0        0.064251   -2.855655    0.000000
      5          6           0        2.394649    1.484629    0.000000
      6          6           0        2.373205    2.913366    0.000000
      7          6           0        1.173035    3.593903    0.000000
      8          6           0       -0.005885    2.846041    0.000000
      9          6           0       -1.273076    0.701195    0.000000
     10          6           0        1.250205   -0.692652    0.000000
     11          6           0       -1.201072   -0.797147    0.000000
     12          6           0        0.038677   -1.442899    0.000000
     13          6           0        0.000000    1.422888    0.000000
     14          6           0        1.234286    0.724186    0.000000
     15          1           0       -3.322825   -1.005578    0.000000
     16          1           0       -3.264423   -3.478787    0.000000
     17          1           0       -1.058828   -4.658068    0.000000
     18          1           0        1.008427   -3.384165    0.000000
     19          1           0        2.193635   -1.220766    0.000000
     20          1           0        3.344063    0.963277    0.000000
     21          1           0        3.305075    3.462171    0.000000
     22          1           0        1.155551    4.673623    0.000000
     23          1           0       -0.954286    3.370723    0.000000
     24          1           0       -1.863178    1.065598    0.859585
     25          1           0       -1.863178    1.065598   -0.859585
 ---------------------------------------------------------------------
 Rotational constants (GHZ):           2.1363092           0.4446044           0.3688140
 Standard basis: 6-311++G(d,p) (5D, 7F)
 There are   299 symmetry adapted cartesian basis functions of A'  symmetry.
 There are   100 symmetry adapted cartesian basis functions of A"  symmetry.
 There are   285 symmetry adapted basis functions of A'  symmetry.
 There are   100 symmetry adapted basis functions of A"  symmetry.
   385 basis functions,   603 primitive gaussians,   399 cartesian basis functions
    47 alpha electrons       47 beta electrons
       nuclear repulsion energy       781.2159032609 Hartrees.
 NAtoms=   25 NActive=   25 NUniq=   24 SFac= 1.09D+00 NAtFMM=   60 NAOKFM=F Big=F
 Integral buffers will be    131072 words long.
 Regular integral format.
 Two-electron integral symmetry is turned on.
 Nuclear repulsion after empirical dispersion term =      781.2149239667 Hartrees.
 One-electron integrals computed using PRISM.
 NBasis=   385 RedAO= T EigKep=  1.12D-06  NBF=   285   100
 NBsUse=   379 1.00D-06 EigRej=  8.36D-07 NBFU=   279   100
 ExpMin= 3.60D-02 ExpMax= 4.56D+03 ExpMxC= 6.82D+02 IAcc=3 IRadAn=         5 AccDes= 0.00D+00
 Harris functional with IExCor= 1009 and IRadAn=       5 diagonalized for initial guess.
 HarFok:  IExCor= 1009 AccDes= 0.00D+00 IRadAn=         5 IDoV= 1 UseB2=F ITyADJ=14
 ICtDFT=  3500011 ScaDFX=  1.000000  1.000000  1.000000  1.000000
 FoFCou: FMM=F IPFlag=           0 FMFlag=      100000 FMFlg1=           0
         NFxFlg=           0 DoJE=T BraDBF=F KetDBF=T FulRan=T
         wScrn=  0.000000 ICntrl=       500 IOpCl=  0 I1Cent=   200000004 NGrid=           0
         NMat0=    1 NMatS0=      1 NMatT0=    0 NMatD0=    1 NMtDS0=    0 NMtDT0=    0
 Petite list used in FoFCou.
 Initial guess orbital symmetries:
       Occupied  (A') (A') (A') (A') (A') (A') (A') (A') (A') (A')
                 (A') (A') (A') (A') (A') (A') (A') (A') (A') (A')
                 (A') (A') (A') (A') (A') (A') (A') (A') (A') (A')
                 (A') (A') (A") (A') (A') (A') (A') (A') (A") (A')
                 (A") (A') (A') (A") (A") (A") (A")
       Virtual   (A") (A") (A") (A") (A") (A') (A') (A') (A') (A")
                 (A") (A') (A') (A') (A") (A') (A') (A') (A') (A")
                 (A') (A") (A') (A') (A') (A") (A') (A") (A') (A')
                 (A') (A') (A') (A") (A') (A') (A") (A') (A') (A")
                 (A') (A') (A') (A") (A') (A') (A') (A') (A') (A")
                 (A') (A") (A') (A") (A') (A') (A') (A") (A") (A')
                 (A') (A') (A') (A') (A') (A') (A") (A') (A') (A")
                 (A') (A') (A') (A') (A') (A') (A') (A') (A') (A')
                 (A') (A') (A') (A') (A') (A') (A') (A') (A') (A')
                 (A') (A') (A') (A') (A') (A') (A') (A") (A') (A")
                 (A') (A') (A") (A") (A') (A") (A') (A") (A") (A')
                 (A") (A') (A') (A') (A") (A') (A') (A") (A") (A')
                 (A") (A") (A') (A') (A') (A") (A') (A') (A') (A")
                 (A') (A') (A') (A') (A') (A') (A") (A') (A') (A')
                 (A') (A') (A') (A') (A') (A') (A') (A') (A') (A")
                 (A") (A') (A") (A") (A') (A') (A') (A") (A") (A')
                 (A") (A') (A") (A") (A") (A') (A') (A') (A') (A')
                 (A') (A") (A') (A") (A') (A') (A') (A') (A') (A")
                 (A') (A') (A') (A') (A") (A') (A") (A') (A") (A")
                 (A') (A") (A') (A") (A') (A') (A') (A") (A') (A')
                 (A") (A") (A") (A') (A') (A") (A') (A") (A') (A')
                 (A") (A") (A') (A") (A') (A") (A') (A') (A') (A")
                 (A') (A') (A') (A') (A") (A') (A') (A') (A") (A")
                 (A') (A') (A') (A") (A') (A') (A") (A') (A") (A')
                 (A") (A') (A') (A') (A') (A") (A') (A') (A') (A")
                 (A') (A') (A") (A') (A") (A') (A') (A") (A') (A')
                 (A') (A") (A') (A") (A') (A') (A') (A") (A') (A")
                 (A') (A') (A') (A') (A") (A') (A") (A') (A") (A')
                 (A") (A') (A") (A") (A") (A') (A') (A') (A') (A')
                 (A') (A') (A') (A') (A') (A') (A') (A') (A') (A')
                 (A') (A') (A') (A') (A") (A') (A') (A') (A') (A')
                 (A') (A') (A') (A') (A') (A') (A') (A') (A') (A')
                 (A') (A') (A') (A') (A') (A') (A') (A') (A') (A')
                 (A') (A')
 The electronic state of the initial guess is 1-A'.
 Requested convergence on RMS density matrix=1.00D-08 within 128 cycles.
 Requested convergence on MAX density matrix=1.00D-06.
 Requested convergence on             energy=1.00D-06.
 No special actions if energy rises.
 SCF Done:  E(RM062X) =  -539.757143676     A.U. after   15 cycles
            NFock= 15  Conv=0.80D-08     -V/T= 2.0042
 DoSCS=F DFT=T ScalE2(SS,OS)=  1.000000  1.000000
 ExpMin= 3.60D-02 ExpMax= 4.56D+03 ExpMxC= 6.82D+02 IAcc=3 IRadAn=         5 AccDes= 0.00D+00
 HarFok:  IExCor=  205 AccDes= 0.00D+00 IRadAn=         5 IDoV=-2 UseB2=F ITyADJ=14
 ICtDFT= 12500011 ScaDFX=  1.000000  1.000000  1.000000  1.000000
 Range of M.O.s used for correlation:    15   379
 NBasis=   385 NAE=    47 NBE=    47 NFC=    14 NFV=     0
 NROrb=    365 NOA=    33 NOB=    33 NVA=   332 NVB=   332

 **** Warning!!: The largest alpha MO coefficient is  0.15121475D+03

 Orbital symmetries:
       Occupied  (A') (A') (A') (A') (A') (A') (A') (A') (A') (A')
                 (A') (A') (A') (A') (A') (A') (A') (A') (A') (A')
                 (A') (A') (A') (A') (A') (A') (A') (A') (A') (A')
                 (A') (A') (A") (A') (A') (A') (A') (A") (A") (A')
                 (A') (A') (A') (A") (A") (A") (A")
       Virtual   (A") (A") (A") (A") (A') (A') (A') (A') (A") (A')
                 (A') (A") (A') (A') (A") (A') (A") (A') (A') (A')
                 (A") (A") (A') (A') (A') (A") (A') (A") (A') (A')
                 (A") (A') (A") (A') (A') (A') (A') (A') (A") (A')
                 (A") (A') (A') (A") (A") (A') (A") (A') (A") (A')
                 (A') (A') (A') (A') (A') (A") (A') (A') (A') (A')
                 (A') (A") (A') (A') (A') (A') (A") (A') (A') (A')
                 (A') (A') (A') (A') (A') (A') (A') (A') (A') (A')
                 (A') (A') (A') (A') (A') (A') (A') (A') (A') (A')
                 (A') (A') (A') (A') (A") (A') (A") (A") (A') (A")
                 (A') (A') (A') (A') (A") (A") (A') (A") (A") (A')
                 (A') (A') (A") (A') (A') (A") (A') (A") (A') (A")
                 (A") (A') (A") (A') (A') (A') (A") (A') (A') (A')
                 (A') (A') (A') (A') (A') (A') (A') (A') (A') (A')
                 (A') (A') (A') (A") (A') (A') (A') (A') (A') (A')
                 (A') (A') (A") (A') (A") (A') (A") (A") (A') (A")
                 (A") (A') (A') (A") (A") (A") (A') (A") (A') (A')
                 (A') (A') (A') (A") (A") (A') (A') (A') (A') (A")
                 (A') (A') (A') (A") (A') (A") (A') (A') (A") (A")
                 (A") (A') (A') (A") (A') (A") (A') (A') (A') (A')
                 (A") (A") (A") (A') (A') (A") (A') (A") (A') (A')
                 (A') (A") (A") (A') (A") (A') (A") (A') (A') (A")
                 (A') (A') (A') (A') (A") (A') (A') (A') (A") (A")
                 (A') (A') (A') (A") (A') (A') (A') (A") (A") (A')
                 (A") (A') (A') (A") (A') (A') (A') (A') (A') (A')
                 (A") (A') (A') (A') (A') (A") (A") (A") (A') (A')
                 (A') (A') (A') (A') (A') (A') (A") (A') (A') (A')
                 (A') (A") (A') (A") (A") (A") (A') (A") (A') (A")
                 (A') (A") (A") (A') (A") (A") (A') (A') (A') (A')
                 (A') (A') (A') (A') (A') (A') (A') (A') (A') (A')
                 (A') (A') (A') (A") (A') (A') (A') (A') (A') (A')
                 (A') (A') (A') (A') (A') (A') (A') (A') (A') (A')
                 (A') (A') (A') (A') (A') (A') (A') (A') (A') (A')
                 (A') (A')
     4 initial guesses have been made.
 Convergence on wavefunction:    0.001000000000000
 Iteration     1 Dimension     4 NMult     0 NNew      4
 CISAX will form     4 AO SS matrices at one time.
 Iteration     2 Dimension     6 NMult     4 NNew      2
 Iteration     3 Dimension     8 NMult     6 NNew      2
 Iteration     4 Dimension    10 NMult     8 NNew      2
 Iteration     5 Dimension    12 NMult    10 NNew      2
 Iteration     6 Dimension    14 NMult    12 NNew      2
 ***********************************************************************
 Excited states from <AA,BB:AA,BB> singles matrix:
 ***********************************************************************
 
 Ground to excited state transition densities written to RWF  633
 Ground to excited state transition electric dipole moments (Au):
       state          X           Y           Z        Dip. S.      Osc.
         1        -0.4956      0.3829     -0.0000      0.3923      0.0266
 Ground to excited state transition velocity dipole moments (Au):
       state          X           Y           Z        Dip. S.      Osc.
         1         0.0583     -0.0405      0.0000      0.0050      0.0329
 Ground to excited state transition magnetic dipole moments (Au):
       state          X           Y           Z
         1         0.0000     -0.0000     -0.2466
 Ground to excited state transition velocity quadrupole moments (Au):
       state          XX          YY          ZZ          XY          XZ          YZ
         1         0.1543      0.1512     -0.0092      0.1457     -0.0000     -0.0000
 <0|del|b> * <b|rxdel|0> + <0|del|b> * <b|delr+rdel|0>
 Rotatory Strengths (R) in cgs (10**-40 erg-esu-cm/Gauss)
       state          XX          YY          ZZ    R(velocity)    E-M Angle
         1        -0.0000     -0.0000      0.0000      0.0000       90.00
 1/2[<0|r|b>*<b|rxdel|0> + (<0|rxdel|b>*<b|r|0>)*]
 Rotatory Strengths (R) in cgs (10**-40 erg-esu-cm/Gauss)
       state          XX          YY          ZZ     R(length)
         1         0.0000      0.0000     -0.0000      0.0000
  1/2[<0|del|b>*<b|r|0> + (<0|r|b>*<b|del|0>)*] (Au)
       state          X           Y           Z        Dip. S.   Osc.(frdel)
         1        -0.0289     -0.0155     -0.0000      0.0444      0.0296

 Excitation energies and oscillator strengths:
 
 Excited State   1:      Singlet-A'     2.7722 eV  447.24 nm  f=0.0266  <S**2>=0.000
      47 -> 48         0.70344
 This state for optimization and/or second-order correction.
 Total Energy, E(TD-HF/TD-DFT) =  -539.655265990    
 Copying the excited state density for this state as the 1-particle RhoCI density.
 SavETr:  write IOETrn=   770 NScale= 10 NData=  16 NLR=1 NState=    1 LETran=      28.

 **********************************************************************

            Population analysis using the SCF Density.

 **********************************************************************

 Orbital symmetries:
       Occupied  (A') (A') (A') (A') (A') (A') (A') (A') (A') (A')
                 (A') (A') (A') (A') (A') (A') (A') (A') (A') (A')
                 (A') (A') (A') (A') (A') (A') (A') (A') (A') (A')
                 (A') (A') (A") (A') (A') (A') (A') (A") (A") (A')
                 (A') (A') (A') (A") (A") (A") (A")
       Virtual   (A") (A") (A") (A") (A') (A') (A') (A') (A") (A')
                 (A') (A") (A') (A') (A") (A') (A") (A') (A') (A')
                 (A") (A") (A') (A') (A') (A") (A') (A") (A') (A')
                 (A") (A') (A") (A') (A') (A') (A') (A') (A") (A')
                 (A") (A') (A') (A") (A") (A') (A") (A') (A") (A')
                 (A') (A') (A') (A') (A') (A") (A') (A') (A') (A')
                 (A') (A") (A') (A') (A') (A') (A") (A') (A') (A')
                 (A') (A') (A') (A') (A') (A') (A') (A') (A') (A')
                 (A') (A') (A') (A') (A') (A') (A') (A') (A') (A')
                 (A') (A') (A') (A') (A") (A') (A") (A") (A') (A")
                 (A') (A') (A') (A') (A") (A") (A') (A") (A") (A')
                 (A') (A') (A") (A') (A') (A") (A') (A") (A') (A")
                 (A") (A') (A") (A') (A') (A') (A") (A') (A') (A')
                 (A') (A') (A') (A') (A') (A') (A') (A') (A') (A')
                 (A') (A') (A') (A") (A') (A') (A') (A') (A') (A')
                 (A') (A') (A") (A') (A") (A') (A") (A") (A') (A")
                 (A") (A') (A') (A") (A") (A") (A') (A") (A') (A')
                 (A') (A') (A') (A") (A") (A') (A') (A') (A') (A")
                 (A') (A') (A') (A") (A') (A") (A') (A') (A") (A")
                 (A") (A') (A') (A") (A') (A") (A') (A') (A') (A')
                 (A") (A") (A") (A') (A') (A") (A') (A") (A') (A')
                 (A') (A") (A") (A') (A") (A') (A") (A') (A') (A")
                 (A') (A') (A') (A') (A") (A') (A') (A') (A") (A")
                 (A') (A') (A') (A") (A') (A') (A') (A") (A") (A')
                 (A") (A') (A') (A") (A') (A') (A') (A') (A') (A')
                 (A") (A') (A') (A') (A') (A") (A") (A") (A') (A')
                 (A') (A') (A') (A') (A') (A') (A") (A') (A') (A')
                 (A') (A") (A') (A") (A") (A") (A') (A") (A') (A")
                 (A') (A") (A") (A') (A") (A") (A') (A') (A') (A')
                 (A') (A') (A') (A') (A') (A') (A') (A') (A') (A')
                 (A') (A') (A') (A") (A') (A') (A') (A') (A') (A')
                 (A') (A') (A') (A') (A') (A') (A') (A') (A') (A')
                 (A') (A') (A') (A') (A') (A') (A') (A') (A') (A')
                 (A') (A')
 The electronic state is 1-A'.
 Alpha  occ. eigenvalues --  -10.77666 -10.73250 -10.73244 -10.72539 -10.72329
 Alpha  occ. eigenvalues --  -10.71449 -10.71269 -10.71177 -10.70992 -10.70834
 Alpha  occ. eigenvalues --  -10.70043 -10.69900 -10.69728 -10.69518  -1.16470
 Alpha  occ. eigenvalues --   -1.12487  -1.06931  -1.05760  -1.01328  -1.00289
 Alpha  occ. eigenvalues --   -0.95711  -0.91047  -0.86433  -0.85893  -0.83811
 Alpha  occ. eigenvalues --   -0.78380  -0.76057  -0.74393  -0.69582  -0.69234
 Alpha  occ. eigenvalues --   -0.68512  -0.68183  -0.68103  -0.64796  -0.64347
 Alpha  occ. eigenvalues --   -0.62990  -0.61788  -0.60159  -0.59540  -0.59073
 Alpha  occ. eigenvalues --   -0.56927  -0.55206  -0.54788  -0.52434  -0.46777
 Alpha  occ. eigenvalues --   -0.46100  -0.44315
 Alpha virt. eigenvalues --   -0.26089  -0.14719  -0.14058  -0.12763  -0.11179
 Alpha virt. eigenvalues --   -0.10088  -0.09232  -0.07983  -0.07961  -0.07477
 Alpha virt. eigenvalues --   -0.07204  -0.07143  -0.05645  -0.05581  -0.05335
 Alpha virt. eigenvalues --   -0.03833  -0.03649  -0.03289  -0.03131  -0.02163
 Alpha virt. eigenvalues --   -0.01364  -0.00938   0.00188   0.00591   0.00650
 Alpha virt. eigenvalues --    0.01056   0.01512   0.01943   0.02196   0.02280
 Alpha virt. eigenvalues --    0.02452   0.02669   0.02750   0.03301   0.03392
 Alpha virt. eigenvalues --    0.04235   0.04498   0.04693   0.05030   0.05369
 Alpha virt. eigenvalues --    0.06030   0.06292   0.06588   0.07048   0.07255
 Alpha virt. eigenvalues --    0.07896   0.08167   0.08352   0.08541   0.08921
 Alpha virt. eigenvalues --    0.09442   0.09649   0.09979   0.10824   0.11030
 Alpha virt. eigenvalues --    0.11112   0.12128   0.12263   0.12866   0.13039
 Alpha virt. eigenvalues --    0.13367   0.13522   0.14036   0.14379   0.16214
 Alpha virt. eigenvalues --    0.16270   0.16335   0.17329   0.17606   0.17756
 Alpha virt. eigenvalues --    0.18109   0.18952   0.19239   0.19662   0.19864
 Alpha virt. eigenvalues --    0.21545   0.21573   0.22741   0.23107   0.23544
 Alpha virt. eigenvalues --    0.23868   0.24582   0.25359   0.26891   0.27636
 Alpha virt. eigenvalues --    0.28829   0.29343   0.29856   0.31385   0.35653
 Alpha virt. eigenvalues --    0.36496   0.38190   0.39275   0.41151   0.41397
 Alpha virt. eigenvalues --    0.41987   0.42108   0.43001   0.43638   0.44301
 Alpha virt. eigenvalues --    0.44794   0.45252   0.45880   0.46423   0.47914
 Alpha virt. eigenvalues --    0.48512   0.48830   0.49063   0.50432   0.51140
 Alpha virt. eigenvalues --    0.51359   0.51911   0.52115   0.52883   0.53988
 Alpha virt. eigenvalues --    0.54110   0.54704   0.55641   0.55772   0.57471
 Alpha virt. eigenvalues --    0.58239   0.58872   0.61458   0.62036   0.62493
 Alpha virt. eigenvalues --    0.63220   0.63494   0.64901   0.65262   0.67309
 Alpha virt. eigenvalues --    0.70322   0.70609   0.71051   0.72406   0.72843
 Alpha virt. eigenvalues --    0.75630   0.76078   0.76418   0.76892   0.77072
 Alpha virt. eigenvalues --    0.77757   0.78017   0.78234   0.79896   0.80371
 Alpha virt. eigenvalues --    0.81296   0.81603   0.82218   0.83054   0.85178
 Alpha virt. eigenvalues --    0.87113   0.88155   0.88451   0.89202   0.90355
 Alpha virt. eigenvalues --    0.91095   0.91375   0.93254   0.94606   0.96306
 Alpha virt. eigenvalues --    0.96838   1.00390   1.01325   1.01600   1.02698
 Alpha virt. eigenvalues --    1.03321   1.03449   1.04786   1.05734   1.08813
 Alpha virt. eigenvalues --    1.19554   1.23114   1.24121   1.24477   1.28703
 Alpha virt. eigenvalues --    1.29220   1.32160   1.34292   1.35737   1.35987
 Alpha virt. eigenvalues --    1.39117   1.40266   1.41017   1.42807   1.43434
 Alpha virt. eigenvalues --    1.43664   1.44659   1.45823   1.46323   1.46762
 Alpha virt. eigenvalues --    1.47590   1.48142   1.51758   1.53626   1.55263
 Alpha virt. eigenvalues --    1.55782   1.56377   1.56990   1.57952   1.61452
 Alpha virt. eigenvalues --    1.63211   1.63511   1.63821   1.66081   1.68289
 Alpha virt. eigenvalues --    1.68336   1.68768   1.69727   1.74394   1.76064
 Alpha virt. eigenvalues --    1.77088   1.77996   1.79784   1.80007   1.81170
 Alpha virt. eigenvalues --    1.83136   1.83215   1.83446   1.83646   1.84189
 Alpha virt. eigenvalues --    1.84674   1.85636   1.86273   1.88228   1.91368
 Alpha virt. eigenvalues --    1.91914   1.94088   1.95580   1.97590   1.98292
 Alpha virt. eigenvalues --    1.99681   2.02481   2.04565   2.07180   2.11771
 Alpha virt. eigenvalues --    2.12106   2.14156   2.15210   2.19056   2.21213
 Alpha virt. eigenvalues --    2.22801   2.28530   2.30222   2.34494   2.34879
 Alpha virt. eigenvalues --    2.36174   2.38652   2.39572   2.42242   2.44570
 Alpha virt. eigenvalues --    2.46096   2.46573   2.49287   2.52955   2.53797
 Alpha virt. eigenvalues --    2.54341   2.56725   2.57902   2.58297   2.59594
 Alpha virt. eigenvalues --    2.59794   2.61392   2.61947   2.63333   2.63806
 Alpha virt. eigenvalues --    2.64890   2.65089   2.65214   2.65480   2.67738
 Alpha virt. eigenvalues --    2.69117   2.70972   2.71413   2.73333   2.74803
 Alpha virt. eigenvalues --    2.76309   2.78749   2.79712   2.82656   2.83092
 Alpha virt. eigenvalues --    2.85053   2.86287   2.92098   2.96991   2.99265
 Alpha virt. eigenvalues --    3.00280   3.04980   3.10232   3.11413   3.13870
 Alpha virt. eigenvalues --    3.20904   3.23340   3.26710   3.28149   3.30275
 Alpha virt. eigenvalues --    3.33263   3.33968   3.43411   3.46146   3.46490
 Alpha virt. eigenvalues --    3.48058   3.50939   3.56586   3.65786   3.66009
 Alpha virt. eigenvalues --    3.68297   3.94055   3.94418   3.95217   3.96148
 Alpha virt. eigenvalues --    4.03968   4.06426   4.07836   4.12499   4.35439
 Alpha virt. eigenvalues --    4.61296   4.68956   4.72035  23.45269  23.60389
 Alpha virt. eigenvalues --   23.81300  23.85501  23.86881  23.88721  23.90634
 Alpha virt. eigenvalues --   23.92803  23.95924  23.98974  24.01399  24.03851
 Alpha virt. eigenvalues --   24.09750  24.12554
          Condensed to atoms (all electrons):
               1          2          3          4          5          6
     1  C    8.379498   0.391293  -0.570326   1.830265  -0.053836  -0.091055
     2  C    0.391293   7.199173   0.364040  -1.064907  -0.026630  -0.015620
     3  C   -0.570326   0.364040   6.574853   0.781675  -0.126384   0.016970
     4  C    1.830265  -1.064907   0.781675  10.759277  -0.388707  -0.120809
     5  C   -0.053836  -0.026630  -0.126384  -0.388707  11.393284   0.761952
     6  C   -0.091055  -0.015620   0.016970  -0.120809   0.761952   6.588815
     7  C   -0.014451   0.001346  -0.013404  -0.007874  -1.122348   0.345606
     8  C    0.400062  -0.021023  -0.100966  -0.015567   2.204779  -0.509143
     9  C   -1.058599  -0.810801   0.295228  -0.106104  -0.313801   0.288264
    10  C   -1.227802   0.197530  -0.310685  -2.561965  -2.597292  -0.385113
    11  C    0.412532  -0.977166   1.025321   0.293505  -1.688307  -0.175092
    12  C   -2.069660   1.371783  -1.452552  -1.890987  -0.119084  -0.198675
    13  C    0.305842  -0.266408  -0.175835  -1.290329  -0.854276   0.955938
    14  C   -1.123334  -0.204612  -0.190961  -0.549370  -1.453610  -1.336262
    15  H    0.366332  -0.103146  -0.000747   0.023779   0.006433   0.001216
    16  H   -0.019197   0.381211  -0.018076   0.016742  -0.001714  -0.000355
    17  H   -0.022436  -0.019640   0.380703  -0.071237   0.000192   0.000418
    18  H    0.048040   0.003413  -0.084263   0.460309   0.005535  -0.004989
    19  H   -0.043062  -0.007641   0.051813  -0.063574  -0.075883   0.050085
    20  H    0.007032   0.002181  -0.005139   0.006428   0.456506  -0.084283
    21  H   -0.001205  -0.000414   0.000379   0.000446  -0.065784   0.369990
    22  H    0.000584   0.000347  -0.000300  -0.001378   0.010252  -0.015078
    23  H    0.005522  -0.002499   0.000968   0.004937   0.031876  -0.002103
    24  H    0.037697   0.015170  -0.000994  -0.009655  -0.015100  -0.002078
    25  H    0.037697   0.015170  -0.000994  -0.009655  -0.015100  -0.002078
               7          8          9         10         11         12
     1  C   -0.014451   0.400062  -1.058599  -1.227802   0.412532  -2.069660
     2  C    0.001346  -0.021023  -0.810801   0.197530  -0.977166   1.371783
     3  C   -0.013404  -0.100966   0.295228  -0.310685   1.025321  -1.452552
     4  C   -0.007874  -0.015567  -0.106104  -2.561965   0.293505  -1.890987
     5  C   -1.122348   2.204779  -0.313801  -2.597292  -1.688307  -0.119084
     6  C    0.345606  -0.509143   0.288264  -0.385113  -0.175092  -0.198675
     7  C    7.095873   0.200968  -0.798338   0.300307  -0.224443  -0.188749
     8  C    0.200968   8.858646  -1.240760  -1.354664   0.110617  -1.024102
     9  C   -0.798338  -1.240760   9.601336   0.265394   1.765303  -2.112151
    10  C    0.300307  -1.354664   0.265394   9.133873  -0.458047   2.480967
    11  C   -0.224443   0.110617   1.765303  -0.458047  14.363507  -4.231480
    12  C   -0.188749  -1.024102  -2.112151   2.480967  -4.231480  16.647443
    13  C   -0.800420   0.138173   1.451740  -0.387890   1.060598  -4.862932
    14  C    1.341414  -2.153692  -1.807380   2.357494  -4.698270   3.107727
    15  H   -0.002794   0.005926   0.087098  -0.007467  -0.030167  -0.018721
    16  H    0.000379   0.000819   0.002186  -0.010261   0.024583  -0.031970
    17  H   -0.000384  -0.001428  -0.004776   0.019951  -0.025546   0.088782
    18  H    0.001927   0.007261  -0.022817   0.006915  -0.003032  -0.049761
    19  H   -0.007371  -0.050576   0.075537   0.421864   0.076362  -0.074572
    20  H    0.002056   0.052897  -0.026309   0.016586  -0.011719  -0.009472
    21  H   -0.012801  -0.028133  -0.006710   0.020851  -0.006357   0.005509
    22  H    0.376448  -0.020049   0.004415  -0.008255   0.003038  -0.008357
    23  H   -0.109187   0.370250   0.095511  -0.011901   0.003808   0.007109
    24  H    0.013857   0.026864   0.357214   0.005526   0.017149  -0.058780
    25  H    0.013857   0.026864   0.357214   0.005526   0.017149  -0.058780
              13         14         15         16         17         18
     1  C    0.305842  -1.123334   0.366332  -0.019197  -0.022436   0.048040
     2  C   -0.266408  -0.204612  -0.103146   0.381211  -0.019640   0.003413
     3  C   -0.175835  -0.190961  -0.000747  -0.018076   0.380703  -0.084263
     4  C   -1.290329  -0.549370   0.023779   0.016742  -0.071237   0.460309
     5  C   -0.854276  -1.453610   0.006433  -0.001714   0.000192   0.005535
     6  C    0.955938  -1.336262   0.001216  -0.000355   0.000418  -0.004989
     7  C   -0.800420   1.341414  -0.002794   0.000379  -0.000384   0.001927
     8  C    0.138173  -2.153692   0.005926   0.000819  -0.001428   0.007261
     9  C    1.451740  -1.807380   0.087098   0.002186  -0.004776  -0.022817
    10  C   -0.387890   2.357494  -0.007467  -0.010261   0.019951   0.006915
    11  C    1.060598  -4.698270  -0.030167   0.024583  -0.025546  -0.003032
    12  C   -4.862932   3.107727  -0.018721  -0.031970   0.088782  -0.049761
    13  C   14.587317  -3.272668  -0.000851   0.003021  -0.006283  -0.011767
    14  C   -3.272668  15.576854   0.006163  -0.009802   0.005145  -0.019354
    15  H   -0.000851   0.006163   0.439380  -0.009244   0.001648   0.000152
    16  H    0.003021  -0.009802  -0.009244   0.418429  -0.007099   0.002040
    17  H   -0.006283   0.005145   0.001648  -0.007099   0.424167  -0.011072
    18  H   -0.011767  -0.019354   0.000152   0.002040  -0.011072   0.451219
    19  H    0.078821  -0.056229   0.000370  -0.000585   0.001622  -0.005654
    20  H   -0.007960  -0.061523  -0.000126   0.000019  -0.000163   0.001255
    21  H   -0.028300   0.095178   0.000015  -0.000007   0.000010  -0.000124
    22  H    0.028240  -0.032767  -0.000126   0.000007  -0.000007   0.000011
    23  H   -0.033333  -0.029910   0.000573  -0.000128   0.000012  -0.000099
    24  H    0.010136  -0.061694  -0.001054   0.000621  -0.000133   0.000143
    25  H    0.010136  -0.061694  -0.001054   0.000621  -0.000133   0.000143
              19         20         21         22         23         24
     1  C   -0.043062   0.007032  -0.001205   0.000584   0.005522   0.037697
     2  C   -0.007641   0.002181  -0.000414   0.000347  -0.002499   0.015170
     3  C    0.051813  -0.005139   0.000379  -0.000300   0.000968  -0.000994
     4  C   -0.063574   0.006428   0.000446  -0.001378   0.004937  -0.009655
     5  C   -0.075883   0.456506  -0.065784   0.010252   0.031876  -0.015100
     6  C    0.050085  -0.084283   0.369990  -0.015078  -0.002103  -0.002078
     7  C   -0.007371   0.002056  -0.012801   0.376448  -0.109187   0.013857
     8  C   -0.050576   0.052897  -0.028133  -0.020049   0.370250   0.026864
     9  C    0.075537  -0.026309  -0.006710   0.004415   0.095511   0.357214
    10  C    0.421864   0.016586   0.020851  -0.008255  -0.011901   0.005526
    11  C    0.076362  -0.011719  -0.006357   0.003038   0.003808   0.017149
    12  C   -0.074572  -0.009472   0.005509  -0.008357   0.007109  -0.058780
    13  C    0.078821  -0.007960  -0.028300   0.028240  -0.033333   0.010136
    14  C   -0.056229  -0.061523   0.095178  -0.032767  -0.029910  -0.061694
    15  H    0.000370  -0.000126   0.000015  -0.000126   0.000573  -0.001054
    16  H   -0.000585   0.000019  -0.000007   0.000007  -0.000128   0.000621
    17  H    0.001622  -0.000163   0.000010  -0.000007   0.000012  -0.000133
    18  H   -0.005654   0.001255  -0.000124   0.000011  -0.000099   0.000143
    19  H    0.442915  -0.006739   0.001218  -0.000490   0.000234   0.000604
    20  H   -0.006739   0.456483  -0.009553   0.001789   0.000196   0.000220
    21  H    0.001218  -0.009553   0.421110  -0.006114   0.001256  -0.000150
    22  H   -0.000490   0.001789  -0.006114   0.420294  -0.008656   0.000637
    23  H    0.000234   0.000196   0.001256  -0.008656   0.438941  -0.000758
    24  H    0.000604   0.000220  -0.000150   0.000637  -0.000758   0.493740
    25  H    0.000604   0.000220  -0.000150   0.000637  -0.000758  -0.079521
              25
     1  C    0.037697
     2  C    0.015170
     3  C   -0.000994
     4  C   -0.009655
     5  C   -0.015100
     6  C   -0.002078
     7  C    0.013857
     8  C    0.026864
     9  C    0.357214
    10  C    0.005526
    11  C    0.017149
    12  C   -0.058780
    13  C    0.010136
    14  C   -0.061694
    15  H   -0.001054
    16  H    0.000621
    17  H   -0.000133
    18  H    0.000143
    19  H    0.000604
    20  H    0.000220
    21  H   -0.000150
    22  H    0.000637
    23  H   -0.000758
    24  H   -0.079521
    25  H    0.493740
 Mulliken charges:
               1
     1  C    0.072565
     2  C   -0.422153
     3  C   -0.440322
     4  C   -0.025246
     5  C    0.047047
     6  C   -0.436521
     7  C   -0.391475
     8  C    0.115977
     9  C   -0.337895
    10  C    0.088554
    11  C   -0.643849
    12  C    0.751467
    13  C   -0.630710
    14  C    0.633158
    15  H    0.236411
    16  H    0.257759
    17  H    0.247688
    18  H    0.224569
    19  H    0.190325
    20  H    0.219119
    21  H    0.249837
    22  H    0.254879
    23  H    0.238139
    24  H    0.250338
    25  H    0.250338
 Sum of Mulliken charges =   1.00000
 Mulliken charges with hydrogens summed into heavy atoms:
               1
     1  C    0.308976
     2  C   -0.164394
     3  C   -0.192634
     4  C    0.199323
     5  C    0.266166
     6  C   -0.186684
     7  C   -0.136597
     8  C    0.354115
     9  C    0.162781
    10  C    0.278880
    11  C   -0.643849
    12  C    0.751467
    13  C   -0.630710
    14  C    0.633158
 Electronic spatial extent (au):  <R**2>=           2856.0298
 Charge=              1.0000 electrons
 Dipole moment (field-independent basis, Debye):
    X=              0.0870    Y=             -0.2288    Z=             -0.0000  Tot=              0.2448
 Quadrupole moment (field-independent basis, Debye-Ang):
   XX=            -50.9992   YY=            -36.3935   ZZ=            -84.1392
   XY=             10.2456   XZ=              0.0000   YZ=             -0.0000
 Traceless Quadrupole moment (field-independent basis, Debye-Ang):
   XX=              6.1781   YY=             20.7838   ZZ=            -26.9619
   XY=             10.2456   XZ=              0.0000   YZ=             -0.0000
 Octapole moment (field-independent basis, Debye-Ang**2):
  XXX=             -0.6957  YYY=              5.1264  ZZZ=              0.0000  XYY=              0.6513
  XXY=             -5.3054  XXZ=             -0.0000  XZZ=             -2.9642  YZZ=              1.0005
  YYZ=             -0.0000  XYZ=              0.0000
 Hexadecapole moment (field-independent basis, Debye-Ang**3):
 XXXX=          -1005.5362 YYYY=          -1832.6086 ZZZZ=            -99.3253 XXXY=           -353.6872
 XXXZ=              0.0000 YYYX=           -279.9489 YYYZ=             -0.0000 ZZZX=             -0.0000
 ZZZY=              0.0000 XXYY=           -454.6586 XXZZ=           -245.0140 YYZZ=           -491.4550
 XXYZ=             -0.0000 YYXZ=              0.0000 ZZXY=           -185.3003
 N-N= 7.812149239667D+02 E-N=-2.798772891748D+03  KE= 5.375141345830D+02
 Symmetry A'   KE= 5.228651023324D+02
 Symmetry A"   KE= 1.464903225061D+01
 Unable to Open any file for archive entry.
 1\1\GINC-GADI-CPU-CLX-2461\SP\RM062X TD-FC\6-311++G(d,p)\C14H11(1+)\TS
 1578\27-Jul-2022\0\\#n M062X/6-311++G(d,p) TD(NStates=1) EmpiricalDisp
 ersion=GD3 SP\\SP_6\\1,1\C,0,0.,2.484655,1.361031\C,0,0.,3.683508,0.66
 4989\C,0,0.,3.675461,-0.72723\C,0,0.,2.480356,-1.415738\C,0,0.,-2.4459
 56,-1.399338\C,0,0.,-3.692261,-0.70043\C,0,0.,-3.719508,0.678989\C,0,0
 .,-2.500655,1.359831\C,0,0.,-0.0112,1.453369\C,0,0.,0.0136,-1.429189\C
 ,0,0.,1.272255,0.676865\C,0,0.,1.250071,-0.720804\C,0,0.,-1.251855,0.6
 77265\C,0,0.,-1.224871,-0.740804\H,0,0.,2.465471,2.443647\H,0,0.,4.612
 753,1.215089\H,0,0.,4.600062,-1.285949\H,0,0.,2.49575,-2.497659\H,0,0.
 ,0.029,-2.510266\H,0,0.,-2.43935,-2.482459\H,0,0.,-4.618462,-1.258749\
 H,0,0.,-4.660753,1.208289\H,0,0.,-2.510671,2.443647\H,0,-0.859585,-0.0
 508,2.145787\H,0,0.859585,-0.0508,2.145787\\Version=ES64L-G16RevC.01\S
 tate=1-A'\HF=-539.7571437\RMSD=7.969e-09\PG=CS [SG(C14H9),X(H2)]\\@
 The archive entry for this job was punched.


 Other things may change us, but we start and end with family.
 -- Anthony Brandt
 Job cpu time:       0 days  0 hours 45 minutes  4.2 seconds.
 Elapsed time:       0 days  0 hours  1 minutes 24.8 seconds.
 File lengths (MBytes):  RWF=    460 Int=      0 D2E=      0 Chk=     15 Scr=      1
 Normal termination of Gaussian 16 at Wed Jul 27 13:20:36 2022.
