 Entering Gaussian System, Link 0=g16
 Initial command:
 /apps/gaussian/g16c01/g16/l1.exe "/jobfs/52822737.gadi-pbs/Gau-2029723.inp" -scrdir="/jobfs/52822737.gadi-pbs/"
 Entering Link 1 = /apps/gaussian/g16c01/g16/l1.exe PID=   2029724.
  
 Copyright (c) 1988-2019, Gaussian, Inc.  All Rights Reserved.
  
 This is part of the Gaussian(R) 16 program.  It is based on
 the Gaussian(R) 09 system (copyright 2009, Gaussian, Inc.),
 the Gaussian(R) 03 system (copyright 2003, Gaussian, Inc.),
 the Gaussian(R) 98 system (copyright 1998, Gaussian, Inc.),
 the Gaussian(R) 94 system (copyright 1995, Gaussian, Inc.),
 the Gaussian 92(TM) system (copyright 1992, Gaussian, Inc.),
 the Gaussian 90(TM) system (copyright 1990, Gaussian, Inc.),
 the Gaussian 88(TM) system (copyright 1988, Gaussian, Inc.),
 the Gaussian 86(TM) system (copyright 1986, Carnegie Mellon
 University), and the Gaussian 82(TM) system (copyright 1983,
 Carnegie Mellon University). Gaussian is a federally registered
 trademark of Gaussian, Inc.
  
 This software contains proprietary and confidential information,
 including trade secrets, belonging to Gaussian, Inc.
  
 This software is provided under written license and may be
 used, copied, transmitted, or stored only in accord with that
 written license.
  
 The following legend is applicable only to US Government
 contracts under FAR:
  
                    RESTRICTED RIGHTS LEGEND
  
 Use, reproduction and disclosure by the US Government is
 subject to restrictions as set forth in subparagraphs (a)
 and (c) of the Commercial Computer Software - Restricted
 Rights clause in FAR 52.227-19.
  
 Gaussian, Inc.
 340 Quinnipiac St., Bldg. 40, Wallingford CT 06492
  
  
 ---------------------------------------------------------------
 Warning -- This program may not be used in any manner that
 competes with the business of Gaussian, Inc. or will provide
 assistance to any competitor of Gaussian, Inc.  The licensee
 of this program is prohibited from giving any competitor of
 Gaussian, Inc. access to this program.  By using this program,
 the user acknowledges that Gaussian, Inc. is engaged in the
 business of creating and licensing software in the field of
 computational chemistry and represents and warrants to the
 licensee that it is not a competitor of Gaussian, Inc. and that
 it will not use this program in any manner prohibited above.
 ---------------------------------------------------------------
  

 Cite this work as:
 Gaussian 16, Revision C.01,
 M. J. Frisch, G. W. Trucks, H. B. Schlegel, G. E. Scuseria, 
 M. A. Robb, J. R. Cheeseman, G. Scalmani, V. Barone, 
 G. A. Petersson, H. Nakatsuji, X. Li, M. Caricato, A. V. Marenich, 
 J. Bloino, B. G. Janesko, R. Gomperts, B. Mennucci, H. P. Hratchian, 
 J. V. Ortiz, A. F. Izmaylov, J. L. Sonnenberg, D. Williams-Young, 
 F. Ding, F. Lipparini, F. Egidi, J. Goings, B. Peng, A. Petrone, 
 T. Henderson, D. Ranasinghe, V. G. Zakrzewski, J. Gao, N. Rega, 
 G. Zheng, W. Liang, M. Hada, M. Ehara, K. Toyota, R. Fukuda, 
 J. Hasegawa, M. Ishida, T. Nakajima, Y. Honda, O. Kitao, H. Nakai, 
 T. Vreven, K. Throssell, J. A. Montgomery, Jr., J. E. Peralta, 
 F. Ogliaro, M. J. Bearpark, J. J. Heyd, E. N. Brothers, K. N. Kudin, 
 V. N. Staroverov, T. A. Keith, R. Kobayashi, J. Normand, 
 K. Raghavachari, A. P. Rendell, J. C. Burant, S. S. Iyengar, 
 J. Tomasi, M. Cossi, J. M. Millam, M. Klene, C. Adamo, R. Cammi, 
 J. W. Ochterski, R. L. Martin, K. Morokuma, O. Farkas, 
 J. B. Foresman, and D. J. Fox, Gaussian, Inc., Wallingford CT, 2019.
 
 ******************************************
 Gaussian 16:  ES64L-G16RevC.01  3-Jul-2019
                27-Jul-2022 
 ******************************************
 %NProcShared=32
 Will use up to   32 processors via shared memory.
 %mem = 128GB
 ---------------------------------------------------------------
 #n M062X/6-311++G(d,p) TD(NStates=1) EmpiricalDispersion=GD3 SP
 ---------------------------------------------------------------
 1/38=1,172=1/1;
 2/12=2,17=6,18=5,40=1/2;
 3/5=4,6=6,7=1111,11=9,25=1,30=1,74=-55,124=31/1,2,3,8;
 4//1;
 5/5=2,38=5/2;
 8/6=1,10=2,108=1/1;
 9/41=1,42=1,70=2/14;
 6/7=2,8=2,9=2,10=2/1;
 99/5=1,9=1/99;
 ----
 SP_2
 ----
 Symbolic Z-matrix:
 Charge =  1 Multiplicity = 1
 C                     0.        2.47506   1.36063 
 C                     0.        3.67871   0.66219 
 C                     0.        3.67266  -0.73323 
 C                     0.        2.48756  -1.41774 
 C                     0.       -2.43876  -1.39734 
 C                     0.       -3.69506  -0.69443 
 C                     0.       -3.72431   0.68179 
 C                     0.       -2.51026   1.36023 
 C                     0.       -0.0112    1.45337 
 C                     0.        0.0316   -1.42919 
 C                     0.        1.27385   0.68727 
 C                     0.        1.25007  -0.7284 
 C                     0.       -1.25026   0.66687 
 C                     0.       -1.22487  -0.7332 
 H                     0.        2.47587   2.44365 
 H                     0.        4.61195   1.20629 
 H                     0.        4.60526  -1.27875 
 H                     0.        2.48535  -2.50006 
 H                     0.        0.033    -2.51027 
 H                     0.       -2.44975  -2.48006 
 H                     0.       -4.61326  -1.26595 
 H                     0.       -4.66155   1.21709 
 H                     0.       -2.50027   2.44365 
 H                    -0.85959  -0.058     2.14579 
 H                     0.85959  -0.058     2.14579 
 
                          Input orientation:                          
 ---------------------------------------------------------------------
 Center     Atomic      Atomic             Coordinates (Angstroms)
 Number     Number       Type             X           Y           Z
 ---------------------------------------------------------------------
      1          6           0        0.000000    2.475055    1.360631
      2          6           0        0.000000    3.678708    0.662189
      3          6           0        0.000000    3.672661   -0.733230
      4          6           0        0.000000    2.487556   -1.417738
      5          6           0        0.000000   -2.438756   -1.397338
      6          6           0        0.000000   -3.695061   -0.694430
      7          6           0        0.000000   -3.724308    0.681789
      8          6           0        0.000000   -2.510255    1.360231
      9          6           0        0.000000   -0.011200    1.453369
     10          6           0        0.000000    0.031600   -1.429189
     11          6           0        0.000000    1.273855    0.687265
     12          6           0        0.000000    1.250071   -0.728404
     13          6           0        0.000000   -1.250255    0.666865
     14          6           0        0.000000   -1.224871   -0.733204
     15          1           0        0.000000    2.475871    2.443647
     16          1           0        0.000000    4.611953    1.206289
     17          1           0        0.000000    4.605262   -1.278749
     18          1           0        0.000000    2.485350   -2.500059
     19          1           0        0.000000    0.033000   -2.510266
     20          1           0        0.000000   -2.449750   -2.480059
     21          1           0        0.000000   -4.613262   -1.265949
     22          1           0        0.000000   -4.661553    1.217089
     23          1           0        0.000000   -2.500271    2.443647
     24          1           0       -0.859585   -0.058000    2.145787
     25          1           0        0.859585   -0.058000    2.145787
 ---------------------------------------------------------------------
                    Distance matrix (angstroms):
                    1          2          3          4          5
     1  C    0.000000
     2  C    1.391618   0.000000
     3  C    2.412160   1.395432   0.000000
     4  C    2.778397   2.396860   1.368585   0.000000
     5  C    5.634885   6.454844   6.147394   4.926354   0.000000
     6  C    6.503354   7.497525   7.367824   6.224783   1.439577
     7  C    6.236419   7.403042   7.531097   6.557078   2.444466
     8  C    4.985310   6.228204   6.527712   5.717974   2.758496
     9  C    2.487984   3.773776   4.283929   3.806184   3.744270
    10  C    3.708580   4.204195   3.706978   2.455983   2.470561
    11  C    1.377063   2.404984   2.787844   2.429837   4.257822
    12  C    2.421705   2.798576   2.422595   1.416528   3.748989
    13  C    3.789360   4.928965   5.118141   4.279813   2.381904
    14  C    4.251305   5.098255   4.897532   3.775010   1.383687
    15  H    1.083016   2.149514   3.394828   3.861403   6.237525
    16  H    2.142465   1.080274   2.154995   3.376178   7.516074
    17  H    3.391771   2.150754   1.080433   2.122262   7.045016
    18  H    3.860704   3.379928   2.128707   1.082323   5.046069
    19  H    4.576841   4.832769   4.050307   2.686720   2.710754
    20  H    6.245367   6.887069   6.366736   5.050299   1.082777
    21  H    7.559310   8.513195   8.303030   7.102440   2.178472
    22  H    7.138051   8.358700   8.559373   7.619191   3.431626
    23  H    5.091836   6.430659   6.942452   6.307829   3.841478
    24  H    2.787781   4.111318   4.790142   4.462897   4.354379
    25  H    2.787781   4.111318   4.790142   4.462897   4.354379
                    6          7          8          9         10
     6  C    0.000000
     7  C    1.376530   0.000000
     8  C    2.371792   1.390758   0.000000
     9  C    4.264255   3.792428   2.500790   0.000000
    10  C    3.798404   4.308488   3.773843   2.882876   0.000000
    11  C    5.157442   4.998166   3.843484   1.496089   2.454094
    12  C    4.945249   5.170405   4.301447   2.520107   1.405621
    13  C    2.798250   2.474098   1.438178   1.467599   2.456948
    14  C    2.470494   2.872175   2.456559   2.500820   1.436355
    15  H    6.923000   6.445647   5.102474   2.676971   4.579664
    16  H    8.521691   8.352745   7.123871   4.629751   5.284447
    17  H    8.320865   8.557187   7.589124   5.364344   4.576136
    18  H    6.438771   6.977393   6.313312   4.675720   2.677247
    19  H    4.146770   4.930170   4.631295   3.963881   1.081078
    20  H    2.176987   3.409073   3.840767   4.628000   2.694703
    21  H    1.081539   2.141010   3.364440   5.345434   4.647730
    22  H    2.141964   1.079340   2.156055   4.656352   5.387808
    23  H    3.357834   2.145323   1.083462   2.678829   4.627011
    24  H    4.694031   4.040296   2.714690   1.104771   3.677957
    25  H    4.694031   4.040296   2.714690   1.104771   3.677957
                   11         12         13         14         15
    11  C    0.000000
    12  C    1.415869   0.000000
    13  C    2.524192   2.863286   0.000000
    14  C    2.874259   2.474947   1.400299   0.000000
    15  H    2.128314   3.400661   4.128071   4.877281   0.000000
    16  H    3.378207   3.878826   5.886974   6.150622   2.468583
    17  H    3.868266   3.400027   6.170291   5.855602   4.288419
    18  H    3.409803   2.159786   4.897362   4.109442   4.943715
    19  H    3.429858   2.157845   3.426500   2.177197   5.523484
    20  H    4.888474   4.093528   3.367777   2.133502   6.964526
    21  H    6.202676   5.887922   3.878864   3.430016   8.001057
    22  H    5.959008   6.223523   3.455387   3.951509   7.242048
    23  H    4.162800   4.911921   2.172440   3.423307   4.976142
    24  H    2.154068   3.272753   2.085082   3.223207   2.692231
    25  H    2.154068   3.272753   2.085082   3.223207   2.692231
                   16         17         18         19         20
    16  H    0.000000
    17  H    2.485047   0.000000
    18  H    4.273108   2.446554   0.000000
    19  H    5.897422   4.735210   2.452371   0.000000
    20  H    7.965978   7.156559   4.935141   2.482934   0.000000
    21  H    9.550736   9.218533   7.205090   4.809997   2.480896
    22  H    9.273512   9.597034   8.055769   5.994331   4.308245
    23  H    7.219057   8.021523   7.021157   5.564056   4.923965
    24  H    4.840455   5.849132   5.365762   4.735609   5.278049
    25  H    4.840455   5.849132   5.365762   4.735609   5.278049
                   21         22         23         24         25
    21  H    0.000000
    22  H    2.483508   0.000000
    23  H    4.269172   2.485072   0.000000
    24  H    5.755801   4.774313   2.606203   0.000000
    25  H    5.755801   4.774313   2.606203   1.719170   0.000000
 Stoichiometry    C14H11(1+)
 Framework group  CS[SG(C14H9),X(H2)]
 Deg. of freedom    46
 Full point group                 CS      NOp   2
 Largest Abelian subgroup         CS      NOp   2
 Largest concise Abelian subgroup CS      NOp   2
                         Standard orientation:                         
 ---------------------------------------------------------------------
 Center     Atomic      Atomic             Coordinates (Angstroms)
 Number     Number       Type             X           Y           Z
 ---------------------------------------------------------------------
      1          6           0       -2.365769   -1.543525    0.000000
      2          6           0       -2.316173   -2.934259    0.000000
      3          6           0       -1.082193   -3.585814    0.000000
      4          6           0        0.079612   -2.862465    0.000000
      5          6           0        2.380664    1.493465    0.000000
      6          6           0        2.351914    2.932755    0.000000
      7          6           0        1.151488    3.606411    0.000000
      8          6           0       -0.018592    2.854666    0.000000
      9          6           0       -1.277190    0.693675    0.000000
     10          6           0        1.245851   -0.701044    0.000000
     11          6           0       -1.206217   -0.800730    0.000000
     12          6           0        0.053978   -1.446169    0.000000
     13          6           0        0.000000    1.416608    0.000000
     14          6           0        1.223286    0.735133    0.000000
     15          1           0       -3.321663   -1.034417    0.000000
     16          1           0       -3.235538   -3.501497    0.000000
     17          1           0       -1.039919   -4.665420    0.000000
     18          1           0        1.035548   -3.370019    0.000000
     19          1           0        2.198991   -1.211194    0.000000
     20          1           0        3.341089    0.993476    0.000000
     21          1           0        3.288388    3.473813    0.000000
     22          1           0        1.120416    4.685303    0.000000
     23          1           0       -0.979155    3.355873    0.000000
     24          1           0       -1.866057    1.060919    0.859585
     25          1           0       -1.866057    1.060919   -0.859585
 ---------------------------------------------------------------------
 Rotational constants (GHZ):           2.1364162           0.4445854           0.3688042
 Standard basis: 6-311++G(d,p) (5D, 7F)
 There are   299 symmetry adapted cartesian basis functions of A'  symmetry.
 There are   100 symmetry adapted cartesian basis functions of A"  symmetry.
 There are   285 symmetry adapted basis functions of A'  symmetry.
 There are   100 symmetry adapted basis functions of A"  symmetry.
   385 basis functions,   603 primitive gaussians,   399 cartesian basis functions
    47 alpha electrons       47 beta electrons
       nuclear repulsion energy       781.2374215429 Hartrees.
 NAtoms=   25 NActive=   25 NUniq=   24 SFac= 1.09D+00 NAtFMM=   60 NAOKFM=F Big=F
 Integral buffers will be    131072 words long.
 Regular integral format.
 Two-electron integral symmetry is turned on.
 Nuclear repulsion after empirical dispersion term =      781.2364423308 Hartrees.
 One-electron integrals computed using PRISM.
 NBasis=   385 RedAO= T EigKep=  1.12D-06  NBF=   285   100
 NBsUse=   379 1.00D-06 EigRej=  8.37D-07 NBFU=   279   100
 ExpMin= 3.60D-02 ExpMax= 4.56D+03 ExpMxC= 6.82D+02 IAcc=3 IRadAn=         5 AccDes= 0.00D+00
 Harris functional with IExCor= 1009 and IRadAn=       5 diagonalized for initial guess.
 HarFok:  IExCor= 1009 AccDes= 0.00D+00 IRadAn=         5 IDoV= 1 UseB2=F ITyADJ=14
 ICtDFT=  3500011 ScaDFX=  1.000000  1.000000  1.000000  1.000000
 FoFCou: FMM=F IPFlag=           0 FMFlag=      100000 FMFlg1=           0
         NFxFlg=           0 DoJE=T BraDBF=F KetDBF=T FulRan=T
         wScrn=  0.000000 ICntrl=       500 IOpCl=  0 I1Cent=   200000004 NGrid=           0
         NMat0=    1 NMatS0=      1 NMatT0=    0 NMatD0=    1 NMtDS0=    0 NMtDT0=    0
 Petite list used in FoFCou.
 Initial guess orbital symmetries:
       Occupied  (A') (A') (A') (A') (A') (A') (A') (A') (A') (A')
                 (A') (A') (A') (A') (A') (A') (A') (A') (A') (A')
                 (A') (A') (A') (A') (A') (A') (A') (A') (A') (A')
                 (A') (A') (A") (A') (A') (A') (A') (A') (A") (A')
                 (A") (A') (A') (A") (A") (A") (A")
       Virtual   (A") (A") (A") (A") (A") (A') (A') (A') (A') (A")
                 (A") (A') (A') (A') (A") (A') (A') (A') (A') (A")
                 (A') (A") (A') (A') (A') (A") (A') (A") (A') (A')
                 (A') (A') (A') (A') (A") (A') (A") (A') (A') (A')
                 (A") (A') (A') (A") (A') (A') (A') (A') (A') (A")
                 (A') (A') (A") (A") (A') (A') (A') (A") (A") (A')
                 (A') (A') (A') (A') (A') (A') (A") (A') (A') (A")
                 (A') (A') (A') (A') (A') (A') (A') (A') (A') (A')
                 (A') (A') (A') (A') (A') (A') (A') (A') (A') (A')
                 (A') (A') (A') (A') (A') (A') (A') (A") (A') (A")
                 (A') (A') (A") (A") (A') (A") (A') (A") (A") (A')
                 (A") (A') (A') (A') (A") (A') (A') (A") (A") (A')
                 (A") (A") (A') (A') (A') (A") (A') (A') (A') (A")
                 (A') (A') (A') (A') (A') (A') (A") (A') (A') (A')
                 (A') (A') (A') (A') (A') (A') (A') (A') (A') (A")
                 (A") (A') (A") (A") (A') (A') (A') (A") (A") (A')
                 (A") (A') (A") (A") (A") (A') (A') (A') (A') (A')
                 (A') (A") (A') (A') (A") (A') (A') (A') (A') (A")
                 (A') (A') (A') (A') (A") (A') (A") (A') (A") (A")
                 (A') (A") (A') (A") (A') (A') (A') (A") (A') (A')
                 (A") (A") (A") (A') (A') (A") (A') (A") (A') (A')
                 (A") (A") (A') (A") (A') (A") (A') (A') (A') (A")
                 (A') (A') (A') (A') (A") (A') (A') (A') (A") (A")
                 (A') (A') (A') (A") (A') (A') (A") (A') (A") (A')
                 (A") (A') (A') (A') (A') (A") (A') (A') (A') (A")
                 (A') (A') (A") (A') (A") (A') (A') (A") (A') (A')
                 (A') (A") (A') (A") (A') (A') (A') (A") (A') (A")
                 (A') (A') (A') (A') (A") (A') (A") (A') (A") (A')
                 (A") (A') (A") (A") (A") (A') (A') (A') (A') (A')
                 (A') (A') (A') (A') (A') (A') (A') (A') (A') (A')
                 (A') (A') (A') (A') (A") (A') (A') (A') (A') (A')
                 (A') (A') (A') (A') (A') (A') (A') (A') (A') (A')
                 (A') (A') (A') (A') (A') (A') (A') (A') (A') (A')
                 (A') (A')
 The electronic state of the initial guess is 1-A'.
 Requested convergence on RMS density matrix=1.00D-08 within 128 cycles.
 Requested convergence on MAX density matrix=1.00D-06.
 Requested convergence on             energy=1.00D-06.
 No special actions if energy rises.
 SCF Done:  E(RM062X) =  -539.755361356     A.U. after   15 cycles
            NFock= 15  Conv=0.93D-08     -V/T= 2.0041
 DoSCS=F DFT=T ScalE2(SS,OS)=  1.000000  1.000000
 ExpMin= 3.60D-02 ExpMax= 4.56D+03 ExpMxC= 6.82D+02 IAcc=3 IRadAn=         5 AccDes= 0.00D+00
 HarFok:  IExCor=  205 AccDes= 0.00D+00 IRadAn=         5 IDoV=-2 UseB2=F ITyADJ=14
 ICtDFT= 12500011 ScaDFX=  1.000000  1.000000  1.000000  1.000000
 Range of M.O.s used for correlation:    15   379
 NBasis=   385 NAE=    47 NBE=    47 NFC=    14 NFV=     0
 NROrb=    365 NOA=    33 NOB=    33 NVA=   332 NVB=   332

 **** Warning!!: The largest alpha MO coefficient is  0.14099571D+03

 Orbital symmetries:
       Occupied  (A') (A') (A') (A') (A') (A') (A') (A') (A') (A')
                 (A') (A') (A') (A') (A') (A') (A') (A') (A') (A')
                 (A') (A') (A') (A') (A') (A') (A') (A') (A') (A')
                 (A') (A') (A") (A') (A') (A') (A') (A") (A") (A')
                 (A') (A') (A') (A") (A") (A") (A")
       Virtual   (A") (A") (A") (A") (A') (A') (A') (A') (A") (A')
                 (A') (A") (A') (A') (A") (A') (A") (A') (A') (A')
                 (A") (A") (A') (A') (A') (A") (A') (A") (A') (A')
                 (A") (A') (A") (A') (A') (A') (A') (A') (A") (A')
                 (A") (A') (A') (A") (A") (A') (A") (A') (A") (A')
                 (A') (A') (A') (A') (A') (A") (A') (A') (A') (A')
                 (A') (A") (A') (A') (A') (A") (A') (A') (A') (A')
                 (A') (A') (A') (A') (A') (A') (A') (A') (A') (A')
                 (A') (A') (A') (A') (A') (A') (A') (A') (A') (A')
                 (A') (A') (A') (A') (A") (A') (A") (A") (A') (A")
                 (A') (A') (A') (A') (A") (A") (A') (A") (A") (A')
                 (A') (A') (A") (A') (A') (A") (A') (A") (A') (A")
                 (A") (A') (A") (A') (A') (A') (A") (A') (A') (A')
                 (A') (A') (A') (A') (A') (A') (A') (A') (A') (A')
                 (A') (A') (A') (A") (A') (A') (A') (A') (A') (A')
                 (A') (A') (A") (A') (A") (A') (A") (A") (A') (A")
                 (A") (A') (A') (A") (A") (A") (A') (A") (A') (A')
                 (A') (A') (A') (A") (A") (A') (A') (A') (A') (A")
                 (A') (A') (A') (A") (A') (A") (A') (A') (A") (A")
                 (A") (A') (A') (A") (A') (A") (A') (A') (A') (A')
                 (A") (A") (A") (A') (A") (A') (A') (A") (A') (A')
                 (A') (A") (A") (A') (A") (A') (A") (A') (A') (A")
                 (A') (A') (A') (A') (A") (A') (A') (A') (A") (A")
                 (A') (A') (A') (A") (A') (A') (A') (A") (A") (A')
                 (A") (A') (A') (A") (A') (A') (A') (A') (A') (A')
                 (A") (A') (A') (A') (A') (A") (A") (A") (A') (A')
                 (A') (A') (A') (A') (A') (A') (A") (A') (A') (A')
                 (A') (A") (A') (A") (A") (A") (A') (A") (A') (A")
                 (A') (A") (A") (A') (A") (A") (A') (A') (A') (A')
                 (A') (A') (A') (A') (A') (A') (A') (A') (A') (A')
                 (A') (A') (A') (A") (A') (A') (A') (A') (A') (A')
                 (A') (A') (A') (A') (A') (A') (A') (A') (A') (A')
                 (A') (A') (A') (A') (A') (A') (A') (A') (A') (A')
                 (A') (A')
     4 initial guesses have been made.
 Convergence on wavefunction:    0.001000000000000
 Iteration     1 Dimension     4 NMult     0 NNew      4
 CISAX will form     4 AO SS matrices at one time.
 Iteration     2 Dimension     6 NMult     4 NNew      2
 Iteration     3 Dimension     8 NMult     6 NNew      2
 Iteration     4 Dimension    10 NMult     8 NNew      2
 Iteration     5 Dimension    12 NMult    10 NNew      2
 Iteration     6 Dimension    14 NMult    12 NNew      2
 ***********************************************************************
 Excited states from <AA,BB:AA,BB> singles matrix:
 ***********************************************************************
 
 Ground to excited state transition densities written to RWF  633
 Ground to excited state transition electric dipole moments (Au):
       state          X           Y           Z        Dip. S.      Osc.
         1        -0.4693      0.3327      0.0000      0.3310      0.0219
 Ground to excited state transition velocity dipole moments (Au):
       state          X           Y           Z        Dip. S.      Osc.
         1         0.0545     -0.0334     -0.0000      0.0041      0.0274
 Ground to excited state transition magnetic dipole moments (Au):
       state          X           Y           Z
         1        -0.0000     -0.0000     -0.2010
 Ground to excited state transition velocity quadrupole moments (Au):
       state          XX          YY          ZZ          XY          XZ          YZ
         1         0.1472      0.1293     -0.0085      0.1402      0.0000      0.0000
 <0|del|b> * <b|rxdel|0> + <0|del|b> * <b|delr+rdel|0>
 Rotatory Strengths (R) in cgs (10**-40 erg-esu-cm/Gauss)
       state          XX          YY          ZZ    R(velocity)    E-M Angle
         1         0.0000      0.0000     -0.0000      0.0000       90.00
 1/2[<0|r|b>*<b|rxdel|0> + (<0|rxdel|b>*<b|r|0>)*]
 Rotatory Strengths (R) in cgs (10**-40 erg-esu-cm/Gauss)
       state          XX          YY          ZZ     R(length)
         1        -0.0000      0.0000      0.0000      0.0000
  1/2[<0|del|b>*<b|r|0> + (<0|r|b>*<b|del|0>)*] (Au)
       state          X           Y           Z        Dip. S.   Osc.(frdel)
         1        -0.0256     -0.0111     -0.0000      0.0367      0.0244

 Excitation energies and oscillator strengths:
 
 Excited State   1:      Singlet-A'     2.7027 eV  458.74 nm  f=0.0219  <S**2>=0.000
      47 -> 48         0.70346
 This state for optimization and/or second-order correction.
 Total Energy, E(TD-HF/TD-DFT) =  -539.656039254    
 Copying the excited state density for this state as the 1-particle RhoCI density.
 SavETr:  write IOETrn=   770 NScale= 10 NData=  16 NLR=1 NState=    1 LETran=      28.

 **********************************************************************

            Population analysis using the SCF Density.

 **********************************************************************

 Orbital symmetries:
       Occupied  (A') (A') (A') (A') (A') (A') (A') (A') (A') (A')
                 (A') (A') (A') (A') (A') (A') (A') (A') (A') (A')
                 (A') (A') (A') (A') (A') (A') (A') (A') (A') (A')
                 (A') (A') (A") (A') (A') (A') (A') (A") (A") (A')
                 (A') (A') (A') (A") (A") (A") (A")
       Virtual   (A") (A") (A") (A") (A') (A') (A') (A') (A") (A')
                 (A') (A") (A') (A') (A") (A') (A") (A') (A') (A')
                 (A") (A") (A') (A') (A') (A") (A') (A") (A') (A')
                 (A") (A') (A") (A') (A') (A') (A') (A') (A") (A')
                 (A") (A') (A') (A") (A") (A') (A") (A') (A") (A')
                 (A') (A') (A') (A') (A') (A") (A') (A') (A') (A')
                 (A') (A") (A') (A') (A') (A") (A') (A') (A') (A')
                 (A') (A') (A') (A') (A') (A') (A') (A') (A') (A')
                 (A') (A') (A') (A') (A') (A') (A') (A') (A') (A')
                 (A') (A') (A') (A') (A") (A') (A") (A") (A') (A")
                 (A') (A') (A') (A') (A") (A") (A') (A") (A") (A')
                 (A') (A') (A") (A') (A') (A") (A') (A") (A') (A")
                 (A") (A') (A") (A') (A') (A') (A") (A') (A') (A')
                 (A') (A') (A') (A') (A') (A') (A') (A') (A') (A')
                 (A') (A') (A') (A") (A') (A') (A') (A') (A') (A')
                 (A') (A') (A") (A') (A") (A') (A") (A") (A') (A")
                 (A") (A') (A') (A") (A") (A") (A') (A") (A') (A')
                 (A') (A') (A') (A") (A") (A') (A') (A') (A') (A")
                 (A') (A') (A') (A") (A') (A") (A') (A') (A") (A")
                 (A") (A') (A') (A") (A') (A") (A') (A') (A') (A')
                 (A") (A") (A") (A') (A") (A') (A') (A") (A') (A')
                 (A') (A") (A") (A') (A") (A') (A") (A') (A') (A")
                 (A') (A') (A') (A') (A") (A') (A') (A') (A") (A")
                 (A') (A') (A') (A") (A') (A') (A') (A") (A") (A')
                 (A") (A') (A') (A") (A') (A') (A') (A') (A') (A')
                 (A") (A') (A') (A') (A') (A") (A") (A") (A') (A')
                 (A') (A') (A') (A') (A') (A') (A") (A') (A') (A')
                 (A') (A") (A') (A") (A") (A") (A') (A") (A') (A")
                 (A') (A") (A") (A') (A") (A") (A') (A') (A') (A')
                 (A') (A') (A') (A') (A') (A') (A') (A') (A') (A')
                 (A') (A') (A') (A") (A') (A') (A') (A') (A') (A')
                 (A') (A') (A') (A') (A') (A') (A') (A') (A') (A')
                 (A') (A') (A') (A') (A') (A') (A') (A') (A') (A')
                 (A') (A')
 The electronic state is 1-A'.
 Alpha  occ. eigenvalues --  -10.77621 -10.73584 -10.72894 -10.72743 -10.72083
 Alpha  occ. eigenvalues --  -10.71774 -10.71619 -10.71061 -10.70992 -10.70279
 Alpha  occ. eigenvalues --  -10.70100 -10.69843 -10.69757 -10.69481  -1.16511
 Alpha  occ. eigenvalues --   -1.12483  -1.06923  -1.05806  -1.01316  -1.00373
 Alpha  occ. eigenvalues --   -0.95626  -0.91033  -0.86444  -0.85889  -0.83809
 Alpha  occ. eigenvalues --   -0.78344  -0.76115  -0.74371  -0.69670  -0.69281
 Alpha  occ. eigenvalues --   -0.68413  -0.68126  -0.68091  -0.65061  -0.64310
 Alpha  occ. eigenvalues --   -0.62819  -0.61708  -0.60344  -0.59358  -0.59140
 Alpha  occ. eigenvalues --   -0.56906  -0.55353  -0.54565  -0.52431  -0.47115
 Alpha  occ. eigenvalues --   -0.46117  -0.43984
 Alpha virt. eigenvalues --   -0.26098  -0.14703  -0.14059  -0.12761  -0.11185
 Alpha virt. eigenvalues --   -0.10090  -0.09246  -0.07969  -0.07938  -0.07482
 Alpha virt. eigenvalues --   -0.07207  -0.07139  -0.05646  -0.05577  -0.05342
 Alpha virt. eigenvalues --   -0.03842  -0.03658  -0.03278  -0.03132  -0.02160
 Alpha virt. eigenvalues --   -0.01355  -0.00950   0.00188   0.00593   0.00654
 Alpha virt. eigenvalues --    0.01063   0.01506   0.01947   0.02169   0.02298
 Alpha virt. eigenvalues --    0.02450   0.02670   0.02769   0.03248   0.03440
 Alpha virt. eigenvalues --    0.04227   0.04489   0.04707   0.05035   0.05381
 Alpha virt. eigenvalues --    0.06027   0.06294   0.06584   0.07053   0.07263
 Alpha virt. eigenvalues --    0.07902   0.08129   0.08356   0.08588   0.08915
 Alpha virt. eigenvalues --    0.09480   0.09607   0.09987   0.10834   0.11002
 Alpha virt. eigenvalues --    0.11119   0.12114   0.12264   0.12758   0.13035
 Alpha virt. eigenvalues --    0.13448   0.13523   0.14015   0.14295   0.15999
 Alpha virt. eigenvalues --    0.16339   0.16417   0.17332   0.17528   0.17759
 Alpha virt. eigenvalues --    0.18108   0.19040   0.19317   0.19655   0.19904
 Alpha virt. eigenvalues --    0.21533   0.21598   0.22692   0.23121   0.23571
 Alpha virt. eigenvalues --    0.23910   0.24556   0.25358   0.26929   0.27614
 Alpha virt. eigenvalues --    0.28864   0.29296   0.29881   0.31363   0.35842
 Alpha virt. eigenvalues --    0.36385   0.38204   0.39283   0.41076   0.41332
 Alpha virt. eigenvalues --    0.41969   0.42095   0.42993   0.43678   0.44354
 Alpha virt. eigenvalues --    0.44999   0.45037   0.45911   0.46340   0.47898
 Alpha virt. eigenvalues --    0.48439   0.48803   0.49056   0.50498   0.51169
 Alpha virt. eigenvalues --    0.51248   0.52049   0.52125   0.52797   0.54076
 Alpha virt. eigenvalues --    0.54124   0.54659   0.55630   0.55875   0.57511
 Alpha virt. eigenvalues --    0.58233   0.58933   0.61490   0.62154   0.62436
 Alpha virt. eigenvalues --    0.63178   0.63480   0.64918   0.65213   0.67450
 Alpha virt. eigenvalues --    0.70295   0.70521   0.71168   0.72491   0.72912
 Alpha virt. eigenvalues --    0.75605   0.76061   0.76454   0.76774   0.77111
 Alpha virt. eigenvalues --    0.77895   0.77975   0.78271   0.79913   0.80386
 Alpha virt. eigenvalues --    0.81267   0.81563   0.82339   0.83017   0.85243
 Alpha virt. eigenvalues --    0.87095   0.88187   0.88286   0.89241   0.90512
 Alpha virt. eigenvalues --    0.91079   0.91420   0.93260   0.94608   0.96317
 Alpha virt. eigenvalues --    0.96852   1.00315   1.01319   1.01601   1.02769
 Alpha virt. eigenvalues --    1.03291   1.03303   1.04820   1.05979   1.08840
 Alpha virt. eigenvalues --    1.19611   1.23044   1.24187   1.24314   1.28887
 Alpha virt. eigenvalues --    1.29219   1.32152   1.34263   1.35756   1.35988
 Alpha virt. eigenvalues --    1.39297   1.39938   1.40927   1.42874   1.43526
 Alpha virt. eigenvalues --    1.43545   1.44360   1.46294   1.46383   1.46673
 Alpha virt. eigenvalues --    1.47642   1.48183   1.51793   1.53651   1.55611
 Alpha virt. eigenvalues --    1.55791   1.56435   1.56733   1.57817   1.61465
 Alpha virt. eigenvalues --    1.63063   1.63393   1.64100   1.66087   1.68321
 Alpha virt. eigenvalues --    1.68370   1.68706   1.69806   1.74422   1.76028
 Alpha virt. eigenvalues --    1.77143   1.78041   1.79711   1.79964   1.81201
 Alpha virt. eigenvalues --    1.82952   1.83194   1.83549   1.83742   1.84201
 Alpha virt. eigenvalues --    1.84635   1.85492   1.86395   1.88324   1.91416
 Alpha virt. eigenvalues --    1.92148   1.93960   1.95471   1.97750   1.98182
 Alpha virt. eigenvalues --    1.99748   2.02438   2.04589   2.07257   2.11733
 Alpha virt. eigenvalues --    2.12181   2.14244   2.15255   2.19084   2.21255
 Alpha virt. eigenvalues --    2.22749   2.28477   2.30309   2.34449   2.34869
 Alpha virt. eigenvalues --    2.36276   2.38649   2.39628   2.42364   2.44500
 Alpha virt. eigenvalues --    2.46095   2.46542   2.49334   2.52910   2.53758
 Alpha virt. eigenvalues --    2.54346   2.56810   2.57909   2.58369   2.59479
 Alpha virt. eigenvalues --    2.59918   2.61554   2.62110   2.63487   2.63750
 Alpha virt. eigenvalues --    2.64841   2.65080   2.65206   2.65449   2.67944
 Alpha virt. eigenvalues --    2.68572   2.70952   2.71477   2.73363   2.74805
 Alpha virt. eigenvalues --    2.76300   2.78494   2.79667   2.83071   2.83169
 Alpha virt. eigenvalues --    2.84933   2.86289   2.92113   2.97057   2.99511
 Alpha virt. eigenvalues --    3.00063   3.05078   3.09621   3.11281   3.14188
 Alpha virt. eigenvalues --    3.20838   3.22474   3.26500   3.28436   3.30510
 Alpha virt. eigenvalues --    3.32899   3.34613   3.43888   3.46244   3.46810
 Alpha virt. eigenvalues --    3.48292   3.50399   3.56563   3.65672   3.66832
 Alpha virt. eigenvalues --    3.67785   3.93968   3.94093   3.95311   3.96295
 Alpha virt. eigenvalues --    4.04001   4.06512   4.07676   4.12503   4.35368
 Alpha virt. eigenvalues --    4.61150   4.69152   4.71455  23.45235  23.60278
 Alpha virt. eigenvalues --   23.80447  23.83757  23.85690  23.89409  23.90610
 Alpha virt. eigenvalues --   23.94967  23.95385  23.97427  24.02827  24.05794
 Alpha virt. eigenvalues --   24.10903  24.13283
          Condensed to atoms (all electrons):
               1          2          3          4          5          6
     1  C    8.361554   0.473561  -0.614788   1.778151  -0.022830  -0.086928
     2  C    0.473561   7.184606   0.422636  -1.036312  -0.037420  -0.014902
     3  C   -0.614788   0.422636   6.613443   0.733632  -0.116069   0.016938
     4  C    1.778151  -1.036312   0.733632  11.296857  -0.364449  -0.132306
     5  C   -0.022830  -0.037420  -0.116069  -0.364449  10.753250   0.800021
     6  C   -0.086928  -0.014902   0.016938  -0.132306   0.800021   6.581446
     7  C   -0.025792   0.001114  -0.013917   0.002872  -1.125590   0.270056
     8  C    0.403239  -0.011837  -0.103990  -0.046565   2.178580  -0.450194
     9  C   -1.120324  -0.848759   0.291855  -0.018635  -0.393535   0.294451
    10  C   -1.204940   0.174395  -0.283471  -2.691576  -2.452716  -0.427029
    11  C    0.365942  -0.844147   0.912457  -0.158323  -1.509276  -0.120356
    12  C   -1.880856   1.150654  -1.386259  -1.698725  -0.152623  -0.271166
    13  C    0.246531  -0.221321  -0.225802  -1.512473  -0.407399   1.103643
    14  C   -1.163863  -0.264524  -0.128745  -0.520330  -1.504599  -1.436231
    15  H    0.366157  -0.103877  -0.002850   0.024846   0.006456   0.001196
    16  H   -0.019438   0.381072  -0.019830   0.017077  -0.001686  -0.000350
    17  H   -0.019727  -0.022042   0.380905  -0.069284   0.000168   0.000408
    18  H    0.047539   0.003114  -0.084545   0.466570   0.006073  -0.005032
    19  H   -0.043311  -0.007424   0.050684  -0.078125  -0.063867   0.051767
    20  H    0.006958   0.002066  -0.005179   0.006530   0.451320  -0.084182
    21  H   -0.001241  -0.000413   0.000390   0.000457  -0.066305   0.368774
    22  H    0.000445   0.000328  -0.000307  -0.001386   0.010494  -0.013535
    23  H    0.006319  -0.002405   0.001012   0.004848   0.029514   0.000449
    24  H    0.037731   0.015689  -0.001247  -0.010983  -0.013585  -0.001823
    25  H    0.037731   0.015689  -0.001247  -0.010983  -0.013585  -0.001823
               7          8          9         10         11         12
     1  C   -0.025792   0.403239  -1.120324  -1.204940   0.365942  -1.880856
     2  C    0.001114  -0.011837  -0.848759   0.174395  -0.844147   1.150654
     3  C   -0.013917  -0.103990   0.291855  -0.283471   0.912457  -1.386259
     4  C    0.002872  -0.046565  -0.018635  -2.691576  -0.158323  -1.698725
     5  C   -1.125590   2.178580  -0.393535  -2.452716  -1.509276  -0.152623
     6  C    0.270056  -0.450194   0.294451  -0.427029  -0.120356  -0.271166
     7  C    7.128202   0.126196  -0.769323   0.327757  -0.276287  -0.122161
     8  C    0.126196   8.870749  -1.207542  -1.359341   0.184661  -1.000449
     9  C   -0.769323  -1.207542   9.618967   0.251717   1.680332  -2.156593
    10  C    0.327757  -1.359341   0.251717   9.157783  -0.359057   2.411082
    11  C   -0.276287   0.184661   1.680332  -0.359057  14.583090  -4.150917
    12  C   -0.122161  -1.000449  -2.156593   2.411082  -4.150917  16.448416
    13  C   -0.973293   0.245129   1.512901  -0.544285   1.090650  -4.761251
    14  C    1.576462  -2.333435  -1.716947   2.449658  -4.829426   3.071981
    15  H   -0.002884   0.005264   0.088004  -0.007727  -0.031005  -0.013530
    16  H    0.000395   0.000979   0.002746  -0.010324   0.026537  -0.033029
    17  H   -0.000381  -0.001399  -0.004706   0.019566  -0.023695   0.083884
    18  H    0.002037   0.007291  -0.022538   0.007112  -0.007722  -0.047228
    19  H   -0.008027  -0.049323   0.075062   0.421651   0.075938  -0.088213
    20  H    0.002587   0.052759  -0.026589   0.017402  -0.012098  -0.006239
    21  H   -0.009099  -0.031001  -0.006635   0.021225  -0.006306   0.005333
    22  H    0.375621  -0.018538   0.003894  -0.008443   0.002555  -0.007829
    23  H   -0.108369   0.369240   0.094408  -0.011444   0.006237   0.005493
    24  H    0.013161   0.027137   0.356844   0.005490   0.022511  -0.059545
    25  H    0.013161   0.027137   0.356844   0.005490   0.022511  -0.059545
              13         14         15         16         17         18
     1  C    0.246531  -1.163863   0.366157  -0.019438  -0.019727   0.047539
     2  C   -0.221321  -0.264524  -0.103877   0.381072  -0.022042   0.003114
     3  C   -0.225802  -0.128745  -0.002850  -0.019830   0.380905  -0.084545
     4  C   -1.512473  -0.520330   0.024846   0.017077  -0.069284   0.466570
     5  C   -0.407399  -1.504599   0.006456  -0.001686   0.000168   0.006073
     6  C    1.103643  -1.436231   0.001196  -0.000350   0.000408  -0.005032
     7  C   -0.973293   1.576462  -0.002884   0.000395  -0.000381   0.002037
     8  C    0.245129  -2.333435   0.005264   0.000979  -0.001399   0.007291
     9  C    1.512901  -1.716947   0.088004   0.002746  -0.004706  -0.022538
    10  C   -0.544285   2.449658  -0.007727  -0.010324   0.019566   0.007112
    11  C    1.090650  -4.829426  -0.031005   0.026537  -0.023695  -0.007722
    12  C   -4.761251   3.071981  -0.013530  -0.033029   0.083884  -0.047228
    13  C   14.432226  -3.396007  -0.002932   0.003470  -0.006306  -0.012337
    14  C   -3.396007  15.760658   0.007359  -0.010334   0.005276  -0.022382
    15  H   -0.002932   0.007359   0.435598  -0.008887   0.001611   0.000226
    16  H    0.003470  -0.010334  -0.008887   0.415972  -0.006981   0.002010
    17  H   -0.006306   0.005276   0.001611  -0.006981   0.421604  -0.010535
    18  H   -0.012337  -0.022382   0.000226   0.002010  -0.010535   0.449856
    19  H    0.082401  -0.043589   0.000386  -0.000577   0.001654  -0.005796
    20  H   -0.005510  -0.063085  -0.000124   0.000019  -0.000164   0.001266
    21  H   -0.030225   0.098679   0.000016  -0.000007   0.000010  -0.000123
    22  H    0.026372  -0.032288  -0.000125   0.000007  -0.000007   0.000011
    23  H   -0.030649  -0.035082   0.000574  -0.000129   0.000011  -0.000103
    24  H    0.004451  -0.060439  -0.001002   0.000619  -0.000134   0.000142
    25  H    0.004451  -0.060439  -0.001002   0.000619  -0.000134   0.000142
              19         20         21         22         23         24
     1  C   -0.043311   0.006958  -0.001241   0.000445   0.006319   0.037731
     2  C   -0.007424   0.002066  -0.000413   0.000328  -0.002405   0.015689
     3  C    0.050684  -0.005179   0.000390  -0.000307   0.001012  -0.001247
     4  C   -0.078125   0.006530   0.000457  -0.001386   0.004848  -0.010983
     5  C   -0.063867   0.451320  -0.066305   0.010494   0.029514  -0.013585
     6  C    0.051767  -0.084182   0.368774  -0.013535   0.000449  -0.001823
     7  C   -0.008027   0.002587  -0.009099   0.375621  -0.108369   0.013161
     8  C   -0.049323   0.052759  -0.031001  -0.018538   0.369240   0.027137
     9  C    0.075062  -0.026589  -0.006635   0.003894   0.094408   0.356844
    10  C    0.421651   0.017402   0.021225  -0.008443  -0.011444   0.005490
    11  C    0.075938  -0.012098  -0.006306   0.002555   0.006237   0.022511
    12  C   -0.088213  -0.006239   0.005333  -0.007829   0.005493  -0.059545
    13  C    0.082401  -0.005510  -0.030225   0.026372  -0.030649   0.004451
    14  C   -0.043589  -0.063085   0.098679  -0.032288  -0.035082  -0.060439
    15  H    0.000386  -0.000124   0.000016  -0.000125   0.000574  -0.001002
    16  H   -0.000577   0.000019  -0.000007   0.000007  -0.000129   0.000619
    17  H    0.001654  -0.000164   0.000010  -0.000007   0.000011  -0.000134
    18  H   -0.005796   0.001266  -0.000123   0.000011  -0.000103   0.000142
    19  H    0.443454  -0.006764   0.001190  -0.000504   0.000236   0.000601
    20  H   -0.006764   0.457582  -0.009942   0.001842   0.000099   0.000221
    21  H    0.001190  -0.009942   0.423193  -0.006152   0.001301  -0.000150
    22  H   -0.000504   0.001842  -0.006152   0.422562  -0.008960   0.000638
    23  H    0.000236   0.000099   0.001301  -0.008960   0.442756  -0.000791
    24  H    0.000601   0.000221  -0.000150   0.000638  -0.000791   0.493407
    25  H    0.000601   0.000221  -0.000150   0.000638  -0.000791  -0.079361
              25
     1  C    0.037731
     2  C    0.015689
     3  C   -0.001247
     4  C   -0.010983
     5  C   -0.013585
     6  C   -0.001823
     7  C    0.013161
     8  C    0.027137
     9  C    0.356844
    10  C    0.005490
    11  C    0.022511
    12  C   -0.059545
    13  C    0.004451
    14  C   -0.060439
    15  H   -0.001002
    16  H    0.000619
    17  H   -0.000134
    18  H    0.000142
    19  H    0.000601
    20  H    0.000221
    21  H   -0.000150
    22  H    0.000638
    23  H   -0.000791
    24  H   -0.079361
    25  H    0.493407
 Mulliken charges:
               1
     1  C    0.072178
     2  C   -0.409540
     3  C   -0.435709
     4  C    0.018617
     5  C    0.009662
     6  C   -0.443292
     7  C   -0.404496
     8  C    0.115254
     9  C   -0.335898
    10  C    0.090026
    11  C   -0.644808
    12  C    0.719315
    13  C   -0.622436
    14  C    0.651673
    15  H    0.238254
    16  H    0.260049
    17  H    0.250399
    18  H    0.224949
    19  H    0.189894
    20  H    0.219004
    21  H    0.247179
    22  H    0.252666
    23  H    0.236224
    24  H    0.250418
    25  H    0.250418
 Sum of Mulliken charges =   1.00000
 Mulliken charges with hydrogens summed into heavy atoms:
               1
     1  C    0.310432
     2  C   -0.149491
     3  C   -0.185310
     4  C    0.243566
     5  C    0.228665
     6  C   -0.196113
     7  C   -0.151830
     8  C    0.351478
     9  C    0.164937
    10  C    0.279920
    11  C   -0.644808
    12  C    0.719315
    13  C   -0.622436
    14  C    0.651673
 Electronic spatial extent (au):  <R**2>=           2856.0442
 Charge=              1.0000 electrons
 Dipole moment (field-independent basis, Debye):
    X=             -0.2056    Y=             -0.7581    Z=              0.0000  Tot=              0.7855
 Quadrupole moment (field-independent basis, Debye-Ang):
   XX=            -51.0081   YY=            -36.3214   ZZ=            -84.1341
   XY=             10.2573   XZ=             -0.0000   YZ=              0.0000
 Traceless Quadrupole moment (field-independent basis, Debye-Ang):
   XX=              6.1464   YY=             20.8331   ZZ=            -26.9795
   XY=             10.2573   XZ=             -0.0000   YZ=              0.0000
 Octapole moment (field-independent basis, Debye-Ang**2):
  XXX=             -2.4646  YYY=             -1.0953  ZZZ=              0.0000  XYY=             -2.0213
  XXY=             -7.2605  XXZ=              0.0000  XZZ=             -3.3107  YZZ=              0.3524
  YYZ=              0.0000  XYZ=             -0.0000
 Hexadecapole moment (field-independent basis, Debye-Ang**3):
 XXXX=           -991.6204 YYYY=          -1846.8812 ZZZZ=            -99.3186 XXXY=           -348.4890
 XXXZ=             -0.0000 YYYX=           -275.2275 YYYZ=              0.0000 ZZZX=             -0.0000
 ZZZY=             -0.0000 XXYY=           -453.9762 XXZZ=           -242.2518 YYZZ=           -494.1341
 XXYZ=              0.0000 YYXZ=             -0.0000 ZZXY=           -183.4119
 N-N= 7.812364423308D+02 E-N=-2.798825496152D+03  KE= 5.375256337970D+02
 Symmetry A'   KE= 5.228740666022D+02
 Symmetry A"   KE= 1.465156719482D+01
 Unable to Open any file for archive entry.
 1\1\GINC-GADI-CPU-CLX-2461\SP\RM062X TD-FC\6-311++G(d,p)\C14H11(1+)\TS
 1578\27-Jul-2022\0\\#n M062X/6-311++G(d,p) TD(NStates=1) EmpiricalDisp
 ersion=GD3 SP\\SP_2\\1,1\C,0,0.,2.475055,1.360631\C,0,0.,3.678708,0.66
 2189\C,0,0.,3.672661,-0.73323\C,0,0.,2.487556,-1.417738\C,0,0.,-2.4387
 56,-1.397338\C,0,0.,-3.695061,-0.69443\C,0,0.,-3.724308,0.681789\C,0,0
 .,-2.510255,1.360231\C,0,0.,-0.0112,1.453369\C,0,0.,0.0316,-1.429189\C
 ,0,0.,1.273855,0.687265\C,0,0.,1.250071,-0.728404\C,0,0.,-1.250255,0.6
 66865\C,0,0.,-1.224871,-0.733204\H,0,0.,2.475871,2.443647\H,0,0.,4.611
 953,1.206289\H,0,0.,4.605262,-1.278749\H,0,0.,2.48535,-2.500059\H,0,0.
 ,0.033,-2.510266\H,0,0.,-2.44975,-2.480059\H,0,0.,-4.613262,-1.265949\
 H,0,0.,-4.661553,1.217089\H,0,0.,-2.500271,2.443647\H,0,-0.859585,-0.0
 58,2.145787\H,0,0.859585,-0.058,2.145787\\Version=ES64L-G16RevC.01\Sta
 te=1-A'\HF=-539.7553614\RMSD=9.317e-09\PG=CS [SG(C14H9),X(H2)]\\@
 The archive entry for this job was punched.


       THE DEATH-KNELL OF THE ATOM

 SO THE ATOMS IN TURN, WE NOW CLEARLY DISCERN,
 FLY TO BITS WITH THE UTMOST FACILITY;
 THEY WEND ON THEIR WAY, AND, IN SPLITTING, DISPLAY
 AN ABSOLUTE LACK OF STABILITY.

          SIR WM. RAMSAY, 1905
 Job cpu time:       0 days  0 hours 44 minutes 26.2 seconds.
 Elapsed time:       0 days  0 hours  1 minutes 23.7 seconds.
 File lengths (MBytes):  RWF=    460 Int=      0 D2E=      0 Chk=     15 Scr=      1
 Normal termination of Gaussian 16 at Wed Jul 27 12:54:34 2022.
