 Entering Gaussian System, Link 0=g16
 Initial command:
 /apps/gaussian/g16c01/g16/l1.exe "/jobfs/52822737.gadi-pbs/Gau-2043606.inp" -scrdir="/jobfs/52822737.gadi-pbs/"
 Entering Link 1 = /apps/gaussian/g16c01/g16/l1.exe PID=   2043607.
  
 Copyright (c) 1988-2019, Gaussian, Inc.  All Rights Reserved.
  
 This is part of the Gaussian(R) 16 program.  It is based on
 the Gaussian(R) 09 system (copyright 2009, Gaussian, Inc.),
 the Gaussian(R) 03 system (copyright 2003, Gaussian, Inc.),
 the Gaussian(R) 98 system (copyright 1998, Gaussian, Inc.),
 the Gaussian(R) 94 system (copyright 1995, Gaussian, Inc.),
 the Gaussian 92(TM) system (copyright 1992, Gaussian, Inc.),
 the Gaussian 90(TM) system (copyright 1990, Gaussian, Inc.),
 the Gaussian 88(TM) system (copyright 1988, Gaussian, Inc.),
 the Gaussian 86(TM) system (copyright 1986, Carnegie Mellon
 University), and the Gaussian 82(TM) system (copyright 1983,
 Carnegie Mellon University). Gaussian is a federally registered
 trademark of Gaussian, Inc.
  
 This software contains proprietary and confidential information,
 including trade secrets, belonging to Gaussian, Inc.
  
 This software is provided under written license and may be
 used, copied, transmitted, or stored only in accord with that
 written license.
  
 The following legend is applicable only to US Government
 contracts under FAR:
  
                    RESTRICTED RIGHTS LEGEND
  
 Use, reproduction and disclosure by the US Government is
 subject to restrictions as set forth in subparagraphs (a)
 and (c) of the Commercial Computer Software - Restricted
 Rights clause in FAR 52.227-19.
  
 Gaussian, Inc.
 340 Quinnipiac St., Bldg. 40, Wallingford CT 06492
  
  
 ---------------------------------------------------------------
 Warning -- This program may not be used in any manner that
 competes with the business of Gaussian, Inc. or will provide
 assistance to any competitor of Gaussian, Inc.  The licensee
 of this program is prohibited from giving any competitor of
 Gaussian, Inc. access to this program.  By using this program,
 the user acknowledges that Gaussian, Inc. is engaged in the
 business of creating and licensing software in the field of
 computational chemistry and represents and warrants to the
 licensee that it is not a competitor of Gaussian, Inc. and that
 it will not use this program in any manner prohibited above.
 ---------------------------------------------------------------
  

 Cite this work as:
 Gaussian 16, Revision C.01,
 M. J. Frisch, G. W. Trucks, H. B. Schlegel, G. E. Scuseria, 
 M. A. Robb, J. R. Cheeseman, G. Scalmani, V. Barone, 
 G. A. Petersson, H. Nakatsuji, X. Li, M. Caricato, A. V. Marenich, 
 J. Bloino, B. G. Janesko, R. Gomperts, B. Mennucci, H. P. Hratchian, 
 J. V. Ortiz, A. F. Izmaylov, J. L. Sonnenberg, D. Williams-Young, 
 F. Ding, F. Lipparini, F. Egidi, J. Goings, B. Peng, A. Petrone, 
 T. Henderson, D. Ranasinghe, V. G. Zakrzewski, J. Gao, N. Rega, 
 G. Zheng, W. Liang, M. Hada, M. Ehara, K. Toyota, R. Fukuda, 
 J. Hasegawa, M. Ishida, T. Nakajima, Y. Honda, O. Kitao, H. Nakai, 
 T. Vreven, K. Throssell, J. A. Montgomery, Jr., J. E. Peralta, 
 F. Ogliaro, M. J. Bearpark, J. J. Heyd, E. N. Brothers, K. N. Kudin, 
 V. N. Staroverov, T. A. Keith, R. Kobayashi, J. Normand, 
 K. Raghavachari, A. P. Rendell, J. C. Burant, S. S. Iyengar, 
 J. Tomasi, M. Cossi, J. M. Millam, M. Klene, C. Adamo, R. Cammi, 
 J. W. Ochterski, R. L. Martin, K. Morokuma, O. Farkas, 
 J. B. Foresman, and D. J. Fox, Gaussian, Inc., Wallingford CT, 2019.
 
 ******************************************
 Gaussian 16:  ES64L-G16RevC.01  3-Jul-2019
                27-Jul-2022 
 ******************************************
 %NProcShared=32
 Will use up to   32 processors via shared memory.
 %mem = 128GB
 ---------------------------------------------------------------
 #n M062X/6-311++G(d,p) TD(NStates=1) EmpiricalDispersion=GD3 SP
 ---------------------------------------------------------------
 1/38=1,172=1/1;
 2/12=2,17=6,18=5,40=1/2;
 3/5=4,6=6,7=1111,11=9,25=1,30=1,74=-55,124=31/1,2,3,8;
 4//1;
 5/5=2,38=5/2;
 8/6=1,10=2,108=1/1;
 9/41=1,42=1,70=2/14;
 6/7=2,8=2,9=2,10=2/1;
 99/5=1,9=1/99;
 ----
 SP_8
 ----
 Symbolic Z-matrix:
 Charge =  1 Multiplicity = 1
 C                     0.        2.47026   1.36123 
 C                     0.        3.66431   0.65679 
 C                     0.        3.66606  -0.74343 
 C                     0.        2.50076  -1.42434 
 C                     0.       -2.42556  -1.39074 
 C                     0.       -3.70166  -0.68423 
 C                     0.       -3.73871   0.68719 
 C                     0.       -2.51506   1.35963 
 C                     0.       -0.0208    1.45337 
 C                     0.        0.0394   -1.42919 
 C                     0.        1.28226   0.68487 
 C                     0.        1.26087  -0.7182 
 C                     0.       -1.24186   0.66927 
 C                     0.       -1.21407  -0.7434 
 H                     0.        2.45427   2.44365 
 H                     0.        4.59155   1.21109 
 H                     0.        4.59626  -1.29195 
 H                     0.        2.51175  -2.50606 
 H                     0.        0.057    -2.51027 
 H                     0.       -2.42335  -2.47406 
 H                     0.       -4.62226  -1.25275 
 H                     0.       -4.68195   1.21229 
 H                     0.       -2.52187   2.44365 
 H                    -0.85959  -0.1       2.14579 
 H                     0.85959  -0.1       2.14579 
 
                          Input orientation:                          
 ---------------------------------------------------------------------
 Center     Atomic      Atomic             Coordinates (Angstroms)
 Number     Number       Type             X           Y           Z
 ---------------------------------------------------------------------
      1          6           0        0.000000    2.470255    1.361231
      2          6           0        0.000000    3.664308    0.656789
      3          6           0        0.000000    3.666061   -0.743430
      4          6           0        0.000000    2.500756   -1.424338
      5          6           0        0.000000   -2.425556   -1.390738
      6          6           0        0.000000   -3.701661   -0.684230
      7          6           0        0.000000   -3.738708    0.687189
      8          6           0        0.000000   -2.515055    1.359631
      9          6           0        0.000000   -0.020800    1.453369
     10          6           0        0.000000    0.039400   -1.429189
     11          6           0        0.000000    1.282255    0.684865
     12          6           0        0.000000    1.260871   -0.718204
     13          6           0        0.000000   -1.241855    0.669265
     14          6           0        0.000000   -1.214071   -0.743404
     15          1           0        0.000000    2.454271    2.443647
     16          1           0        0.000000    4.591553    1.211089
     17          1           0        0.000000    4.596262   -1.291949
     18          1           0        0.000000    2.511750   -2.506059
     19          1           0        0.000000    0.057000   -2.510266
     20          1           0        0.000000   -2.423350   -2.474059
     21          1           0        0.000000   -4.622262   -1.252749
     22          1           0        0.000000   -4.681953    1.212289
     23          1           0        0.000000   -2.521871    2.443647
     24          1           0       -0.859585   -0.100000    2.145787
     25          1           0        0.859585   -0.100000    2.145787
 ---------------------------------------------------------------------
                    Distance matrix (angstroms):
                    1          2          3          4          5
     1  C    0.000000
     2  C    1.386363   0.000000
     3  C    2.420651   1.400220   0.000000
     4  C    2.785736   2.384312   1.349656   0.000000
     5  C    5.616253   6.424859   6.125913   4.926427   0.000000
     6  C    6.502035   7.487044   7.367960   6.246418   1.458629
     7  C    6.245443   7.403078   7.541702   6.587067   2.458078
     8  C    4.985310   6.219205   6.529093   5.736623   2.751825
     9  C    2.492758   3.770220   4.291721   3.826152   3.724486
    10  C    3.700743   4.182256   3.690926   2.461361   2.465256
    11  C    1.367046   2.382218   2.778949   2.435874   4.249234
    12  C    2.405548   2.768956   2.405322   1.426864   3.747272
    13  C    3.776053   4.906179   5.107186   4.288393   2.375870
    14  C    4.243082   5.075345   4.880132   3.776720   1.373586
    15  H    1.082534   2.158020   3.409677   3.868264   6.206063
    16  H    2.126605   1.080292   2.162563   3.364061   7.483938
    17  H    3.399893   2.160120   1.079883   2.099684   7.022513
    18  H    3.867513   3.366303   2.106963   1.081777   5.061712
    19  H    4.562049   4.800303   4.018337   2.674170   2.723312
    20  H    6.217461   6.845567   6.330561   5.034753   1.083323
    21  H    7.558881   8.503739   8.303957   7.125084   2.201036
    22  H    7.153759   8.364727   8.574041   7.651347   3.444862
    23  H    5.108126   6.439074   6.960457   6.339408   3.835594
    24  H    2.821458   4.138359   4.823865   4.499846   4.319040
    25  H    2.821458   4.138359   4.823865   4.499846   4.319040
                    6          7          8          9         10
     6  C    0.000000
     7  C    1.371919   0.000000
     8  C    2.363345   1.396247   0.000000
     9  C    4.256532   3.796034   2.496016   0.000000
    10  C    3.814512   4.330491   3.781899   2.883187   0.000000
    11  C    5.168543   5.020964   3.856796   1.512796   2.452328
    12  C    4.962648   5.193353   4.309874   2.521589   1.413326
    13  C    2.807596   2.496917   1.448324   1.451136   2.458683
    14  C    2.488294   2.901791   2.472916   2.499941   1.428807
    15  H    6.905006   6.437246   5.086186   2.665826   4.564040
    16  H    8.507034   8.346719   7.108160   4.618712   5.262430
    17  H    8.320147   8.566721   7.589579   5.371595   4.558928
    18  H    6.474993   7.018907   6.341319   4.700094   2.696695
    19  H    4.178749   4.962975   4.646673   3.964398   1.081220
    20  H    2.199447   3.423982   3.834787   4.604013   2.675237
    21  H    1.081998   2.131672   3.356315   5.338214   4.665000
    22  H    2.134890   1.079556   2.171902   4.667383   5.410044
    23  H    3.342981   2.136782   1.084037   2.689983   4.643164
    24  H    4.660455   4.013302   2.681309   1.106617   3.679507
    25  H    4.660455   4.013302   2.681309   1.106617   3.679507
                   11         12         13         14         15
    11  C    0.000000
    12  C    1.403232   0.000000
    13  C    2.524158   2.861592   0.000000
    14  C    2.876038   2.475070   1.412942   0.000000
    15  H    2.113513   3.379572   4.099973   4.859427   0.000000
    16  H    3.350875   3.849106   5.858517   6.125791   2.467220
    17  H    3.858813   3.384378   6.158731   5.836169   4.306135
    18  H    3.419599   2.182000   4.916527   4.121734   4.950040
    19  H    3.422004   2.158887   3.434595   2.176562   5.503468
    20  H    4.869323   4.081239   3.358038   2.111285   6.926400
    21  H    6.214312   5.907368   3.888610   3.446041   7.983775
    22  H    5.987483   6.248517   3.482693   3.981324   7.241680
    23  H    4.191025   4.930156   2.187892   3.444943   4.976142
    24  H    2.187192   3.285316   2.054954   3.213637   2.711440
    25  H    2.187192   3.285316   2.054954   3.213637   2.711440
                   16         17         18         19         20
    16  H    0.000000
    17  H    2.503042   0.000000
    18  H    4.259433   2.412313   0.000000
    19  H    5.866059   4.699914   2.454754   0.000000
    20  H    7.923962   7.118450   4.935204   2.480614   0.000000
    21  H    9.537551   9.218607   7.243267   4.845291   2.515316
    22  H    9.273506   9.610228   8.097869   6.026200   4.323245
    23  H    7.219418   8.038812   7.059528   5.584965   4.918693
    24  H    4.860372   5.883179   5.403684   4.737337   5.242120
    25  H    4.860372   5.883179   5.403684   4.737337   5.242120
                   21         22         23         24         25
    21  H    0.000000
    22  H    2.465761   0.000000
    23  H    4.251469   2.486402   0.000000
    24  H    5.721869   4.754429   2.587096   0.000000
    25  H    5.721869   4.754429   2.587096   1.719170   0.000000
 Stoichiometry    C14H11(1+)
 Framework group  CS[SG(C14H9),X(H2)]
 Deg. of freedom    46
 Full point group                 CS      NOp   2
 Largest Abelian subgroup         CS      NOp   2
 Largest concise Abelian subgroup CS      NOp   2
                         Standard orientation:                         
 ---------------------------------------------------------------------
 Center     Atomic      Atomic             Coordinates (Angstroms)
 Number     Number       Type             X           Y           Z
 ---------------------------------------------------------------------
      1          6           0       -2.371067   -1.528851    0.000000
      2          6           0       -2.317822   -2.914190    0.000000
      3          6           0       -1.086231   -3.580374    0.000000
      4          6           0        0.066214   -2.877920    0.000000
      5          6           0        2.375007    1.473994    0.000000
      6          6           0        2.358892    2.932533    0.000000
      7          6           0        1.169402    3.616111    0.000000
      8          6           0       -0.003287    2.858282    0.000000
      9          6           0       -1.269737    0.707422    0.000000
     10          6           0        1.238813   -0.713824    0.000000
     11          6           0       -1.211847   -0.804265    0.000000
     12          6           0        0.033235   -1.451437    0.000000
     13          6           0        0.000000    1.409962    0.000000
     14          6           0        1.230193    0.714957    0.000000
     15          1           0       -3.316184   -1.000993    0.000000
     16          1           0       -3.245832   -3.467209    0.000000
     17          1           0       -1.044982   -4.659469    0.000000
     18          1           0        1.013088   -3.401055    0.000000
     19          1           0        2.181984   -1.242469    0.000000
     20          1           0        3.327461    0.957833    0.000000
     21          1           0        3.296262    3.472955    0.000000
     22          1           0        1.154957    4.695570    0.000000
     23          1           0       -0.954164    3.378830    0.000000
     24          1           0       -1.841585    1.105801    0.859585
     25          1           0       -1.841585    1.105801   -0.859585
 ---------------------------------------------------------------------
 Rotational constants (GHZ):           2.1366841           0.4445258           0.3687711
 Standard basis: 6-311++G(d,p) (5D, 7F)
 There are   299 symmetry adapted cartesian basis functions of A'  symmetry.
 There are   100 symmetry adapted cartesian basis functions of A"  symmetry.
 There are   285 symmetry adapted basis functions of A'  symmetry.
 There are   100 symmetry adapted basis functions of A"  symmetry.
   385 basis functions,   603 primitive gaussians,   399 cartesian basis functions
    47 alpha electrons       47 beta electrons
       nuclear repulsion energy       781.2828028112 Hartrees.
 NAtoms=   25 NActive=   25 NUniq=   24 SFac= 1.09D+00 NAtFMM=   60 NAOKFM=F Big=F
 Integral buffers will be    131072 words long.
 Regular integral format.
 Two-electron integral symmetry is turned on.
 Nuclear repulsion after empirical dispersion term =      781.2818241207 Hartrees.
 One-electron integrals computed using PRISM.
 NBasis=   385 RedAO= T EigKep=  1.13D-06  NBF=   285   100
 NBsUse=   379 1.00D-06 EigRej=  8.30D-07 NBFU=   279   100
 ExpMin= 3.60D-02 ExpMax= 4.56D+03 ExpMxC= 6.82D+02 IAcc=3 IRadAn=         5 AccDes= 0.00D+00
 Harris functional with IExCor= 1009 and IRadAn=       5 diagonalized for initial guess.
 HarFok:  IExCor= 1009 AccDes= 0.00D+00 IRadAn=         5 IDoV= 1 UseB2=F ITyADJ=14
 ICtDFT=  3500011 ScaDFX=  1.000000  1.000000  1.000000  1.000000
 FoFCou: FMM=F IPFlag=           0 FMFlag=      100000 FMFlg1=           0
         NFxFlg=           0 DoJE=T BraDBF=F KetDBF=T FulRan=T
         wScrn=  0.000000 ICntrl=       500 IOpCl=  0 I1Cent=   200000004 NGrid=           0
         NMat0=    1 NMatS0=      1 NMatT0=    0 NMatD0=    1 NMtDS0=    0 NMtDT0=    0
 Petite list used in FoFCou.
 Initial guess orbital symmetries:
       Occupied  (A') (A') (A') (A') (A') (A') (A') (A') (A') (A')
                 (A') (A') (A') (A') (A') (A') (A') (A') (A') (A')
                 (A') (A') (A') (A') (A') (A') (A') (A') (A') (A')
                 (A') (A') (A") (A') (A') (A') (A') (A') (A") (A')
                 (A") (A') (A') (A") (A") (A") (A")
       Virtual   (A") (A") (A") (A") (A") (A') (A') (A') (A') (A")
                 (A") (A') (A') (A') (A") (A') (A') (A') (A') (A")
                 (A') (A") (A') (A') (A') (A") (A') (A') (A") (A')
                 (A') (A') (A') (A') (A") (A') (A') (A") (A') (A')
                 (A") (A') (A") (A') (A') (A') (A') (A') (A') (A")
                 (A') (A") (A') (A") (A') (A') (A') (A") (A") (A')
                 (A') (A') (A') (A') (A') (A') (A") (A') (A') (A")
                 (A') (A') (A') (A') (A') (A') (A') (A') (A') (A')
                 (A') (A') (A') (A') (A') (A') (A') (A') (A') (A')
                 (A') (A') (A') (A') (A') (A') (A') (A") (A') (A")
                 (A') (A") (A') (A") (A') (A") (A') (A") (A") (A')
                 (A") (A') (A') (A') (A") (A') (A') (A") (A") (A')
                 (A") (A") (A') (A') (A') (A") (A') (A') (A') (A")
                 (A') (A') (A') (A') (A') (A') (A") (A') (A') (A')
                 (A') (A') (A') (A') (A') (A') (A') (A') (A') (A")
                 (A") (A') (A") (A") (A') (A') (A') (A") (A") (A')
                 (A") (A') (A") (A") (A") (A') (A') (A') (A') (A')
                 (A') (A") (A') (A') (A') (A") (A') (A') (A') (A')
                 (A") (A') (A') (A') (A") (A') (A") (A') (A") (A")
                 (A") (A') (A') (A') (A") (A') (A') (A") (A') (A')
                 (A") (A") (A") (A') (A') (A") (A') (A") (A') (A')
                 (A") (A") (A') (A") (A') (A') (A") (A') (A') (A')
                 (A") (A') (A') (A') (A") (A') (A') (A') (A") (A")
                 (A') (A') (A') (A") (A') (A') (A") (A') (A") (A')
                 (A") (A') (A') (A') (A') (A") (A') (A') (A') (A")
                 (A') (A') (A") (A') (A") (A') (A') (A") (A') (A')
                 (A') (A") (A') (A") (A') (A') (A') (A") (A') (A")
                 (A') (A') (A') (A') (A") (A') (A") (A') (A") (A')
                 (A") (A') (A") (A") (A') (A") (A') (A') (A') (A')
                 (A') (A') (A') (A') (A') (A') (A') (A') (A') (A')
                 (A') (A') (A') (A') (A") (A') (A') (A') (A') (A')
                 (A') (A') (A') (A') (A') (A') (A') (A') (A') (A')
                 (A') (A') (A') (A') (A') (A') (A') (A') (A') (A')
                 (A') (A')
 The electronic state of the initial guess is 1-A'.
 Requested convergence on RMS density matrix=1.00D-08 within 128 cycles.
 Requested convergence on MAX density matrix=1.00D-06.
 Requested convergence on             energy=1.00D-06.
 No special actions if energy rises.
 SCF Done:  E(RM062X) =  -539.748171160     A.U. after   16 cycles
            NFock= 16  Conv=0.38D-08     -V/T= 2.0041
 DoSCS=F DFT=T ScalE2(SS,OS)=  1.000000  1.000000
 ExpMin= 3.60D-02 ExpMax= 4.56D+03 ExpMxC= 6.82D+02 IAcc=3 IRadAn=         5 AccDes= 0.00D+00
 HarFok:  IExCor=  205 AccDes= 0.00D+00 IRadAn=         5 IDoV=-2 UseB2=F ITyADJ=14
 ICtDFT= 12500011 ScaDFX=  1.000000  1.000000  1.000000  1.000000
 Range of M.O.s used for correlation:    15   379
 NBasis=   385 NAE=    47 NBE=    47 NFC=    14 NFV=     0
 NROrb=    365 NOA=    33 NOB=    33 NVA=   332 NVB=   332

 **** Warning!!: The largest alpha MO coefficient is  0.13470987D+03

 Orbital symmetries:
       Occupied  (A') (A') (A') (A') (A') (A') (A') (A') (A') (A')
                 (A') (A') (A') (A') (A') (A') (A') (A') (A') (A')
                 (A') (A') (A') (A') (A') (A') (A') (A') (A') (A')
                 (A') (A') (A") (A') (A') (A') (A') (A") (A") (A')
                 (A') (A') (A') (A") (A") (A") (A")
       Virtual   (A") (A") (A") (A") (A') (A') (A') (A') (A") (A')
                 (A') (A") (A') (A') (A") (A') (A") (A') (A') (A')
                 (A") (A") (A') (A') (A') (A") (A') (A") (A') (A')
                 (A") (A') (A") (A') (A') (A') (A') (A') (A") (A')
                 (A") (A') (A') (A") (A") (A') (A") (A') (A") (A')
                 (A') (A') (A') (A') (A') (A") (A') (A') (A') (A')
                 (A') (A") (A') (A') (A') (A") (A') (A') (A') (A')
                 (A') (A') (A') (A') (A') (A') (A') (A') (A') (A')
                 (A') (A') (A') (A') (A') (A') (A') (A') (A') (A')
                 (A') (A') (A') (A') (A") (A") (A') (A") (A') (A")
                 (A') (A') (A') (A') (A") (A") (A') (A") (A") (A')
                 (A') (A") (A') (A') (A') (A") (A') (A") (A') (A")
                 (A") (A') (A") (A') (A') (A') (A") (A') (A') (A')
                 (A') (A') (A') (A') (A') (A') (A') (A') (A') (A')
                 (A') (A') (A') (A") (A') (A') (A') (A') (A') (A')
                 (A') (A") (A') (A') (A") (A') (A") (A") (A') (A")
                 (A") (A') (A') (A") (A") (A') (A") (A") (A') (A')
                 (A') (A') (A") (A') (A') (A") (A') (A') (A') (A")
                 (A') (A') (A') (A") (A') (A") (A') (A") (A') (A")
                 (A") (A') (A') (A") (A') (A") (A') (A') (A') (A')
                 (A") (A") (A") (A') (A") (A') (A') (A") (A') (A')
                 (A') (A") (A") (A') (A") (A') (A") (A') (A') (A")
                 (A') (A') (A') (A') (A") (A') (A') (A') (A") (A")
                 (A') (A') (A') (A") (A') (A') (A') (A") (A") (A')
                 (A") (A') (A') (A") (A') (A') (A') (A') (A') (A')
                 (A") (A') (A') (A') (A') (A") (A") (A") (A') (A')
                 (A') (A') (A') (A') (A') (A') (A") (A') (A') (A')
                 (A') (A") (A') (A") (A") (A") (A') (A") (A') (A")
                 (A') (A") (A") (A') (A") (A") (A') (A') (A') (A')
                 (A') (A') (A') (A') (A') (A') (A') (A') (A') (A')
                 (A') (A') (A') (A") (A') (A') (A') (A') (A') (A')
                 (A') (A') (A') (A') (A') (A') (A') (A') (A') (A')
                 (A') (A') (A') (A') (A') (A') (A') (A') (A') (A')
                 (A') (A')
     4 initial guesses have been made.
 Convergence on wavefunction:    0.001000000000000
 Iteration     1 Dimension     4 NMult     0 NNew      4
 CISAX will form     4 AO SS matrices at one time.
 Iteration     2 Dimension     6 NMult     4 NNew      2
 Iteration     3 Dimension     8 NMult     6 NNew      2
 Iteration     4 Dimension    10 NMult     8 NNew      2
 Iteration     5 Dimension    12 NMult    10 NNew      2
 Iteration     6 Dimension    14 NMult    12 NNew      2
 ***********************************************************************
 Excited states from <AA,BB:AA,BB> singles matrix:
 ***********************************************************************
 
 Ground to excited state transition densities written to RWF  633
 Ground to excited state transition electric dipole moments (Au):
       state          X           Y           Z        Dip. S.      Osc.
         1        -0.4198      0.3931     -0.0000      0.3308      0.0212
 Ground to excited state transition velocity dipole moments (Au):
       state          X           Y           Z        Dip. S.      Osc.
         1         0.0484     -0.0376     -0.0000      0.0038      0.0261
 Ground to excited state transition magnetic dipole moments (Au):
       state          X           Y           Z
         1        -0.0000     -0.0000     -0.2826
 Ground to excited state transition velocity quadrupole moments (Au):
       state          XX          YY          ZZ          XY          XZ          YZ
         1         0.1591      0.0889     -0.0078      0.1444      0.0000     -0.0000
 <0|del|b> * <b|rxdel|0> + <0|del|b> * <b|delr+rdel|0>
 Rotatory Strengths (R) in cgs (10**-40 erg-esu-cm/Gauss)
       state          XX          YY          ZZ    R(velocity)    E-M Angle
         1         0.0000      0.0000      0.0000      0.0000       90.00
 1/2[<0|r|b>*<b|rxdel|0> + (<0|rxdel|b>*<b|r|0>)*]
 Rotatory Strengths (R) in cgs (10**-40 erg-esu-cm/Gauss)
       state          XX          YY          ZZ     R(length)
         1        -0.0000      0.0000     -0.0000     -0.0000
  1/2[<0|del|b>*<b|r|0> + (<0|r|b>*<b|del|0>)*] (Au)
       state          X           Y           Z        Dip. S.   Osc.(frdel)
         1        -0.0203     -0.0148      0.0000      0.0351      0.0234

 Excitation energies and oscillator strengths:
 
 Excited State   1:      Singlet-A'     2.6129 eV  474.51 nm  f=0.0212  <S**2>=0.000
      47 -> 48         0.70328
 This state for optimization and/or second-order correction.
 Total Energy, E(TD-HF/TD-DFT) =  -539.652150057    
 Copying the excited state density for this state as the 1-particle RhoCI density.
 SavETr:  write IOETrn=   770 NScale= 10 NData=  16 NLR=1 NState=    1 LETran=      28.

 **********************************************************************

            Population analysis using the SCF Density.

 **********************************************************************

 Orbital symmetries:
       Occupied  (A') (A') (A') (A') (A') (A') (A') (A') (A') (A')
                 (A') (A') (A') (A') (A') (A') (A') (A') (A') (A')
                 (A') (A') (A') (A') (A') (A') (A') (A') (A') (A')
                 (A') (A') (A") (A') (A') (A') (A') (A") (A") (A')
                 (A') (A') (A') (A") (A") (A") (A")
       Virtual   (A") (A") (A") (A") (A') (A') (A') (A') (A") (A')
                 (A') (A") (A') (A') (A") (A') (A") (A') (A') (A')
                 (A") (A") (A') (A') (A') (A") (A') (A") (A') (A')
                 (A") (A') (A") (A') (A') (A') (A') (A') (A") (A')
                 (A") (A') (A') (A") (A") (A') (A") (A') (A") (A')
                 (A') (A') (A') (A') (A') (A") (A') (A') (A') (A')
                 (A') (A") (A') (A') (A') (A") (A') (A') (A') (A')
                 (A') (A') (A') (A') (A') (A') (A') (A') (A') (A')
                 (A') (A') (A') (A') (A') (A') (A') (A') (A') (A')
                 (A') (A') (A') (A') (A") (A") (A') (A") (A') (A")
                 (A') (A') (A') (A') (A") (A") (A') (A") (A") (A')
                 (A') (A") (A') (A') (A') (A") (A') (A") (A') (A")
                 (A") (A') (A") (A') (A') (A') (A") (A') (A') (A')
                 (A') (A') (A') (A') (A') (A') (A') (A') (A') (A')
                 (A') (A') (A') (A") (A') (A') (A') (A') (A') (A')
                 (A') (A") (A') (A') (A") (A') (A") (A") (A') (A")
                 (A") (A') (A') (A") (A") (A') (A") (A") (A') (A')
                 (A') (A') (A") (A') (A') (A") (A') (A') (A') (A")
                 (A') (A') (A') (A") (A') (A") (A') (A") (A') (A")
                 (A") (A') (A') (A") (A') (A") (A') (A') (A') (A')
                 (A") (A") (A") (A') (A") (A') (A') (A") (A') (A')
                 (A') (A") (A") (A') (A") (A') (A") (A') (A') (A")
                 (A') (A') (A') (A') (A") (A') (A') (A') (A") (A")
                 (A') (A') (A') (A") (A') (A') (A') (A") (A") (A')
                 (A") (A') (A') (A") (A') (A') (A') (A') (A') (A')
                 (A") (A') (A') (A') (A') (A") (A") (A") (A') (A')
                 (A') (A') (A') (A') (A') (A') (A") (A') (A') (A')
                 (A') (A") (A') (A") (A") (A") (A') (A") (A') (A")
                 (A') (A") (A") (A') (A") (A") (A') (A') (A') (A')
                 (A') (A') (A') (A') (A') (A') (A') (A') (A') (A')
                 (A') (A') (A') (A") (A') (A') (A') (A') (A') (A')
                 (A') (A') (A') (A') (A') (A') (A') (A') (A') (A')
                 (A') (A') (A') (A') (A') (A') (A') (A') (A') (A')
                 (A') (A')
 The electronic state is 1-A'.
 Alpha  occ. eigenvalues --  -10.77629 -10.73526 -10.72994 -10.72784 -10.72041
 Alpha  occ. eigenvalues --  -10.71799 -10.71429 -10.71185 -10.71027 -10.70260
 Alpha  occ. eigenvalues --  -10.69995 -10.69945 -10.69605 -10.69595  -1.16582
 Alpha  occ. eigenvalues --   -1.12533  -1.06875  -1.05867  -1.01377  -1.00615
 Alpha  occ. eigenvalues --   -0.95456  -0.90990  -0.86494  -0.85870  -0.83805
 Alpha  occ. eigenvalues --   -0.78285  -0.76192  -0.74313  -0.69594  -0.69347
 Alpha  occ. eigenvalues --   -0.68438  -0.68127  -0.68086  -0.65198  -0.64425
 Alpha  occ. eigenvalues --   -0.62685  -0.61526  -0.60537  -0.59201  -0.59051
 Alpha  occ. eigenvalues --   -0.57002  -0.55316  -0.54492  -0.52411  -0.47456
 Alpha  occ. eigenvalues --   -0.46149  -0.43641
 Alpha virt. eigenvalues --   -0.26095  -0.14801  -0.13998  -0.12735  -0.11187
 Alpha virt. eigenvalues --   -0.10093  -0.09249  -0.07967  -0.07918  -0.07486
 Alpha virt. eigenvalues --   -0.07209  -0.07136  -0.05652  -0.05576  -0.05347
 Alpha virt. eigenvalues --   -0.03856  -0.03665  -0.03298  -0.03128  -0.02155
 Alpha virt. eigenvalues --   -0.01346  -0.00972   0.00181   0.00595   0.00629
 Alpha virt. eigenvalues --    0.01060   0.01502   0.01970   0.02122   0.02282
 Alpha virt. eigenvalues --    0.02450   0.02665   0.02766   0.03234   0.03470
 Alpha virt. eigenvalues --    0.04213   0.04456   0.04694   0.05032   0.05393
 Alpha virt. eigenvalues --    0.06016   0.06287   0.06562   0.07063   0.07266
 Alpha virt. eigenvalues --    0.07912   0.08150   0.08337   0.08580   0.08898
 Alpha virt. eigenvalues --    0.09369   0.09683   0.09878   0.10761   0.11003
 Alpha virt. eigenvalues --    0.11107   0.12056   0.12281   0.12738   0.13105
 Alpha virt. eigenvalues --    0.13367   0.13514   0.14025   0.14242   0.15963
 Alpha virt. eigenvalues --    0.16285   0.16365   0.17270   0.17465   0.17656
 Alpha virt. eigenvalues --    0.18084   0.18906   0.19287   0.19677   0.20145
 Alpha virt. eigenvalues --    0.21498   0.21562   0.22699   0.23146   0.23574
 Alpha virt. eigenvalues --    0.24013   0.24571   0.25402   0.26878   0.27662
 Alpha virt. eigenvalues --    0.28856   0.29361   0.29862   0.31412   0.35626
 Alpha virt. eigenvalues --    0.36390   0.38234   0.39299   0.41031   0.41313
 Alpha virt. eigenvalues --    0.41890   0.42009   0.43012   0.43606   0.44375
 Alpha virt. eigenvalues --    0.44880   0.45364   0.45689   0.46576   0.47825
 Alpha virt. eigenvalues --    0.48394   0.48715   0.49142   0.50524   0.51010
 Alpha virt. eigenvalues --    0.51191   0.52121   0.52264   0.52751   0.54088
 Alpha virt. eigenvalues --    0.54175   0.54774   0.55520   0.55913   0.57524
 Alpha virt. eigenvalues --    0.58231   0.59083   0.61536   0.61977   0.62536
 Alpha virt. eigenvalues --    0.63242   0.63472   0.64867   0.65368   0.67623
 Alpha virt. eigenvalues --    0.70108   0.70485   0.71237   0.72508   0.72887
 Alpha virt. eigenvalues --    0.75392   0.76185   0.76663   0.76719   0.77068
 Alpha virt. eigenvalues --    0.77893   0.78121   0.78294   0.79950   0.80342
 Alpha virt. eigenvalues --    0.81337   0.81527   0.82467   0.83107   0.85256
 Alpha virt. eigenvalues --    0.86991   0.87942   0.88144   0.89406   0.90402
 Alpha virt. eigenvalues --    0.91097   0.91692   0.93380   0.94549   0.96175
 Alpha virt. eigenvalues --    0.97115   1.00225   1.01443   1.01479   1.02699
 Alpha virt. eigenvalues --    1.02732   1.03566   1.04921   1.06365   1.08972
 Alpha virt. eigenvalues --    1.19664   1.22760   1.23074   1.24286   1.28414
 Alpha virt. eigenvalues --    1.29897   1.32740   1.34221   1.35653   1.35948
 Alpha virt. eigenvalues --    1.38902   1.40037   1.40995   1.42511   1.43454
 Alpha virt. eigenvalues --    1.43710   1.44115   1.46378   1.46555   1.46829
 Alpha virt. eigenvalues --    1.47490   1.48482   1.51877   1.53661   1.54980
 Alpha virt. eigenvalues --    1.55811   1.56422   1.57291   1.58140   1.61474
 Alpha virt. eigenvalues --    1.62981   1.63507   1.64175   1.66044   1.68304
 Alpha virt. eigenvalues --    1.68377   1.68848   1.69841   1.74440   1.76170
 Alpha virt. eigenvalues --    1.76983   1.77812   1.79391   1.79959   1.81776
 Alpha virt. eigenvalues --    1.82782   1.83214   1.83385   1.83593   1.84239
 Alpha virt. eigenvalues --    1.84932   1.85436   1.86610   1.88327   1.91399
 Alpha virt. eigenvalues --    1.91980   1.93857   1.96134   1.97630   1.98401
 Alpha virt. eigenvalues --    1.99643   2.02548   2.04957   2.07076   2.11623
 Alpha virt. eigenvalues --    2.12310   2.14360   2.15241   2.18975   2.21185
 Alpha virt. eigenvalues --    2.22705   2.28308   2.30454   2.34086   2.34727
 Alpha virt. eigenvalues --    2.36210   2.38655   2.39520   2.42201   2.44227
 Alpha virt. eigenvalues --    2.45908   2.46653   2.49327   2.52868   2.53618
 Alpha virt. eigenvalues --    2.54599   2.56711   2.58022   2.58353   2.59385
 Alpha virt. eigenvalues --    2.59866   2.61109   2.61947   2.63181   2.63676
 Alpha virt. eigenvalues --    2.64998   2.65019   2.65320   2.65603   2.67719
 Alpha virt. eigenvalues --    2.69355   2.71000   2.71575   2.73330   2.74769
 Alpha virt. eigenvalues --    2.76316   2.78337   2.79627   2.82748   2.83256
 Alpha virt. eigenvalues --    2.85245   2.86287   2.92072   2.97037   2.99229
 Alpha virt. eigenvalues --    3.00301   3.04895   3.08563   3.11174   3.15088
 Alpha virt. eigenvalues --    3.20870   3.21695   3.26442   3.28237   3.30209
 Alpha virt. eigenvalues --    3.32836   3.35391   3.43948   3.46037   3.47012
 Alpha virt. eigenvalues --    3.48593   3.51472   3.56792   3.65375   3.65863
 Alpha virt. eigenvalues --    3.68748   3.93660   3.93811   3.95222   3.96206
 Alpha virt. eigenvalues --    4.03950   4.05866   4.08086   4.12435   4.35189
 Alpha virt. eigenvalues --    4.61019   4.67704   4.71846  23.45090  23.60085
 Alpha virt. eigenvalues --   23.78665  23.83771  23.85467  23.87592  23.90528
 Alpha virt. eigenvalues --   23.93902  23.94863  23.98077  24.04741  24.09547
 Alpha virt. eigenvalues --   24.10700  24.16863
          Condensed to atoms (all electrons):
               1          2          3          4          5          6
     1  C    8.196338   0.509529  -0.622959   1.671072  -0.054710  -0.084302
     2  C    0.509529   7.251314   0.418394  -1.031322  -0.043812  -0.016064
     3  C   -0.622959   0.418394   6.585308   0.756061  -0.117432   0.017060
     4  C    1.671072  -1.031322   0.756061  10.959392  -0.393511  -0.125216
     5  C   -0.054710  -0.043812  -0.117432  -0.393511  11.199748   0.792165
     6  C   -0.084302  -0.016064   0.017060  -0.125216   0.792165   6.578951
     7  C   -0.019222   0.000948  -0.012918   0.008483  -1.168293   0.278933
     8  C    0.393526  -0.016106  -0.107544  -0.033731   2.382785  -0.425966
     9  C   -1.004370  -0.843976   0.288510   0.062714  -0.450269   0.284906
    10  C   -1.164565   0.133682  -0.246932  -2.637364  -2.485799  -0.440509
    11  C    0.460418  -0.912918   0.932032   0.418001  -1.709310  -0.135711
    12  C   -1.917837   1.203815  -1.434723  -2.005307   0.048101  -0.250254
    13  C    0.337524  -0.249955  -0.217079  -1.287458  -1.007145   1.009159
    14  C   -1.185549  -0.263654  -0.129068  -0.694784  -1.371802  -1.356809
    15  H    0.366001  -0.100725  -0.001807   0.021377   0.007027   0.001288
    16  H   -0.019271   0.382330  -0.020307   0.019812  -0.001855  -0.000374
    17  H   -0.018533  -0.023966   0.386263  -0.072822   0.000082   0.000425
    18  H    0.045776   0.003595  -0.083437   0.467805   0.005044  -0.004937
    19  H   -0.040059  -0.007324   0.051384  -0.069320  -0.071221   0.050378
    20  H    0.006728   0.002217  -0.005203   0.006445   0.451520  -0.083457
    21  H   -0.001144  -0.000423   0.000370   0.000560  -0.064566   0.365425
    22  H    0.000367   0.000314  -0.000280  -0.001245   0.007750  -0.012483
    23  H    0.005881  -0.002291   0.000884   0.004135   0.033857  -0.000647
    24  H    0.041193   0.016167  -0.000729  -0.008571  -0.016567  -0.002324
    25  H    0.041193   0.016167  -0.000729  -0.008571  -0.016567  -0.002324
               7          8          9         10         11         12
     1  C   -0.019222   0.393526  -1.004370  -1.164565   0.460418  -1.917837
     2  C    0.000948  -0.016106  -0.843976   0.133682  -0.912918   1.203815
     3  C   -0.012918  -0.107544   0.288510  -0.246932   0.932032  -1.434723
     4  C    0.008483  -0.033731   0.062714  -2.637364   0.418001  -2.005307
     5  C   -1.168293   2.382785  -0.450269  -2.485799  -1.709310   0.048101
     6  C    0.278933  -0.425966   0.284906  -0.440509  -0.135711  -0.250254
     7  C    7.098854   0.026456  -0.770487   0.363335  -0.246163  -0.135432
     8  C    0.026456   9.124712  -1.271213  -1.418546   0.082837  -0.951853
     9  C   -0.770487  -1.271213   9.613742   0.264029   1.821984  -2.301636
    10  C    0.363335  -1.418546   0.264029   9.106248  -0.364697   2.441167
    11  C   -0.246163   0.082837   1.821984  -0.364697  14.430504  -4.568712
    12  C   -0.135432  -0.951853  -2.301636   2.441167  -4.568712  17.024259
    13  C   -0.817056   0.057235   1.358901  -0.434155   1.055309  -4.823180
    14  C    1.507361  -2.356723  -1.633277   2.344541  -4.697644   3.103183
    15  H   -0.002992   0.005565   0.083296  -0.005897  -0.031540  -0.008901
    16  H    0.000402   0.001021   0.001343  -0.011026   0.023848  -0.030889
    17  H   -0.000366  -0.001503  -0.003828   0.019278  -0.021963   0.081209
    18  H    0.001930   0.007201  -0.020505   0.001193  -0.002152  -0.044748
    19  H   -0.007461  -0.052638   0.074602   0.421660   0.075217  -0.093464
    20  H    0.001507   0.055090  -0.027392   0.019769  -0.011959  -0.003187
    21  H   -0.006552  -0.033452  -0.007393   0.021274  -0.006388   0.005550
    22  H    0.373301  -0.019602   0.004583  -0.007322   0.002608  -0.007336
    23  H   -0.111120   0.372778   0.097681  -0.013473   0.007450   0.006544
    24  H    0.012890   0.021148   0.358975   0.005916   0.024311  -0.058511
    25  H    0.012890   0.021148   0.358975   0.005916   0.024311  -0.058511
              13         14         15         16         17         18
     1  C    0.337524  -1.185549   0.366001  -0.019271  -0.018533   0.045776
     2  C   -0.249955  -0.263654  -0.100725   0.382330  -0.023966   0.003595
     3  C   -0.217079  -0.129068  -0.001807  -0.020307   0.386263  -0.083437
     4  C   -1.287458  -0.694784   0.021377   0.019812  -0.072822   0.467805
     5  C   -1.007145  -1.371802   0.007027  -0.001855   0.000082   0.005044
     6  C    1.009159  -1.356809   0.001288  -0.000374   0.000425  -0.004937
     7  C   -0.817056   1.507361  -0.002992   0.000402  -0.000366   0.001930
     8  C    0.057235  -2.356723   0.005565   0.001021  -0.001503   0.007201
     9  C    1.358901  -1.633277   0.083296   0.001343  -0.003828  -0.020505
    10  C   -0.434155   2.344541  -0.005897  -0.011026   0.019278   0.001193
    11  C    1.055309  -4.697644  -0.031540   0.023848  -0.021963  -0.002152
    12  C   -4.823180   3.103183  -0.008901  -0.030889   0.081209  -0.044748
    13  C   14.568603  -2.958685  -0.004790   0.003306  -0.006296  -0.012257
    14  C   -2.958685  15.319886   0.006975  -0.010853   0.005167  -0.026501
    15  H   -0.004790   0.006975   0.436824  -0.009028   0.001754   0.000179
    16  H    0.003306  -0.010853  -0.009028   0.415444  -0.007339   0.002114
    17  H   -0.006296   0.005167   0.001754  -0.007339   0.423852  -0.011375
    18  H   -0.012257  -0.026501   0.000179   0.002114  -0.011375   0.448351
    19  H    0.082778  -0.039112   0.000435  -0.000619   0.001833  -0.005353
    20  H   -0.006104  -0.069116  -0.000136   0.000024  -0.000182   0.001256
    21  H   -0.029693   0.099424   0.000016  -0.000007   0.000010  -0.000109
    22  H    0.027561  -0.031080  -0.000123   0.000007  -0.000006   0.000008
    23  H   -0.034901  -0.037933   0.000566  -0.000129   0.000010  -0.000091
    24  H    0.002935  -0.062093  -0.001128   0.000607  -0.000125   0.000112
    25  H    0.002935  -0.062093  -0.001128   0.000607  -0.000125   0.000112
              19         20         21         22         23         24
     1  C   -0.040059   0.006728  -0.001144   0.000367   0.005881   0.041193
     2  C   -0.007324   0.002217  -0.000423   0.000314  -0.002291   0.016167
     3  C    0.051384  -0.005203   0.000370  -0.000280   0.000884  -0.000729
     4  C   -0.069320   0.006445   0.000560  -0.001245   0.004135  -0.008571
     5  C   -0.071221   0.451520  -0.064566   0.007750   0.033857  -0.016567
     6  C    0.050378  -0.083457   0.365425  -0.012483  -0.000647  -0.002324
     7  C   -0.007461   0.001507  -0.006552   0.373301  -0.111120   0.012890
     8  C   -0.052638   0.055090  -0.033452  -0.019602   0.372778   0.021148
     9  C    0.074602  -0.027392  -0.007393   0.004583   0.097681   0.358975
    10  C    0.421660   0.019769   0.021274  -0.007322  -0.013473   0.005916
    11  C    0.075217  -0.011959  -0.006388   0.002608   0.007450   0.024311
    12  C   -0.093464  -0.003187   0.005550  -0.007336   0.006544  -0.058511
    13  C    0.082778  -0.006104  -0.029693   0.027561  -0.034901   0.002935
    14  C   -0.039112  -0.069116   0.099424  -0.031080  -0.037933  -0.062093
    15  H    0.000435  -0.000136   0.000016  -0.000123   0.000566  -0.001128
    16  H   -0.000619   0.000024  -0.000007   0.000007  -0.000129   0.000607
    17  H    0.001833  -0.000182   0.000010  -0.000006   0.000010  -0.000125
    18  H   -0.005353   0.001256  -0.000109   0.000008  -0.000091   0.000112
    19  H    0.443998  -0.007295   0.001038  -0.000459   0.000173   0.000619
    20  H   -0.007295   0.460090  -0.009266   0.001716   0.000129   0.000253
    21  H    0.001038  -0.009266   0.421828  -0.005662   0.001096  -0.000155
    22  H   -0.000459   0.001716  -0.005662   0.422595  -0.008476   0.000638
    23  H    0.000173   0.000129   0.001096  -0.008476   0.442055  -0.000653
    24  H    0.000619   0.000253  -0.000155   0.000638  -0.000653   0.492816
    25  H    0.000619   0.000253  -0.000155   0.000638  -0.000653  -0.079004
              25
     1  C    0.041193
     2  C    0.016167
     3  C   -0.000729
     4  C   -0.008571
     5  C   -0.016567
     6  C   -0.002324
     7  C    0.012890
     8  C    0.021148
     9  C    0.358975
    10  C    0.005916
    11  C    0.024311
    12  C   -0.058511
    13  C    0.002935
    14  C   -0.062093
    15  H   -0.001128
    16  H    0.000607
    17  H   -0.000125
    18  H    0.000112
    19  H    0.000619
    20  H    0.000253
    21  H   -0.000155
    22  H    0.000638
    23  H   -0.000653
    24  H   -0.079004
    25  H    0.492816
 Mulliken charges:
               1
     1  C    0.056978
     2  C   -0.425938
     3  C   -0.435120
     4  C   -0.026636
     5  C    0.044778
     6  C   -0.437315
     7  C   -0.389230
     8  C    0.137372
     9  C   -0.339896
    10  C    0.082279
    11  C   -0.649672
    12  C    0.780652
    13  C   -0.617492
    14  C    0.600239
    15  H    0.236891
    16  H    0.260833
    17  H    0.248544
    18  H    0.226790
    19  H    0.189590
    20  H    0.216301
    21  H    0.248375
    22  H    0.251989
    23  H    0.237128
    24  H    0.251280
    25  H    0.251280
 Sum of Mulliken charges =   1.00000
 Mulliken charges with hydrogens summed into heavy atoms:
               1
     1  C    0.293869
     2  C   -0.165104
     3  C   -0.186576
     4  C    0.200154
     5  C    0.261079
     6  C   -0.188940
     7  C   -0.137241
     8  C    0.374500
     9  C    0.162663
    10  C    0.271869
    11  C   -0.649672
    12  C    0.780652
    13  C   -0.617492
    14  C    0.600239
 Electronic spatial extent (au):  <R**2>=           2856.3244
 Charge=              1.0000 electrons
 Dipole moment (field-independent basis, Debye):
    X=             -0.2182    Y=             -0.7585    Z=              0.0000  Tot=              0.7893
 Quadrupole moment (field-independent basis, Debye-Ang):
   XX=            -51.3156   YY=            -36.0423   ZZ=            -84.1287
   XY=             10.0629   XZ=              0.0000   YZ=              0.0000
 Traceless Quadrupole moment (field-independent basis, Debye-Ang):
   XX=              5.8466   YY=             21.1199   ZZ=            -26.9665
   XY=             10.0629   XZ=              0.0000   YZ=              0.0000
 Octapole moment (field-independent basis, Debye-Ang**2):
  XXX=             -3.1406  YYY=              0.2886  ZZZ=             -0.0000  XYY=             -0.4865
  XXY=             -6.9880  XXZ=              0.0000  XZZ=             -3.4408  YZZ=              0.0972
  YYZ=             -0.0000  XYZ=              0.0000
 Hexadecapole moment (field-independent basis, Debye-Ang**3):
 XXXX=           -997.6393 YYYY=          -1838.5362 ZZZZ=            -99.3144 XXXY=           -351.5377
 XXXZ=             -0.0000 YYYX=           -277.2165 YYYZ=              0.0000 ZZZX=              0.0000
 ZZZY=             -0.0000 XXYY=           -455.4976 XXZZ=           -242.7161 YYZZ=           -493.6837
 XXYZ=             -0.0000 YYXZ=             -0.0000 ZZXY=           -183.7376
 N-N= 7.812818241207D+02 E-N=-2.798919771256D+03  KE= 5.375463047944D+02
 Symmetry A'   KE= 5.228908879814D+02
 Symmetry A"   KE= 1.465541681295D+01
 Unable to Open any file for archive entry.
 1\1\GINC-GADI-CPU-CLX-2461\SP\RM062X TD-FC\6-311++G(d,p)\C14H11(1+)\TS
 1578\27-Jul-2022\0\\#n M062X/6-311++G(d,p) TD(NStates=1) EmpiricalDisp
 ersion=GD3 SP\\SP_8\\1,1\C,0,0.,2.470255,1.361231\C,0,0.,3.664308,0.65
 6789\C,0,0.,3.666061,-0.74343\C,0,0.,2.500756,-1.424338\C,0,0.,-2.4255
 56,-1.390738\C,0,0.,-3.701661,-0.68423\C,0,0.,-3.738708,0.687189\C,0,0
 .,-2.515055,1.359631\C,0,0.,-0.0208,1.453369\C,0,0.,0.0394,-1.429189\C
 ,0,0.,1.282255,0.684865\C,0,0.,1.260871,-0.718204\C,0,0.,-1.241855,0.6
 69265\C,0,0.,-1.214071,-0.743404\H,0,0.,2.454271,2.443647\H,0,0.,4.591
 553,1.211089\H,0,0.,4.596262,-1.291949\H,0,0.,2.51175,-2.506059\H,0,0.
 ,0.057,-2.510266\H,0,0.,-2.42335,-2.474059\H,0,0.,-4.622262,-1.252749\
 H,0,0.,-4.681953,1.212289\H,0,0.,-2.521871,2.443647\H,0,-0.859585,-0.1
 ,2.145787\H,0,0.859585,-0.1,2.145787\\Version=ES64L-G16RevC.01\State=1
 -A'\HF=-539.7481712\RMSD=3.766e-09\PG=CS [SG(C14H9),X(H2)]\\@
 The archive entry for this job was punched.


 The theorems and results in mathematical physics are
 not theorems and results about Nature, but about our
 description of it.
                   --Gerard 't Hooft
 Job cpu time:       0 days  0 hours 45 minutes 34.3 seconds.
 Elapsed time:       0 days  0 hours  1 minutes 25.7 seconds.
 File lengths (MBytes):  RWF=    460 Int=      0 D2E=      0 Chk=     15 Scr=      1
 Normal termination of Gaussian 16 at Wed Jul 27 13:42:16 2022.
