 Entering Gaussian System, Link 0=g16
 Initial command:
 /apps/gaussian/g16c01/g16/l1.exe "/jobfs/52822737.gadi-pbs/Gau-2034778.inp" -scrdir="/jobfs/52822737.gadi-pbs/"
 Entering Link 1 = /apps/gaussian/g16c01/g16/l1.exe PID=   2034779.
  
 Copyright (c) 1988-2019, Gaussian, Inc.  All Rights Reserved.
  
 This is part of the Gaussian(R) 16 program.  It is based on
 the Gaussian(R) 09 system (copyright 2009, Gaussian, Inc.),
 the Gaussian(R) 03 system (copyright 2003, Gaussian, Inc.),
 the Gaussian(R) 98 system (copyright 1998, Gaussian, Inc.),
 the Gaussian(R) 94 system (copyright 1995, Gaussian, Inc.),
 the Gaussian 92(TM) system (copyright 1992, Gaussian, Inc.),
 the Gaussian 90(TM) system (copyright 1990, Gaussian, Inc.),
 the Gaussian 88(TM) system (copyright 1988, Gaussian, Inc.),
 the Gaussian 86(TM) system (copyright 1986, Carnegie Mellon
 University), and the Gaussian 82(TM) system (copyright 1983,
 Carnegie Mellon University). Gaussian is a federally registered
 trademark of Gaussian, Inc.
  
 This software contains proprietary and confidential information,
 including trade secrets, belonging to Gaussian, Inc.
  
 This software is provided under written license and may be
 used, copied, transmitted, or stored only in accord with that
 written license.
  
 The following legend is applicable only to US Government
 contracts under FAR:
  
                    RESTRICTED RIGHTS LEGEND
  
 Use, reproduction and disclosure by the US Government is
 subject to restrictions as set forth in subparagraphs (a)
 and (c) of the Commercial Computer Software - Restricted
 Rights clause in FAR 52.227-19.
  
 Gaussian, Inc.
 340 Quinnipiac St., Bldg. 40, Wallingford CT 06492
  
  
 ---------------------------------------------------------------
 Warning -- This program may not be used in any manner that
 competes with the business of Gaussian, Inc. or will provide
 assistance to any competitor of Gaussian, Inc.  The licensee
 of this program is prohibited from giving any competitor of
 Gaussian, Inc. access to this program.  By using this program,
 the user acknowledges that Gaussian, Inc. is engaged in the
 business of creating and licensing software in the field of
 computational chemistry and represents and warrants to the
 licensee that it is not a competitor of Gaussian, Inc. and that
 it will not use this program in any manner prohibited above.
 ---------------------------------------------------------------
  

 Cite this work as:
 Gaussian 16, Revision C.01,
 M. J. Frisch, G. W. Trucks, H. B. Schlegel, G. E. Scuseria, 
 M. A. Robb, J. R. Cheeseman, G. Scalmani, V. Barone, 
 G. A. Petersson, H. Nakatsuji, X. Li, M. Caricato, A. V. Marenich, 
 J. Bloino, B. G. Janesko, R. Gomperts, B. Mennucci, H. P. Hratchian, 
 J. V. Ortiz, A. F. Izmaylov, J. L. Sonnenberg, D. Williams-Young, 
 F. Ding, F. Lipparini, F. Egidi, J. Goings, B. Peng, A. Petrone, 
 T. Henderson, D. Ranasinghe, V. G. Zakrzewski, J. Gao, N. Rega, 
 G. Zheng, W. Liang, M. Hada, M. Ehara, K. Toyota, R. Fukuda, 
 J. Hasegawa, M. Ishida, T. Nakajima, Y. Honda, O. Kitao, H. Nakai, 
 T. Vreven, K. Throssell, J. A. Montgomery, Jr., J. E. Peralta, 
 F. Ogliaro, M. J. Bearpark, J. J. Heyd, E. N. Brothers, K. N. Kudin, 
 V. N. Staroverov, T. A. Keith, R. Kobayashi, J. Normand, 
 K. Raghavachari, A. P. Rendell, J. C. Burant, S. S. Iyengar, 
 J. Tomasi, M. Cossi, J. M. Millam, M. Klene, C. Adamo, R. Cammi, 
 J. W. Ochterski, R. L. Martin, K. Morokuma, O. Farkas, 
 J. B. Foresman, and D. J. Fox, Gaussian, Inc., Wallingford CT, 2019.
 
 ******************************************
 Gaussian 16:  ES64L-G16RevC.01  3-Jul-2019
                27-Jul-2022 
 ******************************************
 %NProcShared=32
 Will use up to   32 processors via shared memory.
 %mem = 128GB
 ---------------------------------------------------------------
 #n M062X/6-311++G(d,p) TD(NStates=1) EmpiricalDispersion=GD3 SP
 ---------------------------------------------------------------
 1/38=1,172=1/1;
 2/12=2,17=6,18=5,40=1/2;
 3/5=4,6=6,7=1111,11=9,25=1,30=1,74=-55,124=31/1,2,3,8;
 4//1;
 5/5=2,38=5/2;
 8/6=1,10=2,108=1/1;
 9/41=1,42=1,70=2/14;
 6/7=2,8=2,9=2,10=2/1;
 99/5=1,9=1/99;
 ----
 SP_4
 ----
 Symbolic Z-matrix:
 Charge =  1 Multiplicity = 1
 C                     0.        2.47026   1.36083 
 C                     0.        3.67031   0.65879 
 C                     0.        3.66866  -0.73983 
 C                     0.        2.49596  -1.42154 
 C                     0.       -2.43036  -1.39354 
 C                     0.       -3.69906  -0.68783 
 C                     0.       -3.73271   0.68519 
 C                     0.       -2.51506   1.36003 
 C                     0.       -0.016     1.45337 
 C                     0.        0.04     -1.42919 
 C                     0.        1.27846   0.68867 
 C                     0.        1.25547  -0.7252 
 C                     0.       -1.24566   0.66547 
 C                     0.       -1.21947  -0.7364 
 H                     0.        2.46767   2.44365 
 H                     0.        4.60155   1.20649 
 H                     0.        4.60206  -1.28355 
 H                     0.        2.49595  -2.50366 
 H                     0.        0.046    -2.51027 
 H                     0.       -2.43915  -2.47646 
 H                     0.       -4.61646  -1.26115 
 H                     0.       -4.67195   1.21689 
 H                     0.       -2.50847   2.44365 
 H                    -0.85959  -0.0808    2.14579 
 H                     0.85959  -0.0808    2.14579 
 
                          Input orientation:                          
 ---------------------------------------------------------------------
 Center     Atomic      Atomic             Coordinates (Angstroms)
 Number     Number       Type             X           Y           Z
 ---------------------------------------------------------------------
      1          6           0        0.000000    2.470255    1.360831
      2          6           0        0.000000    3.670308    0.658789
      3          6           0        0.000000    3.668661   -0.739830
      4          6           0        0.000000    2.495956   -1.421538
      5          6           0        0.000000   -2.430356   -1.393538
      6          6           0        0.000000   -3.699061   -0.687830
      7          6           0        0.000000   -3.732708    0.685189
      8          6           0        0.000000   -2.515055    1.360031
      9          6           0        0.000000   -0.016000    1.453369
     10          6           0        0.000000    0.040000   -1.429189
     11          6           0        0.000000    1.278455    0.688665
     12          6           0        0.000000    1.255471   -0.725204
     13          6           0        0.000000   -1.245655    0.665465
     14          6           0        0.000000   -1.219471   -0.736404
     15          1           0        0.000000    2.467671    2.443647
     16          1           0        0.000000    4.601553    1.206489
     17          1           0        0.000000    4.602062   -1.283549
     18          1           0        0.000000    2.495950   -2.503659
     19          1           0        0.000000    0.046000   -2.510266
     20          1           0        0.000000   -2.439150   -2.476459
     21          1           0        0.000000   -4.616462   -1.261149
     22          1           0        0.000000   -4.671953    1.216889
     23          1           0        0.000000   -2.508471    2.443647
     24          1           0       -0.859585   -0.080800    2.145787
     25          1           0        0.859585   -0.080800    2.145787
 ---------------------------------------------------------------------
                    Distance matrix (angstroms):
                    1          2          3          4          5
     1  C    0.000000
     2  C    1.390320   0.000000
     3  C    2.418461   1.398620   0.000000
     4  C    2.782488   2.388904   1.356452   0.000000
     5  C    5.621613   6.436625   6.133950   4.926392   0.000000
     6  C    6.500575   7.491394   7.367906   6.238314   1.451770
     7  C    6.239651   7.403063   7.537303   6.575299   2.453004
     8  C    4.985310   6.224986   6.530525   5.731261   2.754871
     9  C    2.487977   3.770971   4.287989   3.817724   3.732827
    10  C    3.700047   4.187934   3.693561   2.455968   2.470613
    11  C    1.368282   2.392040   2.784544   2.436240   4.253334
    12  C    2.413968   2.783321   2.413234   1.422563   3.745930
    13  C    3.780413   4.915968   5.111297   4.284301   2.375502
    14  C    4.244110   5.084929   4.888133   3.778069   1.377704
    15  H    1.082819   2.152221   3.402485   3.865288   6.222110
    16  H    2.136879   1.080367   2.158343   3.367501   7.497192
    17  H    3.396667   2.154261   1.080217   2.110622   7.033278
    18  H    3.864575   3.373454   2.118099   1.082121   5.049838
    19  H    4.567538   4.814407   4.032135   2.680972   2.716509
    20  H    6.231136   6.866969   6.349900   5.046596   1.082957
    21  H    7.556212   8.506275   8.301508   7.114226   2.190111
    22  H    7.143658   8.360909   8.567064   7.638077   3.440797
    23  H    5.095116   6.431409   6.949208   6.323286   3.837980
    24  H    2.804091   4.125635   4.808756   4.483789   4.334296
    25  H    2.804091   4.125635   4.808756   4.483789   4.334296
                    6          7          8          9         10
     6  C    0.000000
     7  C    1.373431   0.000000
     8  C    2.365503   1.392153   0.000000
     9  C    4.260243   3.795263   2.500797   0.000000
    10  C    3.811849   4.324803   3.782599   2.883102   0.000000
    11  C    5.164340   5.011164   3.852460   1.503458   2.453381
    12  C    4.954673   5.183738   4.308720   2.522463   1.404623
    13  C    2.801894   2.487131   1.446996   1.460426   2.457740
    14  C    2.480066   2.887436   2.464463   2.498689   1.437435
    15  H    6.916266   6.444911   5.099194   2.673812   4.570825
    16  H    8.514026   8.350548   7.118264   4.624148   5.268260
    17  H    8.322471   8.564130   7.592224   5.368167   4.564386
    18  H    6.455648   6.997495   6.327580   4.686999   2.680704
    19  H    4.164944   4.948693   4.640927   3.964120   1.081094
    20  H    2.187823   3.416037   3.837241   4.616839   2.691275
    21  H    1.081813   2.137581   3.359538   5.341616   4.659493
    22  H    2.138802   1.079299   2.161643   4.661955   5.404094
    23  H    3.350172   2.142646   1.083636   2.681988   4.636115
    24  H    4.675477   4.025999   2.698499   1.105680   3.678849
    25  H    4.675477   4.025999   2.698499   1.105680   3.678849
                   11         12         13         14         15
    11  C    0.000000
    12  C    1.414056   0.000000
    13  C    2.524217   2.861746   0.000000
    14  C    2.875840   2.474967   1.402114   0.000000
    15  H    2.119952   3.392793   4.117125   4.869060   0.000000
    16  H    3.363201   3.863639   5.872184   6.136705   2.466579
    17  H    3.864711   3.392848   6.163964   5.847189   4.295069
    18  H    3.416610   2.168338   4.903362   4.114310   4.947387
    19  H    3.428134   2.156216   3.428358   2.178991   5.514140
    20  H    4.882479   4.088657   3.360970   2.124949   6.948693
    21  H    6.209011   5.896341   3.882548   3.437282   7.994401
    22  H    5.973807   6.237474   3.470387   3.966735   7.244251
    23  H    4.173820   4.920252   2.180971   3.431362   4.976142
    24  H    2.170176   3.281325   2.070538   3.215973   2.705977
    25  H    2.170176   3.281325   2.070538   3.215973   2.705977
                   16         17         18         19         20
    16  H    0.000000
    17  H    2.490038   0.000000
    18  H    4.266001   2.434004   0.000000
    19  H    5.879399   4.718319   2.449959   0.000000
    20  H    7.945792   7.141548   4.935175   2.485380   0.000000
    21  H    9.542591   9.218551   7.220127   4.826888   2.493525
    22  H    9.273512   9.605183   8.075971   6.012551   4.315811
    23  H    7.216855   8.028180   7.037050   5.573740   4.920594
    24  H    4.852381   5.867574   5.384782   4.736433   5.259835
    25  H    4.852381   5.867574   5.384782   4.736433   5.259835
                   21         22         23         24         25
    21  H    0.000000
    22  H    2.478659   0.000000
    23  H    4.262527   2.487085   0.000000
    24  H    5.737450   4.762397   2.592526   0.000000
    25  H    5.737450   4.762397   2.592526   1.719170   0.000000
 Stoichiometry    C14H11(1+)
 Framework group  CS[SG(C14H9),X(H2)]
 Deg. of freedom    46
 Full point group                 CS      NOp   2
 Largest Abelian subgroup         CS      NOp   2
 Largest concise Abelian subgroup CS      NOp   2
                         Standard orientation:                         
 ---------------------------------------------------------------------
 Center     Atomic      Atomic             Coordinates (Angstroms)
 Number     Number       Type             X           Y           Z
 ---------------------------------------------------------------------
      1          6           0       -2.364896   -1.537656    0.000000
      2          6           0       -2.311437   -2.926948    0.000000
      3          6           0       -1.077183   -3.584788    0.000000
      4          6           0        0.076832   -2.871898    0.000000
      5          6           0        2.374342    1.485944    0.000000
      6          6           0        2.350012    2.937510    0.000000
      7          6           0        1.154971    3.614409    0.000000
      8          6           0       -0.014176    2.858641    0.000000
      9          6           0       -1.274517    0.698658    0.000000
     10          6           0        1.241288   -0.709533    0.000000
     11          6           0       -1.210295   -0.803428    0.000000
     12          6           0        0.047467   -1.449638    0.000000
     13          6           0        0.000000    1.411714    0.000000
     14          6           0        1.224002    0.727798    0.000000
     15          1           0       -3.318642   -1.024951    0.000000
     16          1           0       -3.233446   -3.490058    0.000000
     17          1           0       -1.037657   -4.664281    0.000000
     18          1           0        1.031186   -3.381991    0.000000
     19          1           0        2.191889   -1.224431    0.000000
     20          1           0        3.333544    0.983224    0.000000
     21          1           0        3.288088    3.476334    0.000000
     22          1           0        1.128800    4.693390    0.000000
     23          1           0       -0.972949    3.363638    0.000000
     24          1           0       -1.854633    1.082204    0.859585
     25          1           0       -1.854633    1.082204   -0.859585
 ---------------------------------------------------------------------
 Rotational constants (GHZ):           2.1365762           0.4445517           0.3687857
 Standard basis: 6-311++G(d,p) (5D, 7F)
 There are   299 symmetry adapted cartesian basis functions of A'  symmetry.
 There are   100 symmetry adapted cartesian basis functions of A"  symmetry.
 There are   285 symmetry adapted basis functions of A'  symmetry.
 There are   100 symmetry adapted basis functions of A"  symmetry.
   385 basis functions,   603 primitive gaussians,   399 cartesian basis functions
    47 alpha electrons       47 beta electrons
       nuclear repulsion energy       781.2664814972 Hartrees.
 NAtoms=   25 NActive=   25 NUniq=   24 SFac= 1.09D+00 NAtFMM=   60 NAOKFM=F Big=F
 Integral buffers will be    131072 words long.
 Regular integral format.
 Two-electron integral symmetry is turned on.
 Nuclear repulsion after empirical dispersion term =      781.2655025426 Hartrees.
 One-electron integrals computed using PRISM.
 NBasis=   385 RedAO= T EigKep=  1.13D-06  NBF=   285   100
 NBsUse=   379 1.00D-06 EigRej=  8.34D-07 NBFU=   279   100
 ExpMin= 3.60D-02 ExpMax= 4.56D+03 ExpMxC= 6.82D+02 IAcc=3 IRadAn=         5 AccDes= 0.00D+00
 Harris functional with IExCor= 1009 and IRadAn=       5 diagonalized for initial guess.
 HarFok:  IExCor= 1009 AccDes= 0.00D+00 IRadAn=         5 IDoV= 1 UseB2=F ITyADJ=14
 ICtDFT=  3500011 ScaDFX=  1.000000  1.000000  1.000000  1.000000
 FoFCou: FMM=F IPFlag=           0 FMFlag=      100000 FMFlg1=           0
         NFxFlg=           0 DoJE=T BraDBF=F KetDBF=T FulRan=T
         wScrn=  0.000000 ICntrl=       500 IOpCl=  0 I1Cent=   200000004 NGrid=           0
         NMat0=    1 NMatS0=      1 NMatT0=    0 NMatD0=    1 NMtDS0=    0 NMtDT0=    0
 Petite list used in FoFCou.
 Initial guess orbital symmetries:
       Occupied  (A') (A') (A') (A') (A') (A') (A') (A') (A') (A')
                 (A') (A') (A') (A') (A') (A') (A') (A') (A') (A')
                 (A') (A') (A') (A') (A') (A') (A') (A') (A') (A')
                 (A') (A') (A") (A') (A') (A') (A') (A') (A") (A')
                 (A") (A') (A') (A") (A") (A") (A")
       Virtual   (A") (A") (A") (A") (A") (A') (A') (A') (A') (A")
                 (A") (A') (A') (A') (A") (A') (A') (A') (A') (A")
                 (A') (A") (A') (A') (A') (A") (A') (A") (A') (A')
                 (A') (A') (A') (A') (A") (A') (A") (A') (A') (A')
                 (A") (A') (A") (A') (A') (A') (A') (A') (A") (A')
                 (A') (A') (A") (A") (A') (A') (A') (A") (A") (A')
                 (A') (A') (A') (A') (A') (A') (A") (A') (A') (A")
                 (A') (A') (A') (A') (A') (A') (A') (A') (A') (A')
                 (A') (A') (A') (A') (A') (A') (A') (A') (A') (A')
                 (A') (A') (A') (A') (A') (A') (A') (A") (A') (A")
                 (A') (A") (A') (A") (A') (A") (A') (A") (A") (A')
                 (A") (A') (A') (A') (A") (A') (A') (A") (A") (A')
                 (A") (A") (A') (A') (A') (A") (A') (A') (A') (A")
                 (A') (A') (A') (A') (A') (A') (A") (A') (A') (A')
                 (A') (A') (A') (A') (A') (A') (A') (A') (A') (A")
                 (A") (A') (A") (A") (A') (A') (A') (A") (A") (A')
                 (A") (A') (A") (A") (A") (A') (A') (A') (A') (A')
                 (A') (A") (A') (A') (A") (A') (A') (A') (A') (A")
                 (A') (A') (A') (A') (A") (A') (A") (A') (A") (A")
                 (A") (A') (A') (A") (A') (A') (A') (A") (A') (A')
                 (A") (A") (A") (A') (A') (A") (A') (A") (A') (A')
                 (A") (A") (A') (A") (A') (A") (A') (A') (A') (A')
                 (A") (A') (A') (A') (A") (A') (A') (A') (A") (A")
                 (A') (A') (A') (A") (A') (A') (A") (A') (A") (A')
                 (A") (A') (A') (A') (A') (A") (A') (A') (A') (A")
                 (A') (A') (A") (A') (A") (A') (A') (A") (A') (A')
                 (A') (A") (A') (A") (A') (A') (A') (A") (A') (A")
                 (A') (A') (A') (A') (A") (A') (A") (A') (A") (A')
                 (A") (A') (A") (A") (A") (A') (A') (A') (A') (A')
                 (A') (A') (A') (A') (A') (A') (A') (A') (A') (A')
                 (A') (A') (A') (A') (A") (A') (A') (A') (A') (A')
                 (A') (A') (A') (A') (A') (A') (A') (A') (A') (A')
                 (A') (A') (A') (A') (A') (A') (A') (A') (A') (A')
                 (A') (A')
 The electronic state of the initial guess is 1-A'.
 Requested convergence on RMS density matrix=1.00D-08 within 128 cycles.
 Requested convergence on MAX density matrix=1.00D-06.
 Requested convergence on             energy=1.00D-06.
 No special actions if energy rises.
 SCF Done:  E(RM062X) =  -539.751480823     A.U. after   16 cycles
            NFock= 16  Conv=0.33D-08     -V/T= 2.0041
 DoSCS=F DFT=T ScalE2(SS,OS)=  1.000000  1.000000
 ExpMin= 3.60D-02 ExpMax= 4.56D+03 ExpMxC= 6.82D+02 IAcc=3 IRadAn=         5 AccDes= 0.00D+00
 HarFok:  IExCor=  205 AccDes= 0.00D+00 IRadAn=         5 IDoV=-2 UseB2=F ITyADJ=14
 ICtDFT= 12500011 ScaDFX=  1.000000  1.000000  1.000000  1.000000
 Range of M.O.s used for correlation:    15   379
 NBasis=   385 NAE=    47 NBE=    47 NFC=    14 NFV=     0
 NROrb=    365 NOA=    33 NOB=    33 NVA=   332 NVB=   332

 **** Warning!!: The largest alpha MO coefficient is  0.13870253D+03

 Orbital symmetries:
       Occupied  (A') (A') (A') (A') (A') (A') (A') (A') (A') (A')
                 (A') (A') (A') (A') (A') (A') (A') (A') (A') (A')
                 (A') (A') (A') (A') (A') (A') (A') (A') (A') (A')
                 (A') (A') (A") (A') (A') (A') (A') (A") (A") (A')
                 (A') (A') (A') (A") (A") (A") (A")
       Virtual   (A") (A") (A") (A") (A') (A') (A') (A') (A") (A')
                 (A') (A") (A') (A') (A") (A') (A") (A') (A') (A')
                 (A") (A") (A') (A') (A') (A") (A') (A") (A') (A')
                 (A") (A') (A") (A') (A') (A') (A') (A') (A") (A')
                 (A") (A') (A') (A") (A") (A') (A") (A') (A") (A')
                 (A') (A') (A') (A') (A') (A") (A') (A') (A') (A')
                 (A') (A") (A') (A') (A') (A") (A') (A') (A') (A')
                 (A') (A') (A') (A') (A') (A') (A') (A') (A') (A')
                 (A') (A') (A') (A') (A') (A') (A') (A') (A') (A')
                 (A') (A') (A') (A') (A") (A') (A") (A") (A') (A")
                 (A') (A') (A') (A') (A") (A") (A') (A") (A") (A')
                 (A') (A") (A') (A') (A') (A") (A') (A") (A') (A")
                 (A") (A') (A") (A') (A') (A') (A") (A') (A') (A')
                 (A') (A') (A') (A') (A') (A') (A') (A') (A') (A')
                 (A') (A') (A') (A") (A') (A') (A') (A') (A') (A')
                 (A') (A") (A') (A') (A") (A') (A") (A") (A') (A")
                 (A") (A') (A') (A") (A") (A') (A") (A") (A') (A')
                 (A') (A') (A") (A') (A') (A") (A') (A') (A') (A")
                 (A') (A') (A') (A") (A') (A") (A') (A") (A') (A")
                 (A") (A') (A') (A") (A') (A") (A') (A') (A') (A')
                 (A") (A") (A") (A') (A") (A') (A') (A") (A') (A')
                 (A') (A") (A") (A') (A") (A') (A") (A') (A') (A")
                 (A') (A') (A') (A') (A") (A') (A') (A') (A") (A")
                 (A') (A') (A') (A") (A') (A') (A') (A") (A") (A')
                 (A") (A') (A') (A") (A') (A') (A') (A') (A') (A')
                 (A") (A') (A') (A') (A') (A") (A") (A") (A') (A')
                 (A') (A') (A') (A') (A') (A') (A") (A') (A') (A')
                 (A') (A") (A') (A") (A") (A") (A') (A") (A') (A")
                 (A') (A") (A") (A') (A") (A") (A') (A') (A') (A')
                 (A') (A') (A') (A') (A') (A') (A') (A') (A') (A')
                 (A') (A') (A') (A") (A') (A') (A') (A') (A') (A')
                 (A') (A') (A') (A') (A') (A') (A') (A') (A') (A')
                 (A') (A') (A') (A') (A') (A') (A') (A') (A') (A')
                 (A') (A')
     4 initial guesses have been made.
 Convergence on wavefunction:    0.001000000000000
 Iteration     1 Dimension     4 NMult     0 NNew      4
 CISAX will form     4 AO SS matrices at one time.
 Iteration     2 Dimension     6 NMult     4 NNew      2
 Iteration     3 Dimension     8 NMult     6 NNew      2
 Iteration     4 Dimension    10 NMult     8 NNew      2
 Iteration     5 Dimension    12 NMult    10 NNew      2
 Iteration     6 Dimension    14 NMult    12 NNew      2
 ***********************************************************************
 Excited states from <AA,BB:AA,BB> singles matrix:
 ***********************************************************************
 
 Ground to excited state transition densities written to RWF  633
 Ground to excited state transition electric dipole moments (Au):
       state          X           Y           Z        Dip. S.      Osc.
         1        -0.4346      0.3544      0.0000      0.3144      0.0203
 Ground to excited state transition velocity dipole moments (Au):
       state          X           Y           Z        Dip. S.      Osc.
         1         0.0501     -0.0342      0.0000      0.0037      0.0253
 Ground to excited state transition magnetic dipole moments (Au):
       state          X           Y           Z
         1         0.0000     -0.0000     -0.2287
 Ground to excited state transition velocity quadrupole moments (Au):
       state          XX          YY          ZZ          XY          XZ          YZ
         1         0.1503      0.1048     -0.0080      0.1404      0.0000     -0.0000
 <0|del|b> * <b|rxdel|0> + <0|del|b> * <b|delr+rdel|0>
 Rotatory Strengths (R) in cgs (10**-40 erg-esu-cm/Gauss)
       state          XX          YY          ZZ    R(velocity)    E-M Angle
         1         0.0000     -0.0000      0.0000      0.0000       90.00
 1/2[<0|r|b>*<b|rxdel|0> + (<0|rxdel|b>*<b|r|0>)*]
 Rotatory Strengths (R) in cgs (10**-40 erg-esu-cm/Gauss)
       state          XX          YY          ZZ     R(length)
         1         0.0000      0.0000      0.0000      0.0000
  1/2[<0|del|b>*<b|r|0> + (<0|r|b>*<b|del|0>)*] (Au)
       state          X           Y           Z        Dip. S.   Osc.(frdel)
         1        -0.0218     -0.0121      0.0000      0.0339      0.0226

 Excitation energies and oscillator strengths:
 
 Excited State   1:      Singlet-A'     2.6379 eV  470.02 nm  f=0.0203  <S**2>=0.000
      47 -> 48         0.70334
 This state for optimization and/or second-order correction.
 Total Energy, E(TD-HF/TD-DFT) =  -539.654540706    
 Copying the excited state density for this state as the 1-particle RhoCI density.
 SavETr:  write IOETrn=   770 NScale= 10 NData=  16 NLR=1 NState=    1 LETran=      28.

 **********************************************************************

            Population analysis using the SCF Density.

 **********************************************************************

 Orbital symmetries:
       Occupied  (A') (A') (A') (A') (A') (A') (A') (A') (A') (A')
                 (A') (A') (A') (A') (A') (A') (A') (A') (A') (A')
                 (A') (A') (A') (A') (A') (A') (A') (A') (A') (A')
                 (A') (A') (A") (A') (A') (A') (A') (A") (A") (A')
                 (A') (A') (A') (A") (A") (A") (A")
       Virtual   (A") (A") (A") (A") (A') (A') (A') (A') (A") (A')
                 (A') (A") (A') (A') (A") (A') (A") (A') (A') (A')
                 (A") (A") (A') (A') (A') (A") (A') (A") (A') (A')
                 (A") (A') (A") (A') (A') (A') (A') (A') (A") (A')
                 (A") (A') (A') (A") (A") (A') (A") (A') (A") (A')
                 (A') (A') (A') (A') (A') (A") (A') (A') (A') (A')
                 (A') (A") (A') (A') (A') (A") (A') (A') (A') (A')
                 (A') (A') (A') (A') (A') (A') (A') (A') (A') (A')
                 (A') (A') (A') (A') (A') (A') (A') (A') (A') (A')
                 (A') (A') (A') (A') (A") (A') (A") (A") (A') (A")
                 (A') (A') (A') (A') (A") (A") (A') (A") (A") (A')
                 (A') (A") (A') (A') (A') (A") (A') (A") (A') (A")
                 (A") (A') (A") (A') (A') (A') (A") (A') (A') (A')
                 (A') (A') (A') (A') (A') (A') (A') (A') (A') (A')
                 (A') (A') (A') (A") (A') (A') (A') (A') (A') (A')
                 (A') (A") (A') (A') (A") (A') (A") (A") (A') (A")
                 (A") (A') (A') (A") (A") (A') (A") (A") (A') (A')
                 (A') (A') (A") (A') (A') (A") (A') (A') (A') (A")
                 (A') (A') (A') (A") (A') (A") (A') (A") (A') (A")
                 (A") (A') (A') (A") (A') (A") (A') (A') (A') (A')
                 (A") (A") (A") (A') (A") (A') (A') (A") (A') (A')
                 (A') (A") (A") (A') (A") (A') (A") (A') (A') (A")
                 (A') (A') (A') (A') (A") (A') (A') (A') (A") (A")
                 (A') (A') (A') (A") (A') (A') (A') (A") (A") (A')
                 (A") (A') (A') (A") (A') (A') (A') (A') (A') (A')
                 (A") (A') (A') (A') (A') (A") (A") (A") (A') (A')
                 (A') (A') (A') (A') (A') (A') (A") (A') (A') (A')
                 (A') (A") (A') (A") (A") (A") (A') (A") (A') (A")
                 (A') (A") (A") (A') (A") (A") (A') (A') (A') (A')
                 (A') (A') (A') (A') (A') (A') (A') (A') (A') (A')
                 (A') (A') (A') (A") (A') (A') (A') (A') (A') (A')
                 (A') (A') (A') (A') (A') (A') (A') (A') (A') (A')
                 (A') (A') (A') (A') (A') (A') (A') (A') (A') (A')
                 (A') (A')
 The electronic state is 1-A'.
 Alpha  occ. eigenvalues --  -10.77603 -10.73635 -10.72852 -10.72809 -10.71997
 Alpha  occ. eigenvalues --  -10.71940 -10.71610 -10.71026 -10.71007 -10.70136
 Alpha  occ. eigenvalues --  -10.70097 -10.69844 -10.69736 -10.69483  -1.16560
 Alpha  occ. eigenvalues --   -1.12503  -1.06900  -1.05854  -1.01334  -1.00513
 Alpha  occ. eigenvalues --   -0.95518  -0.91009  -0.86469  -0.85879  -0.83807
 Alpha  occ. eigenvalues --   -0.78303  -0.76172  -0.74338  -0.69684  -0.69318
 Alpha  occ. eigenvalues --   -0.68382  -0.68103  -0.68084  -0.65216  -0.64347
 Alpha  occ. eigenvalues --   -0.62706  -0.61592  -0.60488  -0.59231  -0.59132
 Alpha  occ. eigenvalues --   -0.56936  -0.55377  -0.54458  -0.52421  -0.47388
 Alpha  occ. eigenvalues --   -0.46136  -0.43715
 Alpha virt. eigenvalues --   -0.26101  -0.14742  -0.14028  -0.12749  -0.11188
 Alpha virt. eigenvalues --   -0.10092  -0.09254  -0.07963  -0.07920  -0.07486
 Alpha virt. eigenvalues --   -0.07210  -0.07135  -0.05649  -0.05574  -0.05347
 Alpha virt. eigenvalues --   -0.03852  -0.03664  -0.03282  -0.03131  -0.02156
 Alpha virt. eigenvalues --   -0.01347  -0.00964   0.00185   0.00594   0.00645
 Alpha virt. eigenvalues --    0.01064   0.01502   0.01958   0.02140   0.02295
 Alpha virt. eigenvalues --    0.02449   0.02669   0.02777   0.03227   0.03465
 Alpha virt. eigenvalues --    0.04218   0.04473   0.04708   0.05036   0.05391
 Alpha virt. eigenvalues --    0.06021   0.06291   0.06573   0.07060   0.07268
 Alpha virt. eigenvalues --    0.07909   0.08123   0.08350   0.08604   0.08905
 Alpha virt. eigenvalues --    0.09434   0.09634   0.09943   0.10803   0.10991
 Alpha virt. eigenvalues --    0.11117   0.12079   0.12273   0.12709   0.13058
 Alpha virt. eigenvalues --    0.13448   0.13520   0.14026   0.14224   0.15925
 Alpha virt. eigenvalues --    0.16318   0.16427   0.17310   0.17467   0.17714
 Alpha virt. eigenvalues --    0.18095   0.19010   0.19317   0.19680   0.20036
 Alpha virt. eigenvalues --    0.21514   0.21594   0.22680   0.23134   0.23580
 Alpha virt. eigenvalues --    0.23976   0.24551   0.25378   0.26922   0.27626
 Alpha virt. eigenvalues --    0.28876   0.29305   0.29883   0.31375   0.35836
 Alpha virt. eigenvalues --    0.36334   0.38223   0.39293   0.41025   0.41295
 Alpha virt. eigenvalues --    0.41981   0.41999   0.43001   0.43662   0.44385
 Alpha virt. eigenvalues --    0.45005   0.45124   0.45789   0.46441   0.47858
 Alpha virt. eigenvalues --    0.48390   0.48754   0.49091   0.50537   0.51114
 Alpha virt. eigenvalues --    0.51188   0.52128   0.52185   0.52745   0.54116
 Alpha virt. eigenvalues --    0.54152   0.54693   0.55579   0.55935   0.57534
 Alpha virt. eigenvalues --    0.58230   0.59024   0.61524   0.62099   0.62493
 Alpha virt. eigenvalues --    0.63179   0.63471   0.64892   0.65272   0.67583
 Alpha virt. eigenvalues --    0.70196   0.70483   0.71241   0.72535   0.72930
 Alpha virt. eigenvalues --    0.75496   0.76107   0.76561   0.76726   0.77095
 Alpha virt. eigenvalues --    0.77925   0.78046   0.78293   0.79936   0.80371
 Alpha virt. eigenvalues --    0.81289   0.81535   0.82442   0.83040   0.85276
 Alpha virt. eigenvalues --    0.87040   0.88073   0.88183   0.89332   0.90516
 Alpha virt. eigenvalues --    0.91079   0.91566   0.93318   0.94584   0.96246
 Alpha virt. eigenvalues --    0.96986   1.00242   1.01371   1.01541   1.02773
 Alpha virt. eigenvalues --    1.02993   1.03400   1.04880   1.06259   1.08905
 Alpha virt. eigenvalues --    1.19657   1.22889   1.23668   1.24262   1.28834
 Alpha virt. eigenvalues --    1.29443   1.32441   1.34232   1.35722   1.35972
 Alpha virt. eigenvalues --    1.39178   1.39868   1.40921   1.42724   1.43504
 Alpha virt. eigenvalues --    1.43587   1.44201   1.46401   1.46554   1.46702
 Alpha virt. eigenvalues --    1.47605   1.48337   1.51845   1.53666   1.55384
 Alpha virt. eigenvalues --    1.55804   1.56470   1.56958   1.57886   1.61477
 Alpha virt. eigenvalues --    1.62956   1.63443   1.64207   1.66068   1.68308
 Alpha virt. eigenvalues --    1.68409   1.68740   1.69853   1.74443   1.76075
 Alpha virt. eigenvalues --    1.77098   1.77970   1.79509   1.79943   1.81495
 Alpha virt. eigenvalues --    1.82837   1.83188   1.83504   1.83650   1.84224
 Alpha virt. eigenvalues --    1.84837   1.85383   1.86525   1.88369   1.91430
 Alpha virt. eigenvalues --    1.92158   1.93865   1.95728   1.97755   1.98241
 Alpha virt. eigenvalues --    1.99728   2.02468   2.04760   2.07215   2.11675
 Alpha virt. eigenvalues --    2.12264   2.14332   2.15269   2.19049   2.21244
 Alpha virt. eigenvalues --    2.22711   2.28380   2.30411   2.34270   2.34804
 Alpha virt. eigenvalues --    2.36292   2.38646   2.39610   2.42339   2.44350
 Alpha virt. eigenvalues --    2.46017   2.46581   2.49345   2.52879   2.53684
 Alpha virt. eigenvalues --    2.54457   2.56801   2.57964   2.58398   2.59406
 Alpha virt. eigenvalues --    2.59936   2.61453   2.62068   2.63378   2.63715
 Alpha virt. eigenvalues --    2.64909   2.65049   2.65258   2.65501   2.67874
 Alpha virt. eigenvalues --    2.68756   2.70963   2.71535   2.73362   2.74791
 Alpha virt. eigenvalues --    2.76302   2.78329   2.79631   2.83087   2.83239
 Alpha virt. eigenvalues --    2.85030   2.86288   2.92103   2.97079   2.99478
 Alpha virt. eigenvalues --    3.00091   3.05040   3.08908   3.11174   3.14704
 Alpha virt. eigenvalues --    3.20777   3.21852   3.26311   3.28465   3.30503
 Alpha virt. eigenvalues --    3.32888   3.35067   3.44132   3.46523   3.46727
 Alpha virt. eigenvalues --    3.48363   3.50758   3.56653   3.65498   3.66607
 Alpha virt. eigenvalues --    3.68149   3.93801   3.93864   3.95266   3.96329
 Alpha virt. eigenvalues --    4.03992   4.06212   4.07841   4.12473   4.35259
 Alpha virt. eigenvalues --    4.61028   4.68523   4.71457  23.45157  23.60139
 Alpha virt. eigenvalues --   23.79270  23.83465  23.84682  23.89714  23.89873
 Alpha virt. eigenvalues --   23.94591  23.95695  23.97222  24.04131  24.08223
 Alpha virt. eigenvalues --   24.11100  24.15348
          Condensed to atoms (all electrons):
               1          2          3          4          5          6
     1  C    8.273127   0.513513  -0.628732   1.702889  -0.030837  -0.084401
     2  C    0.513513   7.215265   0.433262  -1.024874  -0.043057  -0.015277
     3  C   -0.628732   0.433262   6.613560   0.733034  -0.114758   0.016979
     4  C    1.702889  -1.024874   0.733034  11.249044  -0.367473  -0.131883
     5  C   -0.030837  -0.043057  -0.114758  -0.367473  10.810670   0.803532
     6  C   -0.084401  -0.015277   0.016979  -0.131883   0.803532   6.582332
     7  C   -0.025663   0.000912  -0.013507   0.008500  -1.143859   0.253312
     8  C    0.400555  -0.011790  -0.106495  -0.047201   2.263964  -0.422353
     9  C   -1.081666  -0.857354   0.290465   0.043816  -0.440396   0.291794
    10  C   -1.177045   0.148943  -0.260739  -2.696410  -2.433628  -0.446040
    11  C    0.408392  -0.850761   0.900876   0.015662  -1.569557  -0.113443
    12  C   -1.851391   1.125467  -1.401079  -1.784679  -0.062717  -0.280275
    13  C    0.279530  -0.225162  -0.233247  -1.458787  -0.593922   1.098172
    14  C   -1.186898  -0.277859  -0.115344  -0.602333  -1.438164  -1.424676
    15  H    0.365879  -0.102561  -0.002805   0.023281   0.006737   0.001241
    16  H   -0.019285   0.381666  -0.020589   0.018573  -0.001759  -0.000361
    17  H   -0.018464  -0.023489   0.383479  -0.070403   0.000116   0.000415
    18  H    0.046458   0.003306  -0.084129   0.468807   0.005786  -0.005006
    19  H   -0.041632  -0.007378   0.050831  -0.077624  -0.064870   0.051575
    20  H    0.006824   0.002111  -0.005215   0.006590   0.450269  -0.083870
    21  H   -0.001201  -0.000418   0.000383   0.000510  -0.065403   0.366636
    22  H    0.000372   0.000316  -0.000295  -0.001315   0.009241  -0.012645
    23  H    0.006332  -0.002321   0.000961   0.004467   0.030921   0.000587
    24  H    0.039562   0.016044  -0.001048  -0.010086  -0.014638  -0.002012
    25  H    0.039562   0.016044  -0.001048  -0.010086  -0.014638  -0.002012
               7          8          9         10         11         12
     1  C   -0.025663   0.400555  -1.081666  -1.177045   0.408392  -1.851391
     2  C    0.000912  -0.011790  -0.857354   0.148943  -0.850761   1.125467
     3  C   -0.013507  -0.106495   0.290465  -0.260739   0.900876  -1.401079
     4  C    0.008500  -0.047201   0.043816  -2.696410   0.015662  -1.784679
     5  C   -1.143859   2.263964  -0.440396  -2.433628  -1.569557  -0.062717
     6  C    0.253312  -0.422353   0.291794  -0.446040  -0.113443  -0.280275
     7  C    7.122738   0.060129  -0.764101   0.353319  -0.275461  -0.110553
     8  C    0.060129   8.995997  -1.233954  -1.388452   0.154710  -0.973767
     9  C   -0.764101  -1.233954   9.625207   0.250779   1.727875  -2.233752
    10  C    0.353319  -1.388452   0.250779   9.144963  -0.346075   2.415452
    11  C   -0.275461   0.154710   1.727875  -0.346075  14.573565  -4.346685
    12  C   -0.110553  -0.973767  -2.233752   2.415452  -4.346685  16.682055
    13  C   -0.946189   0.190496   1.447174  -0.535923   1.086877  -4.770129
    14  C    1.603694  -2.390707  -1.647017   2.424619  -4.801129   3.071045
    15  H   -0.002958   0.005254   0.085931  -0.006842  -0.031236  -0.010001
    16  H    0.000402   0.001046   0.002203  -0.010719   0.025739  -0.032382
    17  H   -0.000373  -0.001445  -0.004245   0.019312  -0.022441   0.081329
    18  H    0.002011   0.007263  -0.021480   0.004377  -0.006516  -0.045089
    19  H   -0.007989  -0.050580   0.074650   0.421546   0.075816  -0.094394
    20  H    0.002234   0.053832  -0.027101   0.018967  -0.012229  -0.003871
    21  H   -0.006795  -0.032921  -0.006982   0.021356  -0.006322   0.005385
    22  H    0.374177  -0.018527   0.004128  -0.007960   0.002453  -0.007439
    23  H   -0.109552   0.370496   0.095834  -0.012328   0.007528   0.005519
    24  H    0.012808   0.024368   0.357583   0.005652   0.024741  -0.059124
    25  H    0.012808   0.024368   0.357583   0.005652   0.024741  -0.059124
              13         14         15         16         17         18
     1  C    0.279530  -1.186898   0.365879  -0.019285  -0.018464   0.046458
     2  C   -0.225162  -0.277859  -0.102561   0.381666  -0.023489   0.003306
     3  C   -0.233247  -0.115344  -0.002805  -0.020589   0.383479  -0.084129
     4  C   -1.458787  -0.602333   0.023281   0.018573  -0.070403   0.468807
     5  C   -0.593922  -1.438164   0.006737  -0.001759   0.000116   0.005786
     6  C    1.098172  -1.424676   0.001241  -0.000361   0.000415  -0.005006
     7  C   -0.946189   1.603694  -0.002958   0.000402  -0.000373   0.002011
     8  C    0.190496  -2.390707   0.005254   0.001046  -0.001445   0.007263
     9  C    1.447174  -1.647017   0.085931   0.002203  -0.004245  -0.021480
    10  C   -0.535923   2.424619  -0.006842  -0.010719   0.019312   0.004377
    11  C    1.086877  -4.801129  -0.031236   0.025739  -0.022441  -0.006516
    12  C   -4.770129   3.071045  -0.010001  -0.032382   0.081329  -0.045089
    13  C   14.458892  -3.208085  -0.004304   0.003506  -0.006306  -0.012522
    14  C   -3.208085  15.582416   0.007412  -0.010729   0.005246  -0.025167
    15  H   -0.004304   0.007412   0.435268  -0.008879   0.001676   0.000220
    16  H    0.003506  -0.010729  -0.008879   0.415102  -0.007129   0.002058
    17  H   -0.006306   0.005246   0.001676  -0.007129   0.422013  -0.010803
    18  H   -0.012522  -0.025167   0.000220   0.002058  -0.010803   0.448718
    19  H    0.083761  -0.038157   0.000417  -0.000597   0.001751  -0.005627
    20  H   -0.005485  -0.066402  -0.000130   0.000021  -0.000173   0.001267
    21  H   -0.030505   0.099860   0.000016  -0.000007   0.000010  -0.000116
    22  H    0.026495  -0.031683  -0.000124   0.000007  -0.000007   0.000010
    23  H   -0.031717  -0.037899   0.000570  -0.000129   0.000010  -0.000098
    24  H    0.002184  -0.060884  -0.001051   0.000613  -0.000130   0.000126
    25  H    0.002184  -0.060884  -0.001051   0.000613  -0.000130   0.000126
              19         20         21         22         23         24
     1  C   -0.041632   0.006824  -0.001201   0.000372   0.006332   0.039562
     2  C   -0.007378   0.002111  -0.000418   0.000316  -0.002321   0.016044
     3  C    0.050831  -0.005215   0.000383  -0.000295   0.000961  -0.001048
     4  C   -0.077624   0.006590   0.000510  -0.001315   0.004467  -0.010086
     5  C   -0.064870   0.450269  -0.065403   0.009241   0.030921  -0.014638
     6  C    0.051575  -0.083870   0.366636  -0.012645   0.000587  -0.002012
     7  C   -0.007989   0.002234  -0.006795   0.374177  -0.109552   0.012808
     8  C   -0.050580   0.053832  -0.032921  -0.018527   0.370496   0.024368
     9  C    0.074650  -0.027101  -0.006982   0.004128   0.095834   0.357583
    10  C    0.421546   0.018967   0.021356  -0.007960  -0.012328   0.005652
    11  C    0.075816  -0.012229  -0.006322   0.002453   0.007528   0.024741
    12  C   -0.094394  -0.003871   0.005385  -0.007439   0.005519  -0.059124
    13  C    0.083761  -0.005485  -0.030505   0.026495  -0.031717   0.002184
    14  C   -0.038157  -0.066402   0.099860  -0.031683  -0.037899  -0.060884
    15  H    0.000417  -0.000130   0.000016  -0.000124   0.000570  -0.001051
    16  H   -0.000597   0.000021  -0.000007   0.000007  -0.000129   0.000613
    17  H    0.001751  -0.000173   0.000010  -0.000007   0.000010  -0.000130
    18  H   -0.005627   0.001267  -0.000116   0.000010  -0.000098   0.000126
    19  H    0.443928  -0.007044   0.001107  -0.000486   0.000208   0.000607
    20  H   -0.007044   0.459041  -0.009682   0.001795   0.000088   0.000238
    21  H    0.001107  -0.009682   0.422950  -0.005912   0.001212  -0.000152
    22  H   -0.000486   0.001795  -0.005912   0.423139  -0.008799   0.000639
    23  H    0.000208   0.000088   0.001212  -0.008799   0.443340  -0.000727
    24  H    0.000607   0.000238  -0.000152   0.000639  -0.000727   0.493013
    25  H    0.000607   0.000238  -0.000152   0.000639  -0.000727  -0.079140
              25
     1  C    0.039562
     2  C    0.016044
     3  C   -0.001048
     4  C   -0.010086
     5  C   -0.014638
     6  C   -0.002012
     7  C    0.012808
     8  C    0.024368
     9  C    0.357583
    10  C    0.005652
    11  C    0.024741
    12  C   -0.059124
    13  C    0.002184
    14  C   -0.060884
    15  H   -0.001051
    16  H    0.000613
    17  H   -0.000130
    18  H    0.000126
    19  H    0.000607
    20  H    0.000238
    21  H   -0.000152
    22  H    0.000639
    23  H   -0.000727
    24  H   -0.079140
    25  H    0.493013
 Mulliken charges:
               1
     1  C    0.064221
     2  C   -0.414548
     3  C   -0.434801
     4  C    0.007981
     5  C    0.018442
     6  C   -0.442324
     7  C   -0.400042
     8  C    0.125711
     9  C   -0.336974
    10  C    0.087225
    11  C   -0.647122
    12  C    0.740201
    13  C   -0.616985
    14  C    0.629725
    15  H    0.238040
    16  H    0.261015
    17  H    0.250180
    18  H    0.226020
    19  H    0.189573
    20  H    0.217687
    21  H    0.247143
    22  H    0.251780
    23  H    0.236225
    24  H    0.250814
    25  H    0.250814
 Sum of Mulliken charges =   1.00000
 Mulliken charges with hydrogens summed into heavy atoms:
               1
     1  C    0.302261
     2  C   -0.153533
     3  C   -0.184621
     4  C    0.234001
     5  C    0.236129
     6  C   -0.195181
     7  C   -0.148262
     8  C    0.361936
     9  C    0.164653
    10  C    0.276798
    11  C   -0.647122
    12  C    0.740201
    13  C   -0.616985
    14  C    0.629725
 Electronic spatial extent (au):  <R**2>=           2856.1698
 Charge=              1.0000 electrons
 Dipole moment (field-independent basis, Debye):
    X=             -0.2852    Y=             -0.8897    Z=             -0.0000  Tot=              0.9343
 Quadrupole moment (field-independent basis, Debye-Ang):
   XX=            -51.1605   YY=            -36.1527   ZZ=            -84.1294
   XY=             10.1685   XZ=              0.0000   YZ=             -0.0000
 Traceless Quadrupole moment (field-independent basis, Debye-Ang):
   XX=              5.9871   YY=             20.9948   ZZ=            -26.9819
   XY=             10.1685   XZ=              0.0000   YZ=             -0.0000
 Octapole moment (field-independent basis, Debye-Ang**2):
  XXX=             -3.2437  YYY=             -1.9395  ZZZ=             -0.0000  XYY=             -1.9227
  XXY=             -7.6188  XXZ=             -0.0000  XZZ=             -3.4622  YZZ=              0.0635
  YYZ=             -0.0000  XYZ=              0.0000
 Hexadecapole moment (field-independent basis, Debye-Ang**3):
 XXXX=           -991.1037 YYYY=          -1846.1340 ZZZZ=            -99.3136 XXXY=           -348.6660
 XXXZ=              0.0000 YYYX=           -274.9793 YYYZ=             -0.0000 ZZZX=              0.0000
 ZZZY=              0.0000 XXYY=           -454.5352 XXZZ=           -241.7880 YYZZ=           -494.5669
 XXYZ=             -0.0000 YYXZ=              0.0000 ZZXY=           -183.0859
 N-N= 7.812655025426D+02 E-N=-2.798889472627D+03  KE= 5.375396771462D+02
 Symmetry A'   KE= 5.228853009830D+02
 Symmetry A"   KE= 1.465437616328D+01
 Unable to Open any file for archive entry.
 1\1\GINC-GADI-CPU-CLX-2461\SP\RM062X TD-FC\6-311++G(d,p)\C14H11(1+)\TS
 1578\27-Jul-2022\0\\#n M062X/6-311++G(d,p) TD(NStates=1) EmpiricalDisp
 ersion=GD3 SP\\SP_4\\1,1\C,0,0.,2.470255,1.360831\C,0,0.,3.670308,0.65
 8789\C,0,0.,3.668661,-0.73983\C,0,0.,2.495956,-1.421538\C,0,0.,-2.4303
 56,-1.393538\C,0,0.,-3.699061,-0.68783\C,0,0.,-3.732708,0.685189\C,0,0
 .,-2.515055,1.360031\C,0,0.,-0.016,1.453369\C,0,0.,0.04,-1.429189\C,0,
 0.,1.278455,0.688665\C,0,0.,1.255471,-0.725204\C,0,0.,-1.245655,0.6654
 65\C,0,0.,-1.219471,-0.736404\H,0,0.,2.467671,2.443647\H,0,0.,4.601553
 ,1.206489\H,0,0.,4.602062,-1.283549\H,0,0.,2.49595,-2.503659\H,0,0.,0.
 046,-2.510266\H,0,0.,-2.43915,-2.476459\H,0,0.,-4.616462,-1.261149\H,0
 ,0.,-4.671953,1.216889\H,0,0.,-2.508471,2.443647\H,0,-0.859585,-0.0808
 ,2.145787\H,0,0.859585,-0.0808,2.145787\\Version=ES64L-G16RevC.01\Stat
 e=1-A'\HF=-539.7514808\RMSD=3.341e-09\PG=CS [SG(C14H9),X(H2)]\\@
 The archive entry for this job was punched.


 Change starts when someone sees the next step.
                            -- William Drayton
 Job cpu time:       0 days  0 hours 45 minutes 39.6 seconds.
 Elapsed time:       0 days  0 hours  1 minutes 25.9 seconds.
 File lengths (MBytes):  RWF=    460 Int=      0 D2E=      0 Chk=     15 Scr=      1
 Normal termination of Gaussian 16 at Wed Jul 27 13:11:58 2022.
