 Entering Gaussian System, Link 0=g16
 Initial command:
 /apps/gaussian/g16c01/g16/l1.exe "/jobfs/52822737.gadi-pbs/Gau-2061111.inp" -scrdir="/jobfs/52822737.gadi-pbs/"
 Entering Link 1 = /apps/gaussian/g16c01/g16/l1.exe PID=   2061112.
  
 Copyright (c) 1988-2019, Gaussian, Inc.  All Rights Reserved.
  
 This is part of the Gaussian(R) 16 program.  It is based on
 the Gaussian(R) 09 system (copyright 2009, Gaussian, Inc.),
 the Gaussian(R) 03 system (copyright 2003, Gaussian, Inc.),
 the Gaussian(R) 98 system (copyright 1998, Gaussian, Inc.),
 the Gaussian(R) 94 system (copyright 1995, Gaussian, Inc.),
 the Gaussian 92(TM) system (copyright 1992, Gaussian, Inc.),
 the Gaussian 90(TM) system (copyright 1990, Gaussian, Inc.),
 the Gaussian 88(TM) system (copyright 1988, Gaussian, Inc.),
 the Gaussian 86(TM) system (copyright 1986, Carnegie Mellon
 University), and the Gaussian 82(TM) system (copyright 1983,
 Carnegie Mellon University). Gaussian is a federally registered
 trademark of Gaussian, Inc.
  
 This software contains proprietary and confidential information,
 including trade secrets, belonging to Gaussian, Inc.
  
 This software is provided under written license and may be
 used, copied, transmitted, or stored only in accord with that
 written license.
  
 The following legend is applicable only to US Government
 contracts under FAR:
  
                    RESTRICTED RIGHTS LEGEND
  
 Use, reproduction and disclosure by the US Government is
 subject to restrictions as set forth in subparagraphs (a)
 and (c) of the Commercial Computer Software - Restricted
 Rights clause in FAR 52.227-19.
  
 Gaussian, Inc.
 340 Quinnipiac St., Bldg. 40, Wallingford CT 06492
  
  
 ---------------------------------------------------------------
 Warning -- This program may not be used in any manner that
 competes with the business of Gaussian, Inc. or will provide
 assistance to any competitor of Gaussian, Inc.  The licensee
 of this program is prohibited from giving any competitor of
 Gaussian, Inc. access to this program.  By using this program,
 the user acknowledges that Gaussian, Inc. is engaged in the
 business of creating and licensing software in the field of
 computational chemistry and represents and warrants to the
 licensee that it is not a competitor of Gaussian, Inc. and that
 it will not use this program in any manner prohibited above.
 ---------------------------------------------------------------
  

 Cite this work as:
 Gaussian 16, Revision C.01,
 M. J. Frisch, G. W. Trucks, H. B. Schlegel, G. E. Scuseria, 
 M. A. Robb, J. R. Cheeseman, G. Scalmani, V. Barone, 
 G. A. Petersson, H. Nakatsuji, X. Li, M. Caricato, A. V. Marenich, 
 J. Bloino, B. G. Janesko, R. Gomperts, B. Mennucci, H. P. Hratchian, 
 J. V. Ortiz, A. F. Izmaylov, J. L. Sonnenberg, D. Williams-Young, 
 F. Ding, F. Lipparini, F. Egidi, J. Goings, B. Peng, A. Petrone, 
 T. Henderson, D. Ranasinghe, V. G. Zakrzewski, J. Gao, N. Rega, 
 G. Zheng, W. Liang, M. Hada, M. Ehara, K. Toyota, R. Fukuda, 
 J. Hasegawa, M. Ishida, T. Nakajima, Y. Honda, O. Kitao, H. Nakai, 
 T. Vreven, K. Throssell, J. A. Montgomery, Jr., J. E. Peralta, 
 F. Ogliaro, M. J. Bearpark, J. J. Heyd, E. N. Brothers, K. N. Kudin, 
 V. N. Staroverov, T. A. Keith, R. Kobayashi, J. Normand, 
 K. Raghavachari, A. P. Rendell, J. C. Burant, S. S. Iyengar, 
 J. Tomasi, M. Cossi, J. M. Millam, M. Klene, C. Adamo, R. Cammi, 
 J. W. Ochterski, R. L. Martin, K. Morokuma, O. Farkas, 
 J. B. Foresman, and D. J. Fox, Gaussian, Inc., Wallingford CT, 2019.
 
 ******************************************
 Gaussian 16:  ES64L-G16RevC.01  3-Jul-2019
                27-Jul-2022 
 ******************************************
 %NProcShared=32
 Will use up to   32 processors via shared memory.
 %mem = 128GB
 ---------------------------------------------------------------
 #n M062X/6-311++G(d,p) TD(NStates=1) EmpiricalDispersion=GD3 SP
 ---------------------------------------------------------------
 1/38=1,172=1/1;
 2/12=2,17=6,18=5,40=1/2;
 3/5=4,6=6,7=1111,11=9,25=1,30=1,74=-55,124=31/1,2,3,8;
 4//1;
 5/5=2,38=5/2;
 8/6=1,10=2,108=1/1;
 9/41=1,42=1,70=2/14;
 6/7=2,8=2,9=2,10=2/1;
 99/5=1,9=1/99;
 -----
 SP_16
 -----
 Symbolic Z-matrix:
 Charge =  1 Multiplicity = 1
 C                     0.        2.50546   1.36203 
 C                     0.        3.69191   0.67039 
 C                     0.        3.68066  -0.71543 
 C                     0.        2.46636  -1.41234 
 C                     0.       -2.45996  -1.40274 
 C                     0.       -3.68706  -0.71223 
 C                     0.       -3.71111   0.67359 
 C                     0.       -2.47986   1.35883 
 C                     0.       -0.0128    1.45337 
 C                     0.       -0.0256   -1.42919 
 C                     0.        1.27006   0.65307 
 C                     0.        1.25187  -0.702 
 C                     0.       -1.25406   0.70107 
 C                     0.       -1.22307  -0.7596 
 H                     0.        2.43847   2.44365 
 H                     0.        4.61115   1.23569 
 H                     0.        4.58686  -1.30435 
 H                     0.        2.52355  -2.49326 
 H                     0.        0.024    -2.51027 
 H                     0.       -2.41155  -2.48686 
 H                     0.       -4.63166  -1.24035 
 H                     0.       -4.66235   1.18769 
 H                     0.       -2.53767   2.44365 
 H                    -0.85959  -0.0416    2.14579 
 H                     0.85959  -0.0416    2.14579 
 
                          Input orientation:                          
 ---------------------------------------------------------------------
 Center     Atomic      Atomic             Coordinates (Angstroms)
 Number     Number       Type             X           Y           Z
 ---------------------------------------------------------------------
      1          6           0        0.000000    2.505455    1.362031
      2          6           0        0.000000    3.691908    0.670389
      3          6           0        0.000000    3.680661   -0.715430
      4          6           0        0.000000    2.466356   -1.412338
      5          6           0        0.000000   -2.459956   -1.402738
      6          6           0        0.000000   -3.687061   -0.712230
      7          6           0        0.000000   -3.711108    0.673589
      8          6           0        0.000000   -2.479855    1.358831
      9          6           0        0.000000   -0.012800    1.453369
     10          6           0        0.000000   -0.025600   -1.429189
     11          6           0        0.000000    1.270055    0.653065
     12          6           0        0.000000    1.251871   -0.702004
     13          6           0        0.000000   -1.254055    0.701065
     14          6           0        0.000000   -1.223071   -0.759604
     15          1           0        0.000000    2.438471    2.443647
     16          1           0        0.000000    4.611153    1.235689
     17          1           0        0.000000    4.586862   -1.304349
     18          1           0        0.000000    2.523550   -2.493259
     19          1           0        0.000000    0.024000   -2.510266
     20          1           0        0.000000   -2.411550   -2.486859
     21          1           0        0.000000   -4.631662   -1.240349
     22          1           0        0.000000   -4.662353    1.187689
     23          1           0        0.000000   -2.537671    2.443647
     24          1           0       -0.859585   -0.041600    2.145787
     25          1           0        0.859585   -0.041600    2.145787
 ---------------------------------------------------------------------
                    Distance matrix (angstroms):
                    1          2          3          4          5
     1  C    0.000000
     2  C    1.373331   0.000000
     3  C    2.386829   1.385865   0.000000
     4  C    2.774644   2.416553   1.400078   0.000000
     5  C    5.683243   6.491786   6.178962   4.926321   0.000000
     6  C    6.530682   7.507384   7.367723   6.193117   1.408044
     7  C    6.254567   7.403017   7.521145   6.520134   2.424152
     8  C    4.985311   6.210041   6.500347   5.669601   2.761641
     9  C    2.519911   3.786544   4.283146   3.789260   3.761106
    10  C    3.767910   4.269437   3.774364   2.492013   2.434500
    11  C    1.424376   2.421915   2.771967   2.386844   4.259027
    12  C    2.414894   2.799508   2.428827   1.406964   3.777392
    13  C    3.817171   4.946058   5.133993   4.278777   2.424909
    14  C    4.289900   5.118779   4.903931   3.746723   1.394097
    15  H    1.083688   2.171531   3.394526   3.856086   6.228103
    16  H    2.109485   1.079155   2.161638   3.407668   7.547309
    17  H    3.382579   2.168071   1.080752   2.123254   7.047505
    18  H    3.855332   3.372496   2.121222   1.082433   5.101428
    19  H    4.599163   4.854906   4.073402   2.677788   2.719679
    20  H    6.244269   6.871711   6.344525   4.994854   1.085201
    21  H    7.596764   8.540067   8.328881   7.100101   2.177769
    22  H    7.169928   8.370261   8.557321   7.588059   3.400127
    23  H    5.157811   6.477044   6.974770   6.317350   3.847170
    24  H    2.800116   4.105456   4.772911   4.437227   4.379425
    25  H    2.800116   4.105456   4.772911   4.437227   4.379425
                    6          7          8          9         10
     6  C    0.000000
     7  C    1.386028   0.000000
     8  C    2.397215   1.409092   0.000000
     9  C    4.264975   3.779622   2.468866   0.000000
    10  C    3.730995   4.243188   3.714354   2.882586   0.000000
    11  C    5.141695   4.981205   3.815748   1.512020   2.452448
    12  C    4.938943   5.150089   4.262959   2.499005   1.469942
    13  C    2.813702   2.457207   1.391130   1.451439   2.459082
    14  C    2.464445   2.871301   2.463183   2.522302   1.371962
    15  H    6.890697   6.399252   5.036542   2.643744   4.590262
    16  H    8.523775   8.341222   7.092077   4.629074   5.347995
    17  H    8.295083   8.530448   7.551888   5.363012   4.614151
    18  H    6.460941   6.992845   6.314480   4.691369   2.762320
    19  H    4.123701   4.907949   4.608601   3.963806   1.082214
    20  H    2.185460   3.417204   3.846297   4.612960   2.609870
    21  H    1.082211   2.123812   3.374316   5.346962   4.609931
    22  H    2.135623   1.081280   2.189198   4.657137   5.324240
    23  H    3.358669   2.123690   1.086356   2.712125   4.616206
    24  H    4.711320   4.046176   2.702457   1.104155   3.676900
    25  H    4.711320   4.046176   2.702457   1.104155   3.676900
                   11         12         13         14         15
    11  C    0.000000
    12  C    1.355191   0.000000
    13  C    2.524566   2.871980   0.000000
    14  C    2.865539   2.475612   1.460998   0.000000
    15  H    2.138079   3.362014   4.083055   4.864947   0.000000
    16  H    3.391517   3.878070   5.889524   6.165984   2.485902
    17  H    3.851322   3.388950   6.175597   5.835415   4.320076
    18  H    3.386828   2.196762   4.947121   4.128284   4.937639
    19  H    3.399899   2.185744   3.456309   2.149419   5.510982
    20  H    4.838733   4.075090   3.391556   2.096638   6.916111
    21  H    6.198006   5.908111   3.895808   3.442326   7.972365
    22  H    5.956449   6.208783   3.442862   3.952292   7.211042
    23  H    4.207726   4.925013   2.164316   3.462512   4.976142
    24  H    2.165074   3.243743   2.072717   3.252085   2.641658
    25  H    2.165074   3.243743   2.072717   3.252085   2.641658
                   16         17         18         19         20
    16  H    0.000000
    17  H    2.540154   0.000000
    18  H    4.273539   2.381336   0.000000
    19  H    5.922343   4.719528   2.499608   0.000000
    20  H    7.948316   7.097612   4.935104   2.435662   0.000000
    21  H    9.568720   9.218746   7.264079   4.825752   2.546112
    22  H    9.273630   9.579052   8.073821   5.969655   4.309109
    23  H    7.250162   8.050245   7.070290   5.577043   4.932119
    24  H    4.818223   5.836522   5.370254   4.735189   5.274178
    25  H    4.818223   5.836522   5.370254   4.735189   5.274178
                   21         22         23         24         25
    21  H    0.000000
    22  H    2.428232   0.000000
    23  H    4.237526   2.468138   0.000000
    24  H    5.768316   4.796686   2.656685   0.000000
    25  H    5.768316   4.796686   2.656685   1.719170   0.000000
 Stoichiometry    C14H11(1+)
 Framework group  CS[SG(C14H9),X(H2)]
 Deg. of freedom    46
 Full point group                 CS      NOp   2
 Largest Abelian subgroup         CS      NOp   2
 Largest concise Abelian subgroup CS      NOp   2
                         Standard orientation:                         
 ---------------------------------------------------------------------
 Center     Atomic      Atomic             Coordinates (Angstroms)
 Number     Number       Type             X           Y           Z
 ---------------------------------------------------------------------
      1          6           0        0.065876    2.851588    0.000000
      2          6           0       -1.091603    3.590697    0.000000
      3          6           0       -2.319036    2.947246    0.000000
      4          6           0       -2.383829    1.548669    0.000000
      5          6           0       -0.123510   -2.828499    0.000000
      6          6           0        1.051542   -3.604283    0.000000
      7          6           0        2.295108   -2.992223    0.000000
      8          6           0        2.341778   -1.583904    0.000000
      9          6           0        1.298189    0.653554    0.000000
     10          6           0       -1.259762   -0.675427    0.000000
     11          6           0        0.000000    1.428737    0.000000
     12          6           0       -1.196912    0.793171    0.000000
     13          6           0        1.196444   -0.794315    0.000000
     14          6           0       -0.116865   -1.434418    0.000000
     15          1           0        1.058503    3.286410    0.000000
     16          1           0       -1.008995    4.666686    0.000000
     17          1           0       -3.257050    3.484048    0.000000
     18          1           0       -3.371364    1.105457    0.000000
     19          1           0       -2.243964   -1.125464    0.000000
     20          1           0       -1.109874   -3.280989    0.000000
     21          1           0        1.013593   -4.685829    0.000000
     22          1           0        3.187165   -3.603288    0.000000
     23          1           0        3.333061   -1.139466    0.000000
     24          1           0        1.927203    0.944438    0.859585
     25          1           0        1.927203    0.944438   -0.859585
 ---------------------------------------------------------------------
 Rotational constants (GHZ):           2.1358946           0.4446105           0.3688059
 Standard basis: 6-311++G(d,p) (5D, 7F)
 There are   299 symmetry adapted cartesian basis functions of A'  symmetry.
 There are   100 symmetry adapted cartesian basis functions of A"  symmetry.
 There are   285 symmetry adapted basis functions of A'  symmetry.
 There are   100 symmetry adapted basis functions of A"  symmetry.
   385 basis functions,   603 primitive gaussians,   399 cartesian basis functions
    47 alpha electrons       47 beta electrons
       nuclear repulsion energy       781.2548253924 Hartrees.
 NAtoms=   25 NActive=   25 NUniq=   24 SFac= 1.09D+00 NAtFMM=   60 NAOKFM=F Big=F
 Integral buffers will be    131072 words long.
 Regular integral format.
 Two-electron integral symmetry is turned on.
 Nuclear repulsion after empirical dispersion term =      781.2538459504 Hartrees.
 One-electron integrals computed using PRISM.
 NBasis=   385 RedAO= T EigKep=  1.04D-06  NBF=   285   100
 NBsUse=   379 1.00D-06 EigRej=  8.25D-07 NBFU=   279   100
 ExpMin= 3.60D-02 ExpMax= 4.56D+03 ExpMxC= 6.82D+02 IAcc=3 IRadAn=         5 AccDes= 0.00D+00
 Harris functional with IExCor= 1009 and IRadAn=       5 diagonalized for initial guess.
 HarFok:  IExCor= 1009 AccDes= 0.00D+00 IRadAn=         5 IDoV= 1 UseB2=F ITyADJ=14
 ICtDFT=  3500011 ScaDFX=  1.000000  1.000000  1.000000  1.000000
 FoFCou: FMM=F IPFlag=           0 FMFlag=      100000 FMFlg1=           0
         NFxFlg=           0 DoJE=T BraDBF=F KetDBF=T FulRan=T
         wScrn=  0.000000 ICntrl=       500 IOpCl=  0 I1Cent=   200000004 NGrid=           0
         NMat0=    1 NMatS0=      1 NMatT0=    0 NMatD0=    1 NMtDS0=    0 NMtDT0=    0
 Petite list used in FoFCou.
 Initial guess orbital symmetries:
       Occupied  (A') (A') (A') (A') (A') (A') (A') (A') (A') (A')
                 (A') (A') (A') (A') (A') (A') (A') (A') (A') (A')
                 (A') (A') (A') (A') (A') (A') (A') (A') (A') (A')
                 (A') (A') (A") (A') (A') (A') (A') (A') (A") (A')
                 (A") (A') (A') (A") (A") (A") (A")
       Virtual   (A") (A") (A") (A") (A") (A') (A') (A') (A') (A")
                 (A") (A') (A') (A') (A") (A') (A') (A') (A') (A')
                 (A") (A") (A') (A') (A') (A") (A') (A') (A") (A')
                 (A') (A') (A') (A") (A') (A') (A") (A') (A') (A')
                 (A") (A') (A') (A") (A') (A') (A') (A') (A') (A")
                 (A') (A") (A") (A') (A') (A') (A') (A") (A") (A')
                 (A') (A') (A') (A') (A') (A') (A") (A') (A') (A")
                 (A') (A') (A') (A') (A') (A') (A') (A') (A') (A')
                 (A') (A') (A') (A') (A') (A') (A') (A') (A') (A')
                 (A') (A') (A') (A') (A') (A') (A') (A") (A") (A')
                 (A') (A") (A') (A") (A') (A") (A") (A') (A') (A")
                 (A') (A") (A') (A') (A") (A') (A') (A") (A") (A')
                 (A") (A") (A') (A') (A') (A") (A') (A') (A') (A")
                 (A') (A') (A') (A') (A') (A') (A") (A') (A') (A')
                 (A') (A') (A') (A') (A') (A') (A') (A') (A') (A")
                 (A") (A') (A") (A") (A') (A') (A') (A") (A") (A')
                 (A") (A') (A") (A") (A") (A') (A') (A') (A') (A')
                 (A') (A") (A') (A") (A') (A') (A') (A') (A') (A')
                 (A") (A') (A') (A') (A") (A') (A") (A') (A") (A")
                 (A") (A') (A') (A') (A") (A') (A') (A") (A') (A')
                 (A") (A") (A") (A') (A') (A") (A') (A") (A') (A')
                 (A") (A') (A") (A") (A') (A') (A") (A') (A') (A")
                 (A') (A') (A') (A') (A") (A') (A') (A') (A") (A")
                 (A') (A') (A') (A") (A') (A') (A") (A') (A") (A')
                 (A") (A') (A') (A') (A') (A") (A') (A') (A') (A")
                 (A') (A') (A') (A") (A") (A') (A') (A") (A') (A')
                 (A') (A") (A') (A") (A') (A') (A") (A') (A") (A')
                 (A') (A') (A') (A') (A") (A') (A") (A") (A') (A')
                 (A") (A') (A") (A") (A') (A") (A') (A') (A') (A')
                 (A') (A') (A') (A') (A') (A') (A') (A') (A') (A')
                 (A') (A') (A') (A') (A") (A') (A') (A') (A') (A')
                 (A') (A') (A') (A') (A') (A') (A') (A') (A') (A')
                 (A') (A') (A') (A') (A') (A') (A') (A') (A') (A')
                 (A') (A')
 The electronic state of the initial guess is 1-A'.
 Requested convergence on RMS density matrix=1.00D-08 within 128 cycles.
 Requested convergence on MAX density matrix=1.00D-06.
 Requested convergence on             energy=1.00D-06.
 No special actions if energy rises.
 SCF Done:  E(RM062X) =  -539.749709166     A.U. after   15 cycles
            NFock= 15  Conv=0.58D-08     -V/T= 2.0041
 DoSCS=F DFT=T ScalE2(SS,OS)=  1.000000  1.000000
 ExpMin= 3.60D-02 ExpMax= 4.56D+03 ExpMxC= 6.82D+02 IAcc=3 IRadAn=         5 AccDes= 0.00D+00
 HarFok:  IExCor=  205 AccDes= 0.00D+00 IRadAn=         5 IDoV=-2 UseB2=F ITyADJ=14
 ICtDFT= 12500011 ScaDFX=  1.000000  1.000000  1.000000  1.000000
 Range of M.O.s used for correlation:    15   379
 NBasis=   385 NAE=    47 NBE=    47 NFC=    14 NFV=     0
 NROrb=    365 NOA=    33 NOB=    33 NVA=   332 NVB=   332

 **** Warning!!: The largest alpha MO coefficient is  0.15441690D+03

 Orbital symmetries:
       Occupied  (A') (A') (A') (A') (A') (A') (A') (A') (A') (A')
                 (A') (A') (A') (A') (A') (A') (A') (A') (A') (A')
                 (A') (A') (A') (A') (A') (A') (A') (A') (A') (A')
                 (A') (A") (A') (A') (A') (A') (A') (A") (A") (A')
                 (A') (A') (A') (A") (A") (A") (A")
       Virtual   (A") (A") (A") (A") (A') (A') (A') (A') (A") (A')
                 (A') (A") (A') (A') (A") (A') (A") (A') (A') (A')
                 (A") (A") (A') (A') (A') (A") (A') (A") (A') (A')
                 (A") (A') (A") (A') (A') (A') (A') (A') (A") (A')
                 (A") (A') (A') (A") (A") (A') (A") (A') (A") (A')
                 (A') (A') (A') (A') (A') (A") (A') (A') (A') (A')
                 (A') (A") (A') (A') (A') (A") (A') (A') (A') (A')
                 (A') (A') (A') (A') (A') (A') (A') (A') (A') (A')
                 (A') (A') (A') (A') (A') (A') (A') (A') (A') (A')
                 (A') (A') (A') (A") (A') (A') (A") (A") (A') (A')
                 (A") (A') (A') (A') (A") (A") (A') (A") (A") (A')
                 (A') (A') (A") (A') (A") (A') (A') (A") (A') (A")
                 (A") (A') (A") (A') (A') (A') (A") (A') (A') (A')
                 (A') (A') (A') (A') (A') (A') (A') (A') (A') (A')
                 (A') (A') (A') (A") (A') (A') (A') (A') (A') (A')
                 (A') (A') (A") (A') (A") (A') (A") (A") (A') (A")
                 (A") (A') (A') (A") (A") (A") (A') (A") (A') (A')
                 (A') (A') (A') (A") (A") (A') (A') (A') (A') (A")
                 (A') (A') (A') (A") (A') (A") (A') (A') (A") (A")
                 (A") (A') (A') (A") (A') (A") (A') (A') (A') (A')
                 (A") (A") (A") (A') (A') (A") (A') (A") (A') (A')
                 (A') (A") (A') (A") (A") (A') (A") (A') (A') (A")
                 (A') (A') (A') (A') (A') (A") (A') (A') (A") (A")
                 (A') (A') (A') (A") (A') (A') (A') (A") (A") (A')
                 (A") (A') (A') (A') (A") (A') (A') (A') (A') (A')
                 (A") (A') (A') (A') (A") (A') (A") (A') (A") (A')
                 (A') (A') (A') (A') (A') (A') (A") (A') (A') (A')
                 (A") (A') (A') (A") (A") (A") (A') (A") (A') (A")
                 (A') (A") (A") (A') (A") (A") (A') (A') (A') (A')
                 (A') (A') (A') (A') (A') (A') (A') (A') (A') (A')
                 (A') (A') (A') (A') (A") (A') (A') (A') (A') (A')
                 (A') (A') (A') (A') (A') (A') (A') (A') (A') (A')
                 (A') (A') (A') (A') (A') (A') (A') (A') (A') (A')
                 (A') (A')
     4 initial guesses have been made.
 Convergence on wavefunction:    0.001000000000000
 Iteration     1 Dimension     4 NMult     0 NNew      4
 CISAX will form     4 AO SS matrices at one time.
 Iteration     2 Dimension     6 NMult     4 NNew      2
 Iteration     3 Dimension     8 NMult     6 NNew      2
 Iteration     4 Dimension    10 NMult     8 NNew      2
 Iteration     5 Dimension    12 NMult    10 NNew      2
 Iteration     6 Dimension    14 NMult    12 NNew      2
 Iteration     7 Dimension    16 NMult    14 NNew      2
 ***********************************************************************
 Excited states from <AA,BB:AA,BB> singles matrix:
 ***********************************************************************
 
 Ground to excited state transition densities written to RWF  633
 Ground to excited state transition electric dipole moments (Au):
       state          X           Y           Z        Dip. S.      Osc.
         1        -0.6351     -0.1147     -0.0000      0.4165      0.0286
 Ground to excited state transition velocity dipole moments (Au):
       state          X           Y           Z        Dip. S.      Osc.
         1         0.0725      0.0143      0.0000      0.0055      0.0354
 Ground to excited state transition magnetic dipole moments (Au):
       state          X           Y           Z
         1         0.0000     -0.0000      0.2439
 Ground to excited state transition velocity quadrupole moments (Au):
       state          XX          YY          ZZ          XY          XZ          YZ
         1        -0.0607     -0.2585      0.0099      0.0843     -0.0000     -0.0000
 <0|del|b> * <b|rxdel|0> + <0|del|b> * <b|delr+rdel|0>
 Rotatory Strengths (R) in cgs (10**-40 erg-esu-cm/Gauss)
       state          XX          YY          ZZ    R(velocity)    E-M Angle
         1         0.0000      0.0000      0.0000      0.0000       90.00
 1/2[<0|r|b>*<b|rxdel|0> + (<0|rxdel|b>*<b|r|0>)*]
 Rotatory Strengths (R) in cgs (10**-40 erg-esu-cm/Gauss)
       state          XX          YY          ZZ     R(length)
         1         0.0000     -0.0000      0.0000      0.0000
  1/2[<0|del|b>*<b|r|0> + (<0|r|b>*<b|del|0>)*] (Au)
       state          X           Y           Z        Dip. S.   Osc.(frdel)
         1        -0.0461     -0.0016     -0.0000      0.0477      0.0318

 Excitation energies and oscillator strengths:
 
 Excited State   1:      Singlet-A'     2.8004 eV  442.74 nm  f=0.0286  <S**2>=0.000
      47 -> 48         0.70126
 This state for optimization and/or second-order correction.
 Total Energy, E(TD-HF/TD-DFT) =  -539.646796973    
 Copying the excited state density for this state as the 1-particle RhoCI density.
 SavETr:  write IOETrn=   770 NScale= 10 NData=  16 NLR=1 NState=    1 LETran=      28.

 **********************************************************************

            Population analysis using the SCF Density.

 **********************************************************************

 Orbital symmetries:
       Occupied  (A') (A') (A') (A') (A') (A') (A') (A') (A') (A')
                 (A') (A') (A') (A') (A') (A') (A') (A') (A') (A')
                 (A') (A') (A') (A') (A') (A') (A') (A') (A') (A')
                 (A') (A") (A') (A') (A') (A') (A') (A") (A") (A')
                 (A') (A') (A') (A") (A") (A") (A")
       Virtual   (A") (A") (A") (A") (A') (A') (A') (A') (A") (A')
                 (A') (A") (A') (A') (A") (A') (A") (A') (A') (A')
                 (A") (A") (A') (A') (A') (A") (A') (A") (A') (A')
                 (A") (A') (A") (A') (A') (A') (A') (A') (A") (A')
                 (A") (A') (A') (A") (A") (A') (A") (A') (A") (A')
                 (A') (A') (A') (A') (A') (A") (A') (A') (A') (A')
                 (A') (A") (A') (A') (A') (A") (A') (A') (A') (A')
                 (A') (A') (A') (A') (A') (A') (A') (A') (A') (A')
                 (A') (A') (A') (A') (A') (A') (A') (A') (A') (A')
                 (A') (A') (A') (A") (A') (A') (A") (A") (A') (A')
                 (A") (A') (A') (A') (A") (A") (A') (A") (A") (A')
                 (A') (A') (A") (A') (A") (A') (A') (A") (A') (A")
                 (A") (A') (A") (A') (A') (A') (A") (A') (A') (A')
                 (A') (A') (A') (A') (A') (A') (A') (A') (A') (A')
                 (A') (A') (A') (A") (A') (A') (A') (A') (A') (A')
                 (A') (A') (A") (A') (A") (A') (A") (A") (A') (A")
                 (A") (A') (A') (A") (A") (A") (A') (A") (A') (A')
                 (A') (A') (A') (A") (A") (A') (A') (A') (A') (A")
                 (A') (A') (A') (A") (A') (A") (A') (A') (A") (A")
                 (A") (A') (A') (A") (A') (A") (A') (A') (A') (A')
                 (A") (A") (A") (A') (A') (A") (A') (A") (A') (A')
                 (A') (A") (A') (A") (A") (A') (A") (A') (A') (A")
                 (A') (A') (A') (A') (A') (A") (A') (A') (A") (A")
                 (A') (A') (A') (A") (A') (A') (A') (A") (A") (A')
                 (A") (A') (A') (A') (A") (A') (A') (A') (A') (A')
                 (A") (A') (A') (A') (A") (A') (A") (A') (A") (A')
                 (A') (A') (A') (A') (A') (A') (A") (A') (A') (A')
                 (A") (A') (A') (A") (A") (A") (A') (A") (A') (A")
                 (A') (A") (A") (A') (A") (A") (A') (A') (A') (A')
                 (A') (A') (A') (A') (A') (A') (A') (A') (A') (A')
                 (A') (A') (A') (A') (A") (A') (A') (A') (A') (A')
                 (A') (A') (A') (A') (A') (A') (A') (A') (A') (A')
                 (A') (A') (A') (A') (A') (A') (A') (A') (A') (A')
                 (A') (A')
 The electronic state is 1-A'.
 Alpha  occ. eigenvalues --  -10.77526 -10.73983 -10.72760 -10.72393 -10.72349
 Alpha  occ. eigenvalues --  -10.72140 -10.71978 -10.70975 -10.70502 -10.70466
 Alpha  occ. eigenvalues --  -10.70317 -10.69908 -10.69434 -10.68975  -1.16502
 Alpha  occ. eigenvalues --   -1.12481  -1.07055  -1.05948  -1.01208  -1.00141
 Alpha  occ. eigenvalues --   -0.95833  -0.91193  -0.86343  -0.85837  -0.83715
 Alpha  occ. eigenvalues --   -0.78432  -0.76042  -0.74398  -0.70214  -0.69074
 Alpha  occ. eigenvalues --   -0.68441  -0.68147  -0.67802  -0.65039  -0.63954
 Alpha  occ. eigenvalues --   -0.62885  -0.61797  -0.60127  -0.59639  -0.59471
 Alpha  occ. eigenvalues --   -0.56689  -0.55267  -0.54281  -0.52529  -0.46695
 Alpha  occ. eigenvalues --   -0.46105  -0.44379
 Alpha virt. eigenvalues --   -0.26141  -0.14738  -0.13961  -0.12699  -0.11194
 Alpha virt. eigenvalues --   -0.10103  -0.09261  -0.07991  -0.07909  -0.07472
 Alpha virt. eigenvalues --   -0.07212  -0.07121  -0.05643  -0.05584  -0.05364
 Alpha virt. eigenvalues --   -0.03850  -0.03658  -0.03295  -0.03126  -0.02151
 Alpha virt. eigenvalues --   -0.01363  -0.00932   0.00168   0.00511   0.00609
 Alpha virt. eigenvalues --    0.01040   0.01508   0.01817   0.02093   0.02271
 Alpha virt. eigenvalues --    0.02466   0.02692   0.02883   0.03178   0.03490
 Alpha virt. eigenvalues --    0.04223   0.04619   0.04766   0.05050   0.05355
 Alpha virt. eigenvalues --    0.06046   0.06268   0.06584   0.07049   0.07258
 Alpha virt. eigenvalues --    0.07871   0.08013   0.08287   0.08729   0.08865
 Alpha virt. eigenvalues --    0.09296   0.09576   0.09784   0.10517   0.10988
 Alpha virt. eigenvalues --    0.11131   0.11950   0.12221   0.12741   0.13031
 Alpha virt. eigenvalues --    0.13395   0.13540   0.13990   0.14794   0.15780
 Alpha virt. eigenvalues --    0.16371   0.16481   0.17311   0.17728   0.18021
 Alpha virt. eigenvalues --    0.18095   0.18789   0.19349   0.19732   0.19900
 Alpha virt. eigenvalues --    0.21493   0.21575   0.22726   0.23133   0.23483
 Alpha virt. eigenvalues --    0.23965   0.24642   0.25705   0.26863   0.27781
 Alpha virt. eigenvalues --    0.28635   0.29592   0.30052   0.31518   0.34938
 Alpha virt. eigenvalues --    0.37140   0.38104   0.39139   0.41251   0.41274
 Alpha virt. eigenvalues --    0.42034   0.42102   0.43046   0.43679   0.44071
 Alpha virt. eigenvalues --    0.44349   0.45274   0.46177   0.46943   0.47893
 Alpha virt. eigenvalues --    0.48456   0.48813   0.48950   0.50481   0.50758
 Alpha virt. eigenvalues --    0.51616   0.51711   0.52183   0.53113   0.54076
 Alpha virt. eigenvalues --    0.54165   0.54567   0.55683   0.56006   0.57441
 Alpha virt. eigenvalues --    0.58231   0.58910   0.61454   0.61883   0.62770
 Alpha virt. eigenvalues --    0.63375   0.63619   0.64757   0.65340   0.66982
 Alpha virt. eigenvalues --    0.70358   0.70708   0.71014   0.72181   0.72688
 Alpha virt. eigenvalues --    0.75623   0.76051   0.76211   0.77007   0.77205
 Alpha virt. eigenvalues --    0.77426   0.78238   0.78255   0.79916   0.80378
 Alpha virt. eigenvalues --    0.81103   0.81956   0.82355   0.83164   0.85032
 Alpha virt. eigenvalues --    0.87227   0.88190   0.88614   0.89235   0.90240
 Alpha virt. eigenvalues --    0.91174   0.91187   0.93480   0.94663   0.96316
 Alpha virt. eigenvalues --    0.96909   1.00573   1.01142   1.01145   1.03018
 Alpha virt. eigenvalues --    1.03333   1.03898   1.05053   1.05405   1.09001
 Alpha virt. eigenvalues --    1.19176   1.23035   1.23751   1.24710   1.28505
 Alpha virt. eigenvalues --    1.29195   1.32233   1.34455   1.35980   1.35995
 Alpha virt. eigenvalues --    1.38477   1.40746   1.40993   1.42563   1.43598
 Alpha virt. eigenvalues --    1.43884   1.44896   1.45527   1.45741   1.46922
 Alpha virt. eigenvalues --    1.47886   1.48196   1.51713   1.53598   1.53982
 Alpha virt. eigenvalues --    1.55817   1.55987   1.57342   1.58656   1.61543
 Alpha virt. eigenvalues --    1.62931   1.63068   1.64048   1.65994   1.67950
 Alpha virt. eigenvalues --    1.67995   1.69152   1.69421   1.74348   1.76316
 Alpha virt. eigenvalues --    1.76897   1.78622   1.79807   1.79893   1.81287
 Alpha virt. eigenvalues --    1.82834   1.83286   1.83448   1.84119   1.84387
 Alpha virt. eigenvalues --    1.85069   1.85750   1.86324   1.88104   1.91163
 Alpha virt. eigenvalues --    1.91243   1.94644   1.96424   1.97142   1.98795
 Alpha virt. eigenvalues --    1.99589   2.02684   2.04674   2.07172   2.11710
 Alpha virt. eigenvalues --    2.12273   2.14367   2.15189   2.19112   2.21138
 Alpha virt. eigenvalues --    2.23224   2.28303   2.29961   2.34500   2.34636
 Alpha virt. eigenvalues --    2.35844   2.38148   2.39784   2.41486   2.44737
 Alpha virt. eigenvalues --    2.46154   2.46350   2.48471   2.53897   2.54338
 Alpha virt. eigenvalues --    2.54780   2.56479   2.58167   2.58178   2.59261
 Alpha virt. eigenvalues --    2.59820   2.60266   2.61429   2.63244   2.63867
 Alpha virt. eigenvalues --    2.64944   2.65117   2.65448   2.65875   2.67737
 Alpha virt. eigenvalues --    2.70869   2.70924   2.71008   2.73448   2.74792
 Alpha virt. eigenvalues --    2.76292   2.78914   2.79783   2.81971   2.83168
 Alpha virt. eigenvalues --    2.85558   2.86263   2.92213   2.96877   2.98299
 Alpha virt. eigenvalues --    3.01220   3.03941   3.10917   3.11050   3.13946
 Alpha virt. eigenvalues --    3.18596   3.23293   3.26373   3.29093   3.30509
 Alpha virt. eigenvalues --    3.33349   3.35833   3.42282   3.45337   3.46674
 Alpha virt. eigenvalues --    3.47498   3.52224   3.56673   3.64880   3.66016
 Alpha virt. eigenvalues --    3.71228   3.93709   3.93868   3.95454   3.95953
 Alpha virt. eigenvalues --    4.03405   4.05614   4.07874   4.12074   4.34873
 Alpha virt. eigenvalues --    4.60182   4.67221   4.72689  23.44896  23.58866
 Alpha virt. eigenvalues --   23.76356  23.81998  23.84238  23.90806  23.93559
 Alpha virt. eigenvalues --   23.94234  23.99448  24.01319  24.03968  24.08519
 Alpha virt. eigenvalues --   24.08691  24.14047
          Condensed to atoms (all electrons):
               1          2          3          4          5          6
     1  C    8.818873  -0.085305  -0.368841   2.274861  -0.215880  -0.102747
     2  C   -0.085305   7.453929   0.149161  -1.354874   0.041809  -0.015998
     3  C   -0.368841   0.149161   6.540216   1.010588  -0.167659   0.017221
     4  C    2.274861  -1.354874   1.010588  10.352673  -0.701425  -0.114862
     5  C   -0.215880   0.041809  -0.167659  -0.701425  13.868546   0.743997
     6  C   -0.102747  -0.015998   0.017221  -0.114862   0.743997   6.676696
     7  C    0.025834  -0.005600  -0.010683   0.005103  -1.313341   0.439273
     8  C    0.387484  -0.027926  -0.103224   0.006377   2.743178  -0.581164
     9  C   -0.686534  -0.855598   0.319868  -0.110996  -0.010121   0.287495
    10  C   -1.347143   0.275180  -0.334697  -2.330734  -2.981562  -0.282261
    11  C    0.590350  -1.150163   1.143822   1.190131  -1.854489  -0.266710
    12  C   -3.271241   2.192333  -1.715215  -3.054352  -0.119602  -0.039536
    13  C    0.666990  -0.465177  -0.053600  -0.587135  -2.328770   0.616005
    14  C   -1.168540   0.001520  -0.318838  -0.804860  -2.135376  -1.258750
    15  H    0.373114  -0.108575   0.006285   0.025137   0.004820   0.001263
    16  H   -0.019738   0.383817  -0.016107   0.015189  -0.001571  -0.000367
    17  H   -0.033574  -0.010631   0.381105  -0.079361   0.000003   0.000450
    18  H    0.053949   0.001628  -0.081474   0.460914   0.000860  -0.005195
    19  H   -0.039924  -0.008721   0.053975  -0.033104  -0.108341   0.047039
    20  H    0.006424   0.002741  -0.005274   0.003708   0.482086  -0.084098
    21  H   -0.001113  -0.000414   0.000354   0.000351  -0.068633   0.371773
    22  H    0.000941   0.000363  -0.000274  -0.001121   0.006109  -0.018994
    23  H    0.003218  -0.002181   0.000793   0.003728   0.043241  -0.006510
    24  H    0.039438   0.013442  -0.000366  -0.005859  -0.018944  -0.002675
    25  H    0.039438   0.013442  -0.000366  -0.005859  -0.018944  -0.002675
               7          8          9         10         11         12
     1  C    0.025834   0.387484  -0.686534  -1.347143   0.590350  -3.271241
     2  C   -0.005600  -0.027926  -0.855598   0.275180  -1.150163   2.192333
     3  C   -0.010683  -0.103224   0.319868  -0.334697   1.143822  -1.715215
     4  C    0.005103   0.006377  -0.110996  -2.330734   1.190131  -3.054352
     5  C   -1.313341   2.743178  -0.010121  -2.981562  -1.854489  -0.119602
     6  C    0.439273  -0.581164   0.287495  -0.282261  -0.266710  -0.039536
     7  C    7.188945   0.087300  -0.962599   0.282479  -0.198142  -0.268939
     8  C    0.087300   9.181754  -1.118135  -1.464045   0.003687  -1.071324
     9  C   -0.962599  -1.118135   9.787939   0.290460   1.675974  -2.092119
    10  C    0.282479  -1.464045   0.290460   8.825430  -0.440905   2.665765
    11  C   -0.198142   0.003687   1.675974  -0.440905  13.074394  -3.761602
    12  C   -0.268939  -1.071324  -2.092119   2.665765  -3.761602  17.403674
    13  C   -0.264718  -0.327966   1.013891   0.105965   0.522550  -4.886862
    14  C    1.080855  -2.225050  -2.067942   2.250281  -3.973443   3.304701
    15  H   -0.002132   0.007378   0.087696  -0.006506  -0.035686  -0.034169
    16  H    0.000329   0.000501  -0.000957  -0.008858   0.014812  -0.022293
    17  H   -0.000377  -0.001552  -0.004561   0.018297  -0.023737   0.101400
    18  H    0.001908   0.006771  -0.020929  -0.002005   0.018469  -0.072876
    19  H   -0.006352  -0.055065   0.076061   0.420993   0.074897  -0.045647
    20  H   -0.000267   0.058448  -0.024569   0.009146  -0.008957  -0.019971
    21  H   -0.016513  -0.028052  -0.007145   0.018549  -0.006659   0.005692
    22  H    0.381697  -0.027997   0.002685  -0.005982   0.003613  -0.008918
    23  H   -0.119360   0.382195   0.101797  -0.013567   0.002627   0.008628
    24  H    0.015109   0.023668   0.356735   0.005308   0.003052  -0.054019
    25  H    0.015109   0.023668   0.356735   0.005308   0.003052  -0.054019
              13         14         15         16         17         18
     1  C    0.666990  -1.168540   0.373114  -0.019738  -0.033574   0.053949
     2  C   -0.465177   0.001520  -0.108575   0.383817  -0.010631   0.001628
     3  C   -0.053600  -0.318838   0.006285  -0.016107   0.381105  -0.081474
     4  C   -0.587135  -0.804860   0.025137   0.015189  -0.079361   0.460914
     5  C   -2.328770  -2.135376   0.004820  -0.001571   0.000003   0.000860
     6  C    0.616005  -1.258750   0.001263  -0.000367   0.000450  -0.005195
     7  C   -0.264718   1.080855  -0.002132   0.000329  -0.000377   0.001908
     8  C   -0.327966  -2.225050   0.007378   0.000501  -0.001552   0.006771
     9  C    1.013891  -2.067942   0.087696  -0.000957  -0.004561  -0.020929
    10  C    0.105965   2.250281  -0.006506  -0.008858   0.018297  -0.002005
    11  C    0.522550  -3.973443  -0.035686   0.014812  -0.023737   0.018469
    12  C   -4.886862   3.304701  -0.034169  -0.022293   0.101400  -0.072876
    13  C   15.173817  -2.597344   0.007476   0.001401  -0.006016  -0.008554
    14  C   -2.597344  15.560629   0.000188  -0.008062   0.004271  -0.018975
    15  H    0.007476   0.000188   0.449789  -0.010185   0.001679  -0.000075
    16  H    0.001401  -0.008062  -0.010185   0.423849  -0.007235   0.002124
    17  H   -0.006016   0.004271   0.001679  -0.007235   0.429477  -0.012429
    18  H   -0.008554  -0.018975  -0.000075   0.002124  -0.012429   0.455073
    19  H    0.075644  -0.077517   0.000357  -0.000610   0.001626  -0.005275
    20  H   -0.010472  -0.071816  -0.000135   0.000023  -0.000169   0.001141
    21  H   -0.021660   0.094330   0.000013  -0.000007   0.000011  -0.000126
    22  H    0.030259  -0.025893  -0.000133   0.000008  -0.000007   0.000012
    23  H   -0.049558  -0.023201   0.000503  -0.000129   0.000015  -0.000097
    24  H    0.023167  -0.062543  -0.001176   0.000621  -0.000123   0.000149
    25  H    0.023167  -0.062543  -0.001176   0.000621  -0.000123   0.000149
              19         20         21         22         23         24
     1  C   -0.039924   0.006424  -0.001113   0.000941   0.003218   0.039438
     2  C   -0.008721   0.002741  -0.000414   0.000363  -0.002181   0.013442
     3  C    0.053975  -0.005274   0.000354  -0.000274   0.000793  -0.000366
     4  C   -0.033104   0.003708   0.000351  -0.001121   0.003728  -0.005859
     5  C   -0.108341   0.482086  -0.068633   0.006109   0.043241  -0.018944
     6  C    0.047039  -0.084098   0.371773  -0.018994  -0.006510  -0.002675
     7  C   -0.006352  -0.000267  -0.016513   0.381697  -0.119360   0.015109
     8  C   -0.055065   0.058448  -0.028052  -0.027997   0.382195   0.023668
     9  C    0.076061  -0.024569  -0.007145   0.002685   0.101797   0.356735
    10  C    0.420993   0.009146   0.018549  -0.005982  -0.013567   0.005308
    11  C    0.074897  -0.008957  -0.006659   0.003613   0.002627   0.003052
    12  C   -0.045647  -0.019971   0.005692  -0.008918   0.008628  -0.054019
    13  C    0.075644  -0.010472  -0.021660   0.030259  -0.049558   0.023167
    14  C   -0.077517  -0.071816   0.094330  -0.025893  -0.023201  -0.062543
    15  H    0.000357  -0.000135   0.000013  -0.000133   0.000503  -0.001176
    16  H   -0.000610   0.000023  -0.000007   0.000008  -0.000129   0.000621
    17  H    0.001626  -0.000169   0.000011  -0.000007   0.000015  -0.000123
    18  H   -0.005275   0.001141  -0.000126   0.000012  -0.000097   0.000149
    19  H    0.443583  -0.006912   0.001272  -0.000443   0.000219   0.000610
    20  H   -0.006912   0.455562  -0.008732   0.001615   0.000390   0.000219
    21  H    0.001272  -0.008732   0.415453  -0.005708   0.001087  -0.000148
    22  H   -0.000443   0.001615  -0.005708   0.415252  -0.008100   0.000648
    23  H    0.000219   0.000390   0.001087  -0.008100   0.431648  -0.000649
    24  H    0.000610   0.000219  -0.000148   0.000648  -0.000649   0.494802
    25  H    0.000610   0.000219  -0.000148   0.000648  -0.000649  -0.079994
              25
     1  C    0.039438
     2  C    0.013442
     3  C   -0.000366
     4  C   -0.005859
     5  C   -0.018944
     6  C   -0.002675
     7  C    0.015109
     8  C    0.023668
     9  C    0.356735
    10  C    0.005308
    11  C    0.003052
    12  C   -0.054019
    13  C    0.023167
    14  C   -0.062543
    15  H   -0.001176
    16  H    0.000621
    17  H   -0.000123
    18  H    0.000149
    19  H    0.000610
    20  H    0.000219
    21  H   -0.000148
    22  H    0.000648
    23  H   -0.000649
    24  H   -0.079994
    25  H    0.494802
 Mulliken charges:
               1
     1  C    0.059665
     2  C   -0.438199
     3  C   -0.446769
     4  C   -0.164217
     5  C    0.110011
     6  C   -0.418670
     7  C   -0.354918
     8  C    0.119092
     9  C   -0.395130
    10  C    0.045107
    11  C   -0.600938
    12  C    0.910513
    13  C   -0.652500
    14  C    0.603917
    15  H    0.234247
    16  H    0.252826
    17  H    0.241559
    18  H    0.224861
    19  H    0.191024
    20  H    0.219651
    21  H    0.256176
    22  H    0.259720
    23  H    0.243914
    24  H    0.249529
    25  H    0.249529
 Sum of Mulliken charges =   1.00000
 Mulliken charges with hydrogens summed into heavy atoms:
               1
     1  C    0.293913
     2  C   -0.185373
     3  C   -0.205210
     4  C    0.060644
     5  C    0.329662
     6  C   -0.162495
     7  C   -0.095197
     8  C    0.363006
     9  C    0.103929
    10  C    0.236130
    11  C   -0.600938
    12  C    0.910513
    13  C   -0.652500
    14  C    0.603917
 Electronic spatial extent (au):  <R**2>=           2856.0478
 Charge=              1.0000 electrons
 Dipole moment (field-independent basis, Debye):
    X=              0.3821    Y=             -1.1469    Z=             -0.0000  Tot=              1.2089
 Quadrupole moment (field-independent basis, Debye-Ang):
   XX=            -50.3272   YY=            -37.0110   ZZ=            -84.1208
   XY=            -10.7761   XZ=             -0.0000   YZ=              0.0000
 Traceless Quadrupole moment (field-independent basis, Debye-Ang):
   XX=              6.8258   YY=             20.1420   ZZ=            -26.9678
   XY=            -10.7761   XZ=             -0.0000   YZ=              0.0000
 Octapole moment (field-independent basis, Debye-Ang**2):
  XXX=              1.8527  YYY=             -9.5524  ZZZ=              0.0000  XYY=              7.7001
  XXY=             -9.1180  XXZ=              0.0000  XZZ=              3.2085  YZZ=              0.4985
  YYZ=              0.0000  XYZ=              0.0000
 Hexadecapole moment (field-independent basis, Debye-Ang**3):
 XXXX=           -968.3299 YYYY=          -1879.0429 ZZZZ=            -99.2650 XXXY=            337.1497
 XXXZ=              0.0000 YYYX=            265.9779 YYYZ=              0.0000 ZZZX=             -0.0000
 ZZZY=              0.0000 XXYY=           -449.9314 XXZZ=           -239.1946 YYZZ=           -497.3266
 XXYZ=              0.0000 YYXZ=              0.0000 ZZXY=            181.2353
 N-N= 7.812538459504D+02 E-N=-2.798868823932D+03  KE= 5.375403620412D+02
 Symmetry A'   KE= 5.228796004452D+02
 Symmetry A"   KE= 1.466076159594D+01
 Unable to Open any file for archive entry.
 1\1\GINC-GADI-CPU-CLX-2461\SP\RM062X TD-FC\6-311++G(d,p)\C14H11(1+)\TS
 1578\27-Jul-2022\0\\#n M062X/6-311++G(d,p) TD(NStates=1) EmpiricalDisp
 ersion=GD3 SP\\SP_16\\1,1\C,0,0.,2.505455,1.362031\C,0,0.,3.691908,0.6
 70389\C,0,0.,3.680661,-0.71543\C,0,0.,2.466356,-1.412338\C,0,0.,-2.459
 956,-1.402738\C,0,0.,-3.687061,-0.71223\C,0,0.,-3.711108,0.673589\C,0,
 0.,-2.479855,1.358831\C,0,0.,-0.0128,1.453369\C,0,0.,-0.0256,-1.429189
 \C,0,0.,1.270055,0.653065\C,0,0.,1.251871,-0.702004\C,0,0.,-1.254055,0
 .701065\C,0,0.,-1.223071,-0.759604\H,0,0.,2.438471,2.443647\H,0,0.,4.6
 11153,1.235689\H,0,0.,4.586862,-1.304349\H,0,0.,2.52355,-2.493259\H,0,
 0.,0.024,-2.510266\H,0,0.,-2.41155,-2.486859\H,0,0.,-4.631662,-1.24034
 9\H,0,0.,-4.662353,1.187689\H,0,0.,-2.537671,2.443647\H,0,-0.859585,-0
 .0416,2.145787\H,0,0.859585,-0.0416,2.145787\\Version=ES64L-G16RevC.01
 \State=1-A'\HF=-539.7497092\RMSD=5.800e-09\PG=CS [SG(C14H9),X(H2)]\\@
 The archive entry for this job was punched.


 A successful marriage requires falling in love
 many times, always with the same person.
                           -- Mignon McLaughlin
 Job cpu time:       0 days  0 hours 49 minutes 24.7 seconds.
 Elapsed time:       0 days  0 hours  1 minutes 33.3 seconds.
 File lengths (MBytes):  RWF=    460 Int=      0 D2E=      0 Chk=     15 Scr=      1
 Normal termination of Gaussian 16 at Wed Jul 27 14:26:47 2022.
