 Entering Gaussian System, Link 0=g16
 Initial command:
 /apps/gaussian/g16c01/g16/l1.exe "/jobfs/52822737.gadi-pbs/Gau-2058158.inp" -scrdir="/jobfs/52822737.gadi-pbs/"
 Entering Link 1 = /apps/gaussian/g16c01/g16/l1.exe PID=   2058159.
  
 Copyright (c) 1988-2019, Gaussian, Inc.  All Rights Reserved.
  
 This is part of the Gaussian(R) 16 program.  It is based on
 the Gaussian(R) 09 system (copyright 2009, Gaussian, Inc.),
 the Gaussian(R) 03 system (copyright 2003, Gaussian, Inc.),
 the Gaussian(R) 98 system (copyright 1998, Gaussian, Inc.),
 the Gaussian(R) 94 system (copyright 1995, Gaussian, Inc.),
 the Gaussian 92(TM) system (copyright 1992, Gaussian, Inc.),
 the Gaussian 90(TM) system (copyright 1990, Gaussian, Inc.),
 the Gaussian 88(TM) system (copyright 1988, Gaussian, Inc.),
 the Gaussian 86(TM) system (copyright 1986, Carnegie Mellon
 University), and the Gaussian 82(TM) system (copyright 1983,
 Carnegie Mellon University). Gaussian is a federally registered
 trademark of Gaussian, Inc.
  
 This software contains proprietary and confidential information,
 including trade secrets, belonging to Gaussian, Inc.
  
 This software is provided under written license and may be
 used, copied, transmitted, or stored only in accord with that
 written license.
  
 The following legend is applicable only to US Government
 contracts under FAR:
  
                    RESTRICTED RIGHTS LEGEND
  
 Use, reproduction and disclosure by the US Government is
 subject to restrictions as set forth in subparagraphs (a)
 and (c) of the Commercial Computer Software - Restricted
 Rights clause in FAR 52.227-19.
  
 Gaussian, Inc.
 340 Quinnipiac St., Bldg. 40, Wallingford CT 06492
  
  
 ---------------------------------------------------------------
 Warning -- This program may not be used in any manner that
 competes with the business of Gaussian, Inc. or will provide
 assistance to any competitor of Gaussian, Inc.  The licensee
 of this program is prohibited from giving any competitor of
 Gaussian, Inc. access to this program.  By using this program,
 the user acknowledges that Gaussian, Inc. is engaged in the
 business of creating and licensing software in the field of
 computational chemistry and represents and warrants to the
 licensee that it is not a competitor of Gaussian, Inc. and that
 it will not use this program in any manner prohibited above.
 ---------------------------------------------------------------
  

 Cite this work as:
 Gaussian 16, Revision C.01,
 M. J. Frisch, G. W. Trucks, H. B. Schlegel, G. E. Scuseria, 
 M. A. Robb, J. R. Cheeseman, G. Scalmani, V. Barone, 
 G. A. Petersson, H. Nakatsuji, X. Li, M. Caricato, A. V. Marenich, 
 J. Bloino, B. G. Janesko, R. Gomperts, B. Mennucci, H. P. Hratchian, 
 J. V. Ortiz, A. F. Izmaylov, J. L. Sonnenberg, D. Williams-Young, 
 F. Ding, F. Lipparini, F. Egidi, J. Goings, B. Peng, A. Petrone, 
 T. Henderson, D. Ranasinghe, V. G. Zakrzewski, J. Gao, N. Rega, 
 G. Zheng, W. Liang, M. Hada, M. Ehara, K. Toyota, R. Fukuda, 
 J. Hasegawa, M. Ishida, T. Nakajima, Y. Honda, O. Kitao, H. Nakai, 
 T. Vreven, K. Throssell, J. A. Montgomery, Jr., J. E. Peralta, 
 F. Ogliaro, M. J. Bearpark, J. J. Heyd, E. N. Brothers, K. N. Kudin, 
 V. N. Staroverov, T. A. Keith, R. Kobayashi, J. Normand, 
 K. Raghavachari, A. P. Rendell, J. C. Burant, S. S. Iyengar, 
 J. Tomasi, M. Cossi, J. M. Millam, M. Klene, C. Adamo, R. Cammi, 
 J. W. Ochterski, R. L. Martin, K. Morokuma, O. Farkas, 
 J. B. Foresman, and D. J. Fox, Gaussian, Inc., Wallingford CT, 2019.
 
 ******************************************
 Gaussian 16:  ES64L-G16RevC.01  3-Jul-2019
                27-Jul-2022 
 ******************************************
 %NProcShared=32
 Will use up to   32 processors via shared memory.
 %mem = 128GB
 ---------------------------------------------------------------
 #n M062X/6-311++G(d,p) TD(NStates=1) EmpiricalDispersion=GD3 SP
 ---------------------------------------------------------------
 1/38=1,172=1/1;
 2/12=2,17=6,18=5,40=1/2;
 3/5=4,6=6,7=1111,11=9,25=1,30=1,74=-55,124=31/1,2,3,8;
 4//1;
 5/5=2,38=5/2;
 8/6=1,10=2,108=1/1;
 9/41=1,42=1,70=2/14;
 6/7=2,8=2,9=2,10=2/1;
 99/5=1,9=1/99;
 -----
 SP_14
 -----
 Symbolic Z-matrix:
 Charge =  1 Multiplicity = 1
 C                     0.        2.49426   1.36183 
 C                     0.        3.68231   0.66579 
 C                     0.        3.67566  -0.72483 
 C                     0.        2.47796  -1.41654 
 C                     0.       -2.44836  -1.39854 
 C                     0.       -3.69206  -0.70283 
 C                     0.       -3.72071   0.67819 
 C                     0.       -2.49106   1.35903 
 C                     0.       -0.016     1.45337 
 C                     0.       -0.005    -1.42919 
 C                     0.        1.27446   0.66267 
 C                     0.        1.25547  -0.7062 
 C                     0.       -1.24966   0.69147 
 C                     0.       -1.21947  -0.7554 
 H                     0.        2.44167   2.44365 
 H                     0.        4.60355   1.22849 
 H                     0.        4.58906  -1.30155 
 H                     0.        2.52195  -2.49766 
 H                     0.        0.036    -2.51027 
 H                     0.       -2.41315  -2.48246 
 H                     0.       -4.62946  -1.24315 
 H                     0.       -4.66995   1.19489 
 H                     0.       -2.53447   2.44365 
 H                    -0.85959  -0.0628    2.14579 
 H                     0.85959  -0.0628    2.14579 
 
                          Input orientation:                          
 ---------------------------------------------------------------------
 Center     Atomic      Atomic             Coordinates (Angstroms)
 Number     Number       Type             X           Y           Z
 ---------------------------------------------------------------------
      1          6           0        0.000000    2.494255    1.361831
      2          6           0        0.000000    3.682308    0.665789
      3          6           0        0.000000    3.675661   -0.724830
      4          6           0        0.000000    2.477956   -1.416538
      5          6           0        0.000000   -2.448356   -1.398538
      6          6           0        0.000000   -3.692061   -0.702830
      7          6           0        0.000000   -3.720708    0.678189
      8          6           0        0.000000   -2.491055    1.359031
      9          6           0        0.000000   -0.016000    1.453369
     10          6           0        0.000000   -0.005000   -1.429189
     11          6           0        0.000000    1.274455    0.662665
     12          6           0        0.000000    1.255471   -0.706204
     13          6           0        0.000000   -1.249655    0.691465
     14          6           0        0.000000   -1.219471   -0.755404
     15          1           0        0.000000    2.441671    2.443647
     16          1           0        0.000000    4.603553    1.228489
     17          1           0        0.000000    4.589062   -1.301549
     18          1           0        0.000000    2.521950   -2.497659
     19          1           0        0.000000    0.036000   -2.510266
     20          1           0        0.000000   -2.413150   -2.482459
     21          1           0        0.000000   -4.629462   -1.243149
     22          1           0        0.000000   -4.669953    1.194889
     23          1           0        0.000000   -2.534471    2.443647
     24          1           0       -0.859585   -0.062800    2.145787
     25          1           0        0.859585   -0.062800    2.145787
 ---------------------------------------------------------------------
                    Distance matrix (angstroms):
                    1          2          3          4          5
     1  C    0.000000
     2  C    1.376933   0.000000
     3  C    2.397890   1.390635   0.000000
     4  C    2.778417   2.405525   1.383097   0.000000
     5  C    5.661187   6.468886   6.160963   4.926345   0.000000
     6  C    6.521758   7.500296   7.367755   6.211158   1.425066
     7  C    6.252450   7.403026   7.528263   6.543036   2.435503
     8  C    4.985311   6.212165   6.509291   5.691648   2.757900
     9  C    2.511923   3.781238   4.286363   3.802129   3.748297
    10  C    3.746474   4.240893   3.747451   2.482988   2.443548
    11  C    1.405968   2.407855   2.773253   2.402395   4.255335
    12  C    2.410675   2.787813   2.420262   1.413876   3.767978
    13  C    3.803453   4.932030   5.124903   4.282378   2.409356
    14  C    4.274862   5.103648   4.895227   3.756070   1.387004
    15  H    1.083093   2.167939   3.400291   3.860356   6.218903
    16  H    2.113508   1.079502   2.162507   3.393277   7.525337
    17  H    3.388482   2.166246   1.080234   2.114235   7.038086
    18  H    3.859589   3.369545   2.115177   1.082016   5.090384
    19  H    4.586519   4.835586   4.054000   2.675704   2.721757
    20  H    6.233874   6.860472   6.337419   5.005907   1.084493
    21  H    7.585069   8.528163   8.321281   7.109533   2.186634
    22  H    7.166153   8.369003   8.563562   7.610004   3.414873
    23  H    5.143774   6.465997   6.971728   6.326567   3.843150
    24  H    2.809271   4.117659   4.791181   4.459202   4.357982
    25  H    2.809271   4.117659   4.791181   4.459202   4.357982
                    6          7          8          9         10
     6  C    0.000000
     7  C    1.381316   0.000000
     8  C    2.386145   1.405558   0.000000
     9  C    4.261762   3.784939   2.476852   0.000000
    10  C    3.757927   4.271713   3.735591   2.882579   0.000000
    11  C    5.150811   4.995187   3.829359   1.513435   2.452113
    12  C    4.947533   5.165162   4.278043   2.506071   1.453098
    13  C    2.812367   2.471089   1.409510   1.449966   2.458931
    14  C    2.473149   2.882946   2.467339   2.515357   1.388858
    15  H    6.893692   6.410285   5.050562   2.649679   4.580945
    16  H    8.517465   8.342431   7.095809   4.625023   5.319964
    17  H    8.302738   8.542344   7.563514   5.366206   4.595835
    18  H    6.468025   7.004055   6.324893   4.695936   2.743557
    19  H    4.143098   4.927383   4.621414   3.963976   1.081854
    20  H    2.191505   3.420439   3.842280   4.608370   2.628415
    21  H    1.081973   2.125411   3.368104   5.343710   4.628203
    22  H    2.134856   1.080761   2.185072   4.661125   5.352343
    23  H    3.352660   2.126970   1.085485   2.706168   4.625698
    24  H    4.693084   4.033983   2.693380   1.104771   3.677320
    25  H    4.693084   4.033983   2.693380   1.104771   3.677320
                   11         12         13         14         15
    11  C    0.000000
    12  C    1.369001   0.000000
    13  C    2.524274   2.868647   0.000000
    14  C    2.868900   2.475431   1.447184   0.000000
    15  H    2.129387   3.365803   4.086078   4.861881   0.000000
    16  H    3.376840   3.866871   5.877792   6.151702   2.479988
    17  H    3.852889   3.386335   6.169499   5.834152   4.317150
    18  H    3.397630   2.193919   4.939182   4.127188   4.941958
    19  H    3.406063   2.177556   3.450216   2.157718   5.507132
    20  H    4.846673   4.076011   3.380461   2.099426   6.916343
    21  H    6.203899   5.909378   3.894333   3.444696   7.974546
    22  H    5.968186   6.222926   3.457148   3.963517   7.220429
    23  H    4.204737   4.928004   2.172762   3.458779   4.976142
    24  H    2.174118   3.257388   2.064598   3.239396   2.664579
    25  H    2.174118   3.257388   2.064598   3.239396   2.664579
                   16         17         18         19         20
    16  H    0.000000
    17  H    2.530079   0.000000
    18  H    4.268167   2.388228   0.000000
    19  H    5.902612   4.710772   2.485982   0.000000
    20  H    7.937585   7.101093   4.935123   2.449308   0.000000
    21  H    9.558115   9.218709   7.260612   4.834472   2.539277
    22  H    9.273567   9.589659   8.084453   5.989505   4.314632
    23  H    7.240718   8.048057   7.069929   5.581091   4.927600
    24  H    4.832719   5.853446   5.383438   4.735766   5.261529
    25  H    4.832719   5.853446   5.383438   4.735766   5.261529
                   21         22         23         24         25
    21  H    0.000000
    22  H    2.438374   0.000000
    23  H    4.240454   2.473799   0.000000
    24  H    5.751363   4.782149   2.633774   0.000000
    25  H    5.751363   4.782149   2.633774   1.719170   0.000000
 Stoichiometry    C14H11(1+)
 Framework group  CS[SG(C14H9),X(H2)]
 Deg. of freedom    46
 Full point group                 CS      NOp   2
 Largest Abelian subgroup         CS      NOp   2
 Largest concise Abelian subgroup CS      NOp   2
                         Standard orientation:                         
 ---------------------------------------------------------------------
 Center     Atomic      Atomic             Coordinates (Angstroms)
 Number     Number       Type             X           Y           Z
 ---------------------------------------------------------------------
      1          6           0       -2.399952   -1.523151    0.000000
      2          6           0       -2.366484   -2.899677    0.000000
      3          6           0       -1.146671   -3.567451    0.000000
      4          6           0        0.038620   -2.854679    0.000000
      5          6           0        2.409082    1.463860    0.000000
      6          6           0        2.402863    2.888912    0.000000
      7          6           0        1.208545    3.582913    0.000000
      8          6           0        0.017285    2.836928    0.000000
      9          6           0       -1.264116    0.717304    0.000000
     10          6           0        1.252383   -0.688575    0.000000
     11          6           0       -1.197434   -0.794662    0.000000
     12          6           0        0.009327   -1.441107    0.000000
     13          6           0        0.000000    1.427524    0.000000
     14          6           0        1.251184    0.700282    0.000000
     15          1           0       -3.320916   -0.953137    0.000000
     16          1           0       -3.304999   -3.433074    0.000000
     17          1           0       -1.084558   -4.645898    0.000000
     18          1           0        0.963137   -3.416842    0.000000
     19          1           0        2.178312   -1.248097    0.000000
     20          1           0        3.340305    0.908030    0.000000
     21          1           0        3.329624    3.447284    0.000000
     22          1           0        1.216302    4.663646    0.000000
     23          1           0       -0.910570    3.400278    0.000000
     24          1           0       -1.847214    1.093641    0.859585
     25          1           0       -1.847214    1.093641   -0.859585
 ---------------------------------------------------------------------
 Rotational constants (GHZ):           2.1361101           0.4446002           0.3688052
 Standard basis: 6-311++G(d,p) (5D, 7F)
 There are   299 symmetry adapted cartesian basis functions of A'  symmetry.
 There are   100 symmetry adapted cartesian basis functions of A"  symmetry.
 There are   285 symmetry adapted basis functions of A'  symmetry.
 There are   100 symmetry adapted basis functions of A"  symmetry.
   385 basis functions,   603 primitive gaussians,   399 cartesian basis functions
    47 alpha electrons       47 beta electrons
       nuclear repulsion energy       781.2364875862 Hartrees.
 NAtoms=   25 NActive=   25 NUniq=   24 SFac= 1.09D+00 NAtFMM=   60 NAOKFM=F Big=F
 Integral buffers will be    131072 words long.
 Regular integral format.
 Two-electron integral symmetry is turned on.
 Nuclear repulsion after empirical dispersion term =      781.2355083418 Hartrees.
 One-electron integrals computed using PRISM.
 NBasis=   385 RedAO= T EigKep=  1.07D-06  NBF=   285   100
 NBsUse=   379 1.00D-06 EigRej=  8.26D-07 NBFU=   279   100
 ExpMin= 3.60D-02 ExpMax= 4.56D+03 ExpMxC= 6.82D+02 IAcc=3 IRadAn=         5 AccDes= 0.00D+00
 Harris functional with IExCor= 1009 and IRadAn=       5 diagonalized for initial guess.
 HarFok:  IExCor= 1009 AccDes= 0.00D+00 IRadAn=         5 IDoV= 1 UseB2=F ITyADJ=14
 ICtDFT=  3500011 ScaDFX=  1.000000  1.000000  1.000000  1.000000
 FoFCou: FMM=F IPFlag=           0 FMFlag=      100000 FMFlg1=           0
         NFxFlg=           0 DoJE=T BraDBF=F KetDBF=T FulRan=T
         wScrn=  0.000000 ICntrl=       500 IOpCl=  0 I1Cent=   200000004 NGrid=           0
         NMat0=    1 NMatS0=      1 NMatT0=    0 NMatD0=    1 NMtDS0=    0 NMtDT0=    0
 Petite list used in FoFCou.
 Initial guess orbital symmetries:
       Occupied  (A') (A') (A') (A') (A') (A') (A') (A') (A') (A')
                 (A') (A') (A') (A') (A') (A') (A') (A') (A') (A')
                 (A') (A') (A') (A') (A') (A') (A') (A') (A') (A')
                 (A') (A') (A") (A') (A') (A') (A') (A') (A") (A')
                 (A") (A') (A') (A") (A") (A") (A")
       Virtual   (A") (A") (A") (A") (A") (A') (A') (A') (A') (A")
                 (A") (A') (A') (A') (A") (A') (A') (A') (A') (A")
                 (A') (A") (A') (A') (A') (A") (A') (A") (A') (A')
                 (A') (A') (A') (A") (A') (A') (A") (A') (A') (A")
                 (A') (A') (A') (A") (A') (A') (A') (A') (A') (A")
                 (A') (A") (A') (A") (A') (A') (A') (A") (A") (A')
                 (A') (A') (A') (A') (A') (A') (A") (A') (A') (A")
                 (A') (A') (A') (A') (A') (A') (A') (A') (A') (A')
                 (A') (A') (A') (A') (A') (A') (A') (A') (A') (A')
                 (A') (A') (A') (A') (A') (A') (A') (A") (A") (A')
                 (A') (A") (A') (A") (A') (A") (A') (A") (A") (A')
                 (A") (A') (A') (A') (A") (A') (A') (A") (A") (A')
                 (A") (A") (A') (A') (A') (A") (A') (A') (A') (A")
                 (A') (A') (A') (A') (A') (A') (A") (A') (A') (A')
                 (A') (A') (A') (A') (A') (A') (A') (A') (A') (A")
                 (A") (A') (A") (A") (A') (A') (A') (A") (A") (A')
                 (A") (A') (A") (A") (A") (A') (A') (A') (A') (A')
                 (A') (A") (A') (A') (A") (A') (A') (A') (A') (A')
                 (A") (A') (A') (A") (A') (A') (A") (A') (A") (A")
                 (A") (A') (A') (A') (A") (A') (A') (A") (A') (A')
                 (A") (A") (A") (A') (A') (A") (A') (A") (A') (A')
                 (A") (A') (A") (A") (A') (A') (A") (A') (A') (A")
                 (A') (A') (A') (A') (A") (A') (A') (A') (A") (A")
                 (A') (A') (A') (A") (A') (A') (A") (A') (A") (A')
                 (A") (A') (A') (A') (A') (A") (A') (A') (A') (A")
                 (A') (A') (A') (A") (A") (A') (A') (A") (A') (A')
                 (A') (A") (A') (A") (A') (A') (A") (A') (A") (A')
                 (A') (A') (A') (A') (A") (A') (A") (A') (A") (A')
                 (A") (A') (A") (A") (A') (A") (A') (A') (A') (A')
                 (A') (A') (A') (A') (A') (A') (A') (A') (A') (A')
                 (A') (A') (A') (A') (A") (A') (A') (A') (A') (A')
                 (A') (A') (A') (A') (A') (A') (A') (A') (A') (A')
                 (A') (A') (A') (A') (A') (A') (A') (A') (A') (A')
                 (A') (A')
 The electronic state of the initial guess is 1-A'.
 Requested convergence on RMS density matrix=1.00D-08 within 128 cycles.
 Requested convergence on MAX density matrix=1.00D-06.
 Requested convergence on             energy=1.00D-06.
 No special actions if energy rises.
 SCF Done:  E(RM062X) =  -539.752040806     A.U. after   15 cycles
            NFock= 15  Conv=0.80D-08     -V/T= 2.0041
 DoSCS=F DFT=T ScalE2(SS,OS)=  1.000000  1.000000
 ExpMin= 3.60D-02 ExpMax= 4.56D+03 ExpMxC= 6.82D+02 IAcc=3 IRadAn=         5 AccDes= 0.00D+00
 HarFok:  IExCor=  205 AccDes= 0.00D+00 IRadAn=         5 IDoV=-2 UseB2=F ITyADJ=14
 ICtDFT= 12500011 ScaDFX=  1.000000  1.000000  1.000000  1.000000
 Range of M.O.s used for correlation:    15   379
 NBasis=   385 NAE=    47 NBE=    47 NFC=    14 NFV=     0
 NROrb=    365 NOA=    33 NOB=    33 NVA=   332 NVB=   332

 **** Warning!!: The largest alpha MO coefficient is  0.14442367D+03

 Orbital symmetries:
       Occupied  (A') (A') (A') (A') (A') (A') (A') (A') (A') (A')
                 (A') (A') (A') (A') (A') (A') (A') (A') (A') (A')
                 (A') (A') (A') (A') (A') (A') (A') (A') (A') (A')
                 (A') (A") (A') (A') (A') (A') (A') (A") (A") (A')
                 (A') (A') (A') (A") (A") (A") (A")
       Virtual   (A") (A") (A") (A") (A') (A') (A') (A') (A") (A')
                 (A') (A") (A') (A') (A") (A') (A") (A') (A') (A')
                 (A") (A") (A') (A') (A') (A") (A') (A") (A') (A')
                 (A") (A') (A") (A') (A') (A') (A') (A') (A") (A')
                 (A") (A') (A') (A") (A") (A') (A") (A') (A") (A')
                 (A') (A') (A') (A') (A') (A") (A') (A') (A') (A')
                 (A') (A") (A') (A') (A') (A") (A') (A') (A') (A')
                 (A') (A') (A') (A') (A') (A') (A') (A') (A') (A')
                 (A') (A') (A') (A') (A') (A') (A') (A') (A') (A')
                 (A') (A') (A') (A') (A") (A') (A") (A") (A') (A")
                 (A') (A') (A') (A') (A") (A") (A') (A") (A") (A')
                 (A') (A') (A") (A') (A') (A") (A') (A") (A') (A")
                 (A") (A') (A") (A') (A') (A') (A") (A') (A') (A')
                 (A') (A') (A') (A') (A') (A') (A') (A') (A') (A')
                 (A') (A') (A') (A") (A') (A') (A') (A') (A') (A')
                 (A') (A') (A") (A') (A") (A') (A") (A") (A') (A")
                 (A") (A') (A') (A") (A") (A") (A') (A") (A') (A')
                 (A') (A') (A') (A") (A') (A") (A') (A') (A') (A")
                 (A') (A') (A') (A") (A') (A") (A') (A') (A") (A")
                 (A") (A') (A') (A") (A') (A") (A') (A') (A') (A')
                 (A") (A") (A") (A') (A') (A") (A') (A") (A') (A')
                 (A') (A") (A") (A') (A") (A') (A') (A") (A') (A")
                 (A') (A') (A') (A') (A") (A') (A') (A') (A") (A")
                 (A') (A') (A') (A") (A') (A') (A') (A") (A") (A')
                 (A") (A') (A') (A") (A') (A') (A') (A') (A') (A')
                 (A") (A') (A') (A') (A') (A") (A") (A") (A') (A')
                 (A') (A') (A') (A') (A') (A') (A") (A') (A') (A')
                 (A') (A") (A') (A") (A") (A") (A') (A") (A') (A")
                 (A') (A") (A") (A') (A") (A") (A') (A') (A') (A')
                 (A') (A') (A') (A') (A') (A') (A') (A') (A') (A')
                 (A') (A') (A') (A') (A") (A') (A') (A') (A') (A')
                 (A') (A') (A') (A') (A') (A') (A') (A') (A') (A')
                 (A') (A') (A') (A') (A') (A') (A') (A') (A') (A')
                 (A') (A')
     4 initial guesses have been made.
 Convergence on wavefunction:    0.001000000000000
 Iteration     1 Dimension     4 NMult     0 NNew      4
 CISAX will form     4 AO SS matrices at one time.
 Iteration     2 Dimension     6 NMult     4 NNew      2
 Iteration     3 Dimension     8 NMult     6 NNew      2
 Iteration     4 Dimension    10 NMult     8 NNew      2
 Iteration     5 Dimension    12 NMult    10 NNew      2
 Iteration     6 Dimension    14 NMult    12 NNew      2
 ***********************************************************************
 Excited states from <AA,BB:AA,BB> singles matrix:
 ***********************************************************************
 
 Ground to excited state transition densities written to RWF  633
 Ground to excited state transition electric dipole moments (Au):
       state          X           Y           Z        Dip. S.      Osc.
         1        -0.4732      0.4795     -0.0000      0.4538      0.0311
 Ground to excited state transition velocity dipole moments (Au):
       state          X           Y           Z        Dip. S.      Osc.
         1         0.0561     -0.0521     -0.0000      0.0059      0.0380
 Ground to excited state transition magnetic dipole moments (Au):
       state          X           Y           Z
         1        -0.0000     -0.0000     -0.3496
 Ground to excited state transition velocity quadrupole moments (Au):
       state          XX          YY          ZZ          XY          XZ          YZ
         1         0.1651      0.1535     -0.0097      0.1512      0.0000     -0.0000
 <0|del|b> * <b|rxdel|0> + <0|del|b> * <b|delr+rdel|0>
 Rotatory Strengths (R) in cgs (10**-40 erg-esu-cm/Gauss)
       state          XX          YY          ZZ    R(velocity)    E-M Angle
         1         0.0000      0.0000      0.0000      0.0000       90.00
 1/2[<0|r|b>*<b|rxdel|0> + (<0|rxdel|b>*<b|r|0>)*]
 Rotatory Strengths (R) in cgs (10**-40 erg-esu-cm/Gauss)
       state          XX          YY          ZZ     R(length)
         1        -0.0000      0.0000     -0.0000     -0.0000
  1/2[<0|del|b>*<b|r|0> + (<0|r|b>*<b|del|0>)*] (Au)
       state          X           Y           Z        Dip. S.   Osc.(frdel)
         1        -0.0266     -0.0250      0.0000      0.0515      0.0343

 Excitation energies and oscillator strengths:
 
 Excited State   1:      Singlet-A'     2.7985 eV  443.04 nm  f=0.0311  <S**2>=0.000
      47 -> 48         0.70161
 This state for optimization and/or second-order correction.
 Total Energy, E(TD-HF/TD-DFT) =  -539.649198413    
 Copying the excited state density for this state as the 1-particle RhoCI density.
 SavETr:  write IOETrn=   770 NScale= 10 NData=  16 NLR=1 NState=    1 LETran=      28.

 **********************************************************************

            Population analysis using the SCF Density.

 **********************************************************************

 Orbital symmetries:
       Occupied  (A') (A') (A') (A') (A') (A') (A') (A') (A') (A')
                 (A') (A') (A') (A') (A') (A') (A') (A') (A') (A')
                 (A') (A') (A') (A') (A') (A') (A') (A') (A') (A')
                 (A') (A") (A') (A') (A') (A') (A') (A") (A") (A')
                 (A') (A') (A') (A") (A") (A") (A")
       Virtual   (A") (A") (A") (A") (A') (A') (A') (A') (A") (A')
                 (A') (A") (A') (A') (A") (A') (A") (A') (A') (A')
                 (A") (A") (A') (A') (A') (A") (A') (A") (A') (A')
                 (A") (A') (A") (A') (A') (A') (A') (A') (A") (A')
                 (A") (A') (A') (A") (A") (A') (A") (A') (A") (A')
                 (A') (A') (A') (A') (A') (A") (A') (A') (A') (A')
                 (A') (A") (A') (A') (A') (A") (A') (A') (A') (A')
                 (A') (A') (A') (A') (A') (A') (A') (A') (A') (A')
                 (A') (A') (A') (A') (A') (A') (A') (A') (A') (A')
                 (A') (A') (A') (A') (A") (A') (A") (A") (A') (A")
                 (A') (A') (A') (A') (A") (A") (A') (A") (A") (A')
                 (A') (A') (A") (A') (A') (A") (A') (A") (A') (A")
                 (A") (A') (A") (A') (A') (A') (A") (A') (A') (A')
                 (A') (A') (A') (A') (A') (A') (A') (A') (A') (A')
                 (A') (A') (A') (A") (A') (A') (A') (A') (A') (A')
                 (A') (A') (A") (A') (A") (A') (A") (A") (A') (A")
                 (A") (A') (A') (A") (A") (A") (A') (A") (A') (A')
                 (A') (A') (A') (A") (A') (A") (A') (A') (A') (A")
                 (A') (A') (A') (A") (A') (A") (A') (A') (A") (A")
                 (A") (A') (A') (A") (A') (A") (A') (A') (A') (A')
                 (A") (A") (A") (A') (A') (A") (A') (A") (A') (A')
                 (A') (A") (A") (A') (A") (A') (A') (A") (A') (A")
                 (A') (A') (A') (A') (A") (A') (A') (A') (A") (A")
                 (A') (A') (A') (A") (A') (A') (A') (A") (A") (A')
                 (A") (A') (A') (A") (A') (A') (A') (A') (A') (A')
                 (A") (A') (A') (A') (A') (A") (A") (A") (A') (A')
                 (A') (A') (A') (A') (A') (A') (A") (A') (A') (A')
                 (A') (A") (A') (A") (A") (A") (A') (A") (A') (A")
                 (A') (A") (A") (A') (A") (A") (A') (A') (A') (A')
                 (A') (A') (A') (A') (A') (A') (A') (A') (A') (A')
                 (A') (A') (A') (A') (A") (A') (A') (A') (A') (A')
                 (A') (A') (A') (A') (A') (A') (A') (A') (A') (A')
                 (A') (A') (A') (A') (A') (A') (A') (A') (A') (A')
                 (A') (A')
 The electronic state is 1-A'.
 Alpha  occ. eigenvalues --  -10.77630 -10.73707 -10.72753 -10.72571 -10.72260
 Alpha  occ. eigenvalues --  -10.72017 -10.71538 -10.70997 -10.70757 -10.70463
 Alpha  occ. eigenvalues --  -10.70342 -10.70110 -10.69597 -10.69151  -1.16482
 Alpha  occ. eigenvalues --   -1.12505  -1.06982  -1.05851  -1.01283  -1.00253
 Alpha  occ. eigenvalues --   -0.95768  -0.91120  -0.86394  -0.85860  -0.83761
 Alpha  occ. eigenvalues --   -0.78413  -0.76036  -0.74390  -0.69933  -0.69050
 Alpha  occ. eigenvalues --   -0.68535  -0.68133  -0.68025  -0.64846  -0.64140
 Alpha  occ. eigenvalues --   -0.63028  -0.61771  -0.60074  -0.59671  -0.59227
 Alpha  occ. eigenvalues --   -0.56827  -0.55149  -0.54628  -0.52479  -0.46606
 Alpha  occ. eigenvalues --   -0.46114  -0.44458
 Alpha virt. eigenvalues --   -0.26109  -0.14776  -0.13983  -0.12724  -0.11183
 Alpha virt. eigenvalues --   -0.10095  -0.09237  -0.07995  -0.07941  -0.07472
 Alpha virt. eigenvalues --   -0.07206  -0.07135  -0.05645  -0.05586  -0.05347
 Alpha virt. eigenvalues --   -0.03840  -0.03650  -0.03306  -0.03126  -0.02158
 Alpha virt. eigenvalues --   -0.01368  -0.00933   0.00176   0.00549   0.00617
 Alpha virt. eigenvalues --    0.01042   0.01514   0.01875   0.02149   0.02250
 Alpha virt. eigenvalues --    0.02464   0.02679   0.02809   0.03273   0.03412
 Alpha virt. eigenvalues --    0.04228   0.04560   0.04715   0.05036   0.05358
 Alpha virt. eigenvalues --    0.06038   0.06276   0.06581   0.07049   0.07252
 Alpha virt. eigenvalues --    0.07884   0.08100   0.08309   0.08624   0.08890
 Alpha virt. eigenvalues --    0.09319   0.09695   0.09801   0.10640   0.11011
 Alpha virt. eigenvalues --    0.11113   0.12013   0.12262   0.12883   0.12949
 Alpha virt. eigenvalues --    0.13359   0.13527   0.14018   0.14661   0.15976
 Alpha virt. eigenvalues --    0.16332   0.16427   0.17307   0.17694   0.17833
 Alpha virt. eigenvalues --    0.18093   0.18759   0.19254   0.19702   0.19946
 Alpha virt. eigenvalues --    0.21507   0.21553   0.22786   0.23097   0.23491
 Alpha virt. eigenvalues --    0.23943   0.24618   0.25548   0.26830   0.27729
 Alpha virt. eigenvalues --    0.28714   0.29540   0.29922   0.31484   0.35074
 Alpha virt. eigenvalues --    0.36900   0.38150   0.39200   0.41266   0.41360
 Alpha virt. eigenvalues --    0.42034   0.42036   0.43043   0.43576   0.44295
 Alpha virt. eigenvalues --    0.44340   0.45319   0.46080   0.46825   0.47885
 Alpha virt. eigenvalues --    0.48519   0.48802   0.49043   0.50418   0.50921
 Alpha virt. eigenvalues --    0.51465   0.51845   0.52143   0.53028   0.54028
 Alpha virt. eigenvalues --    0.54102   0.54709   0.55630   0.55841   0.57432
 Alpha virt. eigenvalues --    0.58238   0.58903   0.61449   0.61858   0.62666
 Alpha virt. eigenvalues --    0.63341   0.63568   0.64799   0.65394   0.67101
 Alpha virt. eigenvalues --    0.70295   0.70713   0.70970   0.72234   0.72702
 Alpha virt. eigenvalues --    0.75545   0.76122   0.76353   0.77044   0.77120
 Alpha virt. eigenvalues --    0.77492   0.78181   0.78219   0.79907   0.80357
 Alpha virt. eigenvalues --    0.81235   0.81753   0.82306   0.83165   0.85062
 Alpha virt. eigenvalues --    0.87135   0.88140   0.88518   0.89259   0.90152
 Alpha virt. eigenvalues --    0.91154   0.91339   0.93416   0.94612   0.96241
 Alpha virt. eigenvalues --    0.96971   1.00513   1.01270   1.01284   1.02835
 Alpha virt. eigenvalues --    1.03426   1.03468   1.04944   1.05652   1.08928
 Alpha virt. eigenvalues --    1.19334   1.22996   1.23931   1.24144   1.28900
 Alpha virt. eigenvalues --    1.28955   1.32445   1.34374   1.35812   1.35975
 Alpha virt. eigenvalues --    1.38597   1.40728   1.41094   1.42529   1.43403
 Alpha virt. eigenvalues --    1.43902   1.44899   1.45426   1.45960   1.46940
 Alpha virt. eigenvalues --    1.47690   1.48254   1.51741   1.53595   1.54285
 Alpha virt. eigenvalues --    1.55804   1.56109   1.57363   1.58571   1.61495
 Alpha virt. eigenvalues --    1.63140   1.63351   1.63820   1.66019   1.68056
 Alpha virt. eigenvalues --    1.68162   1.69063   1.69506   1.74358   1.76281
 Alpha virt. eigenvalues --    1.76891   1.78232   1.79743   1.79925   1.81443
 Alpha virt. eigenvalues --    1.82951   1.83259   1.83273   1.83965   1.84302
 Alpha virt. eigenvalues --    1.85039   1.85654   1.86344   1.88105   1.91263
 Alpha virt. eigenvalues --    1.91329   1.94370   1.96357   1.97251   1.98655
 Alpha virt. eigenvalues --    1.99549   2.02664   2.04730   2.07055   2.11747
 Alpha virt. eigenvalues --    2.12162   2.14241   2.15161   2.19027   2.21117
 Alpha virt. eigenvalues --    2.23041   2.28375   2.30093   2.34464   2.34666
 Alpha virt. eigenvalues --    2.35878   2.38325   2.39679   2.41688   2.44614
 Alpha virt. eigenvalues --    2.46060   2.46543   2.48692   2.53526   2.54329
 Alpha virt. eigenvalues --    2.54428   2.56505   2.58076   2.58188   2.59448
 Alpha virt. eigenvalues --    2.59709   2.60462   2.61564   2.63165   2.63806
 Alpha virt. eigenvalues --    2.64979   2.65088   2.65387   2.65755   2.67658
 Alpha virt. eigenvalues --    2.70591   2.70946   2.71157   2.73363   2.74781
 Alpha virt. eigenvalues --    2.76313   2.79009   2.79767   2.81900   2.83108
 Alpha virt. eigenvalues --    2.85458   2.86272   2.92131   2.96883   2.98542
 Alpha virt. eigenvalues --    3.00952   3.04286   3.10373   3.11380   3.14191
 Alpha virt. eigenvalues --    3.19599   3.23830   3.26181   3.28600   3.30137
 Alpha virt. eigenvalues --    3.33978   3.34536   3.42591   3.45430   3.46890
 Alpha virt. eigenvalues --    3.47535   3.52172   3.56712   3.64801   3.65884
 Alpha virt. eigenvalues --    3.70227   3.93826   3.94242   3.95231   3.95946
 Alpha virt. eigenvalues --    4.03634   4.05753   4.08069   4.12248   4.35133
 Alpha virt. eigenvalues --    4.60801   4.67496   4.72796  23.45045  23.59579
 Alpha virt. eigenvalues --   23.78628  23.83885  23.84368  23.91196  23.92109
 Alpha virt. eigenvalues --   23.92979  23.96680  24.02465  24.03355  24.05052
 Alpha virt. eigenvalues --   24.08477  24.13650
          Condensed to atoms (all electrons):
               1          2          3          4          5          6
     1  C    8.487532   0.180092  -0.479379   2.019775  -0.144907  -0.096730
     2  C    0.180092   7.339037   0.256062  -1.211706   0.004976  -0.016351
     3  C   -0.479379   0.256062   6.531455   0.913186  -0.148491   0.017068
     4  C    2.019775  -1.211706   0.913186  10.404031  -0.576624  -0.114932
     5  C   -0.144907   0.004976  -0.148491  -0.576624  12.910507   0.758972
     6  C   -0.096730  -0.016351   0.017068  -0.114932   0.758972   6.630661
     7  C    0.009291  -0.002034  -0.011601   0.001237  -1.249781   0.405023
     8  C    0.389579  -0.027467  -0.103100   0.004298   2.576241  -0.540976
     9  C   -0.814369  -0.823349   0.305330  -0.077872  -0.177969   0.285152
    10  C   -1.280485   0.221879  -0.308941  -2.420153  -2.831112  -0.335405
    11  C    0.560559  -1.115068   1.107421   1.062952  -1.873578  -0.234561
    12  C   -2.689620   1.822239  -1.605191  -2.688853  -0.036292  -0.102394
    13  C    0.513261  -0.379536  -0.105846  -0.801458  -1.888489   0.719577
    14  C   -1.137931  -0.095664  -0.260364  -0.766081  -1.744662  -1.253137
    15  H    0.369196  -0.104438   0.003198   0.023013   0.006006   0.001275
    16  H   -0.019700   0.383475  -0.016976   0.016960  -0.001737  -0.000372
    17  H   -0.027715  -0.016219   0.383365  -0.077618   0.000099   0.000443
    18  H    0.050274   0.002939  -0.082316   0.460296   0.002413  -0.005047
    19  H   -0.040562  -0.008028   0.053168  -0.042553  -0.095775   0.047591
    20  H    0.006722   0.002528  -0.005180   0.004915   0.468825  -0.083964
    21  H   -0.001112  -0.000419   0.000355   0.000427  -0.066588   0.369680
    22  H    0.000739   0.000354  -0.000275  -0.001187   0.006880  -0.016837
    23  H    0.004134  -0.002294   0.000820   0.004009   0.040089  -0.005105
    24  H    0.039926   0.014443  -0.000424  -0.006521  -0.018623  -0.002633
    25  H    0.039926   0.014443  -0.000424  -0.006521  -0.018623  -0.002633
               7          8          9         10         11         12
     1  C    0.009291   0.389579  -0.814369  -1.280485   0.560559  -2.689620
     2  C   -0.002034  -0.027467  -0.823349   0.221879  -1.115068   1.822239
     3  C   -0.011601  -0.103100   0.305330  -0.308941   1.107421  -1.605191
     4  C    0.001237   0.004298  -0.077872  -2.420153   1.062952  -2.688853
     5  C   -1.249781   2.576241  -0.177969  -2.831112  -1.873578  -0.036292
     6  C    0.405023  -0.540976   0.285152  -0.335405  -0.234561  -0.102394
     7  C    7.132175   0.103681  -0.886895   0.306071  -0.193494  -0.241404
     8  C    0.103681   9.132541  -1.206390  -1.440546   0.007795  -1.030573
     9  C   -0.886895  -1.206390   9.687769   0.285554   1.791956  -2.172916
    10  C    0.306071  -1.440546   0.285554   8.949196  -0.463930   2.612566
    11  C   -0.193494   0.007795   1.791956  -0.463930  13.631714  -4.214479
    12  C   -0.241404  -1.030573  -2.172916   2.612566  -4.214479  17.340786
    13  C   -0.438826  -0.187245   1.169808  -0.062403   0.779473  -4.916550
    14  C    1.161405  -2.191014  -1.919388   2.255574  -4.274548   3.254841
    15  H   -0.002527   0.006918   0.085560  -0.006218  -0.032776  -0.025067
    16  H    0.000358   0.000647  -0.000074  -0.009783   0.018102  -0.025971
    17  H   -0.000376  -0.001531  -0.004426   0.019286  -0.024789   0.095752
    18  H    0.001873   0.006968  -0.021022  -0.000552   0.011533  -0.060842
    19  H   -0.006450  -0.054426   0.075798   0.421326   0.075288  -0.059809
    20  H    0.000260   0.056702  -0.025754   0.013470  -0.009936  -0.013922
    21  H   -0.014210  -0.028824  -0.007282   0.019572  -0.006545   0.005684
    22  H    0.378311  -0.024741   0.004023  -0.006498   0.003424  -0.008494
    23  H   -0.115882   0.378144   0.100335  -0.013717   0.003528   0.008543
    24  H    0.014582   0.022785   0.357857   0.005566   0.010217  -0.056208
    25  H    0.014582   0.022785   0.357857   0.005566   0.010217  -0.056208
              13         14         15         16         17         18
     1  C    0.513261  -1.137931   0.369196  -0.019700  -0.027715   0.050274
     2  C   -0.379536  -0.095664  -0.104438   0.383475  -0.016219   0.002939
     3  C   -0.105846  -0.260364   0.003198  -0.016976   0.383365  -0.082316
     4  C   -0.801458  -0.766081   0.023013   0.016960  -0.077618   0.460296
     5  C   -1.888489  -1.744662   0.006006  -0.001737   0.000099   0.002413
     6  C    0.719577  -1.253137   0.001275  -0.000372   0.000443  -0.005047
     7  C   -0.438826   1.161405  -0.002527   0.000358  -0.000376   0.001873
     8  C   -0.187245  -2.191014   0.006918   0.000647  -0.001531   0.006968
     9  C    1.169808  -1.919388   0.085560  -0.000074  -0.004426  -0.021022
    10  C   -0.062403   2.255574  -0.006218  -0.009783   0.019286  -0.000552
    11  C    0.779473  -4.274548  -0.032776   0.018102  -0.024789   0.011533
    12  C   -4.916550   3.254841  -0.025067  -0.025971   0.095752  -0.060842
    13  C   14.920250  -2.731767   0.002484   0.002146  -0.006184  -0.009751
    14  C   -2.731767  15.347485   0.003070  -0.009097   0.004746  -0.020790
    15  H    0.002484   0.003070   0.445560  -0.009851   0.001736   0.000015
    16  H    0.002146  -0.009097  -0.009851   0.421324  -0.007374   0.002125
    17  H   -0.006184   0.004746   0.001736  -0.007374   0.428239  -0.012242
    18  H   -0.009751  -0.020790   0.000015   0.002125  -0.012242   0.452779
    19  H    0.075888  -0.066857   0.000373  -0.000614   0.001692  -0.005199
    20  H   -0.008929  -0.068502  -0.000135   0.000023  -0.000173   0.001184
    21  H   -0.024388   0.094985   0.000014  -0.000007   0.000011  -0.000119
    22  H    0.029937  -0.028929  -0.000129   0.000008  -0.000007   0.000010
    23  H   -0.044116  -0.027228   0.000534  -0.000128   0.000013  -0.000093
    24  H    0.017185  -0.063072  -0.001180   0.000617  -0.000124   0.000134
    25  H    0.017185  -0.063072  -0.001180   0.000617  -0.000124   0.000134
              19         20         21         22         23         24
     1  C   -0.040562   0.006722  -0.001112   0.000739   0.004134   0.039926
     2  C   -0.008028   0.002528  -0.000419   0.000354  -0.002294   0.014443
     3  C    0.053168  -0.005180   0.000355  -0.000275   0.000820  -0.000424
     4  C   -0.042553   0.004915   0.000427  -0.001187   0.004009  -0.006521
     5  C   -0.095775   0.468825  -0.066588   0.006880   0.040089  -0.018623
     6  C    0.047591  -0.083964   0.369680  -0.016837  -0.005105  -0.002633
     7  C   -0.006450   0.000260  -0.014210   0.378311  -0.115882   0.014582
     8  C   -0.054426   0.056702  -0.028824  -0.024741   0.378144   0.022785
     9  C    0.075798  -0.025754  -0.007282   0.004023   0.100335   0.357857
    10  C    0.421326   0.013470   0.019572  -0.006498  -0.013717   0.005566
    11  C    0.075288  -0.009936  -0.006545   0.003424   0.003528   0.010217
    12  C   -0.059809  -0.013922   0.005684  -0.008494   0.008543  -0.056208
    13  C    0.075888  -0.008929  -0.024388   0.029937  -0.044116   0.017185
    14  C   -0.066857  -0.068502   0.094985  -0.028929  -0.027228  -0.063072
    15  H    0.000373  -0.000135   0.000014  -0.000129   0.000534  -0.001180
    16  H   -0.000614   0.000023  -0.000007   0.000008  -0.000128   0.000617
    17  H    0.001692  -0.000173   0.000011  -0.000007   0.000013  -0.000124
    18  H   -0.005199   0.001184  -0.000119   0.000010  -0.000093   0.000134
    19  H    0.443100  -0.006998   0.001183  -0.000443   0.000197   0.000617
    20  H   -0.006998   0.456983  -0.008838   0.001637   0.000322   0.000232
    21  H    0.001183  -0.008838   0.417524  -0.005711   0.001077  -0.000151
    22  H   -0.000443   0.001637  -0.005711   0.417544  -0.008162   0.000643
    23  H    0.000197   0.000322   0.001077  -0.008162   0.434531  -0.000651
    24  H    0.000617   0.000232  -0.000151   0.000643  -0.000651   0.494339
    25  H    0.000617   0.000232  -0.000151   0.000643  -0.000651  -0.079753
              25
     1  C    0.039926
     2  C    0.014443
     3  C   -0.000424
     4  C   -0.006521
     5  C   -0.018623
     6  C   -0.002633
     7  C    0.014582
     8  C    0.022785
     9  C    0.357857
    10  C    0.005566
    11  C    0.010217
    12  C   -0.056208
    13  C    0.017185
    14  C   -0.063072
    15  H   -0.001180
    16  H    0.000617
    17  H   -0.000124
    18  H    0.000134
    19  H    0.000617
    20  H    0.000232
    21  H   -0.000151
    22  H    0.000643
    23  H   -0.000651
    24  H   -0.079753
    25  H    0.494339
 Mulliken charges:
               1
     1  C    0.061502
     2  C   -0.439894
     3  C   -0.442918
     4  C   -0.123021
     5  C    0.098244
     6  C   -0.424366
     7  C   -0.365370
     8  C    0.127750
     9  C   -0.369293
    10  C    0.064117
    11  C   -0.630475
    12  C    0.864381
    13  C   -0.641706
    14  C    0.599992
    15  H    0.234549
    16  H    0.255285
    17  H    0.243521
    18  H    0.225294
    19  H    0.190875
    20  H    0.218293
    21  H    0.253834
    22  H    0.257261
    23  H    0.241753
    24  H    0.250196
    25  H    0.250196
 Sum of Mulliken charges =   1.00000
 Mulliken charges with hydrogens summed into heavy atoms:
               1
     1  C    0.296051
     2  C   -0.184609
     3  C   -0.199396
     4  C    0.102272
     5  C    0.316537
     6  C   -0.170532
     7  C   -0.108109
     8  C    0.369502
     9  C    0.131099
    10  C    0.254992
    11  C   -0.630475
    12  C    0.864381
    13  C   -0.641706
    14  C    0.599992
 Electronic spatial extent (au):  <R**2>=           2856.1294
 Charge=              1.0000 electrons
 Dipole moment (field-independent basis, Debye):
    X=              0.4533    Y=              0.4275    Z=              0.0000  Tot=              0.6231
 Quadrupole moment (field-independent basis, Debye-Ang):
   XX=            -51.1439   YY=            -36.2777   ZZ=            -84.1315
   XY=             10.1841   XZ=              0.0000   YZ=             -0.0000
 Traceless Quadrupole moment (field-independent basis, Debye-Ang):
   XX=              6.0405   YY=             20.9066   ZZ=            -26.9471
   XY=             10.1841   XZ=              0.0000   YZ=             -0.0000
 Octapole moment (field-independent basis, Debye-Ang**2):
  XXX=              1.2818  YYY=             13.4219  ZZZ=              0.0000  XYY=              4.7968
  XXY=             -2.6455  XXZ=              0.0000  XZZ=             -2.5871  YZZ=              1.6759
  YYZ=              0.0000  XYZ=             -0.0000
 Hexadecapole moment (field-independent basis, Debye-Ang**3):
 XXXX=          -1026.5117 YYYY=          -1809.7553 ZZZZ=            -99.2972 XXXY=           -361.3804
 XXXZ=             -0.0000 YYYX=           -285.8850 YYYZ=             -0.0000 ZZZX=             -0.0000
 ZZZY=              0.0000 XXYY=           -456.0458 XXZZ=           -248.7294 YYZZ=           -487.8331
 XXYZ=             -0.0000 YYXZ=             -0.0000 ZZXY=           -187.7077
 N-N= 7.812355083418D+02 E-N=-2.798817500650D+03  KE= 5.375265464899D+02
 Symmetry A'   KE= 5.228718993503D+02
 Symmetry A"   KE= 1.465464713959D+01
 Unable to Open any file for archive entry.
 1\1\GINC-GADI-CPU-CLX-2461\SP\RM062X TD-FC\6-311++G(d,p)\C14H11(1+)\TS
 1578\27-Jul-2022\0\\#n M062X/6-311++G(d,p) TD(NStates=1) EmpiricalDisp
 ersion=GD3 SP\\SP_14\\1,1\C,0,0.,2.494255,1.361831\C,0,0.,3.682308,0.6
 65789\C,0,0.,3.675661,-0.72483\C,0,0.,2.477956,-1.416538\C,0,0.,-2.448
 356,-1.398538\C,0,0.,-3.692061,-0.70283\C,0,0.,-3.720708,0.678189\C,0,
 0.,-2.491055,1.359031\C,0,0.,-0.016,1.453369\C,0,0.,-0.005,-1.429189\C
 ,0,0.,1.274455,0.662665\C,0,0.,1.255471,-0.706204\C,0,0.,-1.249655,0.6
 91465\C,0,0.,-1.219471,-0.755404\H,0,0.,2.441671,2.443647\H,0,0.,4.603
 553,1.228489\H,0,0.,4.589062,-1.301549\H,0,0.,2.52195,-2.497659\H,0,0.
 ,0.036,-2.510266\H,0,0.,-2.41315,-2.482459\H,0,0.,-4.629462,-1.243149\
 H,0,0.,-4.669953,1.194889\H,0,0.,-2.534471,2.443647\H,0,-0.859585,-0.0
 628,2.145787\H,0,0.859585,-0.0628,2.145787\\Version=ES64L-G16RevC.01\S
 tate=1-A'\HF=-539.7520408\RMSD=8.005e-09\PG=CS [SG(C14H9),X(H2)]\\@
 The archive entry for this job was punched.


 IT IS A PROFOUNDLY ERRONEOUS TRUISM ... THAT WE SHOULD CULTIVATE
 THE HABIT OF THINKING OF WHAT WE ARE DOING.
 THE PRECISE OPPOSITE IS THE CASE.
 CIVILIZATION ADVANCES BY EXTENDING THE NUMBER OF IMPORTANT OPERATIONS
 WHICH WE CAN PERFORM WITHOUT THINKING ABOUT THEM.

                                    -- ALFRED NORTH WHITEHEAD
 Job cpu time:       0 days  0 hours 46 minutes 41.4 seconds.
 Elapsed time:       0 days  0 hours  1 minutes 31.1 seconds.
 File lengths (MBytes):  RWF=    460 Int=      0 D2E=      0 Chk=     15 Scr=      1
 Normal termination of Gaussian 16 at Wed Jul 27 14:16:33 2022.
