 Entering Gaussian System, Link 0=g16
 Initial command:
 /apps/gaussian/g16c01/g16/l1.exe "/jobfs/52822737.gadi-pbs/Gau-2050457.inp" -scrdir="/jobfs/52822737.gadi-pbs/"
 Entering Link 1 = /apps/gaussian/g16c01/g16/l1.exe PID=   2050458.
  
 Copyright (c) 1988-2019, Gaussian, Inc.  All Rights Reserved.
  
 This is part of the Gaussian(R) 16 program.  It is based on
 the Gaussian(R) 09 system (copyright 2009, Gaussian, Inc.),
 the Gaussian(R) 03 system (copyright 2003, Gaussian, Inc.),
 the Gaussian(R) 98 system (copyright 1998, Gaussian, Inc.),
 the Gaussian(R) 94 system (copyright 1995, Gaussian, Inc.),
 the Gaussian 92(TM) system (copyright 1992, Gaussian, Inc.),
 the Gaussian 90(TM) system (copyright 1990, Gaussian, Inc.),
 the Gaussian 88(TM) system (copyright 1988, Gaussian, Inc.),
 the Gaussian 86(TM) system (copyright 1986, Carnegie Mellon
 University), and the Gaussian 82(TM) system (copyright 1983,
 Carnegie Mellon University). Gaussian is a federally registered
 trademark of Gaussian, Inc.
  
 This software contains proprietary and confidential information,
 including trade secrets, belonging to Gaussian, Inc.
  
 This software is provided under written license and may be
 used, copied, transmitted, or stored only in accord with that
 written license.
  
 The following legend is applicable only to US Government
 contracts under FAR:
  
                    RESTRICTED RIGHTS LEGEND
  
 Use, reproduction and disclosure by the US Government is
 subject to restrictions as set forth in subparagraphs (a)
 and (c) of the Commercial Computer Software - Restricted
 Rights clause in FAR 52.227-19.
  
 Gaussian, Inc.
 340 Quinnipiac St., Bldg. 40, Wallingford CT 06492
  
  
 ---------------------------------------------------------------
 Warning -- This program may not be used in any manner that
 competes with the business of Gaussian, Inc. or will provide
 assistance to any competitor of Gaussian, Inc.  The licensee
 of this program is prohibited from giving any competitor of
 Gaussian, Inc. access to this program.  By using this program,
 the user acknowledges that Gaussian, Inc. is engaged in the
 business of creating and licensing software in the field of
 computational chemistry and represents and warrants to the
 licensee that it is not a competitor of Gaussian, Inc. and that
 it will not use this program in any manner prohibited above.
 ---------------------------------------------------------------
  

 Cite this work as:
 Gaussian 16, Revision C.01,
 M. J. Frisch, G. W. Trucks, H. B. Schlegel, G. E. Scuseria, 
 M. A. Robb, J. R. Cheeseman, G. Scalmani, V. Barone, 
 G. A. Petersson, H. Nakatsuji, X. Li, M. Caricato, A. V. Marenich, 
 J. Bloino, B. G. Janesko, R. Gomperts, B. Mennucci, H. P. Hratchian, 
 J. V. Ortiz, A. F. Izmaylov, J. L. Sonnenberg, D. Williams-Young, 
 F. Ding, F. Lipparini, F. Egidi, J. Goings, B. Peng, A. Petrone, 
 T. Henderson, D. Ranasinghe, V. G. Zakrzewski, J. Gao, N. Rega, 
 G. Zheng, W. Liang, M. Hada, M. Ehara, K. Toyota, R. Fukuda, 
 J. Hasegawa, M. Ishida, T. Nakajima, Y. Honda, O. Kitao, H. Nakai, 
 T. Vreven, K. Throssell, J. A. Montgomery, Jr., J. E. Peralta, 
 F. Ogliaro, M. J. Bearpark, J. J. Heyd, E. N. Brothers, K. N. Kudin, 
 V. N. Staroverov, T. A. Keith, R. Kobayashi, J. Normand, 
 K. Raghavachari, A. P. Rendell, J. C. Burant, S. S. Iyengar, 
 J. Tomasi, M. Cossi, J. M. Millam, M. Klene, C. Adamo, R. Cammi, 
 J. W. Ochterski, R. L. Martin, K. Morokuma, O. Farkas, 
 J. B. Foresman, and D. J. Fox, Gaussian, Inc., Wallingford CT, 2019.
 
 ******************************************
 Gaussian 16:  ES64L-G16RevC.01  3-Jul-2019
                27-Jul-2022 
 ******************************************
 %NProcShared=32
 Will use up to   32 processors via shared memory.
 %mem = 128GB
 ---------------------------------------------------------------
 #n M062X/6-311++G(d,p) TD(NStates=1) EmpiricalDispersion=GD3 SP
 ---------------------------------------------------------------
 1/38=1,172=1/1;
 2/12=2,17=6,18=5,40=1/2;
 3/5=4,6=6,7=1111,11=9,25=1,30=1,74=-55,124=31/1,2,3,8;
 4//1;
 5/5=2,38=5/2;
 8/6=1,10=2,108=1/1;
 9/41=1,42=1,70=2/14;
 6/7=2,8=2,9=2,10=2/1;
 99/5=1,9=1/99;
 -----
 SP_12
 -----
 Symbolic Z-matrix:
 Charge =  1 Multiplicity = 1
 C                     0.        2.49266   1.36163 
 C                     0.        3.68351   0.66599 
 C                     0.        3.67606  -0.72463 
 C                     0.        2.47756  -1.41594 
 C                     0.       -2.44876  -1.39914 
 C                     0.       -3.69166  -0.70303 
 C                     0.       -3.71951   0.67799 
 C                     0.       -2.49266   1.35923 
 C                     0.       -0.0144    1.45337 
 C                     0.       -0.0018   -1.42919 
 C                     0.        1.27346   0.66567 
 C                     0.        1.25367  -0.7098 
 C                     0.       -1.25066   0.68847 
 C                     0.       -1.22127  -0.7518 
 H                     0.        2.44787   2.44365 
 H                     0.        4.60675   1.22549 
 H                     0.        4.59186  -1.29755 
 H                     0.        2.51495  -2.49726 
 H                     0.        0.033    -2.51027 
 H                     0.       -2.42015  -2.48286 
 H                     0.       -4.62666  -1.24715 
 H                     0.       -4.66675   1.19789 
 H                     0.       -2.52827   2.44365 
 H                    -0.85959  -0.0576    2.14579 
 H                     0.85959  -0.0576    2.14579 
 
                          Input orientation:                          
 ---------------------------------------------------------------------
 Center     Atomic      Atomic             Coordinates (Angstroms)
 Number     Number       Type             X           Y           Z
 ---------------------------------------------------------------------
      1          6           0        0.000000    2.492655    1.361631
      2          6           0        0.000000    3.683508    0.665989
      3          6           0        0.000000    3.676061   -0.724630
      4          6           0        0.000000    2.477556   -1.415938
      5          6           0        0.000000   -2.448756   -1.399138
      6          6           0        0.000000   -3.691661   -0.703030
      7          6           0        0.000000   -3.719508    0.677989
      8          6           0        0.000000   -2.492655    1.359231
      9          6           0        0.000000   -0.014400    1.453369
     10          6           0        0.000000   -0.001800   -1.429189
     11          6           0        0.000000    1.273455    0.665665
     12          6           0        0.000000    1.253671   -0.709804
     13          6           0        0.000000   -1.250655    0.688465
     14          6           0        0.000000   -1.221271   -0.751804
     15          1           0        0.000000    2.447871    2.443647
     16          1           0        0.000000    4.606753    1.225489
     17          1           0        0.000000    4.591862   -1.297549
     18          1           0        0.000000    2.514950   -2.497259
     19          1           0        0.000000    0.033000   -2.510266
     20          1           0        0.000000   -2.420150   -2.482859
     21          1           0        0.000000   -4.626662   -1.247149
     22          1           0        0.000000   -4.666753    1.197889
     23          1           0        0.000000   -2.528271    2.443647
     24          1           0       -0.859585   -0.057600    2.145787
     25          1           0        0.859585   -0.057600    2.145787
 ---------------------------------------------------------------------
                    Distance matrix (angstroms):
                    1          2          3          4          5
     1  C    0.000000
     2  C    1.379148   0.000000
     3  C    2.398528   1.390639   0.000000
     4  C    2.777610   2.405980   1.383590   0.000000
     5  C    5.660335   6.470658   6.161846   4.926341   0.000000
     6  C    6.519861   7.501155   7.367754   6.210272   1.424563
     7  C    6.249667   7.403026   7.527402   6.541264   2.435009
     8  C    4.985311   6.214948   6.511185   5.692500   2.758718
     9  C    2.508733   3.780806   4.285228   3.800364   3.750051
    10  C    3.743125   4.239253   3.744738   2.479391   2.447141
    11  C    1.403858   2.410053   2.775867   2.404772   4.256556
    12  C    2.413695   2.792296   2.422435   1.412983   3.766052
    13  C    3.803357   4.934214   5.125365   4.281129   2.406976
    14  C    4.273155   5.105585   4.897407   3.757978   1.387718
    15  H    1.082942   2.164917   3.398004   3.859699   6.224464
    16  H    2.118477   1.079547   2.160822   3.392730   7.527873
    17  H    3.387906   2.163467   1.080244   2.117618   7.041351
    18  H    3.858954   3.372190   2.119055   1.081967   5.083724
    19  H    4.587100   4.838885   4.057141   2.678322   2.719139
    20  H    6.238249   6.868034   6.344695   5.012569   1.084098
    21  H    7.582243   8.527545   8.319149   7.106223   2.183203
    22  H    7.161280   8.367184   8.561462   7.607447   3.415269
    23  H    5.136191   6.461135   6.966471   6.320973   3.843608
    24  H    2.803139   4.113949   4.787317   4.455534   4.361537
    25  H    2.803139   4.113949   4.787317   4.455534   4.361537
                    6          7          8          9         10
     6  C    0.000000
     7  C    1.381300   0.000000
     8  C    2.385484   1.403303   0.000000
     9  C    4.262899   3.785372   2.480042   0.000000
    10  C    3.760636   4.273354   3.738936   2.882586   0.000000
    11  C    5.150311   4.992978   3.829441   1.509652   2.452486
    12  C    4.945337   5.163185   4.279704   2.507453   1.446970
    13  C    2.809763   2.468875   1.411556   1.453755   2.458475
    14  C    2.470871   2.878454   2.464323   2.513827   1.394977
    15  H    6.898944   6.415147   5.058138   2.653946   4.582548
    16  H    8.519558   8.344242   7.100668   4.626768   5.318466
    17  H    8.304830   8.542928   7.566298   5.365184   4.595548
    18  H    6.460749   6.996475   6.320492   4.690957   2.734009
    19  H    4.139952   4.924052   4.620816   3.963918   1.081637
    20  H    2.187357   3.417498   3.842774   4.613190   2.637923
    21  H    1.081801   2.128165   3.368561   5.344694   4.628443
    22  H    2.136422   1.080541   2.180076   4.659362   5.353814
    23  H    3.354855   2.129928   1.085001   2.701888   4.624058
    24  H    4.696919   4.037683   2.699454   1.104625   3.677289
    25  H    4.696919   4.037683   2.699454   1.104625   3.677289
                   11         12         13         14         15
    11  C    0.000000
    12  C    1.375611   0.000000
    13  C    2.524213   2.868241   0.000000
    14  C    2.869299   2.475298   1.440569   0.000000
    15  H    2.130839   3.371997   4.093868   4.865543   0.000000
    16  H    3.379982   3.871501   5.881974   6.154312   2.478847
    17  H    3.855650   3.389537   6.170839   5.838694   4.311989
    18  H    3.397852   2.187652   4.932405   4.123828   4.941361
    19  H    3.409584   2.175247   3.446687   2.159950   5.511157
    20  H    4.853444   4.079300   3.380091   2.105674   6.925900
    21  H    6.202438   5.904833   3.891532   3.441229   7.979411
    22  H    5.964003   6.220186   3.453873   3.958870   7.222866
    23  H    4.196944   4.924159   2.170937   3.452413   4.976142
    24  H    2.168261   3.257717   2.070279   3.238680   2.665519
    25  H    2.168261   3.257717   2.070279   3.238680   2.665519
                   16         17         18         19         20
    16  H    0.000000
    17  H    2.523082   0.000000
    18  H    4.270186   2.398514   0.000000
    19  H    5.905513   4.717405   2.481984   0.000000
    20  H    7.945389   7.111489   4.935121   2.453303   0.000000
    21  H    9.558760   9.218662   7.250200   4.827827   2.528967
    22  H    9.273547   9.589013   8.076570   5.986492   4.312207
    23  H    7.238265   8.043186   7.060215   5.576860   4.927692
    24  H    4.831358   5.849183   5.377246   4.735602   5.267342
    25  H    4.831358   5.849183   5.377246   4.735602   5.267342
                   21         22         23         24         25
    21  H    0.000000
    22  H    2.445367   0.000000
    23  H    4.245612   2.474877   0.000000
    24  H    5.755626   4.783481   2.632835   0.000000
    25  H    5.755626   4.783481   2.632835   1.719170   0.000000
 Stoichiometry    C14H11(1+)
 Framework group  CS[SG(C14H9),X(H2)]
 Deg. of freedom    46
 Full point group                 CS      NOp   2
 Largest Abelian subgroup         CS      NOp   2
 Largest concise Abelian subgroup CS      NOp   2
                         Standard orientation:                         
 ---------------------------------------------------------------------
 Center     Atomic      Atomic             Coordinates (Angstroms)
 Number     Number       Type             X           Y           Z
 ---------------------------------------------------------------------
      1          6           0       -2.395594   -1.527065    0.000000
      2          6           0       -2.360788   -2.905774    0.000000
      3          6           0       -1.139118   -3.570152    0.000000
      4          6           0        0.044632   -2.853872    0.000000
      5          6           0        2.406604    1.469312    0.000000
      6          6           0        2.396503    2.893839    0.000000
      7          6           0        1.200269    3.584500    0.000000
      8          6           0        0.011660    2.838533    0.000000
      9          6           0       -1.266427    0.713185    0.000000
     10          6           0        1.252398   -0.688535    0.000000
     11          6           0       -1.197780   -0.794905    0.000000
     12          6           0        0.016572   -1.441168    0.000000
     13          6           0        0.000000    1.427025    0.000000
     14          6           0        1.247391    0.706432    0.000000
     15          1           0       -3.321753   -0.965822    0.000000
     16          1           0       -3.296286   -3.444538    0.000000
     17          1           0       -1.079110   -4.648728    0.000000
     18          1           0        0.973747   -3.408307    0.000000
     19          1           0        2.182551   -1.240581    0.000000
     20          1           0        3.342061    0.921417    0.000000
     21          1           0        3.324199    3.450321    0.000000
     22          1           0        1.201872    4.665040    0.000000
     23          1           0       -0.921024    3.392904    0.000000
     24          1           0       -1.852091    1.085080    0.859585
     25          1           0       -1.852091    1.085080   -0.859585
 ---------------------------------------------------------------------
 Rotational constants (GHZ):           2.1361639           0.4446041           0.3688095
 Standard basis: 6-311++G(d,p) (5D, 7F)
 There are   299 symmetry adapted cartesian basis functions of A'  symmetry.
 There are   100 symmetry adapted cartesian basis functions of A"  symmetry.
 There are   285 symmetry adapted basis functions of A'  symmetry.
 There are   100 symmetry adapted basis functions of A"  symmetry.
   385 basis functions,   603 primitive gaussians,   399 cartesian basis functions
    47 alpha electrons       47 beta electrons
       nuclear repulsion energy       781.2270962862 Hartrees.
 NAtoms=   25 NActive=   25 NUniq=   24 SFac= 1.09D+00 NAtFMM=   60 NAOKFM=F Big=F
 Integral buffers will be    131072 words long.
 Regular integral format.
 Two-electron integral symmetry is turned on.
 Nuclear repulsion after empirical dispersion term =      781.2261170102 Hartrees.
 One-electron integrals computed using PRISM.
 NBasis=   385 RedAO= T EigKep=  1.08D-06  NBF=   285   100
 NBsUse=   379 1.00D-06 EigRej=  8.30D-07 NBFU=   279   100
 ExpMin= 3.60D-02 ExpMax= 4.56D+03 ExpMxC= 6.82D+02 IAcc=3 IRadAn=         5 AccDes= 0.00D+00
 Harris functional with IExCor= 1009 and IRadAn=       5 diagonalized for initial guess.
 HarFok:  IExCor= 1009 AccDes= 0.00D+00 IRadAn=         5 IDoV= 1 UseB2=F ITyADJ=14
 ICtDFT=  3500011 ScaDFX=  1.000000  1.000000  1.000000  1.000000
 FoFCou: FMM=F IPFlag=           0 FMFlag=      100000 FMFlg1=           0
         NFxFlg=           0 DoJE=T BraDBF=F KetDBF=T FulRan=T
         wScrn=  0.000000 ICntrl=       500 IOpCl=  0 I1Cent=   200000004 NGrid=           0
         NMat0=    1 NMatS0=      1 NMatT0=    0 NMatD0=    1 NMtDS0=    0 NMtDT0=    0
 Petite list used in FoFCou.
 Initial guess orbital symmetries:
       Occupied  (A') (A') (A') (A') (A') (A') (A') (A') (A') (A')
                 (A') (A') (A') (A') (A') (A') (A') (A') (A') (A')
                 (A') (A') (A') (A') (A') (A') (A') (A') (A') (A')
                 (A') (A') (A") (A') (A') (A') (A') (A') (A") (A')
                 (A") (A') (A') (A") (A") (A") (A")
       Virtual   (A") (A") (A") (A") (A") (A') (A') (A') (A') (A")
                 (A") (A') (A') (A') (A") (A') (A') (A') (A') (A")
                 (A') (A") (A') (A') (A') (A") (A') (A") (A') (A')
                 (A') (A') (A') (A") (A') (A') (A") (A') (A') (A")
                 (A') (A') (A') (A") (A') (A') (A') (A') (A') (A")
                 (A') (A") (A') (A") (A') (A') (A') (A") (A") (A')
                 (A') (A') (A') (A') (A') (A') (A") (A') (A') (A")
                 (A') (A') (A') (A') (A') (A') (A') (A') (A') (A')
                 (A') (A') (A') (A') (A') (A') (A') (A') (A') (A')
                 (A') (A') (A') (A') (A') (A') (A') (A") (A') (A")
                 (A') (A') (A") (A") (A') (A") (A') (A") (A") (A')
                 (A") (A') (A') (A') (A") (A') (A') (A") (A") (A')
                 (A") (A") (A') (A') (A') (A") (A') (A') (A') (A")
                 (A') (A') (A') (A') (A') (A') (A") (A') (A') (A')
                 (A') (A') (A') (A') (A') (A') (A') (A') (A') (A")
                 (A") (A') (A") (A") (A') (A') (A') (A") (A") (A')
                 (A") (A') (A") (A") (A") (A') (A') (A') (A') (A')
                 (A') (A") (A') (A') (A") (A') (A') (A') (A') (A')
                 (A") (A') (A') (A") (A') (A') (A") (A') (A") (A")
                 (A") (A') (A') (A') (A") (A') (A') (A") (A') (A')
                 (A") (A") (A") (A') (A') (A") (A') (A") (A') (A')
                 (A") (A') (A") (A") (A') (A") (A') (A') (A') (A")
                 (A') (A') (A') (A') (A") (A') (A') (A') (A") (A")
                 (A') (A') (A') (A") (A') (A') (A") (A') (A") (A')
                 (A") (A') (A') (A') (A') (A") (A') (A') (A') (A")
                 (A') (A') (A') (A") (A") (A') (A') (A") (A') (A')
                 (A') (A") (A') (A") (A') (A') (A') (A") (A") (A')
                 (A') (A') (A') (A') (A") (A') (A") (A') (A") (A')
                 (A") (A') (A") (A") (A") (A') (A') (A') (A') (A')
                 (A') (A') (A') (A') (A') (A') (A') (A') (A') (A')
                 (A') (A') (A') (A') (A") (A') (A') (A') (A') (A')
                 (A') (A') (A') (A') (A') (A') (A') (A') (A') (A')
                 (A') (A') (A') (A') (A') (A') (A') (A') (A') (A')
                 (A') (A')
 The electronic state of the initial guess is 1-A'.
 Requested convergence on RMS density matrix=1.00D-08 within 128 cycles.
 Requested convergence on MAX density matrix=1.00D-06.
 Requested convergence on             energy=1.00D-06.
 No special actions if energy rises.
 SCF Done:  E(RM062X) =  -539.754015098     A.U. after   15 cycles
            NFock= 15  Conv=0.78D-08     -V/T= 2.0042
 DoSCS=F DFT=T ScalE2(SS,OS)=  1.000000  1.000000
 ExpMin= 3.60D-02 ExpMax= 4.56D+03 ExpMxC= 6.82D+02 IAcc=3 IRadAn=         5 AccDes= 0.00D+00
 HarFok:  IExCor=  205 AccDes= 0.00D+00 IRadAn=         5 IDoV=-2 UseB2=F ITyADJ=14
 ICtDFT= 12500011 ScaDFX=  1.000000  1.000000  1.000000  1.000000
 Range of M.O.s used for correlation:    15   379
 NBasis=   385 NAE=    47 NBE=    47 NFC=    14 NFV=     0
 NROrb=    365 NOA=    33 NOB=    33 NVA=   332 NVB=   332

 **** Warning!!: The largest alpha MO coefficient is  0.13227511D+03

 Orbital symmetries:
       Occupied  (A') (A') (A') (A') (A') (A') (A') (A') (A') (A')
                 (A') (A') (A') (A') (A') (A') (A') (A') (A') (A')
                 (A') (A') (A') (A') (A') (A') (A') (A') (A') (A')
                 (A') (A") (A') (A') (A') (A') (A') (A") (A") (A')
                 (A') (A') (A') (A") (A") (A") (A")
       Virtual   (A") (A") (A") (A") (A') (A') (A') (A') (A") (A')
                 (A') (A") (A') (A') (A") (A') (A") (A') (A') (A')
                 (A") (A") (A') (A') (A') (A") (A') (A") (A') (A')
                 (A") (A') (A") (A') (A') (A') (A') (A') (A") (A')
                 (A") (A') (A') (A") (A") (A') (A") (A') (A") (A')
                 (A') (A') (A') (A') (A') (A") (A') (A') (A') (A')
                 (A') (A") (A') (A') (A') (A") (A') (A') (A') (A')
                 (A') (A') (A') (A') (A') (A') (A') (A') (A') (A')
                 (A') (A') (A') (A') (A') (A') (A') (A') (A') (A')
                 (A') (A') (A') (A') (A") (A') (A") (A") (A') (A")
                 (A') (A') (A') (A') (A") (A") (A') (A") (A") (A')
                 (A') (A') (A") (A') (A') (A") (A') (A") (A') (A")
                 (A") (A') (A") (A') (A') (A') (A") (A') (A') (A')
                 (A') (A') (A') (A') (A') (A') (A') (A') (A') (A')
                 (A') (A') (A') (A") (A') (A') (A') (A') (A') (A')
                 (A') (A') (A") (A') (A") (A') (A") (A") (A') (A")
                 (A") (A') (A') (A") (A") (A") (A') (A") (A') (A')
                 (A') (A') (A') (A") (A") (A') (A') (A') (A') (A")
                 (A') (A') (A') (A") (A') (A") (A') (A') (A") (A")
                 (A") (A') (A') (A") (A') (A") (A') (A') (A') (A')
                 (A") (A") (A") (A') (A') (A") (A') (A") (A') (A')
                 (A') (A") (A") (A') (A") (A') (A') (A") (A') (A")
                 (A') (A') (A') (A') (A") (A') (A') (A') (A") (A")
                 (A') (A') (A') (A") (A') (A') (A') (A") (A") (A')
                 (A") (A') (A') (A") (A') (A') (A') (A') (A') (A')
                 (A") (A') (A') (A') (A') (A") (A") (A") (A') (A')
                 (A') (A') (A') (A') (A') (A') (A") (A') (A') (A')
                 (A') (A") (A') (A") (A") (A") (A') (A") (A') (A")
                 (A') (A") (A") (A') (A") (A") (A') (A') (A') (A')
                 (A') (A') (A') (A') (A') (A') (A') (A') (A') (A')
                 (A') (A') (A') (A') (A") (A') (A') (A') (A') (A')
                 (A') (A') (A') (A') (A') (A') (A') (A') (A') (A')
                 (A') (A') (A') (A') (A') (A') (A') (A') (A') (A')
                 (A') (A')
     4 initial guesses have been made.
 Convergence on wavefunction:    0.001000000000000
 Iteration     1 Dimension     4 NMult     0 NNew      4
 CISAX will form     4 AO SS matrices at one time.
 Iteration     2 Dimension     6 NMult     4 NNew      2
 Iteration     3 Dimension     8 NMult     6 NNew      2
 Iteration     4 Dimension    10 NMult     8 NNew      2
 Iteration     5 Dimension    12 NMult    10 NNew      2
 Iteration     6 Dimension    14 NMult    12 NNew      2
 ***********************************************************************
 Excited states from <AA,BB:AA,BB> singles matrix:
 ***********************************************************************
 
 Ground to excited state transition densities written to RWF  633
 Ground to excited state transition electric dipole moments (Au):
       state          X           Y           Z        Dip. S.      Osc.
         1        -0.4830      0.4572      0.0000      0.4424      0.0303
 Ground to excited state transition velocity dipole moments (Au):
       state          X           Y           Z        Dip. S.      Osc.
         1         0.0572     -0.0496     -0.0000      0.0057      0.0371
 Ground to excited state transition magnetic dipole moments (Au):
       state          X           Y           Z
         1        -0.0000      0.0000     -0.3183
 Ground to excited state transition velocity quadrupole moments (Au):
       state          XX          YY          ZZ          XY          XZ          YZ
         1         0.1610      0.1579     -0.0097      0.1493      0.0000      0.0000
 <0|del|b> * <b|rxdel|0> + <0|del|b> * <b|delr+rdel|0>
 Rotatory Strengths (R) in cgs (10**-40 erg-esu-cm/Gauss)
       state          XX          YY          ZZ    R(velocity)    E-M Angle
         1         0.0000      0.0000     -0.0000      0.0000       90.00
 1/2[<0|r|b>*<b|rxdel|0> + (<0|rxdel|b>*<b|r|0>)*]
 Rotatory Strengths (R) in cgs (10**-40 erg-esu-cm/Gauss)
       state          XX          YY          ZZ     R(length)
         1        -0.0000     -0.0000      0.0000     -0.0000
  1/2[<0|del|b>*<b|r|0> + (<0|r|b>*<b|del|0>)*] (Au)
       state          X           Y           Z        Dip. S.   Osc.(frdel)
         1        -0.0276     -0.0227     -0.0000      0.0503      0.0335

 Excitation energies and oscillator strengths:
 
 Excited State   1:      Singlet-A'     2.7986 eV  443.02 nm  f=0.0303  <S**2>=0.000
      47 -> 48         0.70229
 This state for optimization and/or second-order correction.
 Total Energy, E(TD-HF/TD-DFT) =  -539.651168089    
 Copying the excited state density for this state as the 1-particle RhoCI density.
 SavETr:  write IOETrn=   770 NScale= 10 NData=  16 NLR=1 NState=    1 LETran=      28.

 **********************************************************************

            Population analysis using the SCF Density.

 **********************************************************************

 Orbital symmetries:
       Occupied  (A') (A') (A') (A') (A') (A') (A') (A') (A') (A')
                 (A') (A') (A') (A') (A') (A') (A') (A') (A') (A')
                 (A') (A') (A') (A') (A') (A') (A') (A') (A') (A')
                 (A') (A") (A') (A') (A') (A') (A') (A") (A") (A')
                 (A') (A') (A') (A") (A") (A") (A")
       Virtual   (A") (A") (A") (A") (A') (A') (A') (A') (A") (A')
                 (A') (A") (A') (A') (A") (A') (A") (A') (A') (A')
                 (A") (A") (A') (A') (A') (A") (A') (A") (A') (A')
                 (A") (A') (A") (A') (A') (A') (A') (A') (A") (A')
                 (A") (A') (A') (A") (A") (A') (A") (A') (A") (A')
                 (A') (A') (A') (A') (A') (A") (A') (A') (A') (A')
                 (A') (A") (A') (A') (A') (A") (A') (A') (A') (A')
                 (A') (A') (A') (A') (A') (A') (A') (A') (A') (A')
                 (A') (A') (A') (A') (A') (A') (A') (A') (A') (A')
                 (A') (A') (A') (A') (A") (A') (A") (A") (A') (A")
                 (A') (A') (A') (A') (A") (A") (A') (A") (A") (A')
                 (A') (A') (A") (A') (A') (A") (A') (A") (A') (A")
                 (A") (A') (A") (A') (A') (A') (A") (A') (A') (A')
                 (A') (A') (A') (A') (A') (A') (A') (A') (A') (A')
                 (A') (A') (A') (A") (A') (A') (A') (A') (A') (A')
                 (A') (A') (A") (A') (A") (A') (A") (A") (A') (A")
                 (A") (A') (A') (A") (A") (A") (A') (A") (A') (A')
                 (A') (A') (A') (A") (A") (A') (A') (A') (A') (A")
                 (A') (A') (A') (A") (A') (A") (A') (A') (A") (A")
                 (A") (A') (A') (A") (A') (A") (A') (A') (A') (A')
                 (A") (A") (A") (A') (A') (A") (A') (A") (A') (A')
                 (A') (A") (A") (A') (A") (A') (A') (A") (A') (A")
                 (A') (A') (A') (A') (A") (A') (A') (A') (A") (A")
                 (A') (A') (A') (A") (A') (A') (A') (A") (A") (A')
                 (A") (A') (A') (A") (A') (A') (A') (A') (A') (A')
                 (A") (A') (A') (A') (A') (A") (A") (A") (A') (A')
                 (A') (A') (A') (A') (A') (A') (A") (A') (A') (A')
                 (A') (A") (A') (A") (A") (A") (A') (A") (A') (A")
                 (A') (A") (A") (A') (A") (A") (A') (A') (A') (A')
                 (A') (A') (A') (A') (A') (A') (A') (A') (A') (A')
                 (A') (A') (A') (A') (A") (A') (A') (A') (A') (A')
                 (A') (A') (A') (A') (A') (A') (A') (A') (A') (A')
                 (A') (A') (A') (A') (A') (A') (A') (A') (A') (A')
                 (A') (A')
 The electronic state is 1-A'.
 Alpha  occ. eigenvalues --  -10.77646 -10.73614 -10.72858 -10.72530 -10.72317
 Alpha  occ. eigenvalues --  -10.71892 -10.71398 -10.70995 -10.70868 -10.70602
 Alpha  occ. eigenvalues --  -10.70276 -10.70024 -10.69664 -10.69233  -1.16473
 Alpha  occ. eigenvalues --   -1.12498  -1.06966  -1.05816  -1.01298  -1.00253
 Alpha  occ. eigenvalues --   -0.95759  -0.91098  -0.86405  -0.85871  -0.83778
 Alpha  occ. eigenvalues --   -0.78406  -0.76037  -0.74394  -0.69839  -0.69077
 Alpha  occ. eigenvalues --   -0.68535  -0.68124  -0.68083  -0.64811  -0.64199
 Alpha  occ. eigenvalues --   -0.63036  -0.61785  -0.60074  -0.59655  -0.59175
 Alpha  occ. eigenvalues --   -0.56857  -0.55154  -0.54704  -0.52465  -0.46624
 Alpha  occ. eigenvalues --   -0.46105  -0.44451
 Alpha virt. eigenvalues --   -0.26102  -0.14757  -0.14008  -0.12737  -0.11181
 Alpha virt. eigenvalues --   -0.10093  -0.09234  -0.07992  -0.07950  -0.07473
 Alpha virt. eigenvalues --   -0.07205  -0.07138  -0.05645  -0.05585  -0.05343
 Alpha virt. eigenvalues --   -0.03837  -0.03649  -0.03301  -0.03127  -0.02160
 Alpha virt. eigenvalues --   -0.01367  -0.00933   0.00180   0.00564   0.00627
 Alpha virt. eigenvalues --    0.01046   0.01514   0.01895   0.02169   0.02257
 Alpha virt. eigenvalues --    0.02461   0.02676   0.02789   0.03303   0.03383
 Alpha virt. eigenvalues --    0.04231   0.04541   0.04706   0.05034   0.05361
 Alpha virt. eigenvalues --    0.06036   0.06281   0.06584   0.07048   0.07252
 Alpha virt. eigenvalues --    0.07887   0.08122   0.08325   0.08595   0.08901
 Alpha virt. eigenvalues --    0.09354   0.09699   0.09846   0.10702   0.11020
 Alpha virt. eigenvalues --    0.11112   0.12054   0.12265   0.12917   0.12933
 Alpha virt. eigenvalues --    0.13357   0.13525   0.14026   0.14586   0.16041
 Alpha virt. eigenvalues --    0.16333   0.16399   0.17314   0.17674   0.17810
 Alpha virt. eigenvalues --    0.18099   0.18806   0.19247   0.19696   0.19910
 Alpha virt. eigenvalues --    0.21523   0.21556   0.22776   0.23100   0.23506
 Alpha virt. eigenvalues --    0.23920   0.24603   0.25479   0.26842   0.27704
 Alpha virt. eigenvalues --    0.28741   0.29488   0.29895   0.31450   0.35219
 Alpha virt. eigenvalues --    0.36811   0.38161   0.39222   0.41237   0.41378
 Alpha virt. eigenvalues --    0.42019   0.42064   0.43031   0.43598   0.44292
 Alpha virt. eigenvalues --    0.44432   0.45338   0.46010   0.46710   0.47897
 Alpha virt. eigenvalues --    0.48524   0.48816   0.49049   0.50416   0.50995
 Alpha virt. eigenvalues --    0.51451   0.51846   0.52133   0.52989   0.54006
 Alpha virt. eigenvalues --    0.54103   0.54708   0.55636   0.55809   0.57441
 Alpha virt. eigenvalues --    0.58239   0.58885   0.61449   0.61898   0.62625
 Alpha virt. eigenvalues --    0.63298   0.63544   0.64825   0.65360   0.67155
 Alpha virt. eigenvalues --    0.70309   0.70690   0.70986   0.72282   0.72741
 Alpha virt. eigenvalues --    0.75578   0.76109   0.76367   0.77018   0.77091
 Alpha virt. eigenvalues --    0.77550   0.78146   0.78217   0.79901   0.80361
 Alpha virt. eigenvalues --    0.81254   0.81715   0.82260   0.83130   0.85094
 Alpha virt. eigenvalues --    0.87131   0.88145   0.88517   0.89234   0.90204
 Alpha virt. eigenvalues --    0.91135   0.91342   0.93361   0.94611   0.96261
 Alpha virt. eigenvalues --    0.96924   1.00477   1.01288   1.01378   1.02798
 Alpha virt. eigenvalues --    1.03389   1.03490   1.04886   1.05645   1.08886
 Alpha virt. eigenvalues --    1.19402   1.23046   1.23986   1.24287   1.28841
 Alpha virt. eigenvalues --    1.29012   1.32350   1.34350   1.35788   1.35979
 Alpha virt. eigenvalues --    1.38737   1.40638   1.41058   1.42613   1.43403
 Alpha virt. eigenvalues --    1.43838   1.44885   1.45483   1.46064   1.46893
 Alpha virt. eigenvalues --    1.47660   1.48209   1.51744   1.53604   1.54541
 Alpha virt. eigenvalues --    1.55795   1.56183   1.57281   1.58401   1.61481
 Alpha virt. eigenvalues --    1.63172   1.63430   1.63784   1.66036   1.68126
 Alpha virt. eigenvalues --    1.68221   1.68970   1.69569   1.74369   1.76217
 Alpha virt. eigenvalues --    1.76949   1.78165   1.79754   1.79954   1.81347
 Alpha virt. eigenvalues --    1.83061   1.83252   1.83254   1.83873   1.84263
 Alpha virt. eigenvalues --    1.84930   1.85676   1.86294   1.88137   1.91293
 Alpha virt. eigenvalues --    1.91475   1.94314   1.96102   1.97338   1.98555
 Alpha virt. eigenvalues --    1.99588   2.02603   2.04669   2.07093   2.11760
 Alpha virt. eigenvalues --    2.12135   2.14203   2.15174   2.19034   2.21147
 Alpha virt. eigenvalues --    2.22970   2.28435   2.30126   2.34482   2.34741
 Alpha virt. eigenvalues --    2.35977   2.38413   2.39660   2.41839   2.44611
 Alpha virt. eigenvalues --    2.46075   2.46581   2.48845   2.53371   2.54161
 Alpha virt. eigenvalues --    2.54394   2.56567   2.58021   2.58242   2.59531
 Alpha virt. eigenvalues --    2.59720   2.60721   2.61648   2.63194   2.63826
 Alpha virt. eigenvalues --    2.64968   2.65090   2.65286   2.65709   2.67632
 Alpha virt. eigenvalues --    2.70203   2.70956   2.71222   2.73351   2.74789
 Alpha virt. eigenvalues --    2.76312   2.78952   2.79753   2.82101   2.83095
 Alpha virt. eigenvalues --    2.85347   2.86277   2.92119   2.96914   2.98722
 Alpha virt. eigenvalues --    3.00787   3.04502   3.10410   3.11410   3.14026
 Alpha virt. eigenvalues --    3.20000   3.23812   3.26282   3.28509   3.30142
 Alpha virt. eigenvalues --    3.33867   3.34215   3.42807   3.45662   3.46720
 Alpha virt. eigenvalues --    3.47642   3.51852   3.56668   3.65063   3.65865
 Alpha virt. eigenvalues --    3.69699   3.93908   3.94351   3.95206   3.96004
 Alpha virt. eigenvalues --    4.03744   4.05964   4.08015   4.12333   4.35244
 Alpha virt. eigenvalues --    4.60983   4.67936   4.72636  23.45125  23.59858
 Alpha virt. eigenvalues --   23.79603  23.84302  23.84898  23.90777  23.91905
 Alpha virt. eigenvalues --   23.92672  23.96586  24.01752  24.02648  24.03973
 Alpha virt. eigenvalues --   24.08721  24.13242
          Condensed to atoms (all electrons):
               1          2          3          4          5          6
     1  C    8.443558   0.241750  -0.502788   1.956657  -0.117438  -0.095503
     2  C    0.241750   7.293835   0.281510  -1.164279  -0.004143  -0.016215
     3  C   -0.502788   0.281510   6.542138   0.877439  -0.143320   0.017014
     4  C    1.956657  -1.164279   0.877439  10.422190  -0.514125  -0.115088
     5  C   -0.117438  -0.004143  -0.143320  -0.514125  12.502219   0.754494
     6  C   -0.095503  -0.016215   0.017014  -0.115088   0.754494   6.619656
     7  C    0.002809  -0.000839  -0.012091  -0.003661  -1.204244   0.396874
     8  C    0.393782  -0.027296  -0.101694   0.003836   2.443431  -0.539175
     9  C   -0.890098  -0.812404   0.303132  -0.102950  -0.207630   0.285543
    10  C   -1.266978   0.218476  -0.316419  -2.447921  -2.780561  -0.346212
    11  C    0.524341  -1.097755   1.106768   0.887689  -1.850354  -0.224070
    12  C   -2.501578   1.708548  -1.571328  -2.442528  -0.062195  -0.123088
    13  C    0.449611  -0.349360  -0.119803  -0.929610  -1.607344   0.774288
    14  C   -1.123541  -0.121606  -0.249531  -0.700734  -1.622865  -1.265331
    15  H    0.368120  -0.103885   0.002229   0.022995   0.006170   0.001260
    16  H   -0.019394   0.382693  -0.017053   0.016872  -0.001736  -0.000368
    17  H   -0.026407  -0.016907   0.382346  -0.075747   0.000137   0.000437
    18  H    0.049487   0.003233  -0.082953   0.459043   0.003439  -0.005024
    19  H   -0.041370  -0.007955   0.052977  -0.047241  -0.091333   0.048144
    20  H    0.006851   0.002429  -0.005170   0.005427   0.465520  -0.084074
    21  H   -0.001137  -0.000417   0.000362   0.000430  -0.066115   0.369910
    22  H    0.000709   0.000355  -0.000282  -0.001251   0.008101  -0.016545
    23  H    0.004511  -0.002384   0.000864   0.004345   0.037581  -0.004507
    24  H    0.039137   0.014605  -0.000567  -0.007346  -0.017679  -0.002492
    25  H    0.039137   0.014605  -0.000567  -0.007346  -0.017679  -0.002492
               7          8          9         10         11         12
     1  C    0.002809   0.393782  -0.890098  -1.266978   0.524341  -2.501578
     2  C   -0.000839  -0.027296  -0.812404   0.218476  -1.097755   1.708548
     3  C   -0.012091  -0.101694   0.303132  -0.316419   1.106768  -1.571328
     4  C   -0.003661   0.003836  -0.102950  -2.447921   0.887689  -2.442528
     5  C   -1.204244   2.443431  -0.207630  -2.780561  -1.850354  -0.062195
     6  C    0.396874  -0.539175   0.285543  -0.346212  -0.224070  -0.123088
     7  C    7.115352   0.152885  -0.863363   0.300282  -0.194943  -0.234632
     8  C    0.152885   9.031260  -1.226836  -1.410019   0.030588  -1.035627
     9  C   -0.863363  -1.226836   9.658210   0.277664   1.799868  -2.142651
    10  C    0.300282  -1.410019   0.277664   9.013340  -0.487206   2.589947
    11  C   -0.194943   0.030588   1.799868  -0.487206  13.867534  -4.259955
    12  C   -0.234632  -1.035627  -2.142651   2.589947  -4.259955  17.150654
    13  C   -0.536838  -0.078019   1.252902  -0.147264   0.881425  -4.920029
    14  C    1.182513  -2.148682  -1.894356   2.278246  -4.406632   3.212507
    15  H   -0.002605   0.006723   0.085932  -0.006587  -0.031586  -0.023795
    16  H    0.000363   0.000679   0.000591  -0.009943   0.019967  -0.027902
    17  H   -0.000380  -0.001501  -0.004567   0.019619  -0.025534   0.094385
    18  H    0.001871   0.007067  -0.021707   0.001934   0.007234  -0.057070
    19  H   -0.006676  -0.053258   0.075735   0.421510   0.076110  -0.062410
    20  H    0.000793   0.055372  -0.025887   0.014355  -0.010548  -0.013028
    21  H   -0.014338  -0.028065  -0.007098   0.019952  -0.006481   0.005651
    22  H    0.377672  -0.023154   0.004305  -0.007074   0.003383  -0.008540
    23  H   -0.113752   0.375344   0.098957  -0.013179   0.003193   0.008306
    24  H    0.014436   0.024212   0.357611   0.005547   0.011727  -0.056949
    25  H    0.014436   0.024212   0.357611   0.005547   0.011727  -0.056949
              13         14         15         16         17         18
     1  C    0.449611  -1.123541   0.368120  -0.019394  -0.026407   0.049487
     2  C   -0.349360  -0.121606  -0.103885   0.382693  -0.016907   0.003233
     3  C   -0.119803  -0.249531   0.002229  -0.017053   0.382346  -0.082953
     4  C   -0.929610  -0.700734   0.022995   0.016872  -0.075747   0.459043
     5  C   -1.607344  -1.622865   0.006170  -0.001736   0.000137   0.003439
     6  C    0.774288  -1.265331   0.001260  -0.000368   0.000437  -0.005024
     7  C   -0.536838   1.182513  -0.002605   0.000363  -0.000380   0.001871
     8  C   -0.078019  -2.148682   0.006723   0.000679  -0.001501   0.007067
     9  C    1.252902  -1.894356   0.085932   0.000591  -0.004567  -0.021707
    10  C   -0.147264   2.278246  -0.006587  -0.009943   0.019619   0.001934
    11  C    0.881425  -4.406632  -0.031586   0.019967  -0.025534   0.007234
    12  C   -4.920029   3.212507  -0.023795  -0.027902   0.094385  -0.057070
    13  C   14.815282  -2.896500   0.001716   0.002376  -0.006224  -0.010391
    14  C   -2.896500  15.388265   0.003926  -0.009255   0.004867  -0.019778
    15  H    0.001716   0.003926   0.444120  -0.009710   0.001715   0.000048
    16  H    0.002376  -0.009255  -0.009710   0.420765  -0.007299   0.002103
    17  H   -0.006224   0.004867   0.001715  -0.007299   0.427284  -0.011940
    18  H   -0.010391  -0.019778   0.000048   0.002103  -0.011940   0.452464
    19  H    0.076320  -0.065618   0.000370  -0.000605   0.001663  -0.005338
    20  H   -0.008950  -0.065746  -0.000133   0.000022  -0.000170   0.001207
    21  H   -0.025391   0.094355   0.000014  -0.000007   0.000010  -0.000121
    22  H    0.029554  -0.030421  -0.000128   0.000008  -0.000007   0.000010
    23  H   -0.040619  -0.027247   0.000547  -0.000128   0.000013  -0.000094
    24  H    0.015718  -0.062806  -0.001146   0.000619  -0.000127   0.000137
    25  H    0.015718  -0.062806  -0.001146   0.000619  -0.000127   0.000137
              19         20         21         22         23         24
     1  C   -0.041370   0.006851  -0.001137   0.000709   0.004511   0.039137
     2  C   -0.007955   0.002429  -0.000417   0.000355  -0.002384   0.014605
     3  C    0.052977  -0.005170   0.000362  -0.000282   0.000864  -0.000567
     4  C   -0.047241   0.005427   0.000430  -0.001251   0.004345  -0.007346
     5  C   -0.091333   0.465520  -0.066115   0.008101   0.037581  -0.017679
     6  C    0.048144  -0.084074   0.369910  -0.016545  -0.004507  -0.002492
     7  C   -0.006676   0.000793  -0.014338   0.377672  -0.113752   0.014436
     8  C   -0.053258   0.055372  -0.028065  -0.023154   0.375344   0.024212
     9  C    0.075735  -0.025887  -0.007098   0.004305   0.098957   0.357611
    10  C    0.421510   0.014355   0.019952  -0.007074  -0.013179   0.005547
    11  C    0.076110  -0.010548  -0.006481   0.003383   0.003193   0.011727
    12  C   -0.062410  -0.013028   0.005651  -0.008540   0.008306  -0.056949
    13  C    0.076320  -0.008950  -0.025391   0.029554  -0.040619   0.015718
    14  C   -0.065618  -0.065746   0.094355  -0.030421  -0.027247  -0.062806
    15  H    0.000370  -0.000133   0.000014  -0.000128   0.000547  -0.001146
    16  H   -0.000605   0.000022  -0.000007   0.000008  -0.000128   0.000619
    17  H    0.001663  -0.000170   0.000010  -0.000007   0.000013  -0.000127
    18  H   -0.005338   0.001207  -0.000121   0.000010  -0.000094   0.000137
    19  H    0.442993  -0.006912   0.001200  -0.000457   0.000210   0.000613
    20  H   -0.006912   0.456602  -0.009003   0.001682   0.000294   0.000228
    21  H    0.001200  -0.009003   0.418342  -0.005838   0.001130  -0.000150
    22  H   -0.000457   0.001682  -0.005838   0.418068  -0.008271   0.000640
    23  H    0.000210   0.000294   0.001130  -0.008271   0.435360  -0.000680
    24  H    0.000613   0.000228  -0.000150   0.000640  -0.000680   0.494177
    25  H    0.000613   0.000228  -0.000150   0.000640  -0.000680  -0.079695
              25
     1  C    0.039137
     2  C    0.014605
     3  C   -0.000567
     4  C   -0.007346
     5  C   -0.017679
     6  C   -0.002492
     7  C    0.014436
     8  C    0.024212
     9  C    0.357611
    10  C    0.005547
    11  C    0.011727
    12  C   -0.056949
    13  C    0.015718
    14  C   -0.062806
    15  H   -0.001146
    16  H    0.000619
    17  H   -0.000127
    18  H    0.000137
    19  H    0.000613
    20  H    0.000228
    21  H   -0.000150
    22  H    0.000640
    23  H   -0.000680
    24  H   -0.079695
    25  H    0.494177
 Mulliken charges:
               1
     1  C    0.065770
     2  C   -0.436594
     3  C   -0.443211
     4  C   -0.097095
     5  C    0.087668
     6  C   -0.427437
     7  C   -0.371924
     8  C    0.123937
     9  C   -0.358515
    10  C    0.072942
    11  C   -0.636489
    12  C    0.830254
    13  C   -0.638569
    14  C    0.608777
    15  H    0.234836
    16  H    0.255724
    17  H    0.244461
    18  H    0.225000
    19  H    0.190716
    20  H    0.218609
    21  H    0.252955
    22  H    0.256841
    23  H    0.240885
    24  H    0.250229
    25  H    0.250229
 Sum of Mulliken charges =   1.00000
 Mulliken charges with hydrogens summed into heavy atoms:
               1
     1  C    0.300606
     2  C   -0.180870
     3  C   -0.198750
     4  C    0.127905
     5  C    0.306277
     6  C   -0.174482
     7  C   -0.115082
     8  C    0.364822
     9  C    0.141944
    10  C    0.263658
    11  C   -0.636489
    12  C    0.830254
    13  C   -0.638569
    14  C    0.608777
 Electronic spatial extent (au):  <R**2>=           2856.0904
 Charge=              1.0000 electrons
 Dipole moment (field-independent basis, Debye):
    X=              0.3799    Y=              0.2978    Z=             -0.0000  Tot=              0.4827
 Quadrupole moment (field-independent basis, Debye-Ang):
   XX=            -51.0929   YY=            -36.3237   ZZ=            -84.1346
   XY=             10.2047   XZ=              0.0000   YZ=             -0.0000
 Traceless Quadrupole moment (field-independent basis, Debye-Ang):
   XX=              6.0908   YY=             20.8600   ZZ=            -26.9508
   XY=             10.2047   XZ=              0.0000   YZ=             -0.0000
 Octapole moment (field-independent basis, Debye-Ang**2):
  XXX=              0.9181  YYY=             11.7071  ZZZ=             -0.0000  XYY=              3.8613
  XXY=             -3.2084  XXZ=             -0.0000  XZZ=             -2.6547  YZZ=              1.5594
  YYZ=             -0.0000  XYZ=              0.0000
 Hexadecapole moment (field-independent basis, Debye-Ang**3):
 XXXX=          -1021.8200 YYYY=          -1814.9334 ZZZZ=            -99.3072 XXXY=           -359.6659
 XXXZ=              0.0000 YYYX=           -284.6733 YYYZ=             -0.0000 ZZZX=              0.0000
 ZZZY=             -0.0000 XXYY=           -455.6882 XXZZ=           -247.9492 YYZZ=           -488.5885
 XXYZ=             -0.0000 YYXZ=              0.0000 ZZXY=           -187.2137
 N-N= 7.812261170102D+02 E-N=-2.798796721599D+03  KE= 5.375211074719D+02
 Symmetry A'   KE= 5.228686132474D+02
 Symmetry A"   KE= 1.465249422452D+01
 Unable to Open any file for archive entry.
 1\1\GINC-GADI-CPU-CLX-2461\SP\RM062X TD-FC\6-311++G(d,p)\C14H11(1+)\TS
 1578\27-Jul-2022\0\\#n M062X/6-311++G(d,p) TD(NStates=1) EmpiricalDisp
 ersion=GD3 SP\\SP_12\\1,1\C,0,0.,2.492655,1.361631\C,0,0.,3.683508,0.6
 65989\C,0,0.,3.676061,-0.72463\C,0,0.,2.477556,-1.415938\C,0,0.,-2.448
 756,-1.399138\C,0,0.,-3.691661,-0.70303\C,0,0.,-3.719508,0.677989\C,0,
 0.,-2.492655,1.359231\C,0,0.,-0.0144,1.453369\C,0,0.,-0.0018,-1.429189
 \C,0,0.,1.273455,0.665665\C,0,0.,1.253671,-0.709804\C,0,0.,-1.250655,0
 .688465\C,0,0.,-1.221271,-0.751804\H,0,0.,2.447871,2.443647\H,0,0.,4.6
 06753,1.225489\H,0,0.,4.591862,-1.297549\H,0,0.,2.51495,-2.497259\H,0,
 0.,0.033,-2.510266\H,0,0.,-2.42015,-2.482859\H,0,0.,-4.626662,-1.24714
 9\H,0,0.,-4.666753,1.197889\H,0,0.,-2.528271,2.443647\H,0,-0.859585,-0
 .0576,2.145787\H,0,0.859585,-0.0576,2.145787\\Version=ES64L-G16RevC.01
 \State=1-A'\HF=-539.7540151\RMSD=7.752e-09\PG=CS [SG(C14H9),X(H2)]\\@
 The archive entry for this job was punched.


 ... UNTIL SCIENCE IS MIXED WITH EMOTION AND APPEALS TO THE HEART AND
 IMAGINATION , IT IS LIKE DEAD INORGANIC MATTER; AND WHEN IT IS SO MIXED
 AND SO TRANSFORMED IT IS LITERATURE.

                                  -- JOHN BURROUGHS
 Job cpu time:       0 days  0 hours 45 minutes 16.9 seconds.
 Elapsed time:       0 days  0 hours  1 minutes 26.0 seconds.
 File lengths (MBytes):  RWF=    460 Int=      0 D2E=      0 Chk=     15 Scr=      1
 Normal termination of Gaussian 16 at Wed Jul 27 14:02:05 2022.
