 Entering Gaussian System, Link 0=g16
 Initial command:
 /apps/gaussian/g16c01/g16/l1.exe "/jobfs/52822737.gadi-pbs/Gau-2069829.inp" -scrdir="/jobfs/52822737.gadi-pbs/"
 Entering Link 1 = /apps/gaussian/g16c01/g16/l1.exe PID=   2069830.
  
 Copyright (c) 1988-2019, Gaussian, Inc.  All Rights Reserved.
  
 This is part of the Gaussian(R) 16 program.  It is based on
 the Gaussian(R) 09 system (copyright 2009, Gaussian, Inc.),
 the Gaussian(R) 03 system (copyright 2003, Gaussian, Inc.),
 the Gaussian(R) 98 system (copyright 1998, Gaussian, Inc.),
 the Gaussian(R) 94 system (copyright 1995, Gaussian, Inc.),
 the Gaussian 92(TM) system (copyright 1992, Gaussian, Inc.),
 the Gaussian 90(TM) system (copyright 1990, Gaussian, Inc.),
 the Gaussian 88(TM) system (copyright 1988, Gaussian, Inc.),
 the Gaussian 86(TM) system (copyright 1986, Carnegie Mellon
 University), and the Gaussian 82(TM) system (copyright 1983,
 Carnegie Mellon University). Gaussian is a federally registered
 trademark of Gaussian, Inc.
  
 This software contains proprietary and confidential information,
 including trade secrets, belonging to Gaussian, Inc.
  
 This software is provided under written license and may be
 used, copied, transmitted, or stored only in accord with that
 written license.
  
 The following legend is applicable only to US Government
 contracts under FAR:
  
                    RESTRICTED RIGHTS LEGEND
  
 Use, reproduction and disclosure by the US Government is
 subject to restrictions as set forth in subparagraphs (a)
 and (c) of the Commercial Computer Software - Restricted
 Rights clause in FAR 52.227-19.
  
 Gaussian, Inc.
 340 Quinnipiac St., Bldg. 40, Wallingford CT 06492
  
  
 ---------------------------------------------------------------
 Warning -- This program may not be used in any manner that
 competes with the business of Gaussian, Inc. or will provide
 assistance to any competitor of Gaussian, Inc.  The licensee
 of this program is prohibited from giving any competitor of
 Gaussian, Inc. access to this program.  By using this program,
 the user acknowledges that Gaussian, Inc. is engaged in the
 business of creating and licensing software in the field of
 computational chemistry and represents and warrants to the
 licensee that it is not a competitor of Gaussian, Inc. and that
 it will not use this program in any manner prohibited above.
 ---------------------------------------------------------------
  

 Cite this work as:
 Gaussian 16, Revision C.01,
 M. J. Frisch, G. W. Trucks, H. B. Schlegel, G. E. Scuseria, 
 M. A. Robb, J. R. Cheeseman, G. Scalmani, V. Barone, 
 G. A. Petersson, H. Nakatsuji, X. Li, M. Caricato, A. V. Marenich, 
 J. Bloino, B. G. Janesko, R. Gomperts, B. Mennucci, H. P. Hratchian, 
 J. V. Ortiz, A. F. Izmaylov, J. L. Sonnenberg, D. Williams-Young, 
 F. Ding, F. Lipparini, F. Egidi, J. Goings, B. Peng, A. Petrone, 
 T. Henderson, D. Ranasinghe, V. G. Zakrzewski, J. Gao, N. Rega, 
 G. Zheng, W. Liang, M. Hada, M. Ehara, K. Toyota, R. Fukuda, 
 J. Hasegawa, M. Ishida, T. Nakajima, Y. Honda, O. Kitao, H. Nakai, 
 T. Vreven, K. Throssell, J. A. Montgomery, Jr., J. E. Peralta, 
 F. Ogliaro, M. J. Bearpark, J. J. Heyd, E. N. Brothers, K. N. Kudin, 
 V. N. Staroverov, T. A. Keith, R. Kobayashi, J. Normand, 
 K. Raghavachari, A. P. Rendell, J. C. Burant, S. S. Iyengar, 
 J. Tomasi, M. Cossi, J. M. Millam, M. Klene, C. Adamo, R. Cammi, 
 J. W. Ochterski, R. L. Martin, K. Morokuma, O. Farkas, 
 J. B. Foresman, and D. J. Fox, Gaussian, Inc., Wallingford CT, 2019.
 
 ******************************************
 Gaussian 16:  ES64L-G16RevC.01  3-Jul-2019
                27-Jul-2022 
 ******************************************
 %NProcShared=32
 Will use up to   32 processors via shared memory.
 %mem = 128GB
 ---------------------------------------------------------------
 #n M062X/6-311++G(d,p) TD(NStates=1) EmpiricalDispersion=GD3 SP
 ---------------------------------------------------------------
 1/38=1,172=1/1;
 2/12=2,17=6,18=5,40=1/2;
 3/5=4,6=6,7=1111,11=9,25=1,30=1,74=-55,124=31/1,2,3,8;
 4//1;
 5/5=2,38=5/2;
 8/6=1,10=2,108=1/1;
 9/41=1,42=1,70=2/14;
 6/7=2,8=2,9=2,10=2/1;
 99/5=1,9=1/99;
 -----
 SP_18
 -----
 Symbolic Z-matrix:
 Charge =  1 Multiplicity = 1
 C                     0.        2.49426   1.36223 
 C                     0.        3.67631   0.66379 
 C                     0.        3.67306  -0.72843 
 C                     0.        2.48276  -1.41934 
 C                     0.       -2.44356  -1.39574 
 C                     0.       -3.69466  -0.69923 
 C                     0.       -3.72671   0.68019 
 C                     0.       -2.49106   1.35863 
 C                     0.       -0.0208    1.45337 
 C                     0.       -0.0056   -1.42919 
 C                     0.        1.27826   0.65887 
 C                     0.        1.26087  -0.6992 
 C                     0.       -1.24586   0.69527 
 C                     0.       -1.21407  -0.7624 
 H                     0.        2.42827   2.44365 
 H                     0.        4.59355   1.23309 
 H                     0.        4.58326  -1.30995 
 H                     0.        2.53775  -2.50006 
 H                     0.        0.047    -2.51027 
 H                     0.       -2.39735  -2.48006 
 H                     0.       -4.63526  -1.23475 
 H                     0.       -4.67995   1.19029 
 H                     0.       -2.54787   2.44365 
 H                    -0.85959  -0.082     2.14579 
 H                     0.85959  -0.082     2.14579 
 
                          Input orientation:                          
 ---------------------------------------------------------------------
 Center     Atomic      Atomic             Coordinates (Angstroms)
 Number     Number       Type             X           Y           Z
 ---------------------------------------------------------------------
      1          6           0        0.000000    2.494255    1.362231
      2          6           0        0.000000    3.676308    0.663789
      3          6           0        0.000000    3.673061   -0.728430
      4          6           0        0.000000    2.482756   -1.419338
      5          6           0        0.000000   -2.443556   -1.395738
      6          6           0        0.000000   -3.694661   -0.699230
      7          6           0        0.000000   -3.726708    0.680189
      8          6           0        0.000000   -2.491055    1.358631
      9          6           0        0.000000   -0.020800    1.453369
     10          6           0        0.000000   -0.005600   -1.429189
     11          6           0        0.000000    1.278255    0.658865
     12          6           0        0.000000    1.260871   -0.699204
     13          6           0        0.000000   -1.245855    0.695265
     14          6           0        0.000000   -1.214071   -0.762404
     15          1           0        0.000000    2.428271    2.443647
     16          1           0        0.000000    4.593553    1.233089
     17          1           0        0.000000    4.583262   -1.309949
     18          1           0        0.000000    2.537750   -2.500059
     19          1           0        0.000000    0.047000   -2.510266
     20          1           0        0.000000   -2.397350   -2.480059
     21          1           0        0.000000   -4.635262   -1.234749
     22          1           0        0.000000   -4.679953    1.190289
     23          1           0        0.000000   -2.547871    2.443647
     24          1           0       -0.859585   -0.082000    2.145787
     25          1           0        0.859585   -0.082000    2.145787
 ---------------------------------------------------------------------
                    Distance matrix (angstroms):
                    1          2          3          4          5
     1  C    0.000000
     2  C    1.372979   0.000000
     3  C    2.400093   1.392223   0.000000
     4  C    2.781593   2.400830   1.376292   0.000000
     5  C    5.655826   6.457119   6.152910   4.926369   0.000000
     6  C    6.523213   7.495933   7.367780   6.219247   1.431917
     7  C    6.258240   7.403034   7.532648   6.554804   2.440482
     8  C    4.985311   6.206382   6.507853   5.697009   2.754779
     9  C    2.516706   3.780482   4.290088   3.810543   3.739941
    10  C    3.747172   4.235210   3.744811   2.488375   2.438185
    11  C    1.404770   2.398058   2.767613   2.402030   4.251267
    12  C    2.402239   2.773461   2.412367   1.418307   3.769342
    13  C    3.799114   4.922264   5.120805   4.286500   2.409726
    14  C    4.273846   5.094098   4.887250   3.754743   1.383020
    15  H    1.083427   2.173819   3.407576   3.863369   6.202868
    16  H    2.103266   1.079556   2.166763   3.389813   7.512099
    17  H    3.391828   2.172143   1.080107   2.103352   7.027342
    18  H    3.862535   3.362477   2.104186   1.082119   5.102248
    19  H    4.580970   4.821463   4.040205   2.668901   2.728560
    20  H    6.220208   6.839086   6.318077   4.994053   1.085305
    21  H    7.587774   8.525646   8.323737   7.120411   2.197611
    22  H    7.176268   8.372831   8.570550   7.623290   3.418919
    23  H    5.156791   6.473662   6.982984   6.342701   3.840802
    24  H    2.826648   4.130385   4.806297   4.475151   4.342607
    25  H    2.826648   4.130385   4.806297   4.475151   4.342607
                    6          7          8          9         10
     6  C    0.000000
     7  C    1.379791   0.000000
     8  C    2.384001   1.409653   0.000000
     9  C    4.258044   3.785705   2.472071   0.000000
    10  C    3.760587   4.277396   3.734893   2.882598   0.000000
    11  C    5.155028   5.005008   3.833715   1.522754   2.451174
    12  C    4.955532   5.174811   4.279209   2.505245   1.461789
    13  C    2.818025   2.480899   1.410878   1.440653   2.459987
    14  C    2.481394   2.897312   2.475778   2.516654   1.380219
    15  H    6.882439   6.402621   5.037562   2.641704   4.574121
    16  H    8.510485   8.338611   7.085720   4.619608   5.314126
    17  H    8.300421   8.544955   7.560905   5.369666   4.590411
    18  H    6.487367   7.025483   6.338641   4.709116   2.759600
    19  H    4.156907   4.941647   4.627104   3.964215   1.082356
    20  H    2.203263   3.428463   3.839834   4.595633   2.612431
    21  H    1.082364   2.119542   3.365003   5.340341   4.633743
    22  H    2.130982   1.081147   2.195362   4.666575   5.358287
    23  H    3.345565   2.121189   1.086503   2.714174   4.632710
    24  H    4.678069   4.021288   2.676200   1.105475   3.677659
    25  H    4.678069   4.021288   2.676200   1.105475   3.677659
                   11         12         13         14         15
    11  C    0.000000
    12  C    1.358180   0.000000
    13  C    2.524372   2.868487   0.000000
    14  C    2.869093   2.475749   1.458015   0.000000
    15  H    2.123201   3.352661   4.068912   4.852362   0.000000
    16  H    3.364660   3.852340   5.864123   6.140887   2.480705
    17  H    3.846986   3.378060   6.164372   5.823133   4.328218
    18  H    3.400754   2.207600   4.952349   4.134683   4.944918
    19  H    3.399909   2.180236   3.456429   2.155301   5.496518
    20  H    4.833520   4.068664   3.377665   2.085782   6.894164
    21  H    6.209304   5.920405   3.900389   3.453644   7.963925
    22  H    5.981860   6.234066   3.469593   3.978109   7.217877
    23  H    4.221929   4.938019   2.179928   3.472432   4.976142
    24  H    2.190917   3.261313   2.048770   3.236981   2.670031
    25  H    2.190917   3.261313   2.048770   3.236981   2.670031
                   16         17         18         19         20
    16  H    0.000000
    17  H    2.543059   0.000000
    18  H    4.261774   2.366534   0.000000
    19  H    5.889300   4.692380   2.490771   0.000000
    20  H    7.915819   7.078001   4.935141   2.444537   0.000000
    21  H    9.553075   9.218831   7.283757   4.852888   2.561064
    22  H    9.273605   9.594704   8.106411   6.003182   4.322237
    23  H    7.243299   8.058693   7.092515   5.592371   4.926006
    24  H    4.840733   5.869043   5.402394   4.736492   5.243871
    25  H    4.840733   5.869043   5.402394   4.736492   5.243871
                   21         22         23         24         25
    21  H    0.000000
    22  H    2.425450   0.000000
    23  H    4.229397   2.473192   0.000000
    24  H    5.735774   4.774205   2.628332   0.000000
    25  H    5.735774   4.774205   2.628332   1.719170   0.000000
 Stoichiometry    C14H11(1+)
 Framework group  CS[SG(C14H9),X(H2)]
 Deg. of freedom    46
 Full point group                 CS      NOp   2
 Largest Abelian subgroup         CS      NOp   2
 Largest concise Abelian subgroup CS      NOp   2
                         Standard orientation:                         
 ---------------------------------------------------------------------
 Center     Atomic      Atomic             Coordinates (Angstroms)
 Number     Number       Type             X           Y           Z
 ---------------------------------------------------------------------
      1          6           0       -2.406033   -1.514265    0.000000
      2          6           0       -2.372638   -2.886837    0.000000
      3          6           0       -1.155565   -3.562869    0.000000
      4          6           0        0.028048   -2.860559    0.000000
      5          6           0        2.409585    1.451910    0.000000
      6          6           0        2.411550    2.883826    0.000000
      7          6           0        1.222862    3.584429    0.000000
      8          6           0        0.028020    2.836450    0.000000
      9          6           0       -1.259224    0.725967    0.000000
     10          6           0        1.250007   -0.692881    0.000000
     11          6           0       -1.199013   -0.795597    0.000000
     12          6           0       -0.004862   -1.442634    0.000000
     13          6           0        0.000000    1.425850    0.000000
     14          6           0        1.257133    0.687320    0.000000
     15          1           0       -3.317998   -0.929343    0.000000
     16          1           0       -3.316932   -3.410047    0.000000
     17          1           0       -1.091692   -4.641085    0.000000
     18          1           0        0.944766   -3.435547    0.000000
     19          1           0        2.168203   -1.265953    0.000000
     20          1           0        3.333731    0.882838    0.000000
     21          1           0        3.337740    3.443899    0.000000
     22          1           0        1.242331    4.665401    0.000000
     23          1           0       -0.891559    3.415123    0.000000
     24          1           0       -1.833904    1.117031    0.859585
     25          1           0       -1.833904    1.117031   -0.859585
 ---------------------------------------------------------------------
 Rotational constants (GHZ):           2.1360448           0.4445813           0.3687903
 Standard basis: 6-311++G(d,p) (5D, 7F)
 There are   299 symmetry adapted cartesian basis functions of A'  symmetry.
 There are   100 symmetry adapted cartesian basis functions of A"  symmetry.
 There are   285 symmetry adapted basis functions of A'  symmetry.
 There are   100 symmetry adapted basis functions of A"  symmetry.
   385 basis functions,   603 primitive gaussians,   399 cartesian basis functions
    47 alpha electrons       47 beta electrons
       nuclear repulsion energy       781.2623836075 Hartrees.
 NAtoms=   25 NActive=   25 NUniq=   24 SFac= 1.09D+00 NAtFMM=   60 NAOKFM=F Big=F
 Integral buffers will be    131072 words long.
 Regular integral format.
 Two-electron integral symmetry is turned on.
 Nuclear repulsion after empirical dispersion term =      781.2614045415 Hartrees.
 One-electron integrals computed using PRISM.
 NBasis=   385 RedAO= T EigKep=  1.04D-06  NBF=   285   100
 NBsUse=   379 1.00D-06 EigRej=  8.18D-07 NBFU=   279   100
 ExpMin= 3.60D-02 ExpMax= 4.56D+03 ExpMxC= 6.82D+02 IAcc=3 IRadAn=         5 AccDes= 0.00D+00
 Harris functional with IExCor= 1009 and IRadAn=       5 diagonalized for initial guess.
 HarFok:  IExCor= 1009 AccDes= 0.00D+00 IRadAn=         5 IDoV= 1 UseB2=F ITyADJ=14
 ICtDFT=  3500011 ScaDFX=  1.000000  1.000000  1.000000  1.000000
 FoFCou: FMM=F IPFlag=           0 FMFlag=      100000 FMFlg1=           0
         NFxFlg=           0 DoJE=T BraDBF=F KetDBF=T FulRan=T
         wScrn=  0.000000 ICntrl=       500 IOpCl=  0 I1Cent=   200000004 NGrid=           0
         NMat0=    1 NMatS0=      1 NMatT0=    0 NMatD0=    1 NMtDS0=    0 NMtDT0=    0
 Petite list used in FoFCou.
 Initial guess orbital symmetries:
       Occupied  (A') (A') (A') (A') (A') (A') (A') (A') (A') (A')
                 (A') (A') (A') (A') (A') (A') (A') (A') (A') (A')
                 (A') (A') (A') (A') (A') (A') (A') (A') (A') (A')
                 (A') (A') (A") (A') (A') (A') (A') (A') (A") (A')
                 (A") (A') (A') (A") (A") (A") (A")
       Virtual   (A") (A") (A") (A") (A") (A') (A') (A') (A') (A")
                 (A") (A') (A') (A') (A") (A') (A') (A') (A') (A')
                 (A") (A") (A') (A') (A') (A") (A') (A') (A") (A')
                 (A') (A') (A') (A") (A') (A') (A") (A') (A') (A")
                 (A') (A') (A') (A") (A') (A') (A') (A') (A') (A")
                 (A') (A") (A") (A') (A') (A') (A') (A") (A") (A')
                 (A') (A') (A') (A') (A') (A') (A") (A') (A') (A")
                 (A') (A') (A') (A') (A') (A') (A') (A') (A') (A')
                 (A') (A') (A') (A') (A') (A') (A') (A') (A') (A')
                 (A') (A') (A') (A') (A') (A') (A') (A") (A") (A')
                 (A') (A") (A') (A") (A') (A") (A') (A") (A") (A')
                 (A") (A') (A') (A') (A") (A') (A') (A") (A") (A')
                 (A") (A") (A') (A') (A') (A") (A') (A') (A') (A")
                 (A') (A') (A') (A') (A') (A') (A") (A') (A') (A')
                 (A') (A') (A') (A') (A') (A') (A') (A') (A') (A")
                 (A") (A') (A") (A") (A') (A') (A') (A") (A") (A')
                 (A") (A') (A") (A") (A") (A') (A') (A') (A') (A')
                 (A') (A") (A') (A') (A') (A") (A') (A') (A') (A')
                 (A") (A') (A') (A") (A') (A') (A") (A') (A") (A")
                 (A") (A') (A') (A') (A") (A') (A') (A") (A') (A')
                 (A") (A") (A") (A') (A') (A") (A') (A") (A') (A')
                 (A") (A') (A") (A") (A') (A') (A") (A') (A') (A")
                 (A') (A') (A') (A') (A") (A') (A') (A') (A") (A")
                 (A') (A') (A') (A") (A') (A') (A") (A') (A") (A')
                 (A") (A') (A') (A') (A') (A") (A') (A') (A') (A")
                 (A') (A') (A') (A") (A") (A') (A') (A") (A') (A')
                 (A') (A") (A') (A") (A') (A') (A") (A') (A") (A')
                 (A') (A') (A') (A') (A") (A') (A") (A") (A') (A')
                 (A") (A') (A") (A") (A') (A") (A') (A') (A') (A')
                 (A') (A') (A') (A') (A') (A') (A') (A') (A') (A')
                 (A') (A') (A') (A') (A") (A') (A') (A') (A') (A')
                 (A') (A') (A') (A') (A') (A') (A') (A') (A') (A')
                 (A') (A') (A') (A') (A') (A') (A') (A') (A') (A')
                 (A') (A')
 The electronic state of the initial guess is 1-A'.
 Requested convergence on RMS density matrix=1.00D-08 within 128 cycles.
 Requested convergence on MAX density matrix=1.00D-06.
 Requested convergence on             energy=1.00D-06.
 No special actions if energy rises.
 SCF Done:  E(RM062X) =  -539.746590572     A.U. after   15 cycles
            NFock= 15  Conv=0.93D-08     -V/T= 2.0041
 DoSCS=F DFT=T ScalE2(SS,OS)=  1.000000  1.000000
 ExpMin= 3.60D-02 ExpMax= 4.56D+03 ExpMxC= 6.82D+02 IAcc=3 IRadAn=         5 AccDes= 0.00D+00
 HarFok:  IExCor=  205 AccDes= 0.00D+00 IRadAn=         5 IDoV=-2 UseB2=F ITyADJ=14
 ICtDFT= 12500011 ScaDFX=  1.000000  1.000000  1.000000  1.000000
 Range of M.O.s used for correlation:    15   379
 NBasis=   385 NAE=    47 NBE=    47 NFC=    14 NFV=     0
 NROrb=    365 NOA=    33 NOB=    33 NVA=   332 NVB=   332

 **** Warning!!: The largest alpha MO coefficient is  0.13914033D+03

 Orbital symmetries:
       Occupied  (A') (A') (A') (A') (A') (A') (A') (A') (A') (A')
                 (A') (A') (A') (A') (A') (A') (A') (A') (A') (A')
                 (A') (A') (A') (A') (A') (A') (A') (A') (A') (A')
                 (A') (A") (A') (A') (A') (A') (A') (A") (A") (A')
                 (A') (A') (A') (A") (A") (A") (A")
       Virtual   (A") (A") (A") (A") (A') (A') (A') (A') (A") (A')
                 (A') (A") (A') (A') (A") (A') (A") (A') (A') (A')
                 (A") (A") (A') (A') (A') (A") (A') (A") (A') (A')
                 (A") (A') (A") (A') (A') (A') (A') (A') (A") (A')
                 (A") (A') (A') (A") (A") (A') (A") (A') (A") (A')
                 (A') (A') (A') (A') (A') (A") (A') (A') (A') (A')
                 (A') (A") (A') (A') (A') (A") (A') (A') (A') (A')
                 (A') (A') (A') (A') (A') (A') (A') (A') (A') (A')
                 (A') (A') (A') (A') (A') (A') (A') (A') (A') (A')
                 (A') (A') (A') (A') (A") (A") (A') (A") (A') (A')
                 (A") (A') (A') (A') (A") (A") (A') (A") (A") (A')
                 (A') (A') (A") (A') (A') (A") (A') (A") (A') (A")
                 (A") (A') (A") (A') (A') (A') (A") (A') (A') (A')
                 (A') (A') (A') (A') (A') (A') (A') (A') (A') (A')
                 (A') (A') (A') (A") (A') (A') (A') (A') (A') (A')
                 (A') (A') (A") (A') (A") (A') (A") (A") (A') (A")
                 (A") (A') (A") (A') (A") (A') (A") (A") (A') (A')
                 (A') (A') (A") (A') (A') (A") (A') (A') (A') (A")
                 (A') (A') (A') (A") (A') (A") (A') (A') (A") (A")
                 (A") (A') (A') (A") (A') (A") (A') (A') (A') (A')
                 (A") (A") (A") (A') (A') (A") (A') (A") (A') (A')
                 (A') (A") (A") (A') (A") (A') (A') (A") (A') (A")
                 (A') (A') (A') (A') (A') (A") (A') (A') (A") (A")
                 (A') (A') (A') (A") (A') (A') (A') (A") (A") (A')
                 (A") (A') (A') (A") (A') (A') (A') (A') (A') (A')
                 (A") (A') (A') (A') (A") (A') (A") (A') (A") (A')
                 (A') (A') (A') (A') (A') (A') (A") (A') (A') (A')
                 (A') (A") (A') (A") (A") (A") (A') (A") (A') (A")
                 (A') (A") (A") (A') (A") (A") (A') (A') (A') (A')
                 (A') (A') (A') (A') (A') (A') (A') (A') (A') (A')
                 (A') (A') (A') (A') (A") (A') (A') (A') (A') (A')
                 (A') (A') (A') (A') (A') (A') (A') (A') (A') (A')
                 (A') (A') (A') (A') (A') (A') (A') (A') (A') (A')
                 (A') (A')
     4 initial guesses have been made.
 Convergence on wavefunction:    0.001000000000000
 Iteration     1 Dimension     4 NMult     0 NNew      4
 CISAX will form     4 AO SS matrices at one time.
 Iteration     2 Dimension     6 NMult     4 NNew      2
 Iteration     3 Dimension     8 NMult     6 NNew      2
 Iteration     4 Dimension    10 NMult     8 NNew      2
 Iteration     5 Dimension    12 NMult    10 NNew      2
 Iteration     6 Dimension    14 NMult    12 NNew      2
 ***********************************************************************
 Excited states from <AA,BB:AA,BB> singles matrix:
 ***********************************************************************
 
 Ground to excited state transition densities written to RWF  633
 Ground to excited state transition electric dipole moments (Au):
       state          X           Y           Z        Dip. S.      Osc.
         1        -0.4514      0.5190      0.0000      0.4732      0.0322
 Ground to excited state transition velocity dipole moments (Au):
       state          X           Y           Z        Dip. S.      Osc.
         1         0.0538     -0.0555     -0.0000      0.0060      0.0390
 Ground to excited state transition magnetic dipole moments (Au):
       state          X           Y           Z
         1        -0.0000     -0.0000     -0.4390
 Ground to excited state transition velocity quadrupole moments (Au):
       state          XX          YY          ZZ          XY          XZ          YZ
         1         0.1827      0.1262     -0.0097      0.1595     -0.0000     -0.0000
 <0|del|b> * <b|rxdel|0> + <0|del|b> * <b|delr+rdel|0>
 Rotatory Strengths (R) in cgs (10**-40 erg-esu-cm/Gauss)
       state          XX          YY          ZZ    R(velocity)    E-M Angle
         1         0.0000     -0.0000      0.0000      0.0000       90.00
 1/2[<0|r|b>*<b|rxdel|0> + (<0|rxdel|b>*<b|r|0>)*]
 Rotatory Strengths (R) in cgs (10**-40 erg-esu-cm/Gauss)
       state          XX          YY          ZZ     R(length)
         1        -0.0000      0.0000      0.0000      0.0000
  1/2[<0|del|b>*<b|r|0> + (<0|r|b>*<b|del|0>)*] (Au)
       state          X           Y           Z        Dip. S.   Osc.(frdel)
         1        -0.0243     -0.0288     -0.0000      0.0531      0.0354

 Excitation energies and oscillator strengths:
 
 Excited State   1:      Singlet-A'     2.7808 eV  445.86 nm  f=0.0322  <S**2>=0.000
      47 -> 48         0.70039
 This state for optimization and/or second-order correction.
 Total Energy, E(TD-HF/TD-DFT) =  -539.644398627    
 Copying the excited state density for this state as the 1-particle RhoCI density.
 SavETr:  write IOETrn=   770 NScale= 10 NData=  16 NLR=1 NState=    1 LETran=      28.

 **********************************************************************

            Population analysis using the SCF Density.

 **********************************************************************

 Orbital symmetries:
       Occupied  (A') (A') (A') (A') (A') (A') (A') (A') (A') (A')
                 (A') (A') (A') (A') (A') (A') (A') (A') (A') (A')
                 (A') (A') (A') (A') (A') (A') (A') (A') (A') (A')
                 (A') (A") (A') (A') (A') (A') (A') (A") (A") (A')
                 (A') (A') (A') (A") (A") (A") (A")
       Virtual   (A") (A") (A") (A") (A') (A') (A') (A') (A") (A')
                 (A') (A") (A') (A') (A") (A') (A") (A') (A') (A')
                 (A") (A") (A') (A') (A') (A") (A') (A") (A') (A')
                 (A") (A') (A") (A') (A') (A') (A') (A') (A") (A')
                 (A") (A') (A') (A") (A") (A') (A") (A') (A") (A')
                 (A') (A') (A') (A') (A') (A") (A') (A') (A') (A')
                 (A') (A") (A') (A') (A') (A") (A') (A') (A') (A')
                 (A') (A') (A') (A') (A') (A') (A') (A') (A') (A')
                 (A') (A') (A') (A') (A') (A') (A') (A') (A') (A')
                 (A') (A') (A') (A') (A") (A") (A') (A") (A') (A')
                 (A") (A') (A') (A') (A") (A") (A') (A") (A") (A')
                 (A') (A') (A") (A') (A') (A") (A') (A") (A') (A")
                 (A") (A') (A") (A') (A') (A') (A") (A') (A') (A')
                 (A') (A') (A') (A') (A') (A') (A') (A') (A') (A')
                 (A') (A') (A') (A") (A') (A') (A') (A') (A') (A')
                 (A') (A') (A") (A') (A") (A') (A") (A") (A') (A")
                 (A") (A') (A") (A') (A") (A') (A") (A") (A') (A')
                 (A') (A') (A") (A') (A') (A") (A') (A') (A') (A")
                 (A') (A') (A') (A") (A') (A") (A') (A') (A") (A")
                 (A") (A') (A') (A") (A') (A") (A') (A') (A') (A')
                 (A") (A") (A") (A') (A') (A") (A') (A") (A') (A')
                 (A') (A") (A") (A') (A") (A') (A') (A") (A') (A")
                 (A') (A') (A') (A') (A') (A") (A') (A') (A") (A")
                 (A') (A') (A') (A") (A') (A') (A') (A") (A") (A')
                 (A") (A') (A') (A") (A') (A') (A') (A') (A') (A')
                 (A") (A') (A') (A') (A") (A') (A") (A') (A") (A')
                 (A') (A') (A') (A') (A') (A') (A") (A') (A') (A')
                 (A') (A") (A') (A") (A") (A") (A') (A") (A') (A")
                 (A') (A") (A") (A') (A") (A") (A') (A') (A') (A')
                 (A') (A') (A') (A') (A') (A') (A') (A') (A') (A')
                 (A') (A') (A') (A') (A") (A') (A') (A') (A') (A')
                 (A') (A') (A') (A') (A') (A') (A') (A') (A') (A')
                 (A') (A') (A') (A') (A') (A') (A') (A') (A') (A')
                 (A') (A')
 The electronic state is 1-A'.
 Alpha  occ. eigenvalues --  -10.77609 -10.73828 -10.72623 -10.72596 -10.72212
 Alpha  occ. eigenvalues --  -10.72195 -10.71665 -10.71009 -10.70599 -10.70441
 Alpha  occ. eigenvalues --  -10.70328 -10.70240 -10.69495 -10.69020  -1.16508
 Alpha  occ. eigenvalues --   -1.12532  -1.07004  -1.05925  -1.01269  -1.00305
 Alpha  occ. eigenvalues --   -0.95754  -0.91159  -0.86381  -0.85833  -0.83727
 Alpha  occ. eigenvalues --   -0.78419  -0.76042  -0.74370  -0.70070  -0.69020
 Alpha  occ. eigenvalues --   -0.68552  -0.68153  -0.67926  -0.64887  -0.64080
 Alpha  occ. eigenvalues --   -0.63004  -0.61707  -0.60124  -0.59663  -0.59292
 Alpha  occ. eigenvalues --   -0.56797  -0.55089  -0.54514  -0.52504  -0.46601
 Alpha  occ. eigenvalues --   -0.46151  -0.44424
 Alpha virt. eigenvalues --   -0.26121  -0.14834  -0.13920  -0.12693  -0.11186
 Alpha virt. eigenvalues --   -0.10101  -0.09241  -0.08004  -0.07924  -0.07470
 Alpha virt. eigenvalues --   -0.07209  -0.07128  -0.05646  -0.05589  -0.05357
 Alpha virt. eigenvalues --   -0.03849  -0.03652  -0.03323  -0.03123  -0.02152
 Alpha virt. eigenvalues --   -0.01368  -0.00936   0.00164   0.00516   0.00593
 Alpha virt. eigenvalues --    0.01032   0.01512   0.01841   0.02100   0.02229
 Alpha virt. eigenvalues --    0.02470   0.02682   0.02845   0.03219   0.03472
 Alpha virt. eigenvalues --    0.04220   0.04590   0.04726   0.05039   0.05354
 Alpha virt. eigenvalues --    0.06040   0.06262   0.06571   0.07051   0.07251
 Alpha virt. eigenvalues --    0.07878   0.08071   0.08265   0.08666   0.08864
 Alpha virt. eigenvalues --    0.09238   0.09601   0.09795   0.10501   0.10992
 Alpha virt. eigenvalues --    0.11109   0.11922   0.12253   0.12855   0.12983
 Alpha virt. eigenvalues --    0.13352   0.13528   0.13994   0.14791   0.15879
 Alpha virt. eigenvalues --    0.16314   0.16441   0.17285   0.17716   0.17820
 Alpha virt. eigenvalues --    0.18080   0.18657   0.19257   0.19706   0.20061
 Alpha virt. eigenvalues --    0.21466   0.21542   0.22816   0.23087   0.23464
 Alpha virt. eigenvalues --    0.23978   0.24664   0.25713   0.26821   0.27765
 Alpha virt. eigenvalues --    0.28684   0.29637   0.29978   0.31572   0.34782
 Alpha virt. eigenvalues --    0.36999   0.38139   0.39161   0.41324   0.41335
 Alpha virt. eigenvalues --    0.41932   0.42077   0.43072   0.43483   0.44257
 Alpha virt. eigenvalues --    0.44295   0.45260   0.46235   0.47059   0.47845
 Alpha virt. eigenvalues --    0.48513   0.48747   0.49057   0.50412   0.50744
 Alpha virt. eigenvalues --    0.51430   0.51918   0.52158   0.53096   0.54064
 Alpha virt. eigenvalues --    0.54112   0.54755   0.55590   0.55889   0.57408
 Alpha virt. eigenvalues --    0.58237   0.58963   0.61455   0.61776   0.62706
 Alpha virt. eigenvalues --    0.63466   0.63615   0.64758   0.65477   0.67019
 Alpha virt. eigenvalues --    0.70228   0.70745   0.70938   0.72133   0.72616
 Alpha virt. eigenvalues --    0.75434   0.76166   0.76356   0.77056   0.77210
 Alpha virt. eigenvalues --    0.77421   0.78186   0.78278   0.79923   0.80345
 Alpha virt. eigenvalues --    0.81231   0.81781   0.82439   0.83258   0.84992
 Alpha virt. eigenvalues --    0.87113   0.88107   0.88449   0.89343   0.90015
 Alpha virt. eigenvalues --    0.91200   0.91387   0.93548   0.94598   0.96179
 Alpha virt. eigenvalues --    0.97113   1.00583   1.01096   1.01257   1.02857
 Alpha virt. eigenvalues --    1.03264   1.03560   1.05081   1.05766   1.09035
 Alpha virt. eigenvalues --    1.19200   1.22834   1.23590   1.23838   1.28535
 Alpha virt. eigenvalues --    1.29385   1.32728   1.34411   1.35824   1.35955
 Alpha virt. eigenvalues --    1.38301   1.40833   1.41280   1.42307   1.43362
 Alpha virt. eigenvalues --    1.44050   1.44735   1.45453   1.45769   1.47054
 Alpha virt. eigenvalues --    1.47702   1.48405   1.51742   1.53571   1.53810
 Alpha virt. eigenvalues --    1.55828   1.55967   1.57535   1.58936   1.61515
 Alpha virt. eigenvalues --    1.63073   1.63286   1.63829   1.65994   1.67912
 Alpha virt. eigenvalues --    1.68043   1.69281   1.69374   1.74328   1.76389
 Alpha virt. eigenvalues --    1.76783   1.78249   1.79736   1.79883   1.81724
 Alpha virt. eigenvalues --    1.82703   1.83261   1.83329   1.84137   1.84393
 Alpha virt. eigenvalues --    1.85259   1.85570   1.86517   1.88032   1.91077
 Alpha virt. eigenvalues --    1.91191   1.94402   1.96994   1.97081   1.98864
 Alpha virt. eigenvalues --    1.99444   2.02833   2.04930   2.06918   2.11715
 Alpha virt. eigenvalues --    2.12216   2.14331   2.15122   2.18994   2.21027
 Alpha virt. eigenvalues --    2.23162   2.28219   2.30050   2.34355   2.34485
 Alpha virt. eigenvalues --    2.35609   2.38184   2.39644   2.41419   2.44566
 Alpha virt. eigenvalues --    2.45980   2.46417   2.48446   2.53769   2.54556
 Alpha virt. eigenvalues --    2.54625   2.56362   2.57906   2.58189   2.59198
 Alpha virt. eigenvalues --    2.59645   2.60097   2.61422   2.63103   2.63702
 Alpha virt. eigenvalues --    2.65013   2.65069   2.65650   2.65806   2.67778
 Alpha virt. eigenvalues --    2.70879   2.70941   2.71575   2.73374   2.74755
 Alpha virt. eigenvalues --    2.76322   2.79130   2.79795   2.81424   2.83140
 Alpha virt. eigenvalues --    2.85687   2.86263   2.92140   2.96805   2.98203
 Alpha virt. eigenvalues --    3.01246   3.03820   3.10025   3.11371   3.14745
 Alpha virt. eigenvalues --    3.18884   3.23756   3.25996   3.28581   3.30147
 Alpha virt. eigenvalues --    3.34517   3.34866   3.42189   3.44975   3.47200
 Alpha virt. eigenvalues --    3.47581   3.52860   3.56856   3.64259   3.65868
 Alpha virt. eigenvalues --    3.71231   3.93591   3.94038   3.95205   3.95798
 Alpha virt. eigenvalues --    4.03394   4.05246   4.08216   4.12062   4.34875
 Alpha virt. eigenvalues --    4.60430   4.66449   4.73088  23.44854  23.59008
 Alpha virt. eigenvalues --   23.76792  23.83207  23.83389  23.92045  23.92182
 Alpha virt. eigenvalues --   23.93298  23.96193  24.04140  24.04884  24.07893
 Alpha virt. eigenvalues --   24.08217  24.14765
          Condensed to atoms (all electrons):
               1          2          3          4          5          6
     1  C    8.571030   0.074433  -0.450364   2.149456  -0.202648  -0.097945
     2  C    0.074433   7.432680   0.226842  -1.307197   0.019468  -0.016685
     3  C   -0.450364   0.226842   6.500956   0.970876  -0.153461   0.017279
     4  C    2.149456  -1.307197   0.970876  10.503921  -0.715963  -0.116202
     5  C   -0.202648   0.019468  -0.153461  -0.715963  13.652273   0.776575
     6  C   -0.097945  -0.016685   0.017279  -0.116202   0.776575   6.644169
     7  C    0.021931  -0.004532  -0.010753   0.015443  -1.361286   0.406288
     8  C    0.374175  -0.024466  -0.107650  -0.006315   2.921579  -0.527040
     9  C   -0.642501  -0.852970   0.304217   0.015020  -0.163996   0.283304
    10  C   -1.292589   0.210903  -0.271506  -2.376293  -2.886250  -0.322816
    11  C    0.605915  -1.101101   1.054637   1.363063  -1.872455  -0.243830
    12  C   -3.051322   1.992464  -1.632504  -3.245579   0.055761  -0.073629
    13  C    0.645579  -0.429940  -0.094077  -0.554266  -2.471084   0.625403
    14  C   -1.182146  -0.062824  -0.257381  -0.907522  -2.030309  -1.235700
    15  H    0.371720  -0.105049   0.004707   0.023114   0.005733   0.001305
    16  H   -0.020904   0.385499  -0.017203   0.017469  -0.001762  -0.000385
    17  H   -0.029300  -0.016209   0.386775  -0.081806   0.000014   0.000458
    18  H    0.051935   0.002113  -0.080860   0.465701  -0.000020  -0.005074
    19  H   -0.038658  -0.007947   0.053041  -0.035200  -0.101577   0.046624
    20  H    0.006400   0.002721  -0.005155   0.003870   0.473619  -0.083715
    21  H   -0.001057  -0.000424   0.000340   0.000432  -0.067689   0.368657
    22  H    0.000759   0.000340  -0.000255  -0.001027   0.003476  -0.016758
    23  H    0.003325  -0.002040   0.000721   0.003116   0.045932  -0.005894
    24  H    0.042121   0.014304  -0.000140  -0.004774  -0.020775  -0.002934
    25  H    0.042121   0.014304  -0.000140  -0.004774  -0.020775  -0.002934
               7          8          9         10         11         12
     1  C    0.021931   0.374175  -0.642501  -1.292589   0.605915  -3.051322
     2  C   -0.004532  -0.024466  -0.852970   0.210903  -1.101101   1.992464
     3  C   -0.010753  -0.107650   0.304217  -0.271506   1.054637  -1.632504
     4  C    0.015443  -0.006315   0.015020  -2.376293   1.363063  -3.245579
     5  C   -1.361286   2.921579  -0.163996  -2.886250  -1.872455   0.055761
     6  C    0.406288  -0.527040   0.283304  -0.322816  -0.243830  -0.073629
     7  C    7.170354  -0.052127  -0.921424   0.327877  -0.200477  -0.241319
     8  C   -0.052127   9.429226  -1.159327  -1.515111  -0.032362  -0.997313
     9  C   -0.921424  -1.159327   9.738939   0.315287   1.763476  -2.278787
    10  C    0.327877  -1.515111   0.315287   8.794258  -0.364833   2.606319
    11  C   -0.200477  -0.032362   1.763476  -0.364833  13.114158  -4.080574
    12  C   -0.241319  -0.997313  -2.278787   2.606319  -4.080574  17.745165
    13  C   -0.233770  -0.489299   1.005687   0.096998   0.529309  -4.871006
    14  C    1.168263  -2.330700  -1.940194   2.194991  -3.980836   3.328775
    15  H   -0.002411   0.007079   0.084198  -0.005279  -0.036052  -0.025475
    16  H    0.000354   0.000621  -0.001546  -0.009579   0.014382  -0.021613
    17  H   -0.000367  -0.001603  -0.003970   0.018460  -0.022149   0.096490
    18  H    0.001898   0.006714  -0.019072  -0.006421   0.020563  -0.069558
    19  H   -0.005957  -0.057211   0.075944   0.421000   0.072118  -0.058630
    20  H   -0.001009   0.059960  -0.025745   0.012507  -0.008371  -0.014122
    21  H   -0.012647  -0.031642  -0.007751   0.018725  -0.006702   0.005723
    22  H    0.379604  -0.028887   0.003269  -0.005124   0.003347  -0.008177
    23  H   -0.120588   0.385599   0.103071  -0.015039   0.005191   0.008856
    24  H    0.014787   0.018563   0.359057   0.005724   0.008481  -0.054819
    25  H    0.014787   0.018563   0.359057   0.005724   0.008481  -0.054819
              13         14         15         16         17         18
     1  C    0.645579  -1.182146   0.371720  -0.020904  -0.029300   0.051935
     2  C   -0.429940  -0.062824  -0.105049   0.385499  -0.016209   0.002113
     3  C   -0.094077  -0.257381   0.004707  -0.017203   0.386775  -0.080860
     4  C   -0.554266  -0.907522   0.023114   0.017469  -0.081806   0.465701
     5  C   -2.471084  -2.030309   0.005733  -0.001762   0.000014  -0.000020
     6  C    0.625403  -1.235700   0.001305  -0.000385   0.000458  -0.005074
     7  C   -0.233770   1.168263  -0.002411   0.000354  -0.000367   0.001898
     8  C   -0.489299  -2.330700   0.007079   0.000621  -0.001603   0.006714
     9  C    1.005687  -1.940194   0.084198  -0.001546  -0.003970  -0.019072
    10  C    0.096998   2.194991  -0.005279  -0.009579   0.018460  -0.006421
    11  C    0.529309  -3.980836  -0.036052   0.014382  -0.022149   0.020563
    12  C   -4.871006   3.328775  -0.025475  -0.021613   0.096490  -0.069558
    13  C   15.167699  -2.330519   0.003019   0.001745  -0.006093  -0.008321
    14  C   -2.330519  15.241312   0.001619  -0.008976   0.004546  -0.024316
    15  H    0.003019   0.001619   0.447716  -0.010065   0.001785  -0.000033
    16  H    0.001745  -0.008976  -0.010065   0.421778  -0.007577   0.002171
    17  H   -0.006093   0.004546   0.001785  -0.007577   0.430051  -0.012885
    18  H   -0.008321  -0.024316  -0.000033   0.002171  -0.012885   0.452941
    19  H    0.075267  -0.065005   0.000387  -0.000635   0.001791  -0.004834
    20  H   -0.008367  -0.075714  -0.000141   0.000026  -0.000184   0.001134
    21  H   -0.022495   0.097393   0.000014  -0.000007   0.000011  -0.000113
    22  H    0.031100  -0.025160  -0.000131   0.000008  -0.000007   0.000010
    23  H   -0.052694  -0.029030   0.000505  -0.000129   0.000012  -0.000090
    24  H    0.018781  -0.063609  -0.001255   0.000609  -0.000116   0.000124
    25  H    0.018781  -0.063609  -0.001255   0.000609  -0.000116   0.000124
              19         20         21         22         23         24
     1  C   -0.038658   0.006400  -0.001057   0.000759   0.003325   0.042121
     2  C   -0.007947   0.002721  -0.000424   0.000340  -0.002040   0.014304
     3  C    0.053041  -0.005155   0.000340  -0.000255   0.000721  -0.000140
     4  C   -0.035200   0.003870   0.000432  -0.001027   0.003116  -0.004774
     5  C   -0.101577   0.473619  -0.067689   0.003476   0.045932  -0.020775
     6  C    0.046624  -0.083715   0.368657  -0.016758  -0.005894  -0.002934
     7  C   -0.005957  -0.001009  -0.012647   0.379604  -0.120588   0.014787
     8  C   -0.057211   0.059960  -0.031642  -0.028887   0.385599   0.018563
     9  C    0.075944  -0.025745  -0.007751   0.003269   0.103071   0.359057
    10  C    0.421000   0.012507   0.018725  -0.005124  -0.015039   0.005724
    11  C    0.072118  -0.008371  -0.006702   0.003347   0.005191   0.008481
    12  C   -0.058630  -0.014122   0.005723  -0.008177   0.008856  -0.054819
    13  C    0.075267  -0.008367  -0.022495   0.031100  -0.052694   0.018781
    14  C   -0.065005  -0.075714   0.097393  -0.025160  -0.029030  -0.063609
    15  H    0.000387  -0.000141   0.000014  -0.000131   0.000505  -0.001255
    16  H   -0.000635   0.000026  -0.000007   0.000008  -0.000129   0.000609
    17  H    0.001791  -0.000184   0.000011  -0.000007   0.000012  -0.000116
    18  H   -0.004834   0.001134  -0.000113   0.000010  -0.000090   0.000124
    19  H    0.443321  -0.007235   0.001112  -0.000409   0.000156   0.000629
    20  H   -0.007235   0.458551  -0.008518   0.001527   0.000365   0.000246
    21  H    0.001112  -0.008518   0.416301  -0.005384   0.000942  -0.000152
    22  H   -0.000409   0.001527  -0.005384   0.417123  -0.007961   0.000652
    23  H    0.000156   0.000365   0.000942  -0.007961   0.433730  -0.000590
    24  H    0.000629   0.000246  -0.000152   0.000652  -0.000590   0.494577
    25  H    0.000629   0.000246  -0.000152   0.000652  -0.000590  -0.079808
              25
     1  C    0.042121
     2  C    0.014304
     3  C   -0.000140
     4  C   -0.004774
     5  C   -0.020775
     6  C   -0.002934
     7  C    0.014787
     8  C    0.018563
     9  C    0.359057
    10  C    0.005724
    11  C    0.008481
    12  C   -0.054819
    13  C    0.018781
    14  C   -0.063609
    15  H   -0.001255
    16  H    0.000609
    17  H   -0.000116
    18  H    0.000124
    19  H    0.000629
    20  H    0.000246
    21  H   -0.000152
    22  H    0.000652
    23  H   -0.000590
    24  H   -0.079808
    25  H    0.494577
 Mulliken charges:
               1
     1  C    0.048535
     2  C   -0.444684
     3  C   -0.438941
     4  C   -0.174564
     5  C    0.115620
     6  C   -0.418521
     7  C   -0.352921
     8  C    0.138973
     9  C   -0.393243
    10  C    0.042069
    11  C   -0.613381
    12  C    0.939692
    13  C   -0.647434
    14  C    0.576651
    15  H    0.234245
    16  H    0.255109
    17  H    0.241989
    18  H    0.226169
    19  H    0.191281
    20  H    0.217102
    21  H    0.255083
    22  H    0.257411
    23  H    0.243125
    24  H    0.250319
    25  H    0.250319
 Sum of Mulliken charges =   1.00000
 Mulliken charges with hydrogens summed into heavy atoms:
               1
     1  C    0.282779
     2  C   -0.189575
     3  C   -0.196953
     4  C    0.051604
     5  C    0.332721
     6  C   -0.163438
     7  C   -0.095510
     8  C    0.382098
     9  C    0.107395
    10  C    0.233350
    11  C   -0.613381
    12  C    0.939692
    13  C   -0.647434
    14  C    0.576651
 Electronic spatial extent (au):  <R**2>=           2856.2764
 Charge=              1.0000 electrons
 Dipole moment (field-independent basis, Debye):
    X=              0.5269    Y=              0.5523    Z=              0.0000  Tot=              0.7634
 Quadrupole moment (field-independent basis, Debye-Ang):
   XX=            -51.3072   YY=            -36.1454   ZZ=            -84.1250
   XY=             10.1011   XZ=              0.0000   YZ=              0.0000
 Traceless Quadrupole moment (field-independent basis, Debye-Ang):
   XX=              5.8853   YY=             21.0471   ZZ=            -26.9325
   XY=             10.1011   XZ=              0.0000   YZ=              0.0000
 Octapole moment (field-independent basis, Debye-Ang**2):
  XXX=              1.4631  YYY=             15.4805  ZZZ=              0.0000  XYY=              6.2593
  XXY=             -1.9418  XXZ=              0.0000  XZZ=             -2.5607  YZZ=              1.7030
  YYZ=              0.0000  XYZ=             -0.0000
 Hexadecapole moment (field-independent basis, Debye-Ang**3):
 XXXX=          -1033.5395 YYYY=          -1801.8743 ZZZZ=            -99.2773 XXXY=           -364.1215
 XXXZ=              0.0000 YYYX=           -287.5695 YYYZ=             -0.0000 ZZZX=             -0.0000
 ZZZY=              0.0000 XXYY=           -456.9048 XXZZ=           -249.6899 YYZZ=           -486.9449
 XXYZ=             -0.0000 YYXZ=              0.0000 ZZXY=           -188.3126
 N-N= 7.812614045415D+02 E-N=-2.798872136644D+03  KE= 5.375403191002D+02
 Symmetry A'   KE= 5.228808646635D+02
 Symmetry A"   KE= 1.465945443668D+01
 Unable to Open any file for archive entry.
 1\1\GINC-GADI-CPU-CLX-2461\SP\RM062X TD-FC\6-311++G(d,p)\C14H11(1+)\TS
 1578\27-Jul-2022\0\\#n M062X/6-311++G(d,p) TD(NStates=1) EmpiricalDisp
 ersion=GD3 SP\\SP_18\\1,1\C,0,0.,2.494255,1.362231\C,0,0.,3.676308,0.6
 63789\C,0,0.,3.673061,-0.72843\C,0,0.,2.482756,-1.419338\C,0,0.,-2.443
 556,-1.395738\C,0,0.,-3.694661,-0.69923\C,0,0.,-3.726708,0.680189\C,0,
 0.,-2.491055,1.358631\C,0,0.,-0.0208,1.453369\C,0,0.,-0.0056,-1.429189
 \C,0,0.,1.278255,0.658865\C,0,0.,1.260871,-0.699204\C,0,0.,-1.245855,0
 .695265\C,0,0.,-1.214071,-0.762404\H,0,0.,2.428271,2.443647\H,0,0.,4.5
 93553,1.233089\H,0,0.,4.583262,-1.309949\H,0,0.,2.53775,-2.500059\H,0,
 0.,0.047,-2.510266\H,0,0.,-2.39735,-2.480059\H,0,0.,-4.635262,-1.23474
 9\H,0,0.,-4.679953,1.190289\H,0,0.,-2.547871,2.443647\H,0,-0.859585,-0
 .082,2.145787\H,0,0.859585,-0.082,2.145787\\Version=ES64L-G16RevC.01\S
 tate=1-A'\HF=-539.7465906\RMSD=9.266e-09\PG=CS [SG(C14H9),X(H2)]\\@
 The archive entry for this job was punched.


 WHERE THERE IS MUCH DESIRE TO LEARN, THERE OF NECESSITY WILL BE
 MUCH ARGUING, MUCH WRITING, MANY OPINIONS; FOR OPINION IN GOOD MEN
 IS BUT KNOWLEDGE IN THE MAKING. -- JOHN MILTON.
 Job cpu time:       0 days  0 hours 45 minutes 13.0 seconds.
 Elapsed time:       0 days  0 hours  1 minutes 25.3 seconds.
 File lengths (MBytes):  RWF=    460 Int=      0 D2E=      0 Chk=     15 Scr=      1
 Normal termination of Gaussian 16 at Wed Jul 27 14:47:34 2022.
