 Entering Gaussian System, Link 0=g16
 Initial command:
 /apps/gaussian/g16c01/g16/l1.exe "/jobfs/52822737.gadi-pbs/Gau-2058990.inp" -scrdir="/jobfs/52822737.gadi-pbs/"
 Entering Link 1 = /apps/gaussian/g16c01/g16/l1.exe PID=   2058991.
  
 Copyright (c) 1988-2019, Gaussian, Inc.  All Rights Reserved.
  
 This is part of the Gaussian(R) 16 program.  It is based on
 the Gaussian(R) 09 system (copyright 2009, Gaussian, Inc.),
 the Gaussian(R) 03 system (copyright 2003, Gaussian, Inc.),
 the Gaussian(R) 98 system (copyright 1998, Gaussian, Inc.),
 the Gaussian(R) 94 system (copyright 1995, Gaussian, Inc.),
 the Gaussian 92(TM) system (copyright 1992, Gaussian, Inc.),
 the Gaussian 90(TM) system (copyright 1990, Gaussian, Inc.),
 the Gaussian 88(TM) system (copyright 1988, Gaussian, Inc.),
 the Gaussian 86(TM) system (copyright 1986, Carnegie Mellon
 University), and the Gaussian 82(TM) system (copyright 1983,
 Carnegie Mellon University). Gaussian is a federally registered
 trademark of Gaussian, Inc.
  
 This software contains proprietary and confidential information,
 including trade secrets, belonging to Gaussian, Inc.
  
 This software is provided under written license and may be
 used, copied, transmitted, or stored only in accord with that
 written license.
  
 The following legend is applicable only to US Government
 contracts under FAR:
  
                    RESTRICTED RIGHTS LEGEND
  
 Use, reproduction and disclosure by the US Government is
 subject to restrictions as set forth in subparagraphs (a)
 and (c) of the Commercial Computer Software - Restricted
 Rights clause in FAR 52.227-19.
  
 Gaussian, Inc.
 340 Quinnipiac St., Bldg. 40, Wallingford CT 06492
  
  
 ---------------------------------------------------------------
 Warning -- This program may not be used in any manner that
 competes with the business of Gaussian, Inc. or will provide
 assistance to any competitor of Gaussian, Inc.  The licensee
 of this program is prohibited from giving any competitor of
 Gaussian, Inc. access to this program.  By using this program,
 the user acknowledges that Gaussian, Inc. is engaged in the
 business of creating and licensing software in the field of
 computational chemistry and represents and warrants to the
 licensee that it is not a competitor of Gaussian, Inc. and that
 it will not use this program in any manner prohibited above.
 ---------------------------------------------------------------
  

 Cite this work as:
 Gaussian 16, Revision C.01,
 M. J. Frisch, G. W. Trucks, H. B. Schlegel, G. E. Scuseria, 
 M. A. Robb, J. R. Cheeseman, G. Scalmani, V. Barone, 
 G. A. Petersson, H. Nakatsuji, X. Li, M. Caricato, A. V. Marenich, 
 J. Bloino, B. G. Janesko, R. Gomperts, B. Mennucci, H. P. Hratchian, 
 J. V. Ortiz, A. F. Izmaylov, J. L. Sonnenberg, D. Williams-Young, 
 F. Ding, F. Lipparini, F. Egidi, J. Goings, B. Peng, A. Petrone, 
 T. Henderson, D. Ranasinghe, V. G. Zakrzewski, J. Gao, N. Rega, 
 G. Zheng, W. Liang, M. Hada, M. Ehara, K. Toyota, R. Fukuda, 
 J. Hasegawa, M. Ishida, T. Nakajima, Y. Honda, O. Kitao, H. Nakai, 
 T. Vreven, K. Throssell, J. A. Montgomery, Jr., J. E. Peralta, 
 F. Ogliaro, M. J. Bearpark, J. J. Heyd, E. N. Brothers, K. N. Kudin, 
 V. N. Staroverov, T. A. Keith, R. Kobayashi, J. Normand, 
 K. Raghavachari, A. P. Rendell, J. C. Burant, S. S. Iyengar, 
 J. Tomasi, M. Cossi, J. M. Millam, M. Klene, C. Adamo, R. Cammi, 
 J. W. Ochterski, R. L. Martin, K. Morokuma, O. Farkas, 
 J. B. Foresman, and D. J. Fox, Gaussian, Inc., Wallingford CT, 2019.
 
 ******************************************
 Gaussian 16:  ES64L-G16RevC.01  3-Jul-2019
                27-Jul-2022 
 ******************************************
 %NProcShared=32
 Will use up to   32 processors via shared memory.
 %mem = 128GB
 ---------------------------------------------------------------
 #n M062X/6-311++G(d,p) TD(NStates=1) EmpiricalDispersion=GD3 SP
 ---------------------------------------------------------------
 1/38=1,172=1/1;
 2/12=2,17=6,18=5,40=1/2;
 3/5=4,6=6,7=1111,11=9,25=1,30=1,74=-55,124=31/1,2,3,8;
 4//1;
 5/5=2,38=5/2;
 8/6=1,10=2,108=1/1;
 9/41=1,42=1,70=2/14;
 6/7=2,8=2,9=2,10=2/1;
 99/5=1,9=1/99;
 -----
 SP_14
 -----
 Symbolic Z-matrix:
 Charge =  1 Multiplicity = 1
 C                     0.        2.48786   1.36183 
 C                     0.        3.67511   0.66259 
 C                     0.        3.67206  -0.73123 
 C                     0.        2.48596  -1.41974 
 C                     0.       -2.44036  -1.39534 
 C                     0.       -3.69566  -0.69643 
 C                     0.       -3.72791   0.68139 
 C                     0.       -2.49746   1.35903 
 C                     0.       -0.0192    1.45337 
 C                     0.        0.0066   -1.42919 
 C                     0.        1.27805   0.66707 
 C                     0.        1.25907  -0.7066 
 C                     0.       -1.24606   0.68707 
 C                     0.       -1.21587  -0.755 
 H                     0.        2.43967   2.44365 
 H                     0.        4.59635   1.22569 
 H                     0.        4.58866  -1.30235 
 H                     0.        2.52555  -2.50086 
 H                     0.        0.046    -2.51027 
 H                     0.       -2.40955  -2.47926 
 H                     0.       -4.62986  -1.24235 
 H                     0.       -4.67715   1.19769 
 H                     0.       -2.53647   2.44365 
 H                    -0.85959  -0.0804    2.14579 
 H                     0.85959  -0.0804    2.14579 
 
                          Input orientation:                          
 ---------------------------------------------------------------------
 Center     Atomic      Atomic             Coordinates (Angstroms)
 Number     Number       Type             X           Y           Z
 ---------------------------------------------------------------------
      1          6           0        0.000000    2.487855    1.361831
      2          6           0        0.000000    3.675108    0.662589
      3          6           0        0.000000    3.672061   -0.731230
      4          6           0        0.000000    2.485956   -1.419738
      5          6           0        0.000000   -2.440356   -1.395338
      6          6           0        0.000000   -3.695661   -0.696430
      7          6           0        0.000000   -3.727908    0.681389
      8          6           0        0.000000   -2.497455    1.359031
      9          6           0        0.000000   -0.019200    1.453369
     10          6           0        0.000000    0.006600   -1.429189
     11          6           0        0.000000    1.278055    0.667065
     12          6           0        0.000000    1.259071   -0.706604
     13          6           0        0.000000   -1.246055    0.687065
     14          6           0        0.000000   -1.215871   -0.755004
     15          1           0        0.000000    2.439671    2.443647
     16          1           0        0.000000    4.596353    1.225689
     17          1           0        0.000000    4.588662   -1.302349
     18          1           0        0.000000    2.525550   -2.500859
     19          1           0        0.000000    0.046000   -2.510266
     20          1           0        0.000000   -2.409550   -2.479259
     21          1           0        0.000000   -4.629862   -1.242349
     22          1           0        0.000000   -4.677153    1.197689
     23          1           0        0.000000   -2.536471    2.443647
     24          1           0       -0.859585   -0.080400    2.145787
     25          1           0        0.859585   -0.080400    2.145787
 ---------------------------------------------------------------------
                    Distance matrix (angstroms):
                    1          2          3          4          5
     1  C    0.000000
     2  C    1.377864   0.000000
     3  C    2.404838   1.393822   0.000000
     4  C    2.781570   2.397951   1.371455   0.000000
     5  C    5.647056   6.452439   6.148388   4.926372   0.000000
     6  C    6.517078   7.495010   7.367804   6.223790   1.436754
     7  C    6.252896   7.403040   7.533594   6.559485   2.443478
     8  C    4.985311   6.211728   6.513994   5.705781   2.754961
     9  C    2.508726   3.777995   4.289275   3.811896   3.738600
    10  C    3.734490   4.222971   3.731320   2.479374   2.447190
    11  C    1.395104   2.397057   2.772453   2.411176   4.252068
    12  C    2.405896   2.777035   2.413116   1.419087   3.762993
    13  C    3.794390   4.921224   5.118537   4.285618   2.400574
    14  C    4.265979   5.092273   4.887990   3.761036   1.381807
    15  H    1.082889   2.167596   3.405676   3.863662   6.209063
    16  H    2.112889   1.079710   2.164220   3.384089   7.508998
    17  H    3.392823   2.166925   1.079970   2.105980   7.029633
    18  H    3.862874   3.365841   2.108572   1.081846   5.087475
    19  H    4.577750   4.820522   4.038971   2.672571   2.724891
    20  H    6.224030   6.847939   6.327843   5.008849   1.084359
    21  H    7.579159   8.520641   8.317642   7.118029   2.194844
    22  H    7.166888   8.369384   8.569137   7.626340   3.424478
    23  H    5.139473   6.461879   6.973214   6.336444   3.840188
    24  H    2.819469   4.128269   4.805942   4.476387   4.341410
    25  H    2.819469   4.128269   4.805942   4.476387   4.341410
                    6          7          8          9         10
     6  C    0.000000
     7  C    1.378196   0.000000
     8  C    2.379205   1.404711   0.000000
     9  C    4.258873   3.788201   2.480050   0.000000
    10  C    3.774079   4.289649   3.747594   2.882673   0.000000
    11  C    5.157225   5.005983   3.838397   1.516952   2.451709
    12  C    4.954742   5.176532   4.286996   2.509873   1.445964
    13  C    2.813295   2.481859   1.420401   1.446511   2.459202
    14  C    2.480482   2.893710   2.472165   2.511759   1.396052
    15  H    6.892197   6.414404   5.054860   2.650792   4.573696
    16  H    8.511876   8.342037   7.095061   4.621165   5.302283
    17  H    8.306452   8.549886   7.569412   5.369020   4.583817
    18  H    6.477610   7.016583   6.334772   4.702305   2.737441
    19  H    4.158128   4.942575   4.630402   3.964171   1.081795
    20  H    2.198309   3.424582   3.839296   4.602101   2.634469
    21  H    1.082016   2.124686   3.363679   5.340889   4.640225
    22  H    2.133310   1.080570   2.185661   4.664965   5.370105
    23  H    3.347209   2.127222   1.085318   2.705052   4.633149
    24  H    4.678375   4.023389   2.683286   1.105475   3.677895
    25  H    4.678375   4.023389   2.683286   1.105475   3.677895
                   11         12         13         14         15
    11  C    0.000000
    12  C    1.373800   0.000000
    13  C    2.524189   2.866700   0.000000
    14  C    2.870879   2.475415   1.442385   0.000000
    15  H    2.122639   3.364208   4.082910   4.857402   0.000000
    16  H    3.364991   3.856320   5.867184   6.140447   2.476832
    17  H    3.852105   3.382468   6.164551   5.830282   4.318640
    18  H    3.404701   2.196206   4.938407   4.128709   4.945252
    19  H    3.407843   2.173646   3.448526   2.161773   5.501901
    20  H    4.847451   4.074443   3.373326   2.097123   6.910134
    21  H    6.208812   5.913252   3.895226   3.448600   7.972758
    22  H    5.978801   6.234187   3.468886   3.974102   7.225067
    23  H    4.207951   4.932567   2.179622   3.460542   4.976142
    24  H    2.184240   3.266375   2.055604   3.231527   2.679247
    25  H    2.184240   3.266375   2.055604   3.231527   2.679247
                   16         17         18         19         20
    16  H    0.000000
    17  H    2.528050   0.000000
    18  H    4.263260   2.385971   0.000000
    19  H    5.887535   4.700515   2.479568   0.000000
    20  H    7.925233   7.096484   4.935147   2.455746   0.000000
    21  H    9.550615   9.218719   7.265244   4.844719   2.541600
    22  H    9.273548   9.597162   8.096801   6.004757   4.319950
    23  H    7.236062   8.049845   7.076171   5.586628   4.924542
    24  H    4.843293   5.867595   5.396404   4.736422   5.249274
    25  H    4.843293   5.867595   5.396404   4.736422   5.249274
                   21         22         23         24         25
    21  H    0.000000
    22  H    2.440496   0.000000
    23  H    4.238968   2.476879   0.000000
    24  H    5.737243   4.771574   2.619139   0.000000
    25  H    5.737243   4.771574   2.619139   1.719170   0.000000
 Stoichiometry    C14H11(1+)
 Framework group  CS[SG(C14H9),X(H2)]
 Deg. of freedom    46
 Full point group                 CS      NOp   2
 Largest Abelian subgroup         CS      NOp   2
 Largest concise Abelian subgroup CS      NOp   2
                         Standard orientation:                         
 ---------------------------------------------------------------------
 Center     Atomic      Atomic             Coordinates (Angstroms)
 Number     Number       Type             X           Y           Z
 ---------------------------------------------------------------------
      1          6           0       -2.394716   -1.521106    0.000000
      2          6           0       -2.356075   -2.898428    0.000000
      3          6           0       -1.134238   -3.569140    0.000000
      4          6           0        0.041618   -2.863271    0.000000
      5          6           0        2.400247    1.461774    0.000000
      6          6           0        2.394776    2.898518    0.000000
      7          6           0        1.203999    3.592402    0.000000
      8          6           0        0.016231    2.842454    0.000000
      9          6           0       -1.263658    0.718182    0.000000
     10          6           0        1.247716   -0.697024    0.000000
     11          6           0       -1.201933   -0.797514    0.000000
     12          6           0        0.009961   -1.444537    0.000000
     13          6           0        0.000000    1.422146    0.000000
     14          6           0        1.248028    0.699027    0.000000
     15          1           0       -3.318627   -0.956272    0.000000
     16          1           0       -3.294171   -3.432984    0.000000
     17          1           0       -1.077019   -4.647592    0.000000
     18          1           0        0.969070   -3.420247    0.000000
     19          1           0        2.175223   -1.253810    0.000000
     20          1           0        3.334397    0.911139    0.000000
     21          1           0        3.324088    3.452719    0.000000
     22          1           0        1.210548    4.672952    0.000000
     23          1           0       -0.914560    3.400613    0.000000
     24          1           0       -1.840341    1.106286    0.859585
     25          1           0       -1.840341    1.106286   -0.859585
 ---------------------------------------------------------------------
 Rotational constants (GHZ):           2.1362482           0.4445797           0.3687952
 Standard basis: 6-311++G(d,p) (5D, 7F)
 There are   299 symmetry adapted cartesian basis functions of A'  symmetry.
 There are   100 symmetry adapted cartesian basis functions of A"  symmetry.
 There are   285 symmetry adapted basis functions of A'  symmetry.
 There are   100 symmetry adapted basis functions of A"  symmetry.
   385 basis functions,   603 primitive gaussians,   399 cartesian basis functions
    47 alpha electrons       47 beta electrons
       nuclear repulsion energy       781.2453328773 Hartrees.
 NAtoms=   25 NActive=   25 NUniq=   24 SFac= 1.09D+00 NAtFMM=   60 NAOKFM=F Big=F
 Integral buffers will be    131072 words long.
 Regular integral format.
 Two-electron integral symmetry is turned on.
 Nuclear repulsion after empirical dispersion term =      781.2443538382 Hartrees.
 One-electron integrals computed using PRISM.
 NBasis=   385 RedAO= T EigKep=  1.08D-06  NBF=   285   100
 NBsUse=   379 1.00D-06 EigRej=  8.25D-07 NBFU=   279   100
 ExpMin= 3.60D-02 ExpMax= 4.56D+03 ExpMxC= 6.82D+02 IAcc=3 IRadAn=         5 AccDes= 0.00D+00
 Harris functional with IExCor= 1009 and IRadAn=       5 diagonalized for initial guess.
 HarFok:  IExCor= 1009 AccDes= 0.00D+00 IRadAn=         5 IDoV= 1 UseB2=F ITyADJ=14
 ICtDFT=  3500011 ScaDFX=  1.000000  1.000000  1.000000  1.000000
 FoFCou: FMM=F IPFlag=           0 FMFlag=      100000 FMFlg1=           0
         NFxFlg=           0 DoJE=T BraDBF=F KetDBF=T FulRan=T
         wScrn=  0.000000 ICntrl=       500 IOpCl=  0 I1Cent=   200000004 NGrid=           0
         NMat0=    1 NMatS0=      1 NMatT0=    0 NMatD0=    1 NMtDS0=    0 NMtDT0=    0
 Petite list used in FoFCou.
 Initial guess orbital symmetries:
       Occupied  (A') (A') (A') (A') (A') (A') (A') (A') (A') (A')
                 (A') (A') (A') (A') (A') (A') (A') (A') (A') (A')
                 (A') (A') (A') (A') (A') (A') (A') (A') (A') (A')
                 (A') (A') (A") (A') (A') (A') (A') (A') (A") (A')
                 (A") (A') (A') (A") (A") (A") (A")
       Virtual   (A") (A") (A") (A") (A") (A') (A') (A') (A') (A")
                 (A") (A') (A') (A') (A") (A') (A') (A') (A') (A")
                 (A') (A") (A') (A') (A') (A") (A') (A') (A") (A')
                 (A') (A') (A') (A") (A') (A') (A") (A') (A') (A")
                 (A') (A') (A') (A") (A') (A') (A') (A') (A') (A")
                 (A') (A") (A') (A") (A') (A') (A') (A") (A") (A')
                 (A') (A') (A') (A') (A') (A') (A") (A') (A') (A")
                 (A') (A') (A') (A') (A') (A') (A') (A') (A') (A')
                 (A') (A') (A') (A') (A') (A') (A') (A') (A') (A')
                 (A') (A') (A') (A') (A') (A') (A') (A") (A") (A')
                 (A') (A") (A') (A") (A') (A") (A') (A") (A") (A')
                 (A") (A') (A') (A') (A") (A') (A') (A") (A") (A')
                 (A") (A") (A') (A') (A') (A") (A') (A') (A') (A")
                 (A') (A') (A') (A') (A') (A') (A") (A') (A') (A')
                 (A') (A') (A') (A') (A') (A') (A') (A') (A') (A")
                 (A") (A') (A") (A") (A') (A') (A') (A") (A") (A')
                 (A") (A') (A") (A") (A") (A') (A') (A') (A') (A')
                 (A') (A") (A') (A') (A') (A") (A') (A') (A') (A')
                 (A") (A') (A') (A") (A') (A') (A") (A') (A") (A")
                 (A") (A') (A') (A') (A") (A') (A') (A") (A') (A')
                 (A") (A") (A") (A') (A') (A") (A') (A") (A') (A')
                 (A") (A') (A") (A") (A') (A') (A") (A') (A') (A")
                 (A') (A') (A') (A') (A") (A') (A') (A') (A") (A")
                 (A') (A') (A') (A") (A') (A') (A") (A') (A") (A')
                 (A") (A') (A') (A') (A') (A") (A') (A') (A') (A")
                 (A') (A') (A') (A") (A") (A') (A') (A") (A') (A')
                 (A') (A") (A') (A") (A') (A') (A") (A') (A") (A')
                 (A') (A') (A') (A') (A") (A') (A") (A') (A") (A')
                 (A") (A') (A") (A") (A') (A") (A') (A') (A') (A')
                 (A') (A') (A') (A') (A') (A') (A') (A') (A') (A')
                 (A') (A') (A') (A') (A") (A') (A') (A') (A') (A')
                 (A') (A') (A') (A') (A') (A') (A') (A') (A') (A')
                 (A') (A') (A') (A') (A') (A') (A') (A') (A') (A')
                 (A') (A')
 The electronic state of the initial guess is 1-A'.
 Requested convergence on RMS density matrix=1.00D-08 within 128 cycles.
 Requested convergence on MAX density matrix=1.00D-06.
 Requested convergence on             energy=1.00D-06.
 No special actions if energy rises.
 SCF Done:  E(RM062X) =  -539.750539768     A.U. after   15 cycles
            NFock= 15  Conv=0.95D-08     -V/T= 2.0041
 DoSCS=F DFT=T ScalE2(SS,OS)=  1.000000  1.000000
 ExpMin= 3.60D-02 ExpMax= 4.56D+03 ExpMxC= 6.82D+02 IAcc=3 IRadAn=         5 AccDes= 0.00D+00
 HarFok:  IExCor=  205 AccDes= 0.00D+00 IRadAn=         5 IDoV=-2 UseB2=F ITyADJ=14
 ICtDFT= 12500011 ScaDFX=  1.000000  1.000000  1.000000  1.000000
 Range of M.O.s used for correlation:    15   379
 NBasis=   385 NAE=    47 NBE=    47 NFC=    14 NFV=     0
 NROrb=    365 NOA=    33 NOB=    33 NVA=   332 NVB=   332

 **** Warning!!: The largest alpha MO coefficient is  0.16396159D+03

 Orbital symmetries:
       Occupied  (A') (A') (A') (A') (A') (A') (A') (A') (A') (A')
                 (A') (A') (A') (A') (A') (A') (A') (A') (A') (A')
                 (A') (A') (A') (A') (A') (A') (A') (A') (A') (A')
                 (A') (A") (A') (A') (A') (A') (A') (A") (A") (A')
                 (A') (A') (A') (A") (A") (A") (A")
       Virtual   (A") (A") (A") (A") (A') (A') (A') (A') (A") (A')
                 (A') (A") (A') (A') (A") (A') (A") (A') (A') (A')
                 (A") (A") (A') (A') (A') (A") (A') (A") (A') (A')
                 (A") (A') (A") (A') (A') (A') (A') (A') (A") (A')
                 (A") (A') (A') (A") (A") (A') (A") (A') (A") (A')
                 (A') (A') (A') (A') (A') (A") (A') (A') (A') (A')
                 (A') (A") (A') (A') (A') (A") (A') (A') (A') (A')
                 (A') (A') (A') (A') (A') (A') (A') (A') (A') (A')
                 (A') (A') (A') (A') (A') (A') (A') (A') (A') (A')
                 (A') (A') (A') (A') (A") (A") (A') (A") (A') (A")
                 (A') (A') (A') (A') (A") (A") (A') (A") (A") (A')
                 (A') (A') (A") (A') (A') (A") (A') (A") (A') (A")
                 (A") (A') (A") (A') (A') (A') (A") (A') (A') (A')
                 (A') (A') (A') (A') (A') (A') (A') (A') (A') (A')
                 (A') (A') (A') (A") (A') (A') (A') (A') (A') (A')
                 (A') (A') (A") (A') (A") (A') (A") (A") (A') (A")
                 (A") (A') (A") (A') (A") (A') (A") (A") (A') (A')
                 (A') (A') (A") (A') (A') (A") (A') (A') (A') (A")
                 (A') (A') (A') (A") (A') (A") (A') (A') (A") (A")
                 (A") (A') (A') (A") (A') (A") (A') (A') (A') (A')
                 (A") (A") (A") (A') (A') (A") (A') (A") (A') (A')
                 (A') (A") (A") (A') (A") (A') (A') (A") (A') (A")
                 (A') (A') (A') (A') (A") (A') (A') (A') (A") (A")
                 (A') (A') (A') (A") (A') (A') (A') (A") (A") (A')
                 (A") (A') (A') (A") (A') (A') (A') (A') (A') (A')
                 (A") (A') (A') (A') (A') (A") (A") (A") (A') (A')
                 (A') (A') (A') (A') (A') (A') (A") (A') (A') (A')
                 (A') (A") (A') (A") (A") (A") (A') (A") (A') (A")
                 (A') (A") (A") (A') (A") (A") (A') (A') (A') (A')
                 (A') (A') (A') (A') (A') (A') (A') (A') (A') (A')
                 (A') (A') (A') (A') (A") (A') (A') (A') (A') (A')
                 (A') (A') (A') (A') (A') (A') (A') (A') (A') (A')
                 (A') (A') (A') (A') (A') (A') (A') (A') (A') (A')
                 (A') (A')
     4 initial guesses have been made.
 Convergence on wavefunction:    0.001000000000000
 Iteration     1 Dimension     4 NMult     0 NNew      4
 CISAX will form     4 AO SS matrices at one time.
 Iteration     2 Dimension     6 NMult     4 NNew      2
 Iteration     3 Dimension     8 NMult     6 NNew      2
 Iteration     4 Dimension    10 NMult     8 NNew      2
 Iteration     5 Dimension    12 NMult    10 NNew      2
 Iteration     6 Dimension    14 NMult    12 NNew      2
 ***********************************************************************
 Excited states from <AA,BB:AA,BB> singles matrix:
 ***********************************************************************
 
 Ground to excited state transition densities written to RWF  633
 Ground to excited state transition electric dipole moments (Au):
       state          X           Y           Z        Dip. S.      Osc.
         1        -0.4602      0.4709      0.0000      0.4335      0.0293
 Ground to excited state transition velocity dipole moments (Au):
       state          X           Y           Z        Dip. S.      Osc.
         1         0.0545     -0.0493     -0.0000      0.0054      0.0356
 Ground to excited state transition magnetic dipole moments (Au):
       state          X           Y           Z
         1        -0.0000     -0.0000     -0.3914
 Ground to excited state transition velocity quadrupole moments (Au):
       state          XX          YY          ZZ          XY          XZ          YZ
         1         0.1791      0.1193     -0.0092      0.1580      0.0000     -0.0000
 <0|del|b> * <b|rxdel|0> + <0|del|b> * <b|delr+rdel|0>
 Rotatory Strengths (R) in cgs (10**-40 erg-esu-cm/Gauss)
       state          XX          YY          ZZ    R(velocity)    E-M Angle
         1         0.0000      0.0000      0.0000      0.0000       90.00
 1/2[<0|r|b>*<b|rxdel|0> + (<0|rxdel|b>*<b|r|0>)*]
 Rotatory Strengths (R) in cgs (10**-40 erg-esu-cm/Gauss)
       state          XX          YY          ZZ     R(length)
         1        -0.0000      0.0000      0.0000      0.0000
  1/2[<0|del|b>*<b|r|0> + (<0|r|b>*<b|del|0>)*] (Au)
       state          X           Y           Z        Dip. S.   Osc.(frdel)
         1        -0.0251     -0.0232     -0.0000      0.0483      0.0322

 Excitation energies and oscillator strengths:
 
 Excited State   1:      Singlet-A'     2.7568 eV  449.74 nm  f=0.0293  <S**2>=0.000
      47 -> 48         0.70225
 This state for optimization and/or second-order correction.
 Total Energy, E(TD-HF/TD-DFT) =  -539.649229652    
 Copying the excited state density for this state as the 1-particle RhoCI density.
 SavETr:  write IOETrn=   770 NScale= 10 NData=  16 NLR=1 NState=    1 LETran=      28.

 **********************************************************************

            Population analysis using the SCF Density.

 **********************************************************************

 Orbital symmetries:
       Occupied  (A') (A') (A') (A') (A') (A') (A') (A') (A') (A')
                 (A') (A') (A') (A') (A') (A') (A') (A') (A') (A')
                 (A') (A') (A') (A') (A') (A') (A') (A') (A') (A')
                 (A') (A") (A') (A') (A') (A') (A') (A") (A") (A')
                 (A') (A') (A') (A") (A") (A") (A")
       Virtual   (A") (A") (A") (A") (A') (A') (A') (A') (A") (A')
                 (A') (A") (A') (A') (A") (A') (A") (A') (A') (A')
                 (A") (A") (A') (A') (A') (A") (A') (A") (A') (A')
                 (A") (A') (A") (A') (A') (A') (A') (A') (A") (A')
                 (A") (A') (A') (A") (A") (A') (A") (A') (A") (A')
                 (A') (A') (A') (A') (A') (A") (A') (A') (A') (A')
                 (A') (A") (A') (A') (A') (A") (A') (A') (A') (A')
                 (A') (A') (A') (A') (A') (A') (A') (A') (A') (A')
                 (A') (A') (A') (A') (A') (A') (A') (A') (A') (A')
                 (A') (A') (A') (A') (A") (A") (A') (A") (A') (A")
                 (A') (A') (A') (A') (A") (A") (A') (A") (A") (A')
                 (A') (A') (A") (A') (A') (A") (A') (A") (A') (A")
                 (A") (A') (A") (A') (A') (A') (A") (A') (A') (A')
                 (A') (A') (A') (A') (A') (A') (A') (A') (A') (A')
                 (A') (A') (A') (A") (A') (A') (A') (A') (A') (A')
                 (A') (A') (A") (A') (A") (A') (A") (A") (A') (A")
                 (A") (A') (A") (A') (A") (A') (A") (A") (A') (A')
                 (A') (A') (A") (A') (A') (A") (A') (A') (A') (A")
                 (A') (A') (A') (A") (A') (A") (A') (A') (A") (A")
                 (A") (A') (A') (A") (A') (A") (A') (A') (A') (A')
                 (A") (A") (A") (A') (A') (A") (A') (A") (A') (A')
                 (A') (A") (A") (A') (A") (A') (A') (A") (A') (A")
                 (A') (A') (A') (A') (A") (A') (A') (A') (A") (A")
                 (A') (A') (A') (A") (A') (A') (A') (A") (A") (A')
                 (A") (A') (A') (A") (A') (A') (A') (A') (A') (A')
                 (A") (A') (A') (A') (A') (A") (A") (A") (A') (A')
                 (A') (A') (A') (A') (A') (A') (A") (A') (A') (A')
                 (A') (A") (A') (A") (A") (A") (A') (A") (A') (A")
                 (A') (A") (A") (A') (A") (A") (A') (A') (A') (A')
                 (A') (A') (A') (A') (A') (A') (A') (A') (A') (A')
                 (A') (A') (A') (A') (A") (A') (A') (A') (A') (A')
                 (A') (A') (A') (A') (A') (A') (A') (A') (A') (A')
                 (A') (A') (A') (A') (A') (A') (A') (A') (A') (A')
                 (A') (A')
 The electronic state is 1-A'.
 Alpha  occ. eigenvalues --  -10.77658 -10.73577 -10.72917 -10.72457 -10.72397
 Alpha  occ. eigenvalues --  -10.71869 -10.71237 -10.71012 -10.70874 -10.70753
 Alpha  occ. eigenvalues --  -10.70277 -10.70027 -10.69662 -10.69215  -1.16498
 Alpha  occ. eigenvalues --   -1.12526  -1.06949  -1.05841  -1.01320  -1.00365
 Alpha  occ. eigenvalues --   -0.95691  -0.91089  -0.86422  -0.85861  -0.83773
 Alpha  occ. eigenvalues --   -0.78389  -0.76060  -0.74369  -0.69826  -0.69071
 Alpha  occ. eigenvalues --   -0.68555  -0.68128  -0.68095  -0.64809  -0.64290
 Alpha  occ. eigenvalues --   -0.62990  -0.61707  -0.60188  -0.59562  -0.59129
 Alpha  occ. eigenvalues --   -0.56898  -0.55087  -0.54720  -0.52460  -0.46734
 Alpha  occ. eigenvalues --   -0.46141  -0.44313
 Alpha virt. eigenvalues --   -0.26100  -0.14811  -0.13973  -0.12724  -0.11181
 Alpha virt. eigenvalues --   -0.10094  -0.09232  -0.07996  -0.07944  -0.07473
 Alpha virt. eigenvalues --   -0.07206  -0.07138  -0.05647  -0.05586  -0.05345
 Alpha virt. eigenvalues --   -0.03842  -0.03650  -0.03314  -0.03125  -0.02158
 Alpha virt. eigenvalues --   -0.01366  -0.00941   0.00175   0.00560   0.00613
 Alpha virt. eigenvalues --    0.01042   0.01513   0.01899   0.02147   0.02242
 Alpha virt. eigenvalues --    0.02463   0.02673   0.02788   0.03297   0.03397
 Alpha virt. eigenvalues --    0.04225   0.04533   0.04698   0.05032   0.05363
 Alpha virt. eigenvalues --    0.06032   0.06276   0.06574   0.07051   0.07252
 Alpha virt. eigenvalues --    0.07890   0.08135   0.08308   0.08588   0.08891
 Alpha virt. eigenvalues --    0.09304   0.09721   0.09794   0.10658   0.11015
 Alpha virt. eigenvalues --    0.11105   0.12013   0.12276   0.12903   0.12970
 Alpha virt. eigenvalues --    0.13328   0.13521   0.14020   0.14603   0.16056
 Alpha virt. eigenvalues --    0.16306   0.16356   0.17291   0.17653   0.17739
 Alpha virt. eigenvalues --    0.18090   0.18722   0.19238   0.19686   0.20030
 Alpha virt. eigenvalues --    0.21504   0.21535   0.22793   0.23104   0.23500
 Alpha virt. eigenvalues --    0.23957   0.24620   0.25522   0.26818   0.27720
 Alpha virt. eigenvalues --    0.28742   0.29533   0.29886   0.31489   0.35085
 Alpha virt. eigenvalues --    0.36802   0.38173   0.39222   0.41244   0.41385
 Alpha virt. eigenvalues --    0.41958   0.42047   0.43044   0.43525   0.44289
 Alpha virt. eigenvalues --    0.44455   0.45332   0.46048   0.46820   0.47861
 Alpha virt. eigenvalues --    0.48519   0.48772   0.49095   0.50410   0.50945
 Alpha virt. eigenvalues --    0.51329   0.51994   0.52130   0.52979   0.54005
 Alpha virt. eigenvalues --    0.54125   0.54789   0.55582   0.55800   0.57435
 Alpha virt. eigenvalues --    0.58239   0.58945   0.61462   0.61833   0.62636
 Alpha virt. eigenvalues --    0.63348   0.63550   0.64807   0.65435   0.67198
 Alpha virt. eigenvalues --    0.70222   0.70680   0.71001   0.72260   0.72706
 Alpha virt. eigenvalues --    0.75461   0.76171   0.76445   0.77040   0.77062
 Alpha virt. eigenvalues --    0.77567   0.78170   0.78229   0.79915   0.80340
 Alpha virt. eigenvalues --    0.81316   0.81652   0.82344   0.83186   0.85077
 Alpha virt. eigenvalues --    0.87076   0.88113   0.88364   0.89315   0.90131
 Alpha virt. eigenvalues --    0.91154   0.91458   0.93430   0.94580   0.96189
 Alpha virt. eigenvalues --    0.97054   1.00478   1.01305   1.01336   1.02748
 Alpha virt. eigenvalues --    1.03143   1.03533   1.04942   1.05874   1.08945
 Alpha virt. eigenvalues --    1.19396   1.22896   1.23636   1.24016   1.28615
 Alpha virt. eigenvalues --    1.29366   1.32648   1.34338   1.35736   1.35959
 Alpha virt. eigenvalues --    1.38571   1.40662   1.41178   1.42440   1.43352
 Alpha virt. eigenvalues --    1.43927   1.44553   1.45732   1.46039   1.46974
 Alpha virt. eigenvalues --    1.47590   1.48352   1.51772   1.53598   1.54308
 Alpha virt. eigenvalues --    1.55807   1.56142   1.57431   1.58619   1.61482
 Alpha virt. eigenvalues --    1.63165   1.63524   1.63726   1.66019   1.68093
 Alpha virt. eigenvalues --    1.68201   1.69073   1.69545   1.74365   1.76302
 Alpha virt. eigenvalues --    1.76853   1.78050   1.79630   1.79956   1.81634
 Alpha virt. eigenvalues --    1.82901   1.83203   1.83278   1.83907   1.84290
 Alpha virt. eigenvalues --    1.85101   1.85541   1.86451   1.88116   1.91266
 Alpha virt. eigenvalues --    1.91381   1.94231   1.96505   1.97278   1.98651
 Alpha virt. eigenvalues --    1.99517   2.02688   2.04848   2.06974   2.11724
 Alpha virt. eigenvalues --    2.12171   2.14246   2.15151   2.18978   2.21092
 Alpha virt. eigenvalues --    2.22971   2.28340   2.30177   2.34315   2.34671
 Alpha virt. eigenvalues --    2.35864   2.38390   2.39604   2.41729   2.44501
 Alpha virt. eigenvalues --    2.45980   2.46603   2.48779   2.53391   2.54161
 Alpha virt. eigenvalues --    2.54525   2.56496   2.58072   2.58163   2.59492
 Alpha virt. eigenvalues --    2.59623   2.60444   2.61608   2.63108   2.63745
 Alpha virt. eigenvalues --    2.65004   2.65062   2.65434   2.65724   2.67655
 Alpha virt. eigenvalues --    2.70540   2.70981   2.71288   2.73331   2.74767
 Alpha virt. eigenvalues --    2.76324   2.78958   2.79749   2.81859   2.83121
 Alpha virt. eigenvalues --    2.85481   2.86275   2.92098   2.96883   2.98591
 Alpha virt. eigenvalues --    3.00886   3.04338   3.09803   3.11452   3.14601
 Alpha virt. eigenvalues --    3.19935   3.23583   3.26217   3.28393   3.29892
 Alpha virt. eigenvalues --    3.33961   3.34626   3.42759   3.45360   3.47078
 Alpha virt. eigenvalues --    3.47726   3.52310   3.56792   3.64707   3.65758
 Alpha virt. eigenvalues --    3.70031   3.93737   3.94281   3.95173   3.95900
 Alpha virt. eigenvalues --    4.03684   4.05656   4.08183   4.12278   4.35147
 Alpha virt. eigenvalues --    4.60931   4.67257   4.72813  23.45042  23.59726
 Alpha virt. eigenvalues --   23.78983  23.83988  23.84412  23.90732  23.91823
 Alpha virt. eigenvalues --   23.92658  23.95282  24.02635  24.03259  24.06191
 Alpha virt. eigenvalues --   24.08698  24.14295
          Condensed to atoms (all electrons):
               1          2          3          4          5          6
     1  C    8.368813   0.271773  -0.521384   1.926635  -0.128534  -0.093600
     2  C    0.271773   7.322351   0.298882  -1.169391  -0.008756  -0.016591
     3  C   -0.521384   0.298882   6.526577   0.880537  -0.140530   0.017088
     4  C    1.926635  -1.169391   0.880537  10.479318  -0.550782  -0.115648
     5  C   -0.128534  -0.008756  -0.140530  -0.550782  12.623995   0.769751
     6  C   -0.093600  -0.016591   0.017088  -0.115648   0.769751   6.612050
     7  C    0.004422  -0.001168  -0.011775   0.004107  -1.247784   0.382365
     8  C    0.386454  -0.025690  -0.104876  -0.001905   2.595228  -0.511969
     9  C   -0.828569  -0.822021   0.298719  -0.027427  -0.260874   0.282822
    10  C   -1.247775   0.190691  -0.283155  -2.458452  -2.762473  -0.360452
    11  C    0.550862  -1.080029   1.064436   1.056315  -1.873796  -0.217063
    12  C   -2.508511   1.682141  -1.561565  -2.642648   0.031825  -0.129532
    13  C    0.482766  -0.352504  -0.130857  -0.852126  -1.823863   0.755664
    14  C   -1.145553  -0.136486  -0.227431  -0.788553  -1.640552  -1.252345
    15  H    0.368369  -0.102709   0.002126   0.022012   0.006443   0.001292
    16  H   -0.019897   0.383735  -0.017691   0.018109  -0.001815  -0.000378
    17  H   -0.025173  -0.018882   0.385488  -0.077669   0.000094   0.000443
    18  H    0.048943   0.003221  -0.082305   0.462108   0.002601  -0.004984
    19  H   -0.040072  -0.007714   0.052756  -0.046123  -0.091026   0.047756
    20  H    0.006717   0.002484  -0.005155   0.005179   0.464127  -0.083692
    21  H   -0.001097  -0.000423   0.000353   0.000476  -0.065928   0.368168
    22  H    0.000635   0.000343  -0.000269  -0.001173   0.006303  -0.015588
    23  H    0.004392  -0.002270   0.000804   0.003874   0.040020  -0.004439
    24  H    0.040887   0.014956  -0.000381  -0.006431  -0.018958  -0.002682
    25  H    0.040887   0.014956  -0.000381  -0.006431  -0.018958  -0.002682
               7          8          9         10         11         12
     1  C    0.004422   0.386454  -0.828569  -1.247775   0.550862  -2.508511
     2  C   -0.001168  -0.025690  -0.822021   0.190691  -1.080029   1.682141
     3  C   -0.011775  -0.104876   0.298719  -0.283155   1.064436  -1.561565
     4  C    0.004107  -0.001905  -0.027427  -2.458452   1.056315  -2.642648
     5  C   -1.247784   2.595228  -0.260874  -2.762473  -1.873796   0.031825
     6  C    0.382365  -0.511969   0.282822  -0.360452  -0.217063  -0.129532
     7  C    7.115884   0.060866  -0.857660   0.326152  -0.196805  -0.222841
     8  C    0.060866   9.197079  -1.234094  -1.452023  -0.000476  -0.997914
     9  C   -0.857660  -1.234094   9.659161   0.290452   1.835922  -2.245879
    10  C    0.326152  -1.452023   0.290452   8.965970  -0.434860   2.575208
    11  C   -0.196805  -0.000476   1.835922  -0.434860  13.765347  -4.386926
    12  C   -0.222841  -0.997914  -2.245879   2.575208  -4.386926  17.407747
    13  C   -0.478003  -0.196528   1.192737  -0.110049   0.828264  -4.906731
    14  C    1.218955  -2.229884  -1.843077   2.244972  -4.338894   3.241428
    15  H   -0.002676   0.006679   0.084023  -0.005786  -0.032674  -0.020293
    16  H    0.000371   0.000729  -0.000079  -0.010191   0.018733  -0.026475
    17  H   -0.000372  -0.001545  -0.004144   0.019342  -0.023975   0.092248
    18  H    0.001864   0.006998  -0.020451  -0.001616   0.010276  -0.057065
    19  H   -0.006430  -0.054928   0.075638   0.421476   0.074510  -0.067926
    20  H    0.000227   0.056907  -0.026339   0.015335  -0.010118  -0.010782
    21  H   -0.012182  -0.030357  -0.007500   0.019920  -0.006538   0.005702
    22  H    0.376848  -0.024134   0.004364  -0.006386   0.003269  -0.008143
    23  H   -0.115434   0.378170   0.100360  -0.014169   0.004609   0.008464
    24  H    0.014249   0.020960   0.358816   0.005769   0.013771  -0.056726
    25  H    0.014249   0.020960   0.358816   0.005769   0.013771  -0.056726
              13         14         15         16         17         18
     1  C    0.482766  -1.145553   0.368369  -0.019897  -0.025173   0.048943
     2  C   -0.352504  -0.136486  -0.102709   0.383735  -0.018882   0.003221
     3  C   -0.130857  -0.227431   0.002126  -0.017691   0.385488  -0.082305
     4  C   -0.852126  -0.788553   0.022012   0.018109  -0.077669   0.462108
     5  C   -1.823863  -1.640552   0.006443  -0.001815   0.000094   0.002601
     6  C    0.755664  -1.252345   0.001292  -0.000378   0.000443  -0.004984
     7  C   -0.478003   1.218955  -0.002676   0.000371  -0.000372   0.001864
     8  C   -0.196528  -2.229884   0.006679   0.000729  -0.001545   0.006998
     9  C    1.192737  -1.843077   0.084023  -0.000079  -0.004144  -0.020451
    10  C   -0.110049   2.244972  -0.005786  -0.010191   0.019342  -0.001616
    11  C    0.828264  -4.338894  -0.032674   0.018733  -0.023975   0.010276
    12  C   -4.906731   3.241428  -0.020293  -0.026475   0.092248  -0.057065
    13  C   14.865152  -2.680716   0.000183   0.002386  -0.006221  -0.010077
    14  C   -2.680716  15.230497   0.004020  -0.009610   0.004863  -0.023011
    15  H    0.000183   0.004020   0.443851  -0.009708   0.001773   0.000048
    16  H    0.002386  -0.009610  -0.009708   0.419947  -0.007476   0.002140
    17  H   -0.006221   0.004863   0.001773  -0.007476   0.427919  -0.012280
    18  H   -0.010077  -0.023011   0.000048   0.002140  -0.012280   0.451516
    19  H    0.076597  -0.059807   0.000392  -0.000623   0.001762  -0.005083
    20  H   -0.008023  -0.069693  -0.000137   0.000024  -0.000179   0.001194
    21  H   -0.025385   0.096312   0.000014  -0.000007   0.000010  -0.000114
    22  H    0.029863  -0.029171  -0.000128   0.000008  -0.000007   0.000009
    23  H   -0.043590  -0.030175   0.000540  -0.000128   0.000012  -0.000090
    24  H    0.013928  -0.063360  -0.001200   0.000612  -0.000122   0.000122
    25  H    0.013928  -0.063360  -0.001200   0.000612  -0.000122   0.000122
              19         20         21         22         23         24
     1  C   -0.040072   0.006717  -0.001097   0.000635   0.004392   0.040887
     2  C   -0.007714   0.002484  -0.000423   0.000343  -0.002270   0.014956
     3  C    0.052756  -0.005155   0.000353  -0.000269   0.000804  -0.000381
     4  C   -0.046123   0.005179   0.000476  -0.001173   0.003874  -0.006431
     5  C   -0.091026   0.464127  -0.065928   0.006303   0.040020  -0.018958
     6  C    0.047756  -0.083692   0.368168  -0.015588  -0.004439  -0.002682
     7  C   -0.006430   0.000227  -0.012182   0.376848  -0.115434   0.014249
     8  C   -0.054928   0.056907  -0.030357  -0.024134   0.378170   0.020960
     9  C    0.075638  -0.026339  -0.007500   0.004364   0.100360   0.358816
    10  C    0.421476   0.015335   0.019920  -0.006386  -0.014169   0.005769
    11  C    0.074510  -0.010118  -0.006538   0.003269   0.004609   0.013771
    12  C   -0.067926  -0.010782   0.005702  -0.008143   0.008464  -0.056726
    13  C    0.076597  -0.008023  -0.025385   0.029863  -0.043590   0.013928
    14  C   -0.059807  -0.069693   0.096312  -0.029171  -0.030175  -0.063360
    15  H    0.000392  -0.000137   0.000014  -0.000128   0.000540  -0.001200
    16  H   -0.000623   0.000024  -0.000007   0.000008  -0.000128   0.000612
    17  H    0.001762  -0.000179   0.000010  -0.000007   0.000012  -0.000122
    18  H   -0.005083   0.001194  -0.000114   0.000009  -0.000090   0.000122
    19  H    0.443141  -0.007147   0.001114  -0.000435   0.000173   0.000624
    20  H   -0.007147   0.458291  -0.008810   0.001621   0.000291   0.000244
    21  H    0.001114  -0.008810   0.418289  -0.005605   0.001032  -0.000153
    22  H   -0.000435   0.001621  -0.005605   0.418716  -0.008137   0.000643
    23  H    0.000173   0.000291   0.001032  -0.008137   0.436022  -0.000629
    24  H    0.000624   0.000244  -0.000153   0.000643  -0.000629   0.494023
    25  H    0.000624   0.000244  -0.000153   0.000643  -0.000629  -0.079578
              25
     1  C    0.040887
     2  C    0.014956
     3  C   -0.000381
     4  C   -0.006431
     5  C   -0.018958
     6  C   -0.002682
     7  C    0.014249
     8  C    0.020960
     9  C    0.358816
    10  C    0.005769
    11  C    0.013771
    12  C   -0.056726
    13  C    0.013928
    14  C   -0.063360
    15  H   -0.001200
    16  H    0.000612
    17  H   -0.000122
    18  H    0.000122
    19  H    0.000624
    20  H    0.000244
    21  H   -0.000153
    22  H    0.000643
    23  H   -0.000629
    24  H   -0.079578
    25  H    0.494023
 Mulliken charges:
               1
     1  C    0.057608
     2  C   -0.440902
     3  C   -0.440009
     4  C   -0.113910
     5  C    0.094240
     6  C   -0.425753
     7  C   -0.367428
     8  C    0.135293
     9  C   -0.363715
    10  C    0.066332
    11  C   -0.637931
    12  C    0.861920
    13  C   -0.636794
    14  C    0.590632
    15  H    0.234744
    16  H    0.256673
    17  H    0.244213
    18  H    0.225914
    19  H    0.190752
    20  H    0.217191
    21  H    0.252861
    22  H    0.255912
    23  H    0.240927
    24  H    0.250616
    25  H    0.250616
 Sum of Mulliken charges =   1.00000
 Mulliken charges with hydrogens summed into heavy atoms:
               1
     1  C    0.292352
     2  C   -0.184229
     3  C   -0.195796
     4  C    0.112004
     5  C    0.311431
     6  C   -0.172892
     7  C   -0.111516
     8  C    0.376220
     9  C    0.137516
    10  C    0.257084
    11  C   -0.637931
    12  C    0.861920
    13  C   -0.636794
    14  C    0.590632
 Electronic spatial extent (au):  <R**2>=           2856.2320
 Charge=              1.0000 electrons
 Dipole moment (field-independent basis, Debye):
    X=              0.3046    Y=              0.1621    Z=             -0.0000  Tot=              0.3451
 Quadrupole moment (field-independent basis, Debye-Ang):
   XX=            -51.2586   YY=            -36.1912   ZZ=            -84.1326
   XY=             10.0981   XZ=              0.0000   YZ=             -0.0000
 Traceless Quadrupole moment (field-independent basis, Debye-Ang):
   XX=              5.9356   YY=             21.0029   ZZ=            -26.9385
   XY=             10.0981   XZ=              0.0000   YZ=             -0.0000
 Octapole moment (field-independent basis, Debye-Ang**2):
  XXX=              0.1600  YYY=             10.7726  ZZZ=             -0.0000  XYY=              3.9708
  XXY=             -3.5247  XXZ=             -0.0000  XZZ=             -2.8064  YZZ=              1.2686
  YYZ=             -0.0000  XYZ=              0.0000
 Hexadecapole moment (field-independent basis, Debye-Ang**3):
 XXXX=          -1021.5363 YYYY=          -1814.6200 ZZZZ=            -99.3045 XXXY=           -360.0005
 XXXZ=              0.0000 YYYX=           -284.5433 YYYZ=              0.0000 ZZZX=              0.0000
 ZZZY=             -0.0000 XXYY=           -456.3345 XXZZ=           -247.5091 YYZZ=           -489.0657
 XXYZ=              0.0000 YYXZ=              0.0000 ZZXY=           -186.9389
 N-N= 7.812443538382D+02 E-N=-2.798832616073D+03  KE= 5.375291734950D+02
 Symmetry A'   KE= 5.228749677483D+02
 Symmetry A"   KE= 1.465420574665D+01
 Unable to Open any file for archive entry.
 1\1\GINC-GADI-CPU-CLX-2461\SP\RM062X TD-FC\6-311++G(d,p)\C14H11(1+)\TS
 1578\27-Jul-2022\0\\#n M062X/6-311++G(d,p) TD(NStates=1) EmpiricalDisp
 ersion=GD3 SP\\SP_14\\1,1\C,0,0.,2.487855,1.361831\C,0,0.,3.675108,0.6
 62589\C,0,0.,3.672061,-0.73123\C,0,0.,2.485956,-1.419738\C,0,0.,-2.440
 356,-1.395338\C,0,0.,-3.695661,-0.69643\C,0,0.,-3.727908,0.681389\C,0,
 0.,-2.497455,1.359031\C,0,0.,-0.0192,1.453369\C,0,0.,0.0066,-1.429189\
 C,0,0.,1.278055,0.667065\C,0,0.,1.259071,-0.706604\C,0,0.,-1.246055,0.
 687065\C,0,0.,-1.215871,-0.755004\H,0,0.,2.439671,2.443647\H,0,0.,4.59
 6353,1.225689\H,0,0.,4.588662,-1.302349\H,0,0.,2.52555,-2.500859\H,0,0
 .,0.046,-2.510266\H,0,0.,-2.40955,-2.479259\H,0,0.,-4.629862,-1.242349
 \H,0,0.,-4.677153,1.197689\H,0,0.,-2.536471,2.443647\H,0,-0.859585,-0.
 0804,2.145787\H,0,0.859585,-0.0804,2.145787\\Version=ES64L-G16RevC.01\
 State=1-A'\HF=-539.7505398\RMSD=9.457e-09\PG=CS [SG(C14H9),X(H2)]\\@
 The archive entry for this job was punched.


 I take a simple view of life: keep your eyes open and get on with it.
 -- Laurence Olivier
 Job cpu time:       0 days  0 hours 44 minutes 33.7 seconds.
 Elapsed time:       0 days  0 hours  1 minutes 24.3 seconds.
 File lengths (MBytes):  RWF=    460 Int=      0 D2E=      0 Chk=     15 Scr=      1
 Normal termination of Gaussian 16 at Wed Jul 27 14:19:26 2022.
