 Entering Gaussian System, Link 0=g16
 Initial command:
 /apps/gaussian/g16c01/g16/l1.exe "/jobfs/52822737.gadi-pbs/Gau-2032252.inp" -scrdir="/jobfs/52822737.gadi-pbs/"
 Entering Link 1 = /apps/gaussian/g16c01/g16/l1.exe PID=   2032253.
  
 Copyright (c) 1988-2019, Gaussian, Inc.  All Rights Reserved.
  
 This is part of the Gaussian(R) 16 program.  It is based on
 the Gaussian(R) 09 system (copyright 2009, Gaussian, Inc.),
 the Gaussian(R) 03 system (copyright 2003, Gaussian, Inc.),
 the Gaussian(R) 98 system (copyright 1998, Gaussian, Inc.),
 the Gaussian(R) 94 system (copyright 1995, Gaussian, Inc.),
 the Gaussian 92(TM) system (copyright 1992, Gaussian, Inc.),
 the Gaussian 90(TM) system (copyright 1990, Gaussian, Inc.),
 the Gaussian 88(TM) system (copyright 1988, Gaussian, Inc.),
 the Gaussian 86(TM) system (copyright 1986, Carnegie Mellon
 University), and the Gaussian 82(TM) system (copyright 1983,
 Carnegie Mellon University). Gaussian is a federally registered
 trademark of Gaussian, Inc.
  
 This software contains proprietary and confidential information,
 including trade secrets, belonging to Gaussian, Inc.
  
 This software is provided under written license and may be
 used, copied, transmitted, or stored only in accord with that
 written license.
  
 The following legend is applicable only to US Government
 contracts under FAR:
  
                    RESTRICTED RIGHTS LEGEND
  
 Use, reproduction and disclosure by the US Government is
 subject to restrictions as set forth in subparagraphs (a)
 and (c) of the Commercial Computer Software - Restricted
 Rights clause in FAR 52.227-19.
  
 Gaussian, Inc.
 340 Quinnipiac St., Bldg. 40, Wallingford CT 06492
  
  
 ---------------------------------------------------------------
 Warning -- This program may not be used in any manner that
 competes with the business of Gaussian, Inc. or will provide
 assistance to any competitor of Gaussian, Inc.  The licensee
 of this program is prohibited from giving any competitor of
 Gaussian, Inc. access to this program.  By using this program,
 the user acknowledges that Gaussian, Inc. is engaged in the
 business of creating and licensing software in the field of
 computational chemistry and represents and warrants to the
 licensee that it is not a competitor of Gaussian, Inc. and that
 it will not use this program in any manner prohibited above.
 ---------------------------------------------------------------
  

 Cite this work as:
 Gaussian 16, Revision C.01,
 M. J. Frisch, G. W. Trucks, H. B. Schlegel, G. E. Scuseria, 
 M. A. Robb, J. R. Cheeseman, G. Scalmani, V. Barone, 
 G. A. Petersson, H. Nakatsuji, X. Li, M. Caricato, A. V. Marenich, 
 J. Bloino, B. G. Janesko, R. Gomperts, B. Mennucci, H. P. Hratchian, 
 J. V. Ortiz, A. F. Izmaylov, J. L. Sonnenberg, D. Williams-Young, 
 F. Ding, F. Lipparini, F. Egidi, J. Goings, B. Peng, A. Petrone, 
 T. Henderson, D. Ranasinghe, V. G. Zakrzewski, J. Gao, N. Rega, 
 G. Zheng, W. Liang, M. Hada, M. Ehara, K. Toyota, R. Fukuda, 
 J. Hasegawa, M. Ishida, T. Nakajima, Y. Honda, O. Kitao, H. Nakai, 
 T. Vreven, K. Throssell, J. A. Montgomery, Jr., J. E. Peralta, 
 F. Ogliaro, M. J. Bearpark, J. J. Heyd, E. N. Brothers, K. N. Kudin, 
 V. N. Staroverov, T. A. Keith, R. Kobayashi, J. Normand, 
 K. Raghavachari, A. P. Rendell, J. C. Burant, S. S. Iyengar, 
 J. Tomasi, M. Cossi, J. M. Millam, M. Klene, C. Adamo, R. Cammi, 
 J. W. Ochterski, R. L. Martin, K. Morokuma, O. Farkas, 
 J. B. Foresman, and D. J. Fox, Gaussian, Inc., Wallingford CT, 2019.
 
 ******************************************
 Gaussian 16:  ES64L-G16RevC.01  3-Jul-2019
                27-Jul-2022 
 ******************************************
 %NProcShared=32
 Will use up to   32 processors via shared memory.
 %mem = 128GB
 ---------------------------------------------------------------
 #n M062X/6-311++G(d,p) TD(NStates=1) EmpiricalDispersion=GD3 SP
 ---------------------------------------------------------------
 1/38=1,172=1/1;
 2/12=2,17=6,18=5,40=1/2;
 3/5=4,6=6,7=1111,11=9,25=1,30=1,74=-55,124=31/1,2,3,8;
 4//1;
 5/5=2,38=5/2;
 8/6=1,10=2,108=1/1;
 9/41=1,42=1,70=2/14;
 6/7=2,8=2,9=2,10=2/1;
 99/5=1,9=1/99;
 ----
 SP_4
 ----
 Symbolic Z-matrix:
 Charge =  1 Multiplicity = 1
 C                     0.        2.48946   1.36083 
 C                     0.        3.69191   0.66839 
 C                     0.        3.67946  -0.72063 
 C                     0.        2.47196  -1.41194 
 C                     0.       -2.45436  -1.40314 
 C                     0.       -3.68826  -0.70703 
 C                     0.       -3.71111   0.67559 
 C                     0.       -2.49586   1.36003 
 C                     0.       -0.0064    1.45337 
 C                     0.        0.0052   -1.42919 
 C                     0.        1.26765   0.67547 
 C                     0.        1.24467  -0.724 
 C                     0.       -1.25646   0.67867 
 C                     0.       -1.23027  -0.7376 
 H                     0.        2.47367   2.44365 
 H                     0.        4.62315   1.21489 
 H                     0.        4.60326  -1.28115 
 H                     0.        2.48515  -2.49406 
 H                     0.        0.016    -2.51027 
 H                     0.       -2.44995  -2.48606 
 H                     0.       -4.61526  -1.26355 
 H                     0.       -4.65035   1.20849 
 H                     0.       -2.50247   2.44365 
 H                    -0.85959  -0.028     2.14579 
 H                     0.85959  -0.028     2.14579 
 
                          Input orientation:                          
 ---------------------------------------------------------------------
 Center     Atomic      Atomic             Coordinates (Angstroms)
 Number     Number       Type             X           Y           Z
 ---------------------------------------------------------------------
      1          6           0        0.000000    2.489455    1.360831
      2          6           0        0.000000    3.691908    0.668389
      3          6           0        0.000000    3.679461   -0.720630
      4          6           0        0.000000    2.471956   -1.411938
      5          6           0        0.000000   -2.454356   -1.403138
      6          6           0        0.000000   -3.688261   -0.707030
      7          6           0        0.000000   -3.711108    0.675589
      8          6           0        0.000000   -2.495855    1.360031
      9          6           0        0.000000   -0.006400    1.453369
     10          6           0        0.000000    0.005200   -1.429189
     11          6           0        0.000000    1.267655    0.675465
     12          6           0        0.000000    1.244671   -0.724004
     13          6           0        0.000000   -1.256455    0.678665
     14          6           0        0.000000   -1.230271   -0.737604
     15          1           0        0.000000    2.473671    2.443647
     16          1           0        0.000000    4.623153    1.214889
     17          1           0        0.000000    4.603262   -1.281149
     18          1           0        0.000000    2.485150   -2.494059
     19          1           0        0.000000    0.016000   -2.510266
     20          1           0        0.000000   -2.449950   -2.486059
     21          1           0        0.000000   -4.615262   -1.263549
     22          1           0        0.000000   -4.650353    1.208489
     23          1           0        0.000000   -2.502471    2.443647
     24          1           0       -0.859585   -0.028000    2.145787
     25          1           0        0.859585   -0.028000    2.145787
 ---------------------------------------------------------------------
                    Distance matrix (angstroms):
                    1          2          3          4          5
     1  C    0.000000
     2  C    1.387577   0.000000
     3  C    2.397623   1.389075   0.000000
     4  C    2.772824   2.411647   1.391393   0.000000
     5  C    5.663991   6.485968   6.171671   4.926320   0.000000
     6  C    6.514616   7.507241   7.367735   6.200417   1.416717
     7  C    6.238312   7.403020   7.521299   6.525952   2.429101
     8  C    4.985310   6.226297   6.516416   5.688845   2.763481
     9  C    2.497570   3.780698   4.279234   3.788434   3.761930
    10  C    3.735737   4.241656   3.741958   2.466816   2.459694
    11  C    1.400900   2.424263   2.786735   2.409895   4.263092
    12  C    2.428173   2.815622   2.434792   1.406941   3.760854
    13  C    3.807518   4.948374   5.130428   4.274537   2.401847
    14  C    4.270807   5.119049   4.909761   3.763138   1.393312
    15  H    1.082931   2.153054   3.386234   3.855585   6.251656
    16  H    2.138683   1.079759   2.153320   3.395272   7.546204
    17  H    3.383525   2.152037   1.080551   2.135315   7.058672
    18  H    3.854892   3.384870   2.138090   1.082201   5.058540
    19  H    4.593841   4.859645   4.077223   2.690361   2.707100
    20  H    6.260694   6.904561   6.378591   5.037747   1.082930
    21  H    7.573927   8.528860   8.312472   7.088771   2.165410
    22  H    7.141433   8.359726   8.550281   7.589066   3.412184
    23  H    5.108015   6.443747   6.944705   6.293684   3.847086
    24  H    2.773558   4.093813   4.764504   4.432389   4.384171
    25  H    2.773558   4.093813   4.764504   4.432389   4.384171
                    6          7          8          9         10
     6  C    0.000000
     7  C    1.382808   0.000000
     8  C    2.386330   1.394740   0.000000
     9  C    4.268890   3.785473   2.491204   0.000000
    10  C    3.763398   4.270953   3.746335   2.882581   0.000000
    11  C    5.145133   4.978763   3.825263   1.492766   2.454254
    12  C    4.932961   5.149622   4.281908   2.511201   1.426034
    13  C    2.798898   2.454655   1.414345   1.470647   2.456587
    14  C    2.458180   2.855112   2.449852   2.509626   1.415867
    15  H    6.920706   6.432536   5.086297   2.670469   4.592625
    16  H    8.530731   8.351691   7.120487   4.635691   5.321338
    17  H    8.311376   8.541520   7.574516   5.359718   4.600445
    18  H    6.426856   6.959905   6.297970   4.667977   2.698907
    19  H    4.119856   4.903163   4.613959   3.963698   1.081131
    20  H    2.167570   3.403900   3.846364   4.635734   2.672964
    21  H    1.081223   2.139568   3.372693   5.350070   4.623430
    22  H    2.143556   1.079891   2.159821   4.650405   5.350843
    23  H    3.366432   2.141689   1.083636   2.685334   4.613813
    24  H    4.719636   4.057789   2.728847   1.103991   3.677015
    25  H    4.719636   4.057789   2.728847   1.103991   3.677015
                   11         12         13         14         15
    11  C    0.000000
    12  C    1.399658   0.000000
    13  C    2.524112   2.867597   0.000000
    14  C    2.869913   2.474979   1.416511   0.000000
    15  H    2.140314   3.397713   4.126621   4.882576   0.000000
    16  H    3.398580   3.895311   5.904009   6.170478   2.475908
    17  H    3.867119   3.404489   6.178766   5.858801   4.290602
    18  H    3.395317   2.161454   4.905689   4.109682   4.937719
    19  H    3.422795   2.168032   3.433427   2.166915   5.530045
    20  H    4.880146   4.093295   3.382293   2.131833   6.967356
    21  H    6.194230   5.884719   3.879920   3.425607   7.999767
    22  H    5.941964   6.203695   3.435005   3.935002   7.230307
    23  H    4.164171   4.906637   2.160490   3.426201   4.976142
    24  H    2.139966   3.254885   2.097721   3.240106   2.661948
    25  H    2.139966   3.254885   2.097721   3.240106   2.661948
                   16         17         18         19         20
    16  H    0.000000
    17  H    2.496117   0.000000
    18  H    4.281046   2.440809   0.000000
    19  H    5.924748   4.749074   2.469203   0.000000
    20  H    7.982844   7.155390   4.935106   2.466069   0.000000
    21  H    9.565091   9.218541   7.206248   4.796133   2.486585
    22  H    9.273508   9.582676   8.038922   5.966908   4.300170
    23  H    7.230793   8.022814   7.018355   5.557333   4.929986
    24  H    4.820652   5.825063   5.346305   4.734939   5.297049
    25  H    4.820652   5.825063   5.346305   4.734939   5.297049
                   21         22         23         24         25
    21  H    0.000000
    22  H    2.472287   0.000000
    23  H    4.266988   2.477703   0.000000
    24  H    5.779743   4.794117   2.636402   0.000000
    25  H    5.779743   4.794117   2.636402   1.719170   0.000000
 Stoichiometry    C14H11(1+)
 Framework group  CS[SG(C14H9),X(H2)]
 Deg. of freedom    46
 Full point group                 CS      NOp   2
 Largest Abelian subgroup         CS      NOp   2
 Largest concise Abelian subgroup CS      NOp   2
                         Standard orientation:                         
 ---------------------------------------------------------------------
 Center     Atomic      Atomic             Coordinates (Angstroms)
 Number     Number       Type             X           Y           Z
 ---------------------------------------------------------------------
      1          6           0       -2.380718   -1.543650    0.000000
      2          6           0       -2.343064   -2.930715    0.000000
      3          6           0       -1.115078   -3.580007    0.000000
      4          6           0        0.067103   -2.846234    0.000000
      5          6           0        2.400984    1.492156    0.000000
      6          6           0        2.375055    2.908636    0.000000
      7          6           0        1.169476    3.585937    0.000000
      8          6           0       -0.010347    2.842084    0.000000
      9          6           0       -1.275779    0.696209    0.000000
     10          6           0        1.254804   -0.684163    0.000000
     11          6           0       -1.196970   -0.794476    0.000000
     12          6           0        0.045219   -1.439464    0.000000
     13          6           0        0.000000    1.427777    0.000000
     14          6           0        1.233598    0.731545    0.000000
     15          1           0       -3.325885   -1.015068    0.000000
     16          1           0       -3.266528   -3.490264    0.000000
     17          1           0       -1.061040   -4.659205    0.000000
     18          1           0        1.012890   -3.372207    0.000000
     19          1           0        2.200810   -1.207533    0.000000
     20          1           0        3.351652    0.973534    0.000000
     21          1           0        3.305316    3.459688    0.000000
     22          1           0        1.147078    4.665595    0.000000
     23          1           0       -0.960576    3.362980    0.000000
     24          1           0       -1.874707    1.044340    0.859585
     25          1           0       -1.874707    1.044340   -0.859585
 ---------------------------------------------------------------------
 Rotational constants (GHZ):           2.1362430           0.4446205           0.3688232
 Standard basis: 6-311++G(d,p) (5D, 7F)
 There are   299 symmetry adapted cartesian basis functions of A'  symmetry.
 There are   100 symmetry adapted cartesian basis functions of A"  symmetry.
 There are   285 symmetry adapted basis functions of A'  symmetry.
 There are   100 symmetry adapted basis functions of A"  symmetry.
   385 basis functions,   603 primitive gaussians,   399 cartesian basis functions
    47 alpha electrons       47 beta electrons
       nuclear repulsion energy       781.2029233070 Hartrees.
 NAtoms=   25 NActive=   25 NUniq=   24 SFac= 1.09D+00 NAtFMM=   60 NAOKFM=F Big=F
 Integral buffers will be    131072 words long.
 Regular integral format.
 Two-electron integral symmetry is turned on.
 Nuclear repulsion after empirical dispersion term =      781.2019438730 Hartrees.
 One-electron integrals computed using PRISM.
 NBasis=   385 RedAO= T EigKep=  1.12D-06  NBF=   285   100
 NBsUse=   379 1.00D-06 EigRej=  8.38D-07 NBFU=   279   100
 ExpMin= 3.60D-02 ExpMax= 4.56D+03 ExpMxC= 6.82D+02 IAcc=3 IRadAn=         5 AccDes= 0.00D+00
 Harris functional with IExCor= 1009 and IRadAn=       5 diagonalized for initial guess.
 HarFok:  IExCor= 1009 AccDes= 0.00D+00 IRadAn=         5 IDoV= 1 UseB2=F ITyADJ=14
 ICtDFT=  3500011 ScaDFX=  1.000000  1.000000  1.000000  1.000000
 FoFCou: FMM=F IPFlag=           0 FMFlag=      100000 FMFlg1=           0
         NFxFlg=           0 DoJE=T BraDBF=F KetDBF=T FulRan=T
         wScrn=  0.000000 ICntrl=       500 IOpCl=  0 I1Cent=   200000004 NGrid=           0
         NMat0=    1 NMatS0=      1 NMatT0=    0 NMatD0=    1 NMtDS0=    0 NMtDT0=    0
 Petite list used in FoFCou.
 Initial guess orbital symmetries:
       Occupied  (A') (A') (A') (A') (A') (A') (A') (A') (A') (A')
                 (A') (A') (A') (A') (A') (A') (A') (A') (A') (A')
                 (A') (A') (A') (A') (A') (A') (A') (A') (A') (A')
                 (A') (A') (A") (A') (A') (A') (A') (A') (A") (A')
                 (A") (A') (A') (A") (A") (A") (A")
       Virtual   (A") (A") (A") (A") (A") (A') (A') (A') (A') (A")
                 (A") (A') (A') (A') (A") (A') (A') (A') (A') (A")
                 (A') (A") (A') (A') (A') (A") (A') (A") (A') (A')
                 (A') (A') (A') (A") (A') (A') (A") (A') (A') (A")
                 (A') (A') (A') (A") (A') (A') (A') (A') (A') (A")
                 (A') (A") (A') (A") (A') (A') (A') (A") (A") (A')
                 (A') (A') (A') (A') (A') (A') (A") (A') (A') (A")
                 (A') (A') (A') (A') (A') (A') (A') (A') (A') (A')
                 (A') (A') (A') (A') (A') (A') (A') (A') (A') (A')
                 (A') (A') (A') (A') (A') (A') (A') (A") (A') (A")
                 (A') (A') (A") (A") (A') (A") (A') (A") (A') (A")
                 (A") (A') (A') (A') (A") (A') (A') (A") (A") (A')
                 (A") (A") (A') (A') (A') (A") (A') (A') (A') (A")
                 (A') (A') (A') (A') (A') (A') (A") (A') (A') (A')
                 (A') (A') (A') (A') (A') (A') (A') (A') (A') (A")
                 (A") (A') (A") (A") (A') (A') (A') (A") (A") (A')
                 (A") (A') (A") (A") (A") (A') (A') (A') (A') (A')
                 (A') (A") (A') (A") (A') (A') (A') (A') (A') (A")
                 (A') (A') (A') (A') (A') (A") (A") (A') (A") (A")
                 (A') (A") (A') (A") (A') (A') (A') (A") (A') (A')
                 (A") (A") (A") (A') (A') (A") (A') (A") (A') (A')
                 (A") (A") (A') (A") (A') (A") (A') (A') (A') (A")
                 (A') (A') (A') (A') (A") (A') (A') (A') (A") (A")
                 (A') (A') (A') (A") (A') (A') (A") (A') (A") (A')
                 (A") (A') (A') (A') (A') (A") (A') (A') (A') (A")
                 (A') (A') (A") (A') (A") (A') (A') (A") (A') (A')
                 (A') (A") (A') (A") (A') (A') (A') (A") (A') (A")
                 (A') (A') (A') (A') (A") (A') (A") (A') (A") (A')
                 (A") (A') (A") (A") (A") (A') (A') (A') (A') (A')
                 (A') (A') (A') (A') (A') (A') (A') (A') (A') (A')
                 (A') (A') (A') (A') (A") (A') (A') (A') (A') (A')
                 (A') (A') (A') (A') (A') (A') (A') (A') (A') (A')
                 (A') (A') (A') (A') (A') (A') (A') (A') (A') (A')
                 (A') (A')
 The electronic state of the initial guess is 1-A'.
 Requested convergence on RMS density matrix=1.00D-08 within 128 cycles.
 Requested convergence on MAX density matrix=1.00D-06.
 Requested convergence on             energy=1.00D-06.
 No special actions if energy rises.
 SCF Done:  E(RM062X) =  -539.759212154     A.U. after   15 cycles
            NFock= 15  Conv=0.62D-08     -V/T= 2.0042
 DoSCS=F DFT=T ScalE2(SS,OS)=  1.000000  1.000000
 ExpMin= 3.60D-02 ExpMax= 4.56D+03 ExpMxC= 6.82D+02 IAcc=3 IRadAn=         5 AccDes= 0.00D+00
 HarFok:  IExCor=  205 AccDes= 0.00D+00 IRadAn=         5 IDoV=-2 UseB2=F ITyADJ=14
 ICtDFT= 12500011 ScaDFX=  1.000000  1.000000  1.000000  1.000000
 Range of M.O.s used for correlation:    15   379
 NBasis=   385 NAE=    47 NBE=    47 NFC=    14 NFV=     0
 NROrb=    365 NOA=    33 NOB=    33 NVA=   332 NVB=   332

 **** Warning!!: The largest alpha MO coefficient is  0.15486388D+03

 Orbital symmetries:
       Occupied  (A') (A') (A') (A') (A') (A') (A') (A') (A') (A')
                 (A') (A') (A') (A') (A') (A') (A') (A') (A') (A')
                 (A') (A') (A') (A') (A') (A') (A') (A') (A') (A')
                 (A') (A') (A") (A') (A') (A') (A') (A") (A") (A')
                 (A') (A') (A') (A") (A") (A") (A")
       Virtual   (A") (A") (A") (A") (A') (A') (A') (A') (A") (A')
                 (A') (A") (A') (A') (A") (A') (A") (A') (A') (A')
                 (A") (A") (A') (A') (A') (A") (A') (A") (A') (A')
                 (A") (A') (A") (A') (A') (A') (A') (A') (A") (A')
                 (A") (A') (A') (A") (A") (A') (A") (A') (A") (A')
                 (A') (A') (A') (A') (A') (A") (A') (A') (A') (A')
                 (A') (A") (A') (A') (A') (A') (A") (A') (A') (A')
                 (A') (A') (A') (A') (A') (A') (A') (A') (A') (A')
                 (A') (A') (A') (A') (A') (A') (A') (A') (A') (A')
                 (A') (A') (A') (A') (A") (A') (A") (A") (A') (A")
                 (A') (A') (A') (A') (A") (A") (A') (A") (A") (A')
                 (A') (A') (A") (A') (A') (A") (A') (A") (A') (A")
                 (A") (A') (A") (A') (A') (A') (A") (A') (A') (A')
                 (A') (A') (A') (A') (A') (A') (A') (A') (A') (A')
                 (A') (A') (A') (A") (A') (A') (A') (A') (A') (A')
                 (A') (A') (A") (A') (A") (A') (A") (A") (A') (A")
                 (A") (A') (A') (A") (A") (A") (A') (A") (A') (A')
                 (A') (A') (A') (A") (A") (A') (A') (A') (A') (A")
                 (A') (A') (A') (A") (A') (A") (A') (A') (A") (A")
                 (A") (A') (A') (A") (A') (A") (A') (A') (A') (A')
                 (A") (A") (A") (A') (A') (A") (A') (A") (A') (A')
                 (A') (A") (A") (A') (A") (A') (A") (A') (A') (A")
                 (A') (A') (A') (A') (A") (A') (A') (A') (A") (A")
                 (A') (A') (A') (A") (A') (A') (A') (A") (A") (A')
                 (A") (A') (A') (A") (A') (A') (A') (A') (A') (A')
                 (A") (A') (A') (A') (A') (A") (A") (A") (A') (A')
                 (A') (A') (A') (A') (A') (A') (A") (A') (A') (A')
                 (A') (A") (A') (A") (A") (A") (A') (A") (A') (A")
                 (A') (A") (A") (A') (A") (A") (A') (A') (A') (A')
                 (A') (A') (A') (A') (A') (A') (A') (A') (A') (A')
                 (A') (A') (A') (A") (A') (A') (A') (A') (A') (A')
                 (A') (A') (A') (A') (A') (A') (A') (A') (A') (A')
                 (A') (A') (A') (A') (A') (A') (A') (A') (A') (A')
                 (A') (A')
     4 initial guesses have been made.
 Convergence on wavefunction:    0.001000000000000
 Iteration     1 Dimension     4 NMult     0 NNew      4
 CISAX will form     4 AO SS matrices at one time.
 Iteration     2 Dimension     6 NMult     4 NNew      2
 Iteration     3 Dimension     8 NMult     6 NNew      2
 Iteration     4 Dimension    10 NMult     8 NNew      2
 Iteration     5 Dimension    12 NMult    10 NNew      2
 Iteration     6 Dimension    14 NMult    12 NNew      2
 ***********************************************************************
 Excited states from <AA,BB:AA,BB> singles matrix:
 ***********************************************************************
 
 Ground to excited state transition densities written to RWF  633
 Ground to excited state transition electric dipole moments (Au):
       state          X           Y           Z        Dip. S.      Osc.
         1        -0.5297      0.3617     -0.0000      0.4115      0.0283
 Ground to excited state transition velocity dipole moments (Au):
       state          X           Y           Z        Dip. S.      Osc.
         1         0.0621     -0.0399     -0.0000      0.0054      0.0351
 Ground to excited state transition magnetic dipole moments (Au):
       state          X           Y           Z
         1         0.0000     -0.0000     -0.1560
 Ground to excited state transition velocity quadrupole moments (Au):
       state          XX          YY          ZZ          XY          XZ          YZ
         1         0.1323      0.1928     -0.0097      0.1336     -0.0000     -0.0000
 <0|del|b> * <b|rxdel|0> + <0|del|b> * <b|delr+rdel|0>
 Rotatory Strengths (R) in cgs (10**-40 erg-esu-cm/Gauss)
       state          XX          YY          ZZ    R(velocity)    E-M Angle
         1        -0.0000      0.0000      0.0000      0.0000       90.00
 1/2[<0|r|b>*<b|rxdel|0> + (<0|rxdel|b>*<b|r|0>)*]
 Rotatory Strengths (R) in cgs (10**-40 erg-esu-cm/Gauss)
       state          XX          YY          ZZ     R(length)
         1         0.0000      0.0000     -0.0000     -0.0000
  1/2[<0|del|b>*<b|r|0> + (<0|r|b>*<b|del|0>)*] (Au)
       state          X           Y           Z        Dip. S.   Osc.(frdel)
         1        -0.0329     -0.0144      0.0000      0.0473      0.0315

 Excitation energies and oscillator strengths:
 
 Excited State   1:      Singlet-A'     2.8100 eV  441.23 nm  f=0.0283  <S**2>=0.000
      47 -> 48         0.70387
 This state for optimization and/or second-order correction.
 Total Energy, E(TD-HF/TD-DFT) =  -539.655946690    
 Copying the excited state density for this state as the 1-particle RhoCI density.
 SavETr:  write IOETrn=   770 NScale= 10 NData=  16 NLR=1 NState=    1 LETran=      28.

 **********************************************************************

            Population analysis using the SCF Density.

 **********************************************************************

 Orbital symmetries:
       Occupied  (A') (A') (A') (A') (A') (A') (A') (A') (A') (A')
                 (A') (A') (A') (A') (A') (A') (A') (A') (A') (A')
                 (A') (A') (A') (A') (A') (A') (A') (A') (A') (A')
                 (A') (A') (A") (A') (A') (A') (A') (A") (A") (A')
                 (A') (A') (A') (A") (A") (A") (A")
       Virtual   (A") (A") (A") (A") (A') (A') (A') (A') (A") (A')
                 (A') (A") (A') (A') (A") (A') (A") (A') (A') (A')
                 (A") (A") (A') (A') (A') (A") (A') (A") (A') (A')
                 (A") (A') (A") (A') (A') (A') (A') (A') (A") (A')
                 (A") (A') (A') (A") (A") (A') (A") (A') (A") (A')
                 (A') (A') (A') (A') (A') (A") (A') (A') (A') (A')
                 (A') (A") (A') (A') (A') (A') (A") (A') (A') (A')
                 (A') (A') (A') (A') (A') (A') (A') (A') (A') (A')
                 (A') (A') (A') (A') (A') (A') (A') (A') (A') (A')
                 (A') (A') (A') (A') (A") (A') (A") (A") (A') (A")
                 (A') (A') (A') (A') (A") (A") (A') (A") (A") (A')
                 (A') (A') (A") (A') (A') (A") (A') (A") (A') (A")
                 (A") (A') (A") (A') (A') (A') (A") (A') (A') (A')
                 (A') (A') (A') (A') (A') (A') (A') (A') (A') (A')
                 (A') (A') (A') (A") (A') (A') (A') (A') (A') (A')
                 (A') (A') (A") (A') (A") (A') (A") (A") (A') (A")
                 (A") (A') (A') (A") (A") (A") (A') (A") (A') (A')
                 (A') (A') (A') (A") (A") (A') (A') (A') (A') (A")
                 (A') (A') (A') (A") (A') (A") (A') (A') (A") (A")
                 (A") (A') (A') (A") (A') (A") (A') (A') (A') (A')
                 (A") (A") (A") (A') (A') (A") (A') (A") (A') (A')
                 (A') (A") (A") (A') (A") (A') (A") (A') (A') (A")
                 (A') (A') (A') (A') (A") (A') (A') (A') (A") (A")
                 (A') (A') (A') (A") (A') (A') (A') (A") (A") (A')
                 (A") (A') (A') (A") (A') (A') (A') (A') (A') (A')
                 (A") (A') (A') (A') (A') (A") (A") (A") (A') (A')
                 (A') (A') (A') (A') (A') (A') (A") (A') (A') (A')
                 (A') (A") (A') (A") (A") (A") (A') (A") (A') (A")
                 (A') (A") (A") (A') (A") (A") (A') (A') (A') (A')
                 (A') (A') (A') (A') (A') (A') (A') (A') (A') (A')
                 (A') (A') (A') (A") (A') (A') (A') (A') (A') (A')
                 (A') (A') (A') (A') (A') (A') (A') (A') (A') (A')
                 (A') (A') (A') (A') (A') (A') (A') (A') (A') (A')
                 (A') (A')
 The electronic state is 1-A'.
 Alpha  occ. eigenvalues --  -10.77666 -10.73294 -10.73190 -10.72463 -10.72407
 Alpha  occ. eigenvalues --  -10.71472 -10.71263 -10.71020 -10.70989 -10.70983
 Alpha  occ. eigenvalues --  -10.70042 -10.69902 -10.69723 -10.69533  -1.16450
 Alpha  occ. eigenvalues --   -1.12473  -1.06942  -1.05741  -1.01317  -1.00213
 Alpha  occ. eigenvalues --   -0.95765  -0.91056  -0.86421  -0.85898  -0.83813
 Alpha  occ. eigenvalues --   -0.78396  -0.76034  -0.74411  -0.69582  -0.69227
 Alpha  occ. eigenvalues --   -0.68511  -0.68188  -0.68103  -0.64749  -0.64299
 Alpha  occ. eigenvalues --   -0.63050  -0.61844  -0.60047  -0.59641  -0.59089
 Alpha  occ. eigenvalues --   -0.56903  -0.55203  -0.54829  -0.52438  -0.46655
 Alpha  occ. eigenvalues --   -0.46071  -0.44459
 Alpha virt. eigenvalues --   -0.26089  -0.14687  -0.14083  -0.12769  -0.11178
 Alpha virt. eigenvalues --   -0.10087  -0.09230  -0.07983  -0.07967  -0.07476
 Alpha virt. eigenvalues --   -0.07203  -0.07144  -0.05643  -0.05582  -0.05333
 Alpha virt. eigenvalues --   -0.03828  -0.03647  -0.03283  -0.03132  -0.02165
 Alpha virt. eigenvalues --   -0.01367  -0.00932   0.00191   0.00591   0.00658
 Alpha virt. eigenvalues --    0.01057   0.01513   0.01939   0.02213   0.02282
 Alpha virt. eigenvalues --    0.02451   0.02670   0.02748   0.03319   0.03370
 Alpha virt. eigenvalues --    0.04239   0.04505   0.04695   0.05031   0.05366
 Alpha virt. eigenvalues --    0.06033   0.06294   0.06594   0.07045   0.07254
 Alpha virt. eigenvalues --    0.07893   0.08164   0.08359   0.08539   0.08926
 Alpha virt. eigenvalues --    0.09486   0.09615   0.10014   0.10850   0.11031
 Alpha virt. eigenvalues --    0.11115   0.12156   0.12251   0.12901   0.12995
 Alpha virt. eigenvalues --    0.13390   0.13524   0.14026   0.14393   0.16225
 Alpha virt. eigenvalues --    0.16286   0.16349   0.17341   0.17625   0.17787
 Alpha virt. eigenvalues --    0.18118   0.19018   0.19235   0.19658   0.19771
 Alpha virt. eigenvalues --    0.21557   0.21582   0.22734   0.23108   0.23551
 Alpha virt. eigenvalues --    0.23827   0.24578   0.25342   0.26907   0.27619
 Alpha virt. eigenvalues --    0.28834   0.29319   0.29860   0.31370   0.35730
 Alpha virt. eigenvalues --    0.36481   0.38182   0.39273   0.41161   0.41403
 Alpha virt. eigenvalues --    0.41975   0.42172   0.42991   0.43664   0.44294
 Alpha virt. eigenvalues --    0.44822   0.45168   0.45974   0.46313   0.47937
 Alpha virt. eigenvalues --    0.48527   0.48856   0.49037   0.50424   0.51148
 Alpha virt. eigenvalues --    0.51490   0.51776   0.52115   0.52906   0.53973
 Alpha virt. eigenvalues --    0.54095   0.54667   0.55671   0.55760   0.57467
 Alpha virt. eigenvalues --    0.58240   0.58830   0.61445   0.62107   0.62428
 Alpha virt. eigenvalues --    0.63217   0.63495   0.64933   0.65203   0.67262
 Alpha virt. eigenvalues --    0.70385   0.70617   0.71023   0.72402   0.72854
 Alpha virt. eigenvalues --    0.75724   0.76039   0.76330   0.76910   0.77084
 Alpha virt. eigenvalues --    0.77767   0.77960   0.78233   0.79886   0.80386
 Alpha virt. eigenvalues --    0.81260   0.81648   0.82156   0.83030   0.85177
 Alpha virt. eigenvalues --    0.87149   0.88169   0.88566   0.89146   0.90378
 Alpha virt. eigenvalues --    0.91089   0.91291   0.93214   0.94623   0.96386
 Alpha virt. eigenvalues --    0.96723   1.00400   1.01297   1.01651   1.02710
 Alpha virt. eigenvalues --    1.03238   1.03723   1.04753   1.05505   1.08782
 Alpha virt. eigenvalues --    1.19546   1.23222   1.24070   1.24992   1.28251
 Alpha virt. eigenvalues --    1.29529   1.31907   1.34305   1.35760   1.35998
 Alpha virt. eigenvalues --    1.39241   1.40241   1.40972   1.42932   1.43443
 Alpha virt. eigenvalues --    1.43594   1.44969   1.45532   1.46335   1.46716
 Alpha virt. eigenvalues --    1.47625   1.48053   1.51735   1.53623   1.55522
 Alpha virt. eigenvalues --    1.55775   1.56379   1.56781   1.57851   1.61446
 Alpha virt. eigenvalues --    1.63229   1.63541   1.63751   1.66098   1.68291
 Alpha virt. eigenvalues --    1.68347   1.68724   1.69722   1.74389   1.76019
 Alpha virt. eigenvalues --    1.77136   1.78040   1.79981   1.80013   1.80901
 Alpha virt. eigenvalues --    1.83167   1.83213   1.83613   1.83647   1.84175
 Alpha virt. eigenvalues --    1.84462   1.85789   1.86139   1.88217   1.91374
 Alpha virt. eigenvalues --    1.91984   1.94136   1.95340   1.97632   1.98220
 Alpha virt. eigenvalues --    1.99715   2.02448   2.04458   2.07230   2.11804
 Alpha virt. eigenvalues --    2.12068   2.14121   2.15214   2.19086   2.21234
 Alpha virt. eigenvalues --    2.22805   2.28592   2.30171   2.34600   2.34922
 Alpha virt. eigenvalues --    2.36197   2.38666   2.39591   2.42308   2.44645
 Alpha virt. eigenvalues --    2.46144   2.46537   2.49315   2.52943   2.53818
 Alpha virt. eigenvalues --    2.54269   2.56758   2.57865   2.58297   2.59633
 Alpha virt. eigenvalues --    2.59800   2.61526   2.62028   2.63438   2.63821
 Alpha virt. eigenvalues --    2.64831   2.65107   2.65181   2.65424   2.67814
 Alpha virt. eigenvalues --    2.68842   2.70960   2.71403   2.73340   2.74814
 Alpha virt. eigenvalues --    2.76305   2.78790   2.79722   2.82752   2.83065
 Alpha virt. eigenvalues --    2.84958   2.86290   2.92107   2.96994   2.99369
 Alpha virt. eigenvalues --    3.00188   3.05049   3.10805   3.11432   3.13347
 Alpha virt. eigenvalues --    3.20933   3.23646   3.26689   3.28207   3.30557
 Alpha virt. eigenvalues --    3.33113   3.33614   3.43370   3.46010   3.46517
 Alpha virt. eigenvalues --    3.48247   3.50528   3.56520   3.65861   3.66336
 Alpha virt. eigenvalues --    3.67944   3.94150   3.94554   3.95171   3.96186
 Alpha virt. eigenvalues --    4.03990   4.06686   4.07656   4.12527   4.35497
 Alpha virt. eigenvalues --    4.61339   4.69456   4.71855  23.45316  23.60470
 Alpha virt. eigenvalues --   23.81915  23.85553  23.87377  23.89232  23.90706
 Alpha virt. eigenvalues --   23.92349  23.97118  23.99187  24.00386  24.01718
 Alpha virt. eigenvalues --   24.09882  24.11569
          Condensed to atoms (all electrons):
               1          2          3          4          5          6
     1  C    8.469368   0.351489  -0.552886   1.893236  -0.046675  -0.093437
     2  C    0.351489   7.172915   0.350777  -1.071090  -0.021549  -0.015238
     3  C   -0.552886   0.350777   6.578464   0.780146  -0.127296   0.016937
     4  C    1.893236  -1.071090   0.780146  10.778092  -0.375632  -0.120793
     5  C   -0.046675  -0.021549  -0.127296  -0.375632  11.311841   0.755465
     6  C   -0.093437  -0.015238   0.016937  -0.120793   0.755465   6.592409
     7  C   -0.014954   0.001499  -0.013788  -0.014008  -1.098464   0.359547
     8  C    0.402754  -0.021554  -0.098116  -0.015723   2.101777  -0.532963
     9  C   -1.102067  -0.802172   0.296060  -0.169392  -0.262821   0.290410
    10  C   -1.252401   0.223218  -0.335430  -2.550871  -2.610440  -0.367577
    11  C    0.375339  -0.974666   1.041351   0.116298  -1.639216  -0.182137
    12  C   -2.095200   1.395763  -1.442748  -1.774678  -0.207923  -0.190129
    13  C    0.273150  -0.263184  -0.167540  -1.353730  -0.665251   0.963045
    14  C   -1.100215  -0.191549  -0.205396  -0.462424  -1.493488  -1.350247
    15  H    0.366564  -0.104285  -0.000709   0.025082   0.006138   0.001174
    16  H   -0.019096   0.380255  -0.017266   0.015374  -0.001642  -0.000345
    17  H   -0.023795  -0.017863   0.378011  -0.069887   0.000248   0.000411
    18  H    0.048953   0.003286  -0.084530   0.458257   0.005918  -0.005026
    19  H   -0.044551  -0.007733   0.051744  -0.064488  -0.075339   0.050355
    20  H    0.007139   0.002133  -0.005114   0.006477   0.457785  -0.084579
    21  H   -0.001247  -0.000408   0.000386   0.000389  -0.066427   0.372090
    22  H    0.000660   0.000358  -0.000312  -0.001447   0.011689  -0.016001
    23  H    0.005530  -0.002584   0.001022   0.005308   0.030155  -0.002154
    24  H    0.035727   0.014789  -0.001194  -0.010555  -0.014044  -0.001887
    25  H    0.035727   0.014789  -0.001194  -0.010555  -0.014044  -0.001887
               7          8          9         10         11         12
     1  C   -0.014954   0.402754  -1.102067  -1.252401   0.375339  -2.095200
     2  C    0.001499  -0.021554  -0.802172   0.223218  -0.974666   1.395763
     3  C   -0.013788  -0.098116   0.296060  -0.335430   1.041351  -1.442748
     4  C   -0.014008  -0.015723  -0.169392  -2.550871   0.116298  -1.774678
     5  C   -1.098464   2.101777  -0.262821  -2.610440  -1.639216  -0.207923
     6  C    0.359547  -0.532963   0.290410  -0.367577  -0.182137  -0.190129
     7  C    7.106752   0.266158  -0.804510   0.274726  -0.225408  -0.200500
     8  C    0.266158   8.735858  -1.218950  -1.320680   0.142925  -1.053540
     9  C   -0.804510  -1.218950   9.599376   0.262107   1.715076  -2.026548
    10  C    0.274726  -1.320680   0.262107   9.152611  -0.479621   2.474885
    11  C   -0.225408   0.142925   1.715076  -0.479621  14.398116  -4.051639
    12  C   -0.200500  -1.053540  -2.026548   2.474885  -4.051639  16.419078
    13  C   -0.830988   0.201261   1.513806  -0.402291   1.077154  -4.857791
    14  C    1.312719  -2.092026  -1.872115   2.380016  -4.731773   3.094721
    15  H   -0.002725   0.005952   0.088902  -0.008330  -0.029825  -0.022044
    16  H    0.000371   0.000754   0.002720  -0.009930   0.025415  -0.032644
    17  H   -0.000391  -0.001384  -0.005207   0.020245  -0.026776   0.090916
    18  H    0.001955   0.007259  -0.023809   0.009698  -0.004501  -0.051798
    19  H   -0.007460  -0.049063   0.075675   0.421908   0.077252  -0.068752
    20  H    0.002398   0.051674  -0.025720   0.015120  -0.011814  -0.011798
    21  H   -0.014844  -0.026232  -0.006308   0.020674  -0.006333   0.005443
    22  H    0.377591  -0.019813   0.004154  -0.008769   0.003121  -0.008746
    23  H   -0.107910   0.368854   0.093980  -0.010974   0.002518   0.007042
    24  H    0.014193   0.029543   0.356645   0.005416   0.014847  -0.059189
    25  H    0.014193   0.029543   0.356645   0.005416   0.014847  -0.059189
              13         14         15         16         17         18
     1  C    0.273150  -1.100215   0.366564  -0.019096  -0.023795   0.048953
     2  C   -0.263184  -0.191549  -0.104285   0.380255  -0.017863   0.003286
     3  C   -0.167540  -0.205396  -0.000709  -0.017266   0.378011  -0.084530
     4  C   -1.353730  -0.462424   0.025082   0.015374  -0.069887   0.458257
     5  C   -0.665251  -1.493488   0.006138  -0.001642   0.000248   0.005918
     6  C    0.963045  -1.350247   0.001174  -0.000345   0.000411  -0.005026
     7  C   -0.830988   1.312719  -0.002725   0.000371  -0.000391   0.001955
     8  C    0.201261  -2.092026   0.005952   0.000754  -0.001384   0.007259
     9  C    1.513806  -1.872115   0.088902   0.002720  -0.005207  -0.023809
    10  C   -0.402291   2.380016  -0.008330  -0.009930   0.020245   0.009698
    11  C    1.077154  -4.731773  -0.029825   0.025415  -0.026776  -0.004501
    12  C   -4.857791   3.094721  -0.022044  -0.032644   0.090916  -0.051798
    13  C   14.569229  -3.470842   0.000512   0.002982  -0.006287  -0.011813
    14  C   -3.470842  15.753788   0.006112  -0.009426   0.005190  -0.016537
    15  H    0.000512   0.006112   0.439732  -0.009212   0.001580   0.000152
    16  H    0.002982  -0.009426  -0.009212   0.419232  -0.006919   0.001995
    17  H   -0.006287   0.005190   0.001580  -0.006919   0.423725  -0.010785
    18  H   -0.011813  -0.016537   0.000152   0.001995  -0.010785   0.452364
    19  H    0.078063  -0.061955   0.000342  -0.000567   0.001527  -0.005871
    20  H   -0.008234  -0.058077  -0.000121   0.000017  -0.000154   0.001259
    21  H   -0.027812   0.093342   0.000014  -0.000007   0.000010  -0.000132
    22  H    0.028010  -0.033297  -0.000127   0.000007  -0.000007   0.000013
    23  H   -0.032064  -0.026948   0.000576  -0.000127   0.000013  -0.000104
    24  H    0.012362  -0.061164  -0.000999   0.000627  -0.000137   0.000159
    25  H    0.012362  -0.061164  -0.000999   0.000627  -0.000137   0.000159
              19         20         21         22         23         24
     1  C   -0.044551   0.007139  -0.001247   0.000660   0.005530   0.035727
     2  C   -0.007733   0.002133  -0.000408   0.000358  -0.002584   0.014789
     3  C    0.051744  -0.005114   0.000386  -0.000312   0.001022  -0.001194
     4  C   -0.064488   0.006477   0.000389  -0.001447   0.005308  -0.010555
     5  C   -0.075339   0.457785  -0.066427   0.011689   0.030155  -0.014044
     6  C    0.050355  -0.084579   0.372090  -0.016001  -0.002154  -0.001887
     7  C   -0.007460   0.002398  -0.014844   0.377591  -0.107910   0.014193
     8  C   -0.049063   0.051674  -0.026232  -0.019813   0.368854   0.029543
     9  C    0.075675  -0.025720  -0.006308   0.004154   0.093980   0.356645
    10  C    0.421908   0.015120   0.020674  -0.008769  -0.010974   0.005416
    11  C    0.077252  -0.011814  -0.006333   0.003121   0.002518   0.014847
    12  C   -0.068752  -0.011798   0.005443  -0.008746   0.007042  -0.059189
    13  C    0.078063  -0.008234  -0.027812   0.028010  -0.032064   0.012362
    14  C   -0.061955  -0.058077   0.093342  -0.033297  -0.026948  -0.061164
    15  H    0.000342  -0.000121   0.000014  -0.000127   0.000576  -0.000999
    16  H   -0.000567   0.000017  -0.000007   0.000007  -0.000127   0.000627
    17  H    0.001527  -0.000154   0.000010  -0.000007   0.000013  -0.000137
    18  H   -0.005871   0.001259  -0.000132   0.000013  -0.000104   0.000159
    19  H    0.442753  -0.006503   0.001305  -0.000510   0.000266   0.000599
    20  H   -0.006503   0.455013  -0.009785   0.001840   0.000201   0.000203
    21  H    0.001305  -0.009785   0.421316  -0.006333   0.001344  -0.000147
    22  H   -0.000510   0.001840  -0.006333   0.419621  -0.008778   0.000635
    23  H    0.000266   0.000201   0.001344  -0.008778   0.438392  -0.000817
    24  H    0.000599   0.000203  -0.000147   0.000635  -0.000817   0.493883
    25  H    0.000599   0.000203  -0.000147   0.000635  -0.000817  -0.079612
              25
     1  C    0.035727
     2  C    0.014789
     3  C   -0.001194
     4  C   -0.010555
     5  C   -0.014044
     6  C   -0.001887
     7  C    0.014193
     8  C    0.029543
     9  C    0.356645
    10  C    0.005416
    11  C    0.014847
    12  C   -0.059189
    13  C    0.012362
    14  C   -0.061164
    15  H   -0.000999
    16  H    0.000627
    17  H   -0.000137
    18  H    0.000159
    19  H    0.000599
    20  H    0.000203
    21  H   -0.000147
    22  H    0.000635
    23  H   -0.000817
    24  H   -0.079612
    25  H    0.493883
 Mulliken charges:
               1
     1  C    0.080884
     2  C   -0.417394
     3  C   -0.441381
     4  C   -0.013386
     5  C    0.039233
     6  C   -0.437442
     7  C   -0.396152
     8  C    0.105730
     9  C   -0.335938
    10  C    0.091274
    11  C   -0.640551
    12  C    0.727004
    13  C   -0.634109
    14  C    0.652755
    15  H    0.236542
    16  H    0.256805
    17  H    0.247854
    18  H    0.223480
    19  H    0.190400
    20  H    0.220433
    21  H    0.249846
    22  H    0.255805
    23  H    0.238075
    24  H    0.250116
    25  H    0.250116
 Sum of Mulliken charges =   1.00000
 Mulliken charges with hydrogens summed into heavy atoms:
               1
     1  C    0.317426
     2  C   -0.160589
     3  C   -0.193528
     4  C    0.210093
     5  C    0.259666
     6  C   -0.187595
     7  C   -0.140347
     8  C    0.343805
     9  C    0.164295
    10  C    0.281675
    11  C   -0.640551
    12  C    0.727004
    13  C   -0.634109
    14  C    0.652755
 Electronic spatial extent (au):  <R**2>=           2855.9530
 Charge=              1.0000 electrons
 Dipole moment (field-independent basis, Debye):
    X=              0.1627    Y=             -0.0931    Z=             -0.0000  Tot=              0.1875
 Quadrupole moment (field-independent basis, Debye-Ang):
   XX=            -50.8423   YY=            -36.5433   ZZ=            -84.1409
   XY=             10.3456   XZ=              0.0000   YZ=             -0.0000
 Traceless Quadrupole moment (field-independent basis, Debye-Ang):
   XX=              6.3332   YY=             20.6322   ZZ=            -26.9654
   XY=             10.3456   XZ=              0.0000   YZ=             -0.0000
 Octapole moment (field-independent basis, Debye-Ang**2):
  XXX=              0.0733  YYY=              6.0311  ZZZ=             -0.0000  XYY=              0.5492
  XXY=             -4.9692  XXZ=             -0.0000  XZZ=             -2.8109  YZZ=              1.2904
  YYZ=             -0.0000  XYZ=              0.0000
 Hexadecapole moment (field-independent basis, Debye-Ang**3):
 XXXX=          -1005.9782 YYYY=          -1833.1466 ZZZZ=            -99.3273 XXXY=           -353.4278
 XXXZ=              0.0000 YYYX=           -280.1466 YYYZ=             -0.0000 ZZZX=              0.0000
 ZZZY=             -0.0000 XXYY=           -454.0709 XXZZ=           -245.4695 YYZZ=           -490.9947
 XXYZ=             -0.0000 YYXZ=              0.0000 ZZXY=           -185.6012
 N-N= 7.812019438730D+02 E-N=-2.798745750868D+03  KE= 5.375081361812D+02
 Symmetry A'   KE= 5.228603354047D+02
 Symmetry A"   KE= 1.464780077655D+01
 Unable to Open any file for archive entry.
 1\1\GINC-GADI-CPU-CLX-2461\SP\RM062X TD-FC\6-311++G(d,p)\C14H11(1+)\TS
 1578\27-Jul-2022\0\\#n M062X/6-311++G(d,p) TD(NStates=1) EmpiricalDisp
 ersion=GD3 SP\\SP_4\\1,1\C,0,0.,2.489455,1.360831\C,0,0.,3.691908,0.66
 8389\C,0,0.,3.679461,-0.72063\C,0,0.,2.471956,-1.411938\C,0,0.,-2.4543
 56,-1.403138\C,0,0.,-3.688261,-0.70703\C,0,0.,-3.711108,0.675589\C,0,0
 .,-2.495855,1.360031\C,0,0.,-0.0064,1.453369\C,0,0.,0.0052,-1.429189\C
 ,0,0.,1.267655,0.675465\C,0,0.,1.244671,-0.724004\C,0,0.,-1.256455,0.6
 78665\C,0,0.,-1.230271,-0.737604\H,0,0.,2.473671,2.443647\H,0,0.,4.623
 153,1.214889\H,0,0.,4.603262,-1.281149\H,0,0.,2.48515,-2.494059\H,0,0.
 ,0.016,-2.510266\H,0,0.,-2.44995,-2.486059\H,0,0.,-4.615262,-1.263549\
 H,0,0.,-4.650353,1.208489\H,0,0.,-2.502471,2.443647\H,0,-0.859585,-0.0
 28,2.145787\H,0,0.859585,-0.028,2.145787\\Version=ES64L-G16RevC.01\Sta
 te=1-A'\HF=-539.7592122\RMSD=6.206e-09\PG=CS [SG(C14H9),X(H2)]\\@
 The archive entry for this job was punched.


 POCKETA-POCKETA
 BARON VON RICHTOFEN
 SLAUGHTERED THE ALLIES WITH
 HARDLY A CARE.
 KILLED EIGHTY-ONE WITH HIS
 BLOOD-COLORED TRIPLANE, THEN
 UN-AEROBATICALLY
 PLUNGED FROM THE AIR.
   -- TONY HOFFMAN
 Job cpu time:       0 days  0 hours 45 minutes 10.4 seconds.
 Elapsed time:       0 days  0 hours  1 minutes 25.7 seconds.
 File lengths (MBytes):  RWF=    460 Int=      0 D2E=      0 Chk=     15 Scr=      1
 Normal termination of Gaussian 16 at Wed Jul 27 13:03:13 2022.
