 Entering Gaussian System, Link 0=g16
 Initial command:
 /apps/gaussian/g16c01/g16/l1.exe "/jobfs/52822737.gadi-pbs/Gau-2063203.inp" -scrdir="/jobfs/52822737.gadi-pbs/"
 Entering Link 1 = /apps/gaussian/g16c01/g16/l1.exe PID=   2063204.
  
 Copyright (c) 1988-2019, Gaussian, Inc.  All Rights Reserved.
  
 This is part of the Gaussian(R) 16 program.  It is based on
 the Gaussian(R) 09 system (copyright 2009, Gaussian, Inc.),
 the Gaussian(R) 03 system (copyright 2003, Gaussian, Inc.),
 the Gaussian(R) 98 system (copyright 1998, Gaussian, Inc.),
 the Gaussian(R) 94 system (copyright 1995, Gaussian, Inc.),
 the Gaussian 92(TM) system (copyright 1992, Gaussian, Inc.),
 the Gaussian 90(TM) system (copyright 1990, Gaussian, Inc.),
 the Gaussian 88(TM) system (copyright 1988, Gaussian, Inc.),
 the Gaussian 86(TM) system (copyright 1986, Carnegie Mellon
 University), and the Gaussian 82(TM) system (copyright 1983,
 Carnegie Mellon University). Gaussian is a federally registered
 trademark of Gaussian, Inc.
  
 This software contains proprietary and confidential information,
 including trade secrets, belonging to Gaussian, Inc.
  
 This software is provided under written license and may be
 used, copied, transmitted, or stored only in accord with that
 written license.
  
 The following legend is applicable only to US Government
 contracts under FAR:
  
                    RESTRICTED RIGHTS LEGEND
  
 Use, reproduction and disclosure by the US Government is
 subject to restrictions as set forth in subparagraphs (a)
 and (c) of the Commercial Computer Software - Restricted
 Rights clause in FAR 52.227-19.
  
 Gaussian, Inc.
 340 Quinnipiac St., Bldg. 40, Wallingford CT 06492
  
  
 ---------------------------------------------------------------
 Warning -- This program may not be used in any manner that
 competes with the business of Gaussian, Inc. or will provide
 assistance to any competitor of Gaussian, Inc.  The licensee
 of this program is prohibited from giving any competitor of
 Gaussian, Inc. access to this program.  By using this program,
 the user acknowledges that Gaussian, Inc. is engaged in the
 business of creating and licensing software in the field of
 computational chemistry and represents and warrants to the
 licensee that it is not a competitor of Gaussian, Inc. and that
 it will not use this program in any manner prohibited above.
 ---------------------------------------------------------------
  

 Cite this work as:
 Gaussian 16, Revision C.01,
 M. J. Frisch, G. W. Trucks, H. B. Schlegel, G. E. Scuseria, 
 M. A. Robb, J. R. Cheeseman, G. Scalmani, V. Barone, 
 G. A. Petersson, H. Nakatsuji, X. Li, M. Caricato, A. V. Marenich, 
 J. Bloino, B. G. Janesko, R. Gomperts, B. Mennucci, H. P. Hratchian, 
 J. V. Ortiz, A. F. Izmaylov, J. L. Sonnenberg, D. Williams-Young, 
 F. Ding, F. Lipparini, F. Egidi, J. Goings, B. Peng, A. Petrone, 
 T. Henderson, D. Ranasinghe, V. G. Zakrzewski, J. Gao, N. Rega, 
 G. Zheng, W. Liang, M. Hada, M. Ehara, K. Toyota, R. Fukuda, 
 J. Hasegawa, M. Ishida, T. Nakajima, Y. Honda, O. Kitao, H. Nakai, 
 T. Vreven, K. Throssell, J. A. Montgomery, Jr., J. E. Peralta, 
 F. Ogliaro, M. J. Bearpark, J. J. Heyd, E. N. Brothers, K. N. Kudin, 
 V. N. Staroverov, T. A. Keith, R. Kobayashi, J. Normand, 
 K. Raghavachari, A. P. Rendell, J. C. Burant, S. S. Iyengar, 
 J. Tomasi, M. Cossi, J. M. Millam, M. Klene, C. Adamo, R. Cammi, 
 J. W. Ochterski, R. L. Martin, K. Morokuma, O. Farkas, 
 J. B. Foresman, and D. J. Fox, Gaussian, Inc., Wallingford CT, 2019.
 
 ******************************************
 Gaussian 16:  ES64L-G16RevC.01  3-Jul-2019
                27-Jul-2022 
 ******************************************
 %NProcShared=32
 Will use up to   32 processors via shared memory.
 %mem = 128GB
 ---------------------------------------------------------------
 #n M062X/6-311++G(d,p) TD(NStates=1) EmpiricalDispersion=GD3 SP
 ---------------------------------------------------------------
 1/38=1,172=1/1;
 2/12=2,17=6,18=5,40=1/2;
 3/5=4,6=6,7=1111,11=9,25=1,30=1,74=-55,124=31/1,2,3,8;
 4//1;
 5/5=2,38=5/2;
 8/6=1,10=2,108=1/1;
 9/41=1,42=1,70=2/14;
 6/7=2,8=2,9=2,10=2/1;
 99/5=1,9=1/99;
 -----
 SP_16
 -----
 Symbolic Z-matrix:
 Charge =  1 Multiplicity = 1
 C                     0.        2.48946   1.36203 
 C                     0.        3.67391   0.66239 
 C                     0.        3.67166  -0.73143 
 C                     0.        2.48636  -1.42034 
 C                     0.       -2.43996  -1.39474 
 C                     0.       -3.69606  -0.69623 
 C                     0.       -3.72911   0.68159 
 C                     0.       -2.49586   1.35883 
 C                     0.       -0.0208    1.45337 
 C                     0.        0.0034   -1.42919 
 C                     0.        1.27906   0.66407 
 C                     0.        1.26087  -0.703 
 C                     0.       -1.24506   0.69007 
 C                     0.       -1.21407  -0.7586 
 H                     0.        2.43347   2.44365 
 H                     0.        4.59315   1.22869 
 H                     0.        4.58586  -1.30635 
 H                     0.        2.53255  -2.50126 
 H                     0.        0.049    -2.51027 
 H                     0.       -2.40255  -2.47886 
 H                     0.       -4.63266  -1.23835 
 H                     0.       -4.68035   1.19469 
 H                     0.       -2.54267   2.44365 
 H                    -0.85959  -0.0856    2.14579 
 H                     0.85959  -0.0856    2.14579 
 
                          Input orientation:                          
 ---------------------------------------------------------------------
 Center     Atomic      Atomic             Coordinates (Angstroms)
 Number     Number       Type             X           Y           Z
 ---------------------------------------------------------------------
      1          6           0        0.000000    2.489455    1.362031
      2          6           0        0.000000    3.673908    0.662389
      3          6           0        0.000000    3.671661   -0.731430
      4          6           0        0.000000    2.486356   -1.420338
      5          6           0        0.000000   -2.439956   -1.394738
      6          6           0        0.000000   -3.696061   -0.696230
      7          6           0        0.000000   -3.729108    0.681589
      8          6           0        0.000000   -2.495855    1.358831
      9          6           0        0.000000   -0.020800    1.453369
     10          6           0        0.000000    0.003400   -1.429189
     11          6           0        0.000000    1.279055    0.664065
     12          6           0        0.000000    1.260871   -0.703004
     13          6           0        0.000000   -1.245055    0.690065
     14          6           0        0.000000   -1.214071   -0.758604
     15          1           0        0.000000    2.433471    2.443647
     16          1           0        0.000000    4.593153    1.228689
     17          1           0        0.000000    4.585862   -1.306349
     18          1           0        0.000000    2.532550   -2.501259
     19          1           0        0.000000    0.049000   -2.510266
     20          1           0        0.000000   -2.402550   -2.478859
     21          1           0        0.000000   -4.632662   -1.238349
     22          1           0        0.000000   -4.680353    1.194689
     23          1           0        0.000000   -2.542671    2.443647
     24          1           0       -0.859585   -0.085600    2.145787
     25          1           0        0.859585   -0.085600    2.145787
 ---------------------------------------------------------------------
                    Distance matrix (angstroms):
                    1          2          3          4          5
     1  C    0.000000
     2  C    1.375655   0.000000
     3  C    2.404203   1.393821   0.000000
     4  C    2.782371   2.397505   1.370964   0.000000
     5  C    5.647908   6.450667   6.147507   4.926379   0.000000
     6  C    6.518976   7.494150   7.367806   6.224678   1.437259
     7  C    6.255680   7.403041   7.534454   6.561257   2.443982
     8  C    4.985311   6.208946   6.512100   5.704928   2.754136
     9  C    2.511916   3.778428   4.290410   3.813663   3.736847
    10  C    3.737831   4.224610   3.734034   2.482972   2.443599
    11  C    1.397220   2.394854   2.769832   2.408799   4.250848
    12  C    2.402871   2.772552   2.410958   1.419994   3.764919
    13  C    3.794483   4.919041   5.118080   4.286867   2.402955
    14  C    4.267692   5.090340   4.885808   3.759129   1.381108
    15  H    1.083064   2.170614   3.407965   3.864347   6.203506
    16  H    2.107920   1.079679   2.165921   3.384662   7.506463
    17  H    3.393402   2.169698   1.079952   2.102598   7.026374
    18  H    3.863530   3.363238   2.104725   1.081908   5.094134
    19  H    4.577172   4.817229   4.035831   2.669953   2.727509
    20  H    6.219658   6.840379   6.320565   5.002186   1.084766
    21  H    7.581987   8.521262   8.319780   7.121344   2.198276
    22  H    7.171761   8.371202   8.571235   7.628898   3.424107
    23  H    5.147056   6.466741   6.978469   6.342042   3.839759
    24  H    2.825609   4.131980   4.809810   4.480077   4.337879
    25  H    2.825609   4.131980   4.809810   4.480077   4.337879
                    6          7          8          9         10
     6  C    0.000000
     7  C    1.378215   0.000000
     8  C    2.379868   1.406972   0.000000
     9  C    4.257736   3.787769   2.476860   0.000000
    10  C    3.771371   4.288006   3.744240   2.882660   0.000000
    11  C    5.157730   5.008194   3.838313   1.520731   2.451328
    12  C    4.956937   5.178512   4.285342   2.508511   1.452094
    13  C    2.815891   2.484067   1.418361   1.442717   2.459650
    14  C    2.482774   2.898201   2.475177   2.513309   1.389935
    15  H    6.886943   6.409542   5.047284   2.646525   4.572101
    16  H    8.509782   8.340225   7.090202   4.619420   5.303786
    17  H    8.304366   8.549305   7.566631   5.370045   4.584108
    18  H    6.484884   7.024164   6.339176   4.707301   2.746986
    19  H    4.161275   4.945911   4.631004   3.964250   1.082038
    20  H    2.202484   3.427563   3.838824   4.597298   2.624958
    21  H    1.082180   2.121926   3.363226   5.339908   4.639988
    22  H    2.131761   1.080805   2.190656   4.666728   5.368638
    23  H    3.345017   2.124260   1.085826   2.709333   4.634796
    24  H    4.674546   4.019691   2.677222   1.105680   3.677942
    25  H    4.674546   4.019691   2.677222   1.105680   3.677942
                   11         12         13         14         15
    11  C    0.000000
    12  C    1.367190   0.000000
    13  C    2.524244   2.867108   0.000000
    14  C    2.870482   2.475566   1.449000   0.000000
    15  H    2.121223   3.358036   4.075120   4.853759   0.000000
    16  H    3.361852   3.851693   5.863002   6.137848   2.477973
    17  H    3.849351   3.379288   6.163218   5.825740   4.323801
    18  H    3.404486   2.202473   4.945184   4.132072   4.945899
    19  H    3.404323   2.175966   3.452057   2.159553   5.497905
    20  H    4.840680   4.071156   3.373703   2.090875   6.900592
    21  H    6.210280   5.917797   3.898033   3.452089   7.967894
    22  H    5.982985   6.236937   3.472163   3.978752   7.222630
    23  H    4.215745   4.936430   2.181480   3.466928   4.976142
    24  H    2.190130   3.266111   2.049963   3.232309   2.678306
    25  H    2.190130   3.266111   2.049963   3.232309   2.678306
                   16         17         18         19         20
    16  H    0.000000
    17  H    2.535048   0.000000
    18  H    4.261291   2.375689   0.000000
    19  H    5.884650   4.693883   2.483566   0.000000
    20  H    7.917435   7.086091   4.935151   2.451751   0.000000
    21  H    9.549971   9.218775   7.275658   4.851364   2.551914
    22  H    9.273568   9.597809   8.104690   6.007784   4.322423
    23  H    7.238516   8.054716   7.085899   5.590887   4.924500
    24  H    4.844655   5.871855   5.402650   4.736648   5.243519
    25  H    4.844655   5.871855   5.402650   4.736648   5.243519
                   21         22         23         24         25
    21  H    0.000000
    22  H    2.433505   0.000000
    23  H    4.233811   2.475799   0.000000
    24  H    5.732978   4.770244   2.620077   0.000000
    25  H    5.732978   4.770244   2.620077   1.719170   0.000000
 Stoichiometry    C14H11(1+)
 Framework group  CS[SG(C14H9),X(H2)]
 Deg. of freedom    46
 Full point group                 CS      NOp   2
 Largest Abelian subgroup         CS      NOp   2
 Largest concise Abelian subgroup CS      NOp   2
                         Standard orientation:                         
 ---------------------------------------------------------------------
 Center     Atomic      Atomic             Coordinates (Angstroms)
 Number     Number       Type             X           Y           Z
 ---------------------------------------------------------------------
      1          6           0       -2.399073   -1.517175    0.000000
      2          6           0       -2.361775   -2.892324    0.000000
      3          6           0       -1.141815   -3.566441    0.000000
      4          6           0        0.035564   -2.864072    0.000000
      5          6           0        2.402719    1.456319    0.000000
      6          6           0        2.401168    2.893577    0.000000
      7          6           0        1.212319    3.590797    0.000000
      8          6           0        0.021885    2.840840    0.000000
      9          6           0       -1.261329    0.722304    0.000000
     10          6           0        1.247679   -0.697064    0.000000
     11          6           0       -1.201601   -0.797254    0.000000
     12          6           0        0.002698   -1.444459    0.000000
     13          6           0        0.000000    1.422647    0.000000
     14          6           0        1.251807    0.692865    0.000000
     15          1           0       -3.317772   -0.943572    0.000000
     16          1           0       -3.302881   -3.421500    0.000000
     17          1           0       -1.082498   -4.644762    0.000000
     18          1           0        0.958404   -3.428776    0.000000
     19          1           0        2.170943   -1.261324    0.000000
     20          1           0        3.332620    0.897748    0.000000
     21          1           0        3.329547    3.449660    0.000000
     22          1           0        1.225030    4.671527    0.000000
     23          1           0       -0.904059    3.407977    0.000000
     24          1           0       -1.835405    1.114832    0.859585
     25          1           0       -1.835405    1.114832   -0.859585
 ---------------------------------------------------------------------
 Rotational constants (GHZ):           2.1361931           0.4445749           0.3687902
 Standard basis: 6-311++G(d,p) (5D, 7F)
 There are   299 symmetry adapted cartesian basis functions of A'  symmetry.
 There are   100 symmetry adapted cartesian basis functions of A"  symmetry.
 There are   285 symmetry adapted basis functions of A'  symmetry.
 There are   100 symmetry adapted basis functions of A"  symmetry.
   385 basis functions,   603 primitive gaussians,   399 cartesian basis functions
    47 alpha electrons       47 beta electrons
       nuclear repulsion energy       781.2550195361 Hartrees.
 NAtoms=   25 NActive=   25 NUniq=   24 SFac= 1.09D+00 NAtFMM=   60 NAOKFM=F Big=F
 Integral buffers will be    131072 words long.
 Regular integral format.
 Two-electron integral symmetry is turned on.
 Nuclear repulsion after empirical dispersion term =      781.2540405445 Hartrees.
 One-electron integrals computed using PRISM.
 NBasis=   385 RedAO= T EigKep=  1.06D-06  NBF=   285   100
 NBsUse=   379 1.00D-06 EigRej=  8.21D-07 NBFU=   279   100
 ExpMin= 3.60D-02 ExpMax= 4.56D+03 ExpMxC= 6.82D+02 IAcc=3 IRadAn=         5 AccDes= 0.00D+00
 Harris functional with IExCor= 1009 and IRadAn=       5 diagonalized for initial guess.
 HarFok:  IExCor= 1009 AccDes= 0.00D+00 IRadAn=         5 IDoV= 1 UseB2=F ITyADJ=14
 ICtDFT=  3500011 ScaDFX=  1.000000  1.000000  1.000000  1.000000
 FoFCou: FMM=F IPFlag=           0 FMFlag=      100000 FMFlg1=           0
         NFxFlg=           0 DoJE=T BraDBF=F KetDBF=T FulRan=T
         wScrn=  0.000000 ICntrl=       500 IOpCl=  0 I1Cent=   200000004 NGrid=           0
         NMat0=    1 NMatS0=      1 NMatT0=    0 NMatD0=    1 NMtDS0=    0 NMtDT0=    0
 Petite list used in FoFCou.
 Initial guess orbital symmetries:
       Occupied  (A') (A') (A') (A') (A') (A') (A') (A') (A') (A')
                 (A') (A') (A') (A') (A') (A') (A') (A') (A') (A')
                 (A') (A') (A') (A') (A') (A') (A') (A') (A') (A')
                 (A') (A') (A") (A') (A') (A') (A') (A') (A") (A')
                 (A") (A') (A') (A") (A") (A") (A")
       Virtual   (A") (A") (A") (A") (A") (A') (A') (A') (A') (A")
                 (A") (A') (A') (A') (A") (A') (A') (A') (A') (A")
                 (A') (A") (A') (A') (A') (A") (A') (A') (A") (A')
                 (A') (A') (A') (A") (A') (A') (A") (A') (A') (A")
                 (A') (A') (A') (A") (A') (A') (A') (A') (A') (A")
                 (A') (A") (A') (A") (A') (A') (A') (A") (A") (A')
                 (A') (A') (A') (A') (A') (A') (A") (A') (A') (A")
                 (A') (A') (A') (A') (A') (A') (A') (A') (A') (A')
                 (A') (A') (A') (A') (A') (A') (A') (A') (A') (A')
                 (A') (A') (A') (A') (A') (A') (A') (A") (A") (A')
                 (A') (A") (A') (A") (A') (A") (A') (A") (A") (A')
                 (A") (A') (A') (A') (A") (A') (A') (A") (A") (A')
                 (A") (A") (A') (A') (A') (A") (A') (A') (A') (A")
                 (A') (A') (A') (A') (A') (A') (A") (A') (A') (A')
                 (A') (A') (A') (A') (A') (A') (A') (A') (A') (A")
                 (A") (A') (A") (A") (A') (A') (A') (A") (A") (A')
                 (A") (A') (A") (A") (A") (A') (A') (A') (A') (A')
                 (A') (A") (A') (A') (A') (A") (A') (A') (A') (A')
                 (A") (A') (A') (A") (A') (A') (A") (A') (A") (A")
                 (A") (A') (A') (A') (A") (A') (A') (A") (A') (A')
                 (A") (A") (A") (A') (A') (A") (A') (A") (A') (A')
                 (A") (A') (A") (A") (A') (A') (A") (A') (A') (A")
                 (A') (A') (A') (A') (A") (A') (A') (A') (A") (A")
                 (A') (A') (A') (A") (A') (A') (A") (A') (A") (A')
                 (A") (A') (A') (A') (A') (A") (A') (A') (A') (A")
                 (A') (A') (A') (A") (A") (A') (A') (A") (A') (A')
                 (A') (A") (A') (A") (A') (A') (A") (A') (A") (A')
                 (A') (A') (A') (A') (A") (A') (A") (A') (A") (A')
                 (A") (A') (A") (A") (A') (A") (A') (A') (A') (A')
                 (A') (A') (A') (A') (A') (A') (A') (A') (A') (A')
                 (A') (A') (A') (A') (A") (A') (A') (A') (A') (A')
                 (A') (A') (A') (A') (A') (A') (A') (A') (A') (A')
                 (A') (A') (A') (A') (A') (A') (A') (A') (A') (A')
                 (A') (A')
 The electronic state of the initial guess is 1-A'.
 Requested convergence on RMS density matrix=1.00D-08 within 128 cycles.
 Requested convergence on MAX density matrix=1.00D-06.
 Requested convergence on             energy=1.00D-06.
 No special actions if energy rises.
 SCF Done:  E(RM062X) =  -539.748339462     A.U. after   15 cycles
            NFock= 15  Conv=0.97D-08     -V/T= 2.0041
 DoSCS=F DFT=T ScalE2(SS,OS)=  1.000000  1.000000
 ExpMin= 3.60D-02 ExpMax= 4.56D+03 ExpMxC= 6.82D+02 IAcc=3 IRadAn=         5 AccDes= 0.00D+00
 HarFok:  IExCor=  205 AccDes= 0.00D+00 IRadAn=         5 IDoV=-2 UseB2=F ITyADJ=14
 ICtDFT= 12500011 ScaDFX=  1.000000  1.000000  1.000000  1.000000
 Range of M.O.s used for correlation:    15   379
 NBasis=   385 NAE=    47 NBE=    47 NFC=    14 NFV=     0
 NROrb=    365 NOA=    33 NOB=    33 NVA=   332 NVB=   332

 **** Warning!!: The largest alpha MO coefficient is  0.15119577D+03

 Orbital symmetries:
       Occupied  (A') (A') (A') (A') (A') (A') (A') (A') (A') (A')
                 (A') (A') (A') (A') (A') (A') (A') (A') (A') (A')
                 (A') (A') (A') (A') (A') (A') (A') (A') (A') (A')
                 (A') (A") (A') (A') (A') (A') (A') (A") (A") (A')
                 (A') (A') (A') (A") (A") (A") (A")
       Virtual   (A") (A") (A") (A") (A') (A') (A') (A') (A") (A')
                 (A') (A") (A') (A') (A") (A') (A") (A') (A') (A')
                 (A") (A") (A') (A') (A') (A") (A') (A") (A') (A')
                 (A") (A') (A") (A') (A') (A') (A') (A') (A") (A')
                 (A") (A') (A') (A") (A") (A') (A") (A') (A") (A')
                 (A') (A') (A') (A') (A') (A") (A') (A') (A') (A')
                 (A') (A") (A') (A') (A') (A") (A') (A') (A') (A')
                 (A') (A') (A') (A') (A') (A') (A') (A') (A') (A')
                 (A') (A') (A') (A') (A') (A') (A') (A') (A') (A')
                 (A') (A') (A') (A') (A") (A") (A') (A") (A') (A")
                 (A') (A') (A') (A') (A") (A") (A') (A") (A") (A')
                 (A') (A') (A") (A') (A') (A") (A') (A") (A') (A")
                 (A") (A') (A") (A') (A') (A') (A") (A') (A') (A')
                 (A') (A') (A') (A') (A') (A') (A') (A') (A') (A')
                 (A') (A') (A') (A") (A') (A') (A') (A') (A') (A')
                 (A') (A') (A") (A') (A") (A') (A") (A") (A') (A")
                 (A") (A') (A") (A') (A") (A') (A") (A") (A') (A')
                 (A') (A') (A") (A') (A') (A") (A') (A') (A') (A")
                 (A') (A') (A') (A") (A') (A") (A') (A') (A") (A")
                 (A") (A') (A') (A") (A') (A") (A') (A') (A') (A')
                 (A") (A") (A") (A') (A') (A") (A') (A") (A') (A')
                 (A') (A") (A") (A') (A") (A') (A') (A") (A') (A")
                 (A') (A') (A') (A') (A") (A') (A') (A') (A") (A")
                 (A') (A') (A') (A") (A') (A') (A') (A") (A") (A')
                 (A") (A') (A') (A") (A') (A') (A') (A') (A') (A')
                 (A") (A') (A') (A') (A') (A") (A") (A') (A") (A')
                 (A') (A') (A') (A') (A') (A') (A") (A') (A') (A')
                 (A') (A") (A') (A") (A") (A") (A') (A") (A') (A")
                 (A') (A") (A") (A') (A") (A") (A') (A') (A') (A')
                 (A') (A') (A') (A') (A') (A') (A') (A') (A') (A')
                 (A') (A') (A') (A') (A") (A') (A') (A') (A') (A')
                 (A') (A') (A') (A') (A') (A') (A') (A') (A') (A')
                 (A') (A') (A') (A') (A') (A') (A') (A') (A') (A')
                 (A') (A')
     4 initial guesses have been made.
 Convergence on wavefunction:    0.001000000000000
 Iteration     1 Dimension     4 NMult     0 NNew      4
 CISAX will form     4 AO SS matrices at one time.
 Iteration     2 Dimension     6 NMult     4 NNew      2
 Iteration     3 Dimension     8 NMult     6 NNew      2
 Iteration     4 Dimension    10 NMult     8 NNew      2
 Iteration     5 Dimension    12 NMult    10 NNew      2
 Iteration     6 Dimension    14 NMult    12 NNew      2
 ***********************************************************************
 Excited states from <AA,BB:AA,BB> singles matrix:
 ***********************************************************************
 
 Ground to excited state transition densities written to RWF  633
 Ground to excited state transition electric dipole moments (Au):
       state          X           Y           Z        Dip. S.      Osc.
         1        -0.4540      0.4926     -0.0000      0.4487      0.0303
 Ground to excited state transition velocity dipole moments (Au):
       state          X           Y           Z        Dip. S.      Osc.
         1         0.0539     -0.0517      0.0000      0.0056      0.0367
 Ground to excited state transition magnetic dipole moments (Au):
       state          X           Y           Z
         1         0.0000      0.0000     -0.4236
 Ground to excited state transition velocity quadrupole moments (Au):
       state          XX          YY          ZZ          XY          XZ          YZ
         1         0.1840      0.1148     -0.0093      0.1602      0.0000     -0.0000
 <0|del|b> * <b|rxdel|0> + <0|del|b> * <b|delr+rdel|0>
 Rotatory Strengths (R) in cgs (10**-40 erg-esu-cm/Gauss)
       state          XX          YY          ZZ    R(velocity)    E-M Angle
         1        -0.0000     -0.0000      0.0000     -0.0000       90.00
 1/2[<0|r|b>*<b|rxdel|0> + (<0|rxdel|b>*<b|r|0>)*]
 Rotatory Strengths (R) in cgs (10**-40 erg-esu-cm/Gauss)
       state          XX          YY          ZZ     R(length)
         1         0.0000     -0.0000     -0.0000     -0.0000
  1/2[<0|del|b>*<b|r|0> + (<0|r|b>*<b|del|0>)*] (Au)
       state          X           Y           Z        Dip. S.   Osc.(frdel)
         1        -0.0245     -0.0255     -0.0000      0.0499      0.0333

 Excitation energies and oscillator strengths:
 
 Excited State   1:      Singlet-A'     2.7583 eV  449.50 nm  f=0.0303  <S**2>=0.000
      47 -> 48         0.70172
 This state for optimization and/or second-order correction.
 Total Energy, E(TD-HF/TD-DFT) =  -539.646973958    
 Copying the excited state density for this state as the 1-particle RhoCI density.
 SavETr:  write IOETrn=   770 NScale= 10 NData=  16 NLR=1 NState=    1 LETran=      28.

 **********************************************************************

            Population analysis using the SCF Density.

 **********************************************************************

 Orbital symmetries:
       Occupied  (A') (A') (A') (A') (A') (A') (A') (A') (A') (A')
                 (A') (A') (A') (A') (A') (A') (A') (A') (A') (A')
                 (A') (A') (A') (A') (A') (A') (A') (A') (A') (A')
                 (A') (A") (A') (A') (A') (A') (A') (A") (A") (A')
                 (A') (A') (A') (A") (A") (A") (A")
       Virtual   (A") (A") (A") (A") (A') (A') (A') (A') (A") (A')
                 (A') (A") (A') (A') (A") (A') (A") (A') (A') (A')
                 (A") (A") (A') (A') (A') (A") (A') (A") (A') (A')
                 (A") (A') (A") (A') (A') (A') (A') (A') (A") (A')
                 (A") (A') (A') (A") (A") (A') (A") (A') (A") (A')
                 (A') (A') (A') (A') (A') (A") (A') (A') (A') (A')
                 (A') (A") (A') (A') (A') (A") (A') (A') (A') (A')
                 (A') (A') (A') (A') (A') (A') (A') (A') (A') (A')
                 (A') (A') (A') (A') (A') (A') (A') (A') (A') (A')
                 (A') (A') (A') (A') (A") (A") (A') (A") (A') (A")
                 (A') (A') (A') (A') (A") (A") (A') (A") (A") (A')
                 (A') (A') (A") (A') (A') (A") (A') (A") (A') (A")
                 (A") (A') (A") (A') (A') (A') (A") (A') (A') (A')
                 (A') (A') (A') (A') (A') (A') (A') (A') (A') (A')
                 (A') (A') (A') (A") (A') (A') (A') (A') (A') (A')
                 (A') (A') (A") (A') (A") (A') (A") (A") (A') (A")
                 (A") (A') (A") (A') (A") (A') (A") (A") (A') (A')
                 (A') (A') (A") (A') (A') (A") (A') (A') (A') (A")
                 (A') (A') (A') (A") (A') (A") (A') (A') (A") (A")
                 (A") (A') (A') (A") (A') (A") (A') (A') (A') (A')
                 (A") (A") (A") (A') (A') (A") (A') (A") (A') (A')
                 (A') (A") (A") (A') (A") (A') (A') (A") (A') (A")
                 (A') (A') (A') (A') (A") (A') (A') (A') (A") (A")
                 (A') (A') (A') (A") (A') (A') (A') (A") (A") (A')
                 (A") (A') (A') (A") (A') (A') (A') (A') (A') (A')
                 (A") (A') (A') (A') (A') (A") (A") (A') (A") (A')
                 (A') (A') (A') (A') (A') (A') (A") (A') (A') (A')
                 (A') (A") (A') (A") (A") (A") (A') (A") (A') (A")
                 (A') (A") (A") (A') (A") (A") (A') (A') (A') (A')
                 (A') (A') (A') (A') (A') (A') (A') (A') (A') (A')
                 (A') (A') (A') (A') (A") (A') (A') (A') (A') (A')
                 (A') (A') (A') (A') (A') (A') (A') (A') (A') (A')
                 (A') (A') (A') (A') (A') (A') (A') (A') (A') (A')
                 (A') (A')
 The electronic state is 1-A'.
 Alpha  occ. eigenvalues --  -10.77646 -10.73672 -10.72813 -10.72500 -10.72341
 Alpha  occ. eigenvalues --  -10.71995 -10.71376 -10.71016 -10.70764 -10.70611
 Alpha  occ. eigenvalues --  -10.70343 -10.70112 -10.69594 -10.69133  -1.16506
 Alpha  occ. eigenvalues --   -1.12536  -1.06964  -1.05875  -1.01307  -1.00369
 Alpha  occ. eigenvalues --   -0.95699  -0.91112  -0.86411  -0.85849  -0.83755
 Alpha  occ. eigenvalues --   -0.78397  -0.76057  -0.74364  -0.69916  -0.69041
 Alpha  occ. eigenvalues --   -0.68561  -0.68138  -0.68040  -0.64833  -0.64230
 Alpha  occ. eigenvalues --   -0.62993  -0.61690  -0.60183  -0.59585  -0.59175
 Alpha  occ. eigenvalues --   -0.56870  -0.55067  -0.54659  -0.52475  -0.46698
 Alpha  occ. eigenvalues --   -0.46152  -0.44334
 Alpha virt. eigenvalues --   -0.26107  -0.14832  -0.13947  -0.12710  -0.11183
 Alpha virt. eigenvalues --   -0.10097  -0.09234  -0.08000  -0.07936  -0.07472
 Alpha virt. eigenvalues --   -0.07207  -0.07134  -0.05647  -0.05588  -0.05349
 Alpha virt. eigenvalues --   -0.03845  -0.03651  -0.03321  -0.03124  -0.02156
 Alpha virt. eigenvalues --   -0.01367  -0.00940   0.00170   0.00543   0.00602
 Alpha virt. eigenvalues --    0.01037   0.01513   0.01878   0.02127   0.02232
 Alpha virt. eigenvalues --    0.02467   0.02676   0.02808   0.03271   0.03424
 Alpha virt. eigenvalues --    0.04222   0.04553   0.04705   0.05033   0.05360
 Alpha virt. eigenvalues --    0.06034   0.06270   0.06571   0.07052   0.07251
 Alpha virt. eigenvalues --    0.07887   0.08115   0.08289   0.08614   0.08879
 Alpha virt. eigenvalues --    0.09268   0.09683   0.09783   0.10593   0.11005
 Alpha virt. eigenvalues --    0.11104   0.11970   0.12272   0.12907   0.12951
 Alpha virt. eigenvalues --    0.13334   0.13522   0.14008   0.14684   0.15989
 Alpha virt. eigenvalues --    0.16302   0.16390   0.17283   0.17673   0.17747
 Alpha virt. eigenvalues --    0.18086   0.18678   0.19242   0.19692   0.20065
 Alpha virt. eigenvalues --    0.21484   0.21533   0.22806   0.23100   0.23485
 Alpha virt. eigenvalues --    0.23974   0.24638   0.25599   0.26809   0.27740
 Alpha virt. eigenvalues --    0.28721   0.29587   0.29912   0.31528   0.34932
 Alpha virt. eigenvalues --    0.36878   0.38163   0.39199   0.41279   0.41372
 Alpha virt. eigenvalues --    0.41923   0.42066   0.43057   0.43490   0.44287
 Alpha virt. eigenvalues --    0.44377   0.45299   0.46142   0.46936   0.47847
 Alpha virt. eigenvalues --    0.48519   0.48753   0.49093   0.50405   0.50861
 Alpha virt. eigenvalues --    0.51346   0.51997   0.52139   0.53021   0.54021
 Alpha virt. eigenvalues --    0.54126   0.54799   0.55572   0.55825   0.57422
 Alpha virt. eigenvalues --    0.58238   0.58964   0.61462   0.61795   0.62660
 Alpha virt. eigenvalues --    0.63404   0.63575   0.64785   0.65470   0.67139
 Alpha virt. eigenvalues --    0.70205   0.70703   0.70979   0.72204   0.72662
 Alpha virt. eigenvalues --    0.75426   0.76186   0.76423   0.77041   0.77125
 Alpha virt. eigenvalues --    0.77515   0.78178   0.78251   0.79921   0.80338
 Alpha virt. eigenvalues --    0.81299   0.81686   0.82395   0.83227   0.85040
 Alpha virt. eigenvalues --    0.87077   0.88103   0.88363   0.89342   0.90066
 Alpha virt. eigenvalues --    0.91176   0.91456   0.93489   0.94579   0.96171
 Alpha virt. eigenvalues --    0.97103   1.00517   1.01210   1.01320   1.02777
 Alpha virt. eigenvalues --    1.03114   1.03577   1.05004   1.05874   1.08991
 Alpha virt. eigenvalues --    1.19323   1.22842   1.23480   1.23952   1.28500
 Alpha virt. eigenvalues --    1.29479   1.32740   1.34363   1.35752   1.35952
 Alpha virt. eigenvalues --    1.38430   1.40752   1.41236   1.42350   1.43336
 Alpha virt. eigenvalues --    1.43994   1.44559   1.45665   1.45932   1.47024
 Alpha virt. eigenvalues --    1.47615   1.48403   1.51768   1.53586   1.54070
 Alpha virt. eigenvalues --    1.55817   1.56063   1.57503   1.58798   1.61493
 Alpha virt. eigenvalues --    1.63136   1.63459   1.63745   1.66006   1.68016
 Alpha virt. eigenvalues --    1.68140   1.69176   1.69471   1.74350   1.76362
 Alpha virt. eigenvalues --    1.76797   1.78095   1.79647   1.79932   1.81724
 Alpha virt. eigenvalues --    1.82783   1.83221   1.83306   1.84004   1.84333
 Alpha virt. eigenvalues --    1.85180   1.85543   1.86505   1.88075   1.91230
 Alpha virt. eigenvalues --    1.91240   1.94280   1.96778   1.97189   1.98753
 Alpha virt. eigenvalues --    1.99473   2.02763   2.04919   2.06920   2.11715
 Alpha virt. eigenvalues --    2.12191   2.14283   2.15133   2.18968   2.21054
 Alpha virt. eigenvalues --    2.23041   2.28277   2.30141   2.34291   2.34594
 Alpha virt. eigenvalues --    2.35735   2.38302   2.39612   2.41580   2.44501
 Alpha virt. eigenvalues --    2.45955   2.46550   2.48620   2.53540   2.54336
 Alpha virt. eigenvalues --    2.54569   2.56427   2.58057   2.58125   2.59370
 Alpha virt. eigenvalues --    2.59609   2.60236   2.61523   2.63087   2.63712
 Alpha virt. eigenvalues --    2.65016   2.65058   2.65543   2.65761   2.67702
 Alpha virt. eigenvalues --    2.70812   2.70973   2.71354   2.73341   2.74757
 Alpha virt. eigenvalues --    2.76327   2.79037   2.79766   2.81623   2.83131
 Alpha virt. eigenvalues --    2.85589   2.86270   2.92106   2.96844   2.98409
 Alpha virt. eigenvalues --    3.01049   3.04105   3.09774   3.11444   3.14763
 Alpha virt. eigenvalues --    3.19528   3.23672   3.26046   3.28479   3.29908
 Alpha virt. eigenvalues --    3.34229   3.34753   3.42523   3.45134   3.47286
 Alpha virt. eigenvalues --    3.47631   3.52625   3.56845   3.64435   3.65774
 Alpha virt. eigenvalues --    3.70550   3.93642   3.94200   3.95164   3.95834
 Alpha virt. eigenvalues --    4.03565   4.05440   4.08233   4.12188   4.35029
 Alpha virt. eigenvalues --    4.60750   4.66798   4.72968  23.44956  23.59441
 Alpha virt. eigenvalues --   23.78064  23.83454  23.83997  23.91324  23.92039
 Alpha virt. eigenvalues --   23.92833  23.95345  24.03541  24.04189  24.06856
 Alpha virt. eigenvalues --   24.08467  24.14659
          Condensed to atoms (all electrons):
               1          2          3          4          5          6
     1  C    8.416980   0.208832  -0.499461   1.998836  -0.157051  -0.094939
     2  C    0.208832   7.366717   0.275323  -1.219217   0.000361  -0.016724
     3  C   -0.499461   0.275323   6.512185   0.915162  -0.144891   0.017155
     4  C    1.998836  -1.219217   0.915162  10.483087  -0.618961  -0.115703
     5  C   -0.157051   0.000361  -0.144891  -0.618961  13.037577   0.776322
     6  C   -0.094939  -0.016724   0.017155  -0.115703   0.776322   6.622370
     7  C    0.011212  -0.002404  -0.011322   0.009504  -1.298535   0.390182
     8  C    0.380673  -0.025490  -0.106332  -0.003413   2.742531  -0.512748
     9  C   -0.748227  -0.833010   0.299626   0.001200  -0.234029   0.282411
    10  C   -1.261515   0.193070  -0.273241  -2.428644  -2.809378  -0.349129
    11  C    0.582628  -1.091459   1.057426   1.224505  -1.887729  -0.227352
    12  C   -2.704504   1.793469  -1.587353  -2.911186   0.060117  -0.108595
    13  C    0.546554  -0.382145  -0.118079  -0.720625  -2.114384   0.698575
    14  C   -1.159811  -0.111417  -0.235743  -0.852664  -1.776141  -1.240664
    15  H    0.369529  -0.103224   0.003074   0.022116   0.006272   0.001304
    16  H   -0.020343   0.384570  -0.017555   0.018146  -0.001818  -0.000383
    17  H   -0.026474  -0.018286   0.386620  -0.079670   0.000061   0.000450
    18  H    0.049854   0.002886  -0.081611   0.463764   0.001450  -0.005007
    19  H   -0.039325  -0.007743   0.052850  -0.041453  -0.095148   0.047181
    20  H    0.006588   0.002583  -0.005148   0.004651   0.467263  -0.083603
    21  H   -0.001073  -0.000424   0.000346   0.000468  -0.066467   0.368007
    22  H    0.000667   0.000340  -0.000261  -0.001104   0.004939  -0.015873
    23  H    0.003973  -0.002169   0.000760   0.003504   0.042740  -0.005026
    24  H    0.041653   0.014780  -0.000245  -0.005588  -0.019966  -0.002824
    25  H    0.041653   0.014780  -0.000245  -0.005588  -0.019966  -0.002824
               7          8          9         10         11         12
     1  C    0.011212   0.380673  -0.748227  -1.261515   0.582628  -2.704504
     2  C   -0.002404  -0.025490  -0.833010   0.193070  -1.091459   1.793469
     3  C   -0.011322  -0.106332   0.299626  -0.273241   1.057426  -1.587353
     4  C    0.009504  -0.003413   0.001200  -2.428644   1.224505  -2.911186
     5  C   -1.298535   2.742531  -0.234029  -2.809378  -1.887729   0.060117
     6  C    0.390182  -0.512748   0.282411  -0.349129  -0.227352  -0.108595
     7  C    7.135835   0.003296  -0.880846   0.331784  -0.196481  -0.229377
     8  C    0.003296   9.314373  -1.210957  -1.483756  -0.021606  -0.990815
     9  C   -0.880846  -1.210957   9.687754   0.301615   1.822409  -2.279382
    10  C    0.331784  -1.483756   0.301615   8.894777  -0.404126   2.589544
    11  C   -0.196481  -0.021606   1.822409  -0.404126  13.508791  -4.319466
    12  C   -0.229377  -0.990815  -2.279382   2.589544  -4.319466  17.599842
    13  C   -0.371775  -0.326466   1.111716  -0.021393   0.714623  -4.897166
    14  C    1.200320  -2.276602  -1.870098   2.218218  -4.196141   3.283648
    15  H   -0.002599   0.006859   0.083623  -0.005432  -0.033995  -0.021526
    16  H    0.000366   0.000693  -0.000771  -0.010024   0.016813  -0.024386
    17  H   -0.000369  -0.001576  -0.004007   0.019027  -0.023164   0.093597
    18  H    0.001872   0.006877  -0.019697  -0.004192   0.014890  -0.061538
    19  H   -0.006170  -0.056122   0.075722   0.421289   0.073458  -0.065212
    20  H   -0.000368   0.058303  -0.026196   0.014449  -0.009391  -0.011640
    21  H   -0.012016  -0.031203  -0.007678   0.019463  -0.006611   0.005724
    22  H    0.377631  -0.026018   0.004027  -0.005770   0.003294  -0.008093
    23  H   -0.117689   0.381435   0.101678  -0.014716   0.005017   0.008708
    24  H    0.014446   0.019381   0.359204   0.005809   0.012146  -0.056028
    25  H    0.014446   0.019381   0.359204   0.005809   0.012146  -0.056028
              13         14         15         16         17         18
     1  C    0.546554  -1.159811   0.369529  -0.020343  -0.026474   0.049854
     2  C   -0.382145  -0.111417  -0.103224   0.384570  -0.018286   0.002886
     3  C   -0.118079  -0.235743   0.003074  -0.017555   0.386620  -0.081611
     4  C   -0.720625  -0.852664   0.022116   0.018146  -0.079670   0.463764
     5  C   -2.114384  -1.776141   0.006272  -0.001818   0.000061   0.001450
     6  C    0.698575  -1.240664   0.001304  -0.000383   0.000450  -0.005007
     7  C   -0.371775   1.200320  -0.002599   0.000366  -0.000369   0.001872
     8  C   -0.326466  -2.276602   0.006859   0.000693  -0.001576   0.006877
     9  C    1.111716  -1.870098   0.083623  -0.000771  -0.004007  -0.019697
    10  C   -0.021393   2.218218  -0.005432  -0.010024   0.019027  -0.004192
    11  C    0.714623  -4.196141  -0.033995   0.016813  -0.023164   0.014890
    12  C   -4.897166   3.283648  -0.021526  -0.024386   0.093597  -0.061538
    13  C   14.984640  -2.508944   0.000891   0.002151  -0.006181  -0.009357
    14  C   -2.508944  15.191561   0.003171  -0.009447   0.004760  -0.024099
    15  H    0.000891   0.003171   0.445306  -0.009844   0.001792   0.000016
    16  H    0.002151  -0.009447  -0.009844   0.420512  -0.007554   0.002161
    17  H   -0.006181   0.004760   0.001792  -0.007554   0.428925  -0.012596
    18  H   -0.009357  -0.024099   0.000016   0.002161  -0.012596   0.451881
    19  H    0.076008  -0.061006   0.000393  -0.000631   0.001792  -0.004932
    20  H   -0.007926  -0.072515  -0.000140   0.000025  -0.000183   0.001169
    21  H   -0.024252   0.096943   0.000014  -0.000007   0.000011  -0.000112
    22  H    0.030384  -0.027508  -0.000129   0.000008  -0.000007   0.000009
    23  H   -0.047591  -0.030170   0.000526  -0.000129   0.000012  -0.000089
    24  H    0.015544  -0.063626  -0.001233   0.000609  -0.000119   0.000120
    25  H    0.015544  -0.063626  -0.001233   0.000609  -0.000119   0.000120
              19         20         21         22         23         24
     1  C   -0.039325   0.006588  -0.001073   0.000667   0.003973   0.041653
     2  C   -0.007743   0.002583  -0.000424   0.000340  -0.002169   0.014780
     3  C    0.052850  -0.005148   0.000346  -0.000261   0.000760  -0.000245
     4  C   -0.041453   0.004651   0.000468  -0.001104   0.003504  -0.005588
     5  C   -0.095148   0.467263  -0.066467   0.004939   0.042740  -0.019966
     6  C    0.047181  -0.083603   0.368007  -0.015873  -0.005026  -0.002824
     7  C   -0.006170  -0.000368  -0.012016   0.377631  -0.117689   0.014446
     8  C   -0.056122   0.058303  -0.031203  -0.026018   0.381435   0.019381
     9  C    0.075722  -0.026196  -0.007678   0.004027   0.101678   0.359204
    10  C    0.421289   0.014449   0.019463  -0.005770  -0.014716   0.005809
    11  C    0.073458  -0.009391  -0.006611   0.003294   0.005017   0.012146
    12  C   -0.065212  -0.011640   0.005724  -0.008093   0.008708  -0.056028
    13  C    0.076008  -0.007926  -0.024252   0.030384  -0.047591   0.015544
    14  C   -0.061006  -0.072515   0.096943  -0.027508  -0.030170  -0.063626
    15  H    0.000393  -0.000140   0.000014  -0.000129   0.000526  -0.001233
    16  H   -0.000631   0.000025  -0.000007   0.000008  -0.000129   0.000609
    17  H    0.001792  -0.000183   0.000011  -0.000007   0.000012  -0.000119
    18  H   -0.004932   0.001169  -0.000112   0.000009  -0.000089   0.000120
    19  H    0.443225  -0.007230   0.001096  -0.000420   0.000159   0.000629
    20  H   -0.007230   0.458716  -0.008651   0.001572   0.000320   0.000248
    21  H    0.001096  -0.008651   0.417501  -0.005474   0.000977  -0.000153
    22  H   -0.000420   0.001572  -0.005474   0.418194  -0.008030   0.000647
    23  H    0.000159   0.000320   0.000977  -0.008030   0.435216  -0.000604
    24  H    0.000629   0.000248  -0.000153   0.000647  -0.000604   0.494196
    25  H    0.000629   0.000248  -0.000153   0.000647  -0.000604  -0.079636
              25
     1  C    0.041653
     2  C    0.014780
     3  C   -0.000245
     4  C   -0.005588
     5  C   -0.019966
     6  C   -0.002824
     7  C    0.014446
     8  C    0.019381
     9  C    0.359204
    10  C    0.005809
    11  C    0.012146
    12  C   -0.056028
    13  C    0.015544
    14  C   -0.063626
    15  H   -0.001233
    16  H    0.000609
    17  H   -0.000119
    18  H    0.000120
    19  H    0.000629
    20  H    0.000248
    21  H   -0.000153
    22  H    0.000647
    23  H   -0.000604
    24  H   -0.079636
    25  H    0.494196
 Mulliken charges:
               1
     1  C    0.053092
     2  C   -0.443998
     3  C   -0.439039
     4  C   -0.141124
     5  C    0.104828
     6  C   -0.422563
     7  C   -0.360941
     8  C    0.139301
     9  C   -0.375291
    10  C    0.056459
    11  C   -0.630627
    12  C    0.897645
    13  C   -0.640346
    14  C    0.581603
    15  H    0.234469
    16  H    0.256230
    17  H    0.243258
    18  H    0.226162
    19  H    0.190962
    20  H    0.216856
    21  H    0.253724
    22  H    0.256328
    23  H    0.241792
    24  H    0.250612
    25  H    0.250612
 Sum of Mulliken charges =   1.00000
 Mulliken charges with hydrogens summed into heavy atoms:
               1
     1  C    0.287561
     2  C   -0.187768
     3  C   -0.195781
     4  C    0.085038
     5  C    0.321684
     6  C   -0.168840
     7  C   -0.104613
     8  C    0.381093
     9  C    0.125932
    10  C    0.247421
    11  C   -0.630627
    12  C    0.897645
    13  C   -0.640346
    14  C    0.581603
 Electronic spatial extent (au):  <R**2>=           2856.2833
 Charge=              1.0000 electrons
 Dipole moment (field-independent basis, Debye):
    X=              0.3785    Y=              0.2917    Z=             -0.0000  Tot=              0.4778
 Quadrupole moment (field-independent basis, Debye-Ang):
   XX=            -51.3119   YY=            -36.1503   ZZ=            -84.1297
   XY=             10.0752   XZ=              0.0000   YZ=             -0.0000
 Traceless Quadrupole moment (field-independent basis, Debye-Ang):
   XX=              5.8854   YY=             21.0470   ZZ=            -26.9324
   XY=             10.0752   XZ=              0.0000   YZ=             -0.0000
 Octapole moment (field-independent basis, Debye-Ang**2):
  XXX=              0.5279  YYY=             12.4786  ZZZ=             -0.0000  XYY=              4.9087
  XXY=             -2.9552  XXZ=             -0.0000  XZZ=             -2.7385  YZZ=              1.3849
  YYZ=             -0.0000  XYZ=              0.0000
 Hexadecapole moment (field-independent basis, Debye-Ang**3):
 XXXX=          -1026.2707 YYYY=          -1809.5047 ZZZZ=            -99.2944 XXXY=           -361.7381
 XXXZ=              0.0000 YYYX=           -285.7737 YYYZ=             -0.0000 ZZZX=              0.0000
 ZZZY=             -0.0000 XXYY=           -456.7080 XXZZ=           -248.2936 YYZZ=           -488.3158
 XXYZ=             -0.0000 YYXZ=              0.0000 ZZXY=           -187.4405
 N-N= 7.812540405445D+02 E-N=-2.798853300618D+03  KE= 5.375346291880D+02
 Symmetry A'   KE= 5.228782476963D+02
 Symmetry A"   KE= 1.465638149180D+01
 Unable to Open any file for archive entry.
 1\1\GINC-GADI-CPU-CLX-2461\SP\RM062X TD-FC\6-311++G(d,p)\C14H11(1+)\TS
 1578\27-Jul-2022\0\\#n M062X/6-311++G(d,p) TD(NStates=1) EmpiricalDisp
 ersion=GD3 SP\\SP_16\\1,1\C,0,0.,2.489455,1.362031\C,0,0.,3.673908,0.6
 62389\C,0,0.,3.671661,-0.73143\C,0,0.,2.486356,-1.420338\C,0,0.,-2.439
 956,-1.394738\C,0,0.,-3.696061,-0.69623\C,0,0.,-3.729108,0.681589\C,0,
 0.,-2.495855,1.358831\C,0,0.,-0.0208,1.453369\C,0,0.,0.0034,-1.429189\
 C,0,0.,1.279055,0.664065\C,0,0.,1.260871,-0.703004\C,0,0.,-1.245055,0.
 690065\C,0,0.,-1.214071,-0.758604\H,0,0.,2.433471,2.443647\H,0,0.,4.59
 3153,1.228689\H,0,0.,4.585862,-1.306349\H,0,0.,2.53255,-2.501259\H,0,0
 .,0.049,-2.510266\H,0,0.,-2.40255,-2.478859\H,0,0.,-4.632662,-1.238349
 \H,0,0.,-4.680353,1.194689\H,0,0.,-2.542671,2.443647\H,0,-0.859585,-0.
 0856,2.145787\H,0,0.859585,-0.0856,2.145787\\Version=ES64L-G16RevC.01\
 State=1-A'\HF=-539.7483395\RMSD=9.716e-09\PG=CS [SG(C14H9),X(H2)]\\@
 The archive entry for this job was punched.


 ALL MEN WHO EXPLORE
 DEPLORE
 THAT FRUSTRATING HURDLE
 THE GIRDLE.

         -- COLIN FLETCHER
 Job cpu time:       0 days  0 hours 44 minutes 18.4 seconds.
 Elapsed time:       0 days  0 hours  1 minutes 23.3 seconds.
 File lengths (MBytes):  RWF=    460 Int=      0 D2E=      0 Chk=     15 Scr=      1
 Normal termination of Gaussian 16 at Wed Jul 27 14:34:05 2022.
