 Entering Gaussian System, Link 0=g16
 Initial command:
 /apps/gaussian/g16c01/g16/l1.exe "/jobfs/52822737.gadi-pbs/Gau-2047923.inp" -scrdir="/jobfs/52822737.gadi-pbs/"
 Entering Link 1 = /apps/gaussian/g16c01/g16/l1.exe PID=   2047924.
  
 Copyright (c) 1988-2019, Gaussian, Inc.  All Rights Reserved.
  
 This is part of the Gaussian(R) 16 program.  It is based on
 the Gaussian(R) 09 system (copyright 2009, Gaussian, Inc.),
 the Gaussian(R) 03 system (copyright 2003, Gaussian, Inc.),
 the Gaussian(R) 98 system (copyright 1998, Gaussian, Inc.),
 the Gaussian(R) 94 system (copyright 1995, Gaussian, Inc.),
 the Gaussian 92(TM) system (copyright 1992, Gaussian, Inc.),
 the Gaussian 90(TM) system (copyright 1990, Gaussian, Inc.),
 the Gaussian 88(TM) system (copyright 1988, Gaussian, Inc.),
 the Gaussian 86(TM) system (copyright 1986, Carnegie Mellon
 University), and the Gaussian 82(TM) system (copyright 1983,
 Carnegie Mellon University). Gaussian is a federally registered
 trademark of Gaussian, Inc.
  
 This software contains proprietary and confidential information,
 including trade secrets, belonging to Gaussian, Inc.
  
 This software is provided under written license and may be
 used, copied, transmitted, or stored only in accord with that
 written license.
  
 The following legend is applicable only to US Government
 contracts under FAR:
  
                    RESTRICTED RIGHTS LEGEND
  
 Use, reproduction and disclosure by the US Government is
 subject to restrictions as set forth in subparagraphs (a)
 and (c) of the Commercial Computer Software - Restricted
 Rights clause in FAR 52.227-19.
  
 Gaussian, Inc.
 340 Quinnipiac St., Bldg. 40, Wallingford CT 06492
  
  
 ---------------------------------------------------------------
 Warning -- This program may not be used in any manner that
 competes with the business of Gaussian, Inc. or will provide
 assistance to any competitor of Gaussian, Inc.  The licensee
 of this program is prohibited from giving any competitor of
 Gaussian, Inc. access to this program.  By using this program,
 the user acknowledges that Gaussian, Inc. is engaged in the
 business of creating and licensing software in the field of
 computational chemistry and represents and warrants to the
 licensee that it is not a competitor of Gaussian, Inc. and that
 it will not use this program in any manner prohibited above.
 ---------------------------------------------------------------
  

 Cite this work as:
 Gaussian 16, Revision C.01,
 M. J. Frisch, G. W. Trucks, H. B. Schlegel, G. E. Scuseria, 
 M. A. Robb, J. R. Cheeseman, G. Scalmani, V. Barone, 
 G. A. Petersson, H. Nakatsuji, X. Li, M. Caricato, A. V. Marenich, 
 J. Bloino, B. G. Janesko, R. Gomperts, B. Mennucci, H. P. Hratchian, 
 J. V. Ortiz, A. F. Izmaylov, J. L. Sonnenberg, D. Williams-Young, 
 F. Ding, F. Lipparini, F. Egidi, J. Goings, B. Peng, A. Petrone, 
 T. Henderson, D. Ranasinghe, V. G. Zakrzewski, J. Gao, N. Rega, 
 G. Zheng, W. Liang, M. Hada, M. Ehara, K. Toyota, R. Fukuda, 
 J. Hasegawa, M. Ishida, T. Nakajima, Y. Honda, O. Kitao, H. Nakai, 
 T. Vreven, K. Throssell, J. A. Montgomery, Jr., J. E. Peralta, 
 F. Ogliaro, M. J. Bearpark, J. J. Heyd, E. N. Brothers, K. N. Kudin, 
 V. N. Staroverov, T. A. Keith, R. Kobayashi, J. Normand, 
 K. Raghavachari, A. P. Rendell, J. C. Burant, S. S. Iyengar, 
 J. Tomasi, M. Cossi, J. M. Millam, M. Klene, C. Adamo, R. Cammi, 
 J. W. Ochterski, R. L. Martin, K. Morokuma, O. Farkas, 
 J. B. Foresman, and D. J. Fox, Gaussian, Inc., Wallingford CT, 2019.
 
 ******************************************
 Gaussian 16:  ES64L-G16RevC.01  3-Jul-2019
                27-Jul-2022 
 ******************************************
 %NProcShared=32
 Will use up to   32 processors via shared memory.
 %mem = 128GB
 ---------------------------------------------------------------
 #n M062X/6-311++G(d,p) TD(NStates=1) EmpiricalDispersion=GD3 SP
 ---------------------------------------------------------------
 1/38=1,172=1/1;
 2/12=2,17=6,18=5,40=1/2;
 3/5=4,6=6,7=1111,11=9,25=1,30=1,74=-55,124=31/1,2,3,8;
 4//1;
 5/5=2,38=5/2;
 8/6=1,10=2,108=1/1;
 9/41=1,42=1,70=2/14;
 6/7=2,8=2,9=2,10=2/1;
 99/5=1,9=1/99;
 -----
 SP_10
 -----
 Symbolic Z-matrix:
 Charge =  1 Multiplicity = 1
 C                     0.        2.47826   1.36143 
 C                     0.        3.67031   0.65979 
 C                     0.        3.66926  -0.73723 
 C                     0.        2.49316  -1.42174 
 C                     0.       -2.43316  -1.39334 
 C                     0.       -3.69846  -0.69043 
 C                     0.       -3.73271   0.68419 
 C                     0.       -2.50706   1.35943 
 C                     0.       -0.0192    1.45337 
 C                     0.        0.0246   -1.42919 
 C                     0.        1.27965   0.67747 
 C                     0.        1.25907  -0.7142 
 C                     0.       -1.24446   0.67667 
 C                     0.       -1.21587  -0.7474 
 H                     0.        2.45007   2.44365 
 H                     0.        4.59555   1.21689 
 H                     0.        4.59386  -1.29515 
 H                     0.        2.51515  -2.50326 
 H                     0.        0.05     -2.51027 
 H                     0.       -2.41995  -2.47686 
 H                     0.       -4.62466  -1.24955 
 H                     0.       -4.67795   1.20649 
 H                     0.       -2.52607   2.44365 
 H                    -0.85959  -0.0876    2.14579 
 H                     0.85959  -0.0876    2.14579 
 
                          Input orientation:                          
 ---------------------------------------------------------------------
 Center     Atomic      Atomic             Coordinates (Angstroms)
 Number     Number       Type             X           Y           Z
 ---------------------------------------------------------------------
      1          6           0        0.000000    2.478255    1.361431
      2          6           0        0.000000    3.670308    0.659789
      3          6           0        0.000000    3.669261   -0.737230
      4          6           0        0.000000    2.493156   -1.421738
      5          6           0        0.000000   -2.433156   -1.393338
      6          6           0        0.000000   -3.698461   -0.690430
      7          6           0        0.000000   -3.732708    0.684189
      8          6           0        0.000000   -2.507055    1.359431
      9          6           0        0.000000   -0.019200    1.453369
     10          6           0        0.000000    0.024600   -1.429189
     11          6           0        0.000000    1.279655    0.677465
     12          6           0        0.000000    1.259071   -0.714204
     13          6           0        0.000000   -1.244455    0.676665
     14          6           0        0.000000   -1.215871   -0.747404
     15          1           0        0.000000    2.450071    2.443647
     16          1           0        0.000000    4.595553    1.216889
     17          1           0        0.000000    4.593862   -1.295149
     18          1           0        0.000000    2.515150   -2.503259
     19          1           0        0.000000    0.050000   -2.510266
     20          1           0        0.000000   -2.419950   -2.476859
     21          1           0        0.000000   -4.624662   -1.249549
     22          1           0        0.000000   -4.677953    1.206489
     23          1           0        0.000000   -2.526071    2.443647
     24          1           0       -0.859585   -0.087600    2.145787
     25          1           0        0.859585   -0.087600    2.145787
 ---------------------------------------------------------------------
                    Distance matrix (angstroms):
                    1          2          3          4          5
     1  C    0.000000
     2  C    1.383218   0.000000
     3  C    2.413063   1.397019   0.000000
     4  C    2.783209   2.391326   1.360799   0.000000
     5  C    5.631226   6.439534   6.137587   4.926394   0.000000
     6  C    6.508606   7.491452   7.367871   6.234656   1.447438
     7  C    6.247777   7.403056   7.537213   6.572390   2.450501
     8  C    4.985310   6.216857   6.522489   5.721627   2.753761
     9  C    2.499147   3.773889   4.289926   3.818137   3.732415
    10  C    3.715909   4.201787   3.709766   2.468567   2.458017
    11  C    1.380019   2.390718   2.776973   2.424714   4.251258
    12  C    2.407212   2.775233   2.410300   1.422522   3.754166
    13  C    3.785165   4.914792   5.113091   4.286377   2.387032
    14  C    4.253675   5.084775   4.885143   3.769829   1.378047
    15  H    1.082583   2.161279   3.406524   3.865625   6.210343
    16  H    2.122226   1.080018   2.162544   3.373785   7.497735
    17  H    3.396058   2.162113   1.079889   2.104517   7.027704
    18  H    3.864866   3.367382   2.109699   1.081745   5.071258
    19  H    4.570171   4.812056   4.030224   2.674678   2.722791
    20  H    6.222932   6.850533   6.332835   5.025126   1.083601
    21  H    7.567605   8.511880   8.309731   7.119900   2.196218
    22  H    7.157885   8.366143   8.570532   7.637564   3.434853
    23  H    5.120007   6.448043   6.964203   6.335128   3.838110
    24  H    2.817395   4.131458   4.812970   4.486248   4.331965
    25  H    2.817395   4.131458   4.812970   4.486248   4.331965
                    6          7          8          9         10
     6  C    0.000000
     7  C    1.375046   0.000000
     8  C    2.370945   1.399349   0.000000
     9  C    4.258267   3.792332   2.489628   0.000000
    10  C    3.795649   4.310885   3.766388   2.882891   0.000000
    11  C    5.162633   5.012368   3.847629   1.512961   2.452173
    12  C    4.957589   5.183952   4.299264   2.516416   1.426577
    13  C    2.809109   2.488264   1.435384   1.450696   2.458683
    14  C    2.483244   2.895501   2.471014   2.505079   1.415485
    15  H    6.901223   6.428254   5.074310   2.660442   4.569657
    16  H    8.510496   8.345280   7.104038   4.620808   5.281604
    17  H    8.314343   8.558595   7.580885   5.369794   4.571228
    18  H    6.472659   7.013954   6.335844   4.698706   2.712281
    19  H    4.166865   4.951103   4.638220   3.964239   1.081375
    20  H    2.196797   3.422800   3.837279   4.605463   2.659593
    21  H    1.081879   2.129536   3.360214   5.340042   4.652731
    22  H    2.134879   1.079947   2.176279   4.665290   5.390807
    23  H    3.346182   2.133463   1.084383   2.695376   4.637325
    24  H    4.671331   4.020195   2.685331   1.105897   3.678577
    25  H    4.671331   4.020195   2.685331   1.105897   3.678577
                   11         12         13         14         15
    11  C    0.000000
    12  C    1.391821   0.000000
    13  C    2.524110   2.863941   0.000000
    14  C    2.873657   2.475165   1.424356   0.000000
    15  H    2.118790   3.374982   4.095332   4.860240   0.000000
    16  H    3.359488   3.855027   5.864941   6.134419   2.471443
    17  H    3.856835   3.385015   6.162304   5.835497   4.309807
    18  H    3.412250   2.185967   4.924078   4.123535   4.947334
    19  H    3.416677   2.165108   3.439788   2.170279   5.504688
    20  H    4.861773   4.079479   3.365487   2.107326   6.923040
    21  H    6.210825   5.908038   3.890514   3.445578   7.980698
    22  H    5.981050   6.239977   3.474136   3.975388   7.234590
    23  H    4.195587   4.929434   2.182834   3.449555   4.976142
    24  H    2.182714   3.275967   2.058038   3.222179   2.695808
    25  H    2.182714   3.275967   2.058038   3.222179   2.695808
                   16         17         18         19         20
    16  H    0.000000
    17  H    2.512039   0.000000
    18  H    4.262344   2.404282   0.000000
    19  H    5.878243   4.703530   2.465160   0.000000
    20  H    7.928496   7.112665   4.935171   2.470176   0.000000
    21  H    9.544406   9.218637   7.249049   4.841681   2.523300
    22  H    9.273512   9.603372   8.093390   6.013968   4.320374
    23  H    7.226511   8.041893   7.062987   5.583672   4.921650
    24  H    4.851150   5.873246   5.396927   4.736734   5.248581
    25  H    4.851150   5.873246   5.396927   4.736734   5.248581
                   21         22         23         24         25
    21  H    0.000000
    22  H    2.456616   0.000000
    23  H    4.247797   2.482168   0.000000
    24  H    5.731677   4.763665   2.602642   0.000000
    25  H    5.731677   4.763665   2.602642   1.719170   0.000000
 Stoichiometry    C14H11(1+)
 Framework group  CS[SG(C14H9),X(H2)]
 Deg. of freedom    46
 Full point group                 CS      NOp   2
 Largest Abelian subgroup         CS      NOp   2
 Largest concise Abelian subgroup CS      NOp   2
                         Standard orientation:                         
 ---------------------------------------------------------------------
 Center     Atomic      Atomic             Coordinates (Angstroms)
 Number     Number       Type             X           Y           Z
 ---------------------------------------------------------------------
      1          6           0       -2.380723   -1.526928    0.000000
      2          6           0       -2.334135   -2.909362    0.000000
      3          6           0       -1.106503   -3.576132    0.000000
      4          6           0        0.056870   -2.870204    0.000000
      5          6           0        2.386403    1.470607    0.000000
      6          6           0        2.373713    2.917989    0.000000
      7          6           0        1.182625    3.605056    0.000000
      8          6           0        0.003710    2.851176    0.000000
      9          6           0       -1.267849    0.710759    0.000000
     10          6           0        1.243236   -0.705403    0.000000
     11          6           0       -1.207074   -0.800981    0.000000
     12          6           0        0.025196   -1.448034    0.000000
     13          6           0       -0.000000    1.415797    0.000000
     14          6           0        1.237231    0.710070    0.000000
     15          1           0       -3.317864   -0.984938    0.000000
     16          1           0       -3.265699   -3.455830    0.000000
     17          1           0       -1.058335   -4.654947    0.000000
     18          1           0        0.996359   -3.406424    0.000000
     19          1           0        2.180706   -1.244403    0.000000
     20          1           0        3.331848    0.941149    0.000000
     21          1           0        3.307507    3.464332    0.000000
     22          1           0        1.175610    4.684980    0.000000
     23          1           0       -0.939569    3.386069    0.000000
     24          1           0       -1.843373    1.101775    0.859585
     25          1           0       -1.843373    1.101775   -0.859585
 ---------------------------------------------------------------------
 Rotational constants (GHZ):           2.1364842           0.4445592           0.3687881
 Standard basis: 6-311++G(d,p) (5D, 7F)
 There are   299 symmetry adapted cartesian basis functions of A'  symmetry.
 There are   100 symmetry adapted cartesian basis functions of A"  symmetry.
 There are   285 symmetry adapted basis functions of A'  symmetry.
 There are   100 symmetry adapted basis functions of A"  symmetry.
   385 basis functions,   603 primitive gaussians,   399 cartesian basis functions
    47 alpha electrons       47 beta electrons
       nuclear repulsion energy       781.2528815170 Hartrees.
 NAtoms=   25 NActive=   25 NUniq=   24 SFac= 1.09D+00 NAtFMM=   60 NAOKFM=F Big=F
 Integral buffers will be    131072 words long.
 Regular integral format.
 Two-electron integral symmetry is turned on.
 Nuclear repulsion after empirical dispersion term =      781.2519026164 Hartrees.
 One-electron integrals computed using PRISM.
 NBasis=   385 RedAO= T EigKep=  1.11D-06  NBF=   285   100
 NBsUse=   379 1.00D-06 EigRej=  8.29D-07 NBFU=   279   100
 ExpMin= 3.60D-02 ExpMax= 4.56D+03 ExpMxC= 6.82D+02 IAcc=3 IRadAn=         5 AccDes= 0.00D+00
 Harris functional with IExCor= 1009 and IRadAn=       5 diagonalized for initial guess.
 HarFok:  IExCor= 1009 AccDes= 0.00D+00 IRadAn=         5 IDoV= 1 UseB2=F ITyADJ=14
 ICtDFT=  3500011 ScaDFX=  1.000000  1.000000  1.000000  1.000000
 FoFCou: FMM=F IPFlag=           0 FMFlag=      100000 FMFlg1=           0
         NFxFlg=           0 DoJE=T BraDBF=F KetDBF=T FulRan=T
         wScrn=  0.000000 ICntrl=       500 IOpCl=  0 I1Cent=   200000004 NGrid=           0
         NMat0=    1 NMatS0=      1 NMatT0=    0 NMatD0=    1 NMtDS0=    0 NMtDT0=    0
 Petite list used in FoFCou.
 Initial guess orbital symmetries:
       Occupied  (A') (A') (A') (A') (A') (A') (A') (A') (A') (A')
                 (A') (A') (A') (A') (A') (A') (A') (A') (A') (A')
                 (A') (A') (A') (A') (A') (A') (A') (A') (A') (A')
                 (A') (A') (A") (A') (A') (A') (A') (A') (A") (A')
                 (A") (A') (A') (A") (A") (A") (A")
       Virtual   (A") (A") (A") (A") (A") (A') (A') (A') (A') (A")
                 (A") (A') (A') (A') (A") (A') (A') (A') (A') (A")
                 (A') (A") (A') (A') (A') (A") (A') (A") (A') (A')
                 (A') (A') (A') (A") (A') (A') (A") (A') (A') (A')
                 (A") (A') (A') (A") (A') (A') (A') (A') (A') (A")
                 (A') (A") (A') (A") (A') (A') (A') (A") (A") (A')
                 (A') (A') (A') (A') (A') (A') (A") (A') (A') (A")
                 (A') (A') (A') (A') (A') (A') (A') (A') (A') (A')
                 (A') (A') (A') (A') (A') (A') (A') (A') (A') (A')
                 (A') (A') (A') (A') (A') (A') (A') (A") (A') (A")
                 (A') (A") (A') (A") (A') (A") (A') (A") (A") (A')
                 (A") (A') (A') (A') (A") (A') (A') (A") (A") (A')
                 (A") (A") (A') (A') (A') (A") (A') (A') (A') (A")
                 (A') (A') (A') (A') (A') (A') (A") (A') (A') (A')
                 (A') (A') (A') (A') (A') (A') (A') (A') (A') (A")
                 (A") (A') (A") (A") (A') (A') (A') (A") (A") (A')
                 (A") (A') (A") (A") (A") (A') (A') (A') (A') (A')
                 (A') (A") (A') (A') (A') (A") (A') (A') (A') (A')
                 (A") (A') (A') (A") (A') (A') (A") (A') (A") (A")
                 (A") (A') (A') (A') (A") (A') (A') (A") (A') (A')
                 (A") (A") (A") (A') (A') (A") (A') (A") (A') (A')
                 (A") (A") (A') (A") (A') (A") (A') (A') (A') (A")
                 (A') (A') (A') (A') (A") (A') (A') (A') (A") (A")
                 (A') (A') (A') (A") (A') (A') (A") (A') (A") (A')
                 (A") (A') (A') (A') (A') (A") (A') (A') (A') (A")
                 (A') (A') (A') (A") (A") (A') (A') (A") (A') (A')
                 (A') (A") (A') (A") (A') (A') (A') (A") (A') (A")
                 (A') (A') (A') (A') (A") (A') (A") (A') (A") (A')
                 (A") (A') (A") (A") (A") (A') (A') (A') (A') (A')
                 (A') (A') (A') (A') (A') (A') (A') (A') (A') (A')
                 (A') (A') (A') (A') (A") (A') (A') (A') (A') (A')
                 (A') (A') (A') (A') (A') (A') (A') (A') (A') (A')
                 (A') (A') (A') (A') (A') (A') (A') (A') (A') (A')
                 (A') (A')
 The electronic state of the initial guess is 1-A'.
 Requested convergence on RMS density matrix=1.00D-08 within 128 cycles.
 Requested convergence on MAX density matrix=1.00D-06.
 Requested convergence on             energy=1.00D-06.
 No special actions if energy rises.
 SCF Done:  E(RM062X) =  -539.751120452     A.U. after   16 cycles
            NFock= 16  Conv=0.32D-08     -V/T= 2.0041
 DoSCS=F DFT=T ScalE2(SS,OS)=  1.000000  1.000000
 ExpMin= 3.60D-02 ExpMax= 4.56D+03 ExpMxC= 6.82D+02 IAcc=3 IRadAn=         5 AccDes= 0.00D+00
 HarFok:  IExCor=  205 AccDes= 0.00D+00 IRadAn=         5 IDoV=-2 UseB2=F ITyADJ=14
 ICtDFT= 12500011 ScaDFX=  1.000000  1.000000  1.000000  1.000000
 Range of M.O.s used for correlation:    15   379
 NBasis=   385 NAE=    47 NBE=    47 NFC=    14 NFV=     0
 NROrb=    365 NOA=    33 NOB=    33 NVA=   332 NVB=   332

 **** Warning!!: The largest alpha MO coefficient is  0.14936649D+03

 Orbital symmetries:
       Occupied  (A') (A') (A') (A') (A') (A') (A') (A') (A') (A')
                 (A') (A') (A') (A') (A') (A') (A') (A') (A') (A')
                 (A') (A') (A') (A') (A') (A') (A') (A') (A') (A')
                 (A') (A') (A") (A') (A') (A') (A') (A") (A") (A')
                 (A') (A') (A') (A") (A") (A") (A")
       Virtual   (A") (A") (A") (A") (A') (A') (A') (A') (A") (A')
                 (A') (A") (A') (A') (A") (A') (A") (A') (A') (A')
                 (A") (A") (A') (A') (A') (A") (A') (A") (A') (A')
                 (A") (A') (A") (A') (A') (A') (A') (A') (A") (A')
                 (A") (A') (A') (A") (A") (A') (A") (A') (A") (A')
                 (A') (A') (A') (A') (A') (A") (A') (A') (A') (A')
                 (A') (A") (A') (A') (A') (A') (A") (A') (A') (A')
                 (A') (A') (A') (A') (A') (A') (A') (A') (A') (A')
                 (A') (A') (A') (A') (A') (A') (A') (A') (A') (A')
                 (A') (A') (A') (A') (A") (A") (A') (A") (A') (A")
                 (A') (A') (A') (A') (A") (A") (A') (A") (A") (A')
                 (A') (A") (A') (A') (A') (A") (A') (A") (A') (A")
                 (A") (A') (A") (A') (A') (A') (A") (A') (A') (A')
                 (A') (A') (A') (A') (A') (A') (A') (A') (A') (A')
                 (A') (A') (A') (A") (A') (A') (A') (A') (A') (A')
                 (A') (A') (A") (A') (A") (A') (A") (A") (A') (A")
                 (A") (A') (A') (A") (A") (A') (A") (A") (A') (A')
                 (A') (A') (A") (A') (A') (A") (A') (A') (A') (A")
                 (A') (A') (A') (A") (A') (A") (A') (A') (A") (A")
                 (A") (A') (A') (A") (A') (A") (A') (A') (A') (A')
                 (A") (A") (A") (A') (A') (A") (A') (A") (A') (A')
                 (A') (A") (A") (A') (A") (A') (A") (A') (A') (A")
                 (A') (A') (A') (A') (A") (A') (A') (A') (A") (A")
                 (A') (A') (A') (A") (A') (A') (A') (A") (A") (A')
                 (A") (A') (A') (A") (A') (A') (A') (A') (A') (A')
                 (A") (A') (A') (A') (A') (A") (A") (A") (A') (A')
                 (A') (A') (A') (A') (A') (A') (A") (A') (A') (A')
                 (A') (A") (A') (A") (A") (A") (A') (A") (A') (A")
                 (A') (A") (A") (A') (A") (A") (A') (A') (A') (A')
                 (A') (A') (A') (A') (A') (A') (A') (A') (A') (A')
                 (A') (A') (A') (A') (A") (A') (A') (A') (A') (A')
                 (A') (A') (A') (A') (A') (A') (A') (A') (A') (A')
                 (A') (A') (A') (A') (A') (A') (A') (A') (A') (A')
                 (A') (A')
     4 initial guesses have been made.
 Convergence on wavefunction:    0.001000000000000
 Iteration     1 Dimension     4 NMult     0 NNew      4
 CISAX will form     4 AO SS matrices at one time.
 Iteration     2 Dimension     6 NMult     4 NNew      2
 Iteration     3 Dimension     8 NMult     6 NNew      2
 Iteration     4 Dimension    10 NMult     8 NNew      2
 Iteration     5 Dimension    12 NMult    10 NNew      2
 Iteration     6 Dimension    14 NMult    12 NNew      2
 ***********************************************************************
 Excited states from <AA,BB:AA,BB> singles matrix:
 ***********************************************************************
 
 Ground to excited state transition densities written to RWF  633
 Ground to excited state transition electric dipole moments (Au):
       state          X           Y           Z        Dip. S.      Osc.
         1        -0.4459      0.4164      0.0000      0.3722      0.0245
 Ground to excited state transition velocity dipole moments (Au):
       state          X           Y           Z        Dip. S.      Osc.
         1         0.0522     -0.0417      0.0000      0.0045      0.0301
 Ground to excited state transition magnetic dipole moments (Au):
       state          X           Y           Z
         1        -0.0000      0.0000     -0.3301
 Ground to excited state transition velocity quadrupole moments (Au):
       state          XX          YY          ZZ          XY          XZ          YZ
         1         0.1698      0.1024     -0.0084      0.1518     -0.0000     -0.0000
 <0|del|b> * <b|rxdel|0> + <0|del|b> * <b|delr+rdel|0>
 Rotatory Strengths (R) in cgs (10**-40 erg-esu-cm/Gauss)
       state          XX          YY          ZZ    R(velocity)    E-M Angle
         1        -0.0000     -0.0000      0.0000     -0.0000       90.00
 1/2[<0|r|b>*<b|rxdel|0> + (<0|rxdel|b>*<b|r|0>)*]
 Rotatory Strengths (R) in cgs (10**-40 erg-esu-cm/Gauss)
       state          XX          YY          ZZ     R(length)
         1        -0.0000     -0.0000      0.0000      0.0000
  1/2[<0|del|b>*<b|r|0> + (<0|r|b>*<b|del|0>)*] (Au)
       state          X           Y           Z        Dip. S.   Osc.(frdel)
         1        -0.0233     -0.0173      0.0000      0.0406      0.0271

 Excitation energies and oscillator strengths:
 
 Excited State   1:      Singlet-A'     2.6896 eV  460.97 nm  f=0.0245  <S**2>=0.000
      47 -> 48         0.70313
 This state for optimization and/or second-order correction.
 Total Energy, E(TD-HF/TD-DFT) =  -539.652278961    
 Copying the excited state density for this state as the 1-particle RhoCI density.
 SavETr:  write IOETrn=   770 NScale= 10 NData=  16 NLR=1 NState=    1 LETran=      28.

 **********************************************************************

            Population analysis using the SCF Density.

 **********************************************************************

 Orbital symmetries:
       Occupied  (A') (A') (A') (A') (A') (A') (A') (A') (A') (A')
                 (A') (A') (A') (A') (A') (A') (A') (A') (A') (A')
                 (A') (A') (A') (A') (A') (A') (A') (A') (A') (A')
                 (A') (A') (A") (A') (A') (A') (A') (A") (A") (A')
                 (A') (A') (A') (A") (A") (A") (A")
       Virtual   (A") (A") (A") (A") (A') (A') (A') (A') (A") (A')
                 (A') (A") (A') (A') (A") (A') (A") (A') (A') (A')
                 (A") (A") (A') (A') (A') (A") (A') (A") (A') (A')
                 (A") (A') (A") (A') (A') (A') (A') (A') (A") (A')
                 (A") (A') (A') (A") (A") (A') (A") (A') (A") (A')
                 (A') (A') (A') (A') (A') (A") (A') (A') (A') (A')
                 (A') (A") (A') (A') (A') (A') (A") (A') (A') (A')
                 (A') (A') (A') (A') (A') (A') (A') (A') (A') (A')
                 (A') (A') (A') (A') (A') (A') (A') (A') (A') (A')
                 (A') (A') (A') (A') (A") (A") (A') (A") (A') (A")
                 (A') (A') (A') (A') (A") (A") (A') (A") (A") (A')
                 (A') (A") (A') (A') (A') (A") (A') (A") (A') (A")
                 (A") (A') (A") (A') (A') (A') (A") (A') (A') (A')
                 (A') (A') (A') (A') (A') (A') (A') (A') (A') (A')
                 (A') (A') (A') (A") (A') (A') (A') (A') (A') (A')
                 (A') (A') (A") (A') (A") (A') (A") (A") (A') (A")
                 (A") (A') (A') (A") (A") (A') (A") (A") (A') (A')
                 (A') (A') (A") (A') (A') (A") (A') (A') (A') (A")
                 (A') (A') (A') (A") (A') (A") (A') (A') (A") (A")
                 (A") (A') (A') (A") (A') (A") (A') (A') (A') (A')
                 (A") (A") (A") (A') (A') (A") (A') (A") (A') (A')
                 (A') (A") (A") (A') (A") (A') (A") (A') (A') (A")
                 (A') (A') (A') (A') (A") (A') (A') (A') (A") (A")
                 (A') (A') (A') (A") (A') (A') (A') (A") (A") (A')
                 (A") (A') (A') (A") (A') (A') (A') (A') (A') (A')
                 (A") (A') (A') (A') (A') (A") (A") (A") (A') (A')
                 (A') (A') (A') (A') (A') (A') (A") (A') (A') (A')
                 (A') (A") (A') (A") (A") (A") (A') (A") (A') (A")
                 (A') (A") (A") (A') (A") (A") (A') (A') (A') (A')
                 (A') (A') (A') (A') (A') (A') (A') (A') (A') (A')
                 (A') (A') (A') (A') (A") (A') (A') (A') (A') (A')
                 (A') (A') (A') (A') (A') (A') (A') (A') (A') (A')
                 (A') (A') (A') (A') (A') (A') (A') (A') (A') (A')
                 (A') (A')
 The electronic state is 1-A'.
 Alpha  occ. eigenvalues --  -10.77665 -10.73279 -10.73241 -10.72626 -10.72234
 Alpha  occ. eigenvalues --  -10.71466 -10.71342 -10.71210 -10.71019 -10.70673
 Alpha  occ. eigenvalues --  -10.70078 -10.69863 -10.69772 -10.69447  -1.16525
 Alpha  occ. eigenvalues --   -1.12527  -1.06901  -1.05817  -1.01362  -1.00483
 Alpha  occ. eigenvalues --   -0.95576  -0.91027  -0.86465  -0.85875  -0.83801
 Alpha  occ. eigenvalues --   -0.78339  -0.76117  -0.74346  -0.69605  -0.69237
 Alpha  occ. eigenvalues --   -0.68515  -0.68167  -0.68103  -0.64924  -0.64438
 Alpha  occ. eigenvalues --   -0.62852  -0.61641  -0.60360  -0.59372  -0.59031
 Alpha  occ. eigenvalues --   -0.56984  -0.55199  -0.54683  -0.52426  -0.47077
 Alpha  occ. eigenvalues --   -0.46141  -0.43996
 Alpha virt. eigenvalues --   -0.26090  -0.14798  -0.14002  -0.12740  -0.11182
 Alpha virt. eigenvalues --   -0.10091  -0.09235  -0.07982  -0.07941  -0.07480
 Alpha virt. eigenvalues --   -0.07206  -0.07140  -0.05649  -0.05581  -0.05341
 Alpha virt. eigenvalues --   -0.03845  -0.03655  -0.03305  -0.03128  -0.02159
 Alpha virt. eigenvalues --   -0.01358  -0.00954   0.00181   0.00589   0.00626
 Alpha virt. eigenvalues --    0.01052   0.01509   0.01951   0.02149   0.02268
 Alpha virt. eigenvalues --    0.02455   0.02666   0.02756   0.03278   0.03425
 Alpha virt. eigenvalues --    0.04223   0.04481   0.04687   0.05029   0.05378
 Alpha virt. eigenvalues --    0.06023   0.06285   0.06571   0.07055   0.07257
 Alpha virt. eigenvalues --    0.07903   0.08172   0.08332   0.08549   0.08904
 Alpha virt. eigenvalues --    0.09356   0.09707   0.09871   0.10753   0.11022
 Alpha virt. eigenvalues --    0.11104   0.12064   0.12281   0.12823   0.13101
 Alpha virt. eigenvalues --    0.13307   0.13516   0.14031   0.14382   0.16151
 Alpha virt. eigenvalues --    0.16253   0.16295   0.17287   0.17557   0.17679
 Alpha virt. eigenvalues --    0.18091   0.18825   0.19250   0.19668   0.20063
 Alpha virt. eigenvalues --    0.21516   0.21541   0.22746   0.23125   0.23542
 Alpha virt. eigenvalues --    0.23960   0.24594   0.25415   0.26851   0.27678
 Alpha virt. eigenvalues --    0.28813   0.29415   0.29851   0.31432   0.35426
 Alpha virt. eigenvalues --    0.36546   0.38210   0.39277   0.41130   0.41378
 Alpha virt. eigenvalues --    0.41942   0.42021   0.43020   0.43570   0.44320
 Alpha virt. eigenvalues --    0.44727   0.45381   0.45815   0.46625   0.47854
 Alpha virt. eigenvalues --    0.48473   0.48758   0.49127   0.50453   0.51056
 Alpha virt. eigenvalues --    0.51210   0.52116   0.52131   0.52844   0.54018
 Alpha virt. eigenvalues --    0.54149   0.54798   0.55556   0.55808   0.57478
 Alpha virt. eigenvalues --    0.58236   0.58990   0.61493   0.61915   0.62567
 Alpha virt. eigenvalues --    0.63268   0.63497   0.64853   0.65385   0.67426
 Alpha virt. eigenvalues --    0.70175   0.70575   0.71116   0.72403   0.72810
 Alpha virt. eigenvalues --    0.75444   0.76174   0.76568   0.76860   0.77052
 Alpha virt. eigenvalues --    0.77762   0.78125   0.78248   0.79925   0.80339
 Alpha virt. eigenvalues --    0.81381   0.81527   0.82359   0.83128   0.85176
 Alpha virt. eigenvalues --    0.87029   0.88122   0.88167   0.89339   0.90283
 Alpha virt. eigenvalues --    0.91116   0.91575   0.93364   0.94562   0.96187
 Alpha virt. eigenvalues --    0.97055   1.00352   1.01403   1.01467   1.02669
 Alpha virt. eigenvalues --    1.02925   1.03538   1.04882   1.06116   1.08920
 Alpha virt. eigenvalues --    1.19568   1.22865   1.23432   1.24190   1.28569
 Alpha virt. eigenvalues --    1.29568   1.32652   1.34266   1.35672   1.35956
 Alpha virt. eigenvalues --    1.38812   1.40319   1.41105   1.42521   1.43407
 Alpha virt. eigenvalues --    1.43796   1.44267   1.46177   1.46281   1.46888
 Alpha virt. eigenvalues --    1.47496   1.48380   1.51820   1.53631   1.54780
 Alpha virt. eigenvalues --    1.55801   1.56323   1.57330   1.58287   1.61465
 Alpha virt. eigenvalues --    1.63142   1.63512   1.63938   1.66042   1.68268
 Alpha virt. eigenvalues --    1.68297   1.68908   1.69726   1.74404   1.76197
 Alpha virt. eigenvalues --    1.76947   1.77866   1.79512   1.79989   1.81657
 Alpha virt. eigenvalues --    1.82930   1.83236   1.83270   1.83688   1.84233
 Alpha virt. eigenvalues --    1.84988   1.85455   1.86502   1.88230   1.91344
 Alpha virt. eigenvalues --    1.91747   1.94009   1.96176   1.97490   1.98471
 Alpha virt. eigenvalues --    1.99592   2.02583   2.04858   2.07033   2.11682
 Alpha virt. eigenvalues --    2.12213   2.14259   2.15196   2.18974   2.21150
 Alpha virt. eigenvalues --    2.22796   2.28371   2.30330   2.34216   2.34750
 Alpha virt. eigenvalues --    2.36087   2.38599   2.39521   2.42054   2.44373
 Alpha virt. eigenvalues --    2.45953   2.46655   2.49175   2.53013   2.53769
 Alpha virt. eigenvalues --    2.54540   2.56632   2.58004   2.58276   2.59493
 Alpha virt. eigenvalues --    2.59750   2.60921   2.61825   2.63144   2.63724
 Alpha virt. eigenvalues --    2.64994   2.65043   2.65326   2.65623   2.67654
 Alpha virt. eigenvalues --    2.69760   2.71003   2.71460   2.73314   2.74772
 Alpha virt. eigenvalues --    2.76322   2.78642   2.79686   2.82384   2.83165
 Alpha virt. eigenvalues --    2.85300   2.86283   2.92072   2.96970   2.99004
 Alpha virt. eigenvalues --    3.00504   3.04753   3.09226   3.11356   3.14778
 Alpha virt. eigenvalues --    3.20770   3.22618   3.26706   3.28025   3.29936
 Alpha virt. eigenvalues --    3.33137   3.34995   3.43435   3.45809   3.46910
 Alpha virt. eigenvalues --    3.48172   3.51753   3.56770   3.65363   3.65576
 Alpha virt. eigenvalues --    3.69047   3.93766   3.94139   3.95246   3.96039
 Alpha virt. eigenvalues --    4.03891   4.05893   4.08127   4.12416   4.35262
 Alpha virt. eigenvalues --    4.61143   4.67766   4.72317  23.45130  23.60135
 Alpha virt. eigenvalues --   23.79682  23.84589  23.85876  23.88010  23.90955
 Alpha virt. eigenvalues --   23.93442  23.94348  23.99492  24.03457  24.07485
 Alpha virt. eigenvalues --   24.09739  24.15021
          Condensed to atoms (all electrons):
               1          2          3          4          5          6
     1  C    8.251340   0.428900  -0.587373   1.759049  -0.075518  -0.088237
     2  C    0.428900   7.256968   0.374613  -1.070036  -0.032258  -0.016329
     3  C   -0.587373   0.374613   6.558198   0.796231  -0.125742   0.017058
     4  C    1.759049  -1.070036   0.796231  10.698750  -0.433024  -0.119523
     5  C   -0.075518  -0.032258  -0.125742  -0.433024  11.677176   0.775056
     6  C   -0.088237  -0.016329   0.017058  -0.119523   0.775056   6.585066
     7  C   -0.010879   0.000785  -0.012657   0.002322  -1.178266   0.331117
     8  C    0.391872  -0.021127  -0.105338  -0.016028   2.411771  -0.472080
     9  C   -0.960299  -0.822631   0.291963  -0.002452  -0.377276   0.283174
    10  C   -1.196801   0.158958  -0.268936  -2.559006  -2.596822  -0.405139
    11  C    0.479495  -0.989232   0.999856   0.655408  -1.785857  -0.172478
    12  C   -2.094093   1.375002  -1.474849  -2.178965   0.032826  -0.199252
    13  C    0.372659  -0.282664  -0.181641  -1.138756  -1.263586   0.909264
    14  C   -1.154775  -0.215726  -0.172785  -0.701930  -1.423668  -1.302643
    15  H    0.366526  -0.101193  -0.000406   0.021604   0.006865   0.001282
    16  H   -0.019456   0.382626  -0.018987   0.018930  -0.001840  -0.000374
    17  H   -0.020976  -0.021973   0.385414  -0.074209   0.000109   0.000430
    18  H    0.046850   0.003590  -0.083309   0.463708   0.004455  -0.004931
    19  H   -0.040559  -0.007452   0.051974  -0.059767  -0.078632   0.049294
    20  H    0.006811   0.002294  -0.005163   0.006127   0.455714  -0.083619
    21  H   -0.001132  -0.000422   0.000364   0.000528  -0.064949   0.366970
    22  H    0.000484   0.000330  -0.000279  -0.001251   0.007697  -0.013834
    23  H    0.005321  -0.002347   0.000866   0.004231   0.035555  -0.002341
    24  H    0.040639   0.015679  -0.000627  -0.007943  -0.017278  -0.002433
    25  H    0.040639   0.015679  -0.000627  -0.007943  -0.017278  -0.002433
               7          8          9         10         11         12
     1  C   -0.010879   0.391872  -0.960299  -1.196801   0.479495  -2.094093
     2  C    0.000785  -0.021127  -0.822631   0.158958  -0.989232   1.375002
     3  C   -0.012657  -0.105338   0.291963  -0.268936   0.999856  -1.474849
     4  C    0.002322  -0.016028  -0.002452  -2.559006   0.655408  -2.178965
     5  C   -1.178266   2.411771  -0.377276  -2.596822  -1.785857   0.032826
     6  C    0.331117  -0.472080   0.283174  -0.405139  -0.172478  -0.199252
     7  C    7.089226   0.079423  -0.797305   0.339697  -0.218040  -0.179042
     8  C    0.079423   9.097344  -1.269104  -1.416708   0.048045  -0.975466
     9  C   -0.797305  -1.269104   9.610626   0.275853   1.845690  -2.258616
    10  C    0.339697  -1.416708   0.275853   9.074734  -0.415628   2.491826
    11  C   -0.218040   0.048045   1.845690  -0.415628  14.233141  -4.515729
    12  C   -0.179042  -0.975466  -2.258616   2.491826  -4.515729  17.103416
    13  C   -0.699444  -0.013457   1.328856  -0.317645   1.003347  -4.872185
    14  C    1.361396  -2.253165  -1.725055   2.299797  -4.595078   3.148216
    15  H   -0.002885   0.006010   0.083763  -0.006036  -0.031366  -0.013851
    16  H    0.000389   0.000890   0.001029  -0.010721   0.022414  -0.029878
    17  H   -0.000370  -0.001507  -0.004055   0.019518  -0.023433   0.085895
    18  H    0.001883   0.007173  -0.020922   0.001353   0.001556  -0.048388
    19  H   -0.007019  -0.053251   0.075189   0.421758   0.075023  -0.081937
    20  H    0.001182   0.055200  -0.026996   0.018202  -0.011365  -0.006395
    21  H   -0.009673  -0.031288  -0.007366   0.020876  -0.006429   0.005631
    22  H    0.374705  -0.021016   0.004716  -0.007210   0.002944  -0.007786
    23  H   -0.111869   0.373788   0.098187  -0.013547   0.005674   0.007505
    24  H    0.013500   0.021820   0.358845   0.005844   0.019904  -0.058069
    25  H    0.013500   0.021820   0.358845   0.005844   0.019904  -0.058069
              13         14         15         16         17         18
     1  C    0.372659  -1.154775   0.366526  -0.019456  -0.020976   0.046850
     2  C   -0.282664  -0.215726  -0.101193   0.382626  -0.021973   0.003590
     3  C   -0.181641  -0.172785  -0.000406  -0.018987   0.385414  -0.083309
     4  C   -1.138756  -0.701930   0.021604   0.018930  -0.074209   0.463708
     5  C   -1.263586  -1.423668   0.006865  -0.001840   0.000109   0.004455
     6  C    0.909264  -1.302643   0.001282  -0.000374   0.000430  -0.004931
     7  C   -0.699444   1.361396  -0.002885   0.000389  -0.000370   0.001883
     8  C   -0.013457  -2.253165   0.006010   0.000890  -0.001507   0.007173
     9  C    1.328856  -1.725055   0.083763   0.001029  -0.004055  -0.020922
    10  C   -0.317645   2.299797  -0.006036  -0.010721   0.019518   0.001353
    11  C    1.003347  -4.595078  -0.031366   0.022414  -0.023433   0.001556
    12  C   -4.872185   3.148216  -0.013851  -0.029878   0.085895  -0.048388
    13  C   14.659570  -2.911475  -0.002805   0.002973  -0.006278  -0.011514
    14  C   -2.911475  15.280643   0.006030  -0.010324   0.005077  -0.024001
    15  H   -0.002805   0.006030   0.439546  -0.009299   0.001756   0.000134
    16  H    0.002973  -0.010324  -0.009299   0.417422  -0.007382   0.002115
    17  H   -0.006278   0.005077   0.001756  -0.007382   0.425444  -0.011673
    18  H   -0.011514  -0.024001   0.000134   0.002115  -0.011673   0.449728
    19  H    0.079613  -0.048941   0.000411  -0.000617   0.001781  -0.005277
    20  H   -0.007184  -0.067677  -0.000135   0.000023  -0.000179   0.001238
    21  H   -0.028201   0.097466   0.000015  -0.000007   0.000010  -0.000112
    22  H    0.028663  -0.031161  -0.000125   0.000007  -0.000007   0.000009
    23  H   -0.037200  -0.033900   0.000562  -0.000128   0.000011  -0.000091
    24  H    0.007634  -0.062711  -0.001149   0.000610  -0.000125   0.000118
    25  H    0.007634  -0.062711  -0.001149   0.000610  -0.000125   0.000118
              19         20         21         22         23         24
     1  C   -0.040559   0.006811  -0.001132   0.000484   0.005321   0.040639
     2  C   -0.007452   0.002294  -0.000422   0.000330  -0.002347   0.015679
     3  C    0.051974  -0.005163   0.000364  -0.000279   0.000866  -0.000627
     4  C   -0.059767   0.006127   0.000528  -0.001251   0.004231  -0.007943
     5  C   -0.078632   0.455714  -0.064949   0.007697   0.035555  -0.017278
     6  C    0.049294  -0.083619   0.366970  -0.013834  -0.002341  -0.002433
     7  C   -0.007019   0.001182  -0.009673   0.374705  -0.111869   0.013500
     8  C   -0.053251   0.055200  -0.031288  -0.021016   0.373788   0.021820
     9  C    0.075189  -0.026996  -0.007366   0.004716   0.098187   0.358845
    10  C    0.421758   0.018202   0.020876  -0.007210  -0.013547   0.005844
    11  C    0.075023  -0.011365  -0.006429   0.002944   0.005674   0.019904
    12  C   -0.081937  -0.006395   0.005631  -0.007786   0.007505  -0.058069
    13  C    0.079613  -0.007184  -0.028201   0.028663  -0.037200   0.007634
    14  C   -0.048941  -0.067677   0.097466  -0.031161  -0.033900  -0.062711
    15  H    0.000411  -0.000135   0.000015  -0.000125   0.000562  -0.001149
    16  H   -0.000617   0.000023  -0.000007   0.000007  -0.000128   0.000610
    17  H    0.001781  -0.000179   0.000010  -0.000007   0.000011  -0.000125
    18  H   -0.005277   0.001238  -0.000112   0.000009  -0.000091   0.000118
    19  H    0.443371  -0.007162   0.001083  -0.000454   0.000178   0.000619
    20  H   -0.007162   0.458967  -0.009124   0.001690   0.000199   0.000246
    21  H    0.001083  -0.009124   0.420516  -0.005713   0.001092  -0.000154
    22  H   -0.000454   0.001690  -0.005713   0.420943  -0.008361   0.000639
    23  H    0.000178   0.000199   0.001092  -0.008361   0.439387  -0.000656
    24  H    0.000619   0.000246  -0.000154   0.000639  -0.000656   0.493367
    25  H    0.000619   0.000246  -0.000154   0.000639  -0.000656  -0.079279
              25
     1  C    0.040639
     2  C    0.015679
     3  C   -0.000627
     4  C   -0.007943
     5  C   -0.017278
     6  C   -0.002433
     7  C    0.013500
     8  C    0.021820
     9  C    0.358845
    10  C    0.005844
    11  C    0.019904
    12  C   -0.058069
    13  C    0.007634
    14  C   -0.062711
    15  H   -0.001149
    16  H    0.000610
    17  H   -0.000125
    18  H    0.000118
    19  H    0.000619
    20  H    0.000246
    21  H   -0.000154
    22  H    0.000639
    23  H   -0.000656
    24  H   -0.079279
    25  H    0.493367
 Mulliken charges:
               1
     1  C    0.059513
     2  C   -0.432033
     3  C   -0.437818
     4  C   -0.056054
     5  C    0.064769
     6  C   -0.433067
     7  C   -0.381674
     8  C    0.134381
     9  C   -0.344657
    10  C    0.079941
    11  C   -0.647763
    12  C    0.802254
    13  C   -0.626178
    14  C    0.599102
    15  H    0.235898
    16  H    0.258974
    17  H    0.246848
    18  H    0.226189
    19  H    0.190154
    20  H    0.216860
    21  H    0.250173
    22  H    0.253731
    23  H    0.238539
    24  H    0.250959
    25  H    0.250959
 Sum of Mulliken charges =   1.00000
 Mulliken charges with hydrogens summed into heavy atoms:
               1
     1  C    0.295411
     2  C   -0.173059
     3  C   -0.190970
     4  C    0.170134
     5  C    0.281629
     6  C   -0.182894
     7  C   -0.127943
     8  C    0.372920
     9  C    0.157262
    10  C    0.270095
    11  C   -0.647763
    12  C    0.802254
    13  C   -0.626178
    14  C    0.599102
 Electronic spatial extent (au):  <R**2>=           2856.2497
 Charge=              1.0000 electrons
 Dipole moment (field-independent basis, Debye):
    X=              0.0067    Y=             -0.3643    Z=             -0.0000  Tot=              0.3644
 Quadrupole moment (field-independent basis, Debye-Ang):
   XX=            -51.2631   YY=            -36.1517   ZZ=            -84.1340
   XY=             10.0830   XZ=              0.0000   YZ=             -0.0000
 Traceless Quadrupole moment (field-independent basis, Debye-Ang):
   XX=              5.9198   YY=             21.0313   ZZ=            -26.9511
   XY=             10.0830   XZ=              0.0000   YZ=             -0.0000
 Octapole moment (field-independent basis, Debye-Ang**2):
  XXX=             -1.6803  YYY=              4.6640  ZZZ=             -0.0000  XYY=              1.2707
  XXY=             -5.5395  XXZ=             -0.0000  XZZ=             -3.1589  YZZ=              0.6245
  YYZ=             -0.0000  XYZ=              0.0000
 Hexadecapole moment (field-independent basis, Debye-Ang**3):
 XXXX=          -1007.2199 YYYY=          -1829.3140 ZZZZ=            -99.3183 XXXY=           -354.9653
 XXXZ=              0.0000 YYYX=           -280.3743 YYYZ=             -0.0000 ZZZX=              0.0000
 ZZZY=             -0.0000 XXYY=           -455.7659 XXZZ=           -244.7228 YYZZ=           -491.7653
 XXYZ=             -0.0000 YYXZ=              0.0000 ZZXY=           -185.1096
 N-N= 7.812519026164D+02 E-N=-2.798850240032D+03  KE= 5.375314049148D+02
 Symmetry A'   KE= 5.228786960002D+02
 Symmetry A"   KE= 1.465270891464D+01
 Unable to Open any file for archive entry.
 1\1\GINC-GADI-CPU-CLX-2461\SP\RM062X TD-FC\6-311++G(d,p)\C14H11(1+)\TS
 1578\27-Jul-2022\0\\#n M062X/6-311++G(d,p) TD(NStates=1) EmpiricalDisp
 ersion=GD3 SP\\SP_10\\1,1\C,0,0.,2.478255,1.361431\C,0,0.,3.670308,0.6
 59789\C,0,0.,3.669261,-0.73723\C,0,0.,2.493156,-1.421738\C,0,0.,-2.433
 156,-1.393338\C,0,0.,-3.698461,-0.69043\C,0,0.,-3.732708,0.684189\C,0,
 0.,-2.507055,1.359431\C,0,0.,-0.0192,1.453369\C,0,0.,0.0246,-1.429189\
 C,0,0.,1.279655,0.677465\C,0,0.,1.259071,-0.714204\C,0,0.,-1.244455,0.
 676665\C,0,0.,-1.215871,-0.747404\H,0,0.,2.450071,2.443647\H,0,0.,4.59
 5553,1.216889\H,0,0.,4.593862,-1.295149\H,0,0.,2.51515,-2.503259\H,0,0
 .,0.05,-2.510266\H,0,0.,-2.41995,-2.476859\H,0,0.,-4.624662,-1.249549\
 H,0,0.,-4.677953,1.206489\H,0,0.,-2.526071,2.443647\H,0,-0.859585,-0.0
 876,2.145787\H,0,0.859585,-0.0876,2.145787\\Version=ES64L-G16RevC.01\S
 tate=1-A'\HF=-539.7511205\RMSD=3.230e-09\PG=CS [SG(C14H9),X(H2)]\\@
 The archive entry for this job was punched.


 IN THE WOODS WE RETURN TO REASON AND FAITH.

                                 -- EMERSON
 Job cpu time:       0 days  0 hours 45 minutes 31.9 seconds.
 Elapsed time:       0 days  0 hours  1 minutes 25.6 seconds.
 File lengths (MBytes):  RWF=    460 Int=      0 D2E=      0 Chk=     15 Scr=      1
 Normal termination of Gaussian 16 at Wed Jul 27 13:53:34 2022.
