 Entering Gaussian System, Link 0=g16
 Initial command:
 /apps/gaussian/g16c01/g16/l1.exe "/jobfs/53002009.gadi-pbs/Gau-764414.inp" -scrdir="/jobfs/53002009.gadi-pbs/"
 Entering Link 1 = /apps/gaussian/g16c01/g16/l1.exe PID=    764415.
  
 Copyright (c) 1988-2019, Gaussian, Inc.  All Rights Reserved.
  
 This is part of the Gaussian(R) 16 program.  It is based on
 the Gaussian(R) 09 system (copyright 2009, Gaussian, Inc.),
 the Gaussian(R) 03 system (copyright 2003, Gaussian, Inc.),
 the Gaussian(R) 98 system (copyright 1998, Gaussian, Inc.),
 the Gaussian(R) 94 system (copyright 1995, Gaussian, Inc.),
 the Gaussian 92(TM) system (copyright 1992, Gaussian, Inc.),
 the Gaussian 90(TM) system (copyright 1990, Gaussian, Inc.),
 the Gaussian 88(TM) system (copyright 1988, Gaussian, Inc.),
 the Gaussian 86(TM) system (copyright 1986, Carnegie Mellon
 University), and the Gaussian 82(TM) system (copyright 1983,
 Carnegie Mellon University). Gaussian is a federally registered
 trademark of Gaussian, Inc.
  
 This software contains proprietary and confidential information,
 including trade secrets, belonging to Gaussian, Inc.
  
 This software is provided under written license and may be
 used, copied, transmitted, or stored only in accord with that
 written license.
  
 The following legend is applicable only to US Government
 contracts under FAR:
  
                    RESTRICTED RIGHTS LEGEND
  
 Use, reproduction and disclosure by the US Government is
 subject to restrictions as set forth in subparagraphs (a)
 and (c) of the Commercial Computer Software - Restricted
 Rights clause in FAR 52.227-19.
  
 Gaussian, Inc.
 340 Quinnipiac St., Bldg. 40, Wallingford CT 06492
  
  
 ---------------------------------------------------------------
 Warning -- This program may not be used in any manner that
 competes with the business of Gaussian, Inc. or will provide
 assistance to any competitor of Gaussian, Inc.  The licensee
 of this program is prohibited from giving any competitor of
 Gaussian, Inc. access to this program.  By using this program,
 the user acknowledges that Gaussian, Inc. is engaged in the
 business of creating and licensing software in the field of
 computational chemistry and represents and warrants to the
 licensee that it is not a competitor of Gaussian, Inc. and that
 it will not use this program in any manner prohibited above.
 ---------------------------------------------------------------
  

 Cite this work as:
 Gaussian 16, Revision C.01,
 M. J. Frisch, G. W. Trucks, H. B. Schlegel, G. E. Scuseria, 
 M. A. Robb, J. R. Cheeseman, G. Scalmani, V. Barone, 
 G. A. Petersson, H. Nakatsuji, X. Li, M. Caricato, A. V. Marenich, 
 J. Bloino, B. G. Janesko, R. Gomperts, B. Mennucci, H. P. Hratchian, 
 J. V. Ortiz, A. F. Izmaylov, J. L. Sonnenberg, D. Williams-Young, 
 F. Ding, F. Lipparini, F. Egidi, J. Goings, B. Peng, A. Petrone, 
 T. Henderson, D. Ranasinghe, V. G. Zakrzewski, J. Gao, N. Rega, 
 G. Zheng, W. Liang, M. Hada, M. Ehara, K. Toyota, R. Fukuda, 
 J. Hasegawa, M. Ishida, T. Nakajima, Y. Honda, O. Kitao, H. Nakai, 
 T. Vreven, K. Throssell, J. A. Montgomery, Jr., J. E. Peralta, 
 F. Ogliaro, M. J. Bearpark, J. J. Heyd, E. N. Brothers, K. N. Kudin, 
 V. N. Staroverov, T. A. Keith, R. Kobayashi, J. Normand, 
 K. Raghavachari, A. P. Rendell, J. C. Burant, S. S. Iyengar, 
 J. Tomasi, M. Cossi, J. M. Millam, M. Klene, C. Adamo, R. Cammi, 
 J. W. Ochterski, R. L. Martin, K. Morokuma, O. Farkas, 
 J. B. Foresman, and D. J. Fox, Gaussian, Inc., Wallingford CT, 2019.
 
 ******************************************
 Gaussian 16:  ES64L-G16RevC.01  3-Jul-2019
                28-Jul-2022 
 ******************************************
 %NProcShared=48
 Will use up to   48 processors via shared memory.
 %mem = 190GB
 ---------------------------------------------------------------
 #n M062X/6-311++G(d,p) TD(NStates=1) EmpiricalDispersion=GD3 SP
 ---------------------------------------------------------------
 1/38=1,172=1/1;
 2/12=2,17=6,18=5,40=1/2;
 3/5=4,6=6,7=1111,11=9,25=1,30=1,74=-55,124=31/1,2,3,8;
 4//1;
 5/5=2,38=5/2;
 8/6=1,10=2,108=1/1;
 9/41=1,42=1,70=2/14;
 6/7=2,8=2,9=2,10=2/1;
 99/5=1,9=1/99;
 ----
 SP_0
 ----
 Symbolic Z-matrix:
 Charge =  1 Multiplicity = 1
 C                     0.0195    2.49116   1.36043 
 C                     0.02175   3.70988   0.67199 
 C                     0.0065    3.69811  -0.71383 
 C                    -0.01937   2.47428  -1.40754 
 C                    -0.01962  -2.47478  -1.40754 
 C                     0.005    -3.70061  -0.71383 
 C                     0.01937  -3.71076   0.67199 
 C                     0.01475  -2.49266   1.36043 
 C                     0.01088   0.0055    1.45337 
 C                    -0.0305   -0.00025  -1.42919 
 C                    -0.00438   1.25256   0.67707 
 C                    -0.013     1.23935  -0.7308 
 C                    -0.00475  -1.25243   0.67707 
 C                    -0.012    -1.2386   -0.7308 
 H                     0.008     2.4867    2.44365 
 H                     0.02225   4.643     1.21169 
 H                    -0.00325   4.60714  -1.27235 
 H                    -0.0095    2.47843  -2.49006 
 H                    -0.02813  -0.00013  -2.51027 
 H                    -0.00875  -2.4788   -2.49006 
 H                    -0.004    -4.61026  -1.27235 
 H                     0.01938  -4.64488   1.21169 
 H                     0.0025   -2.48832   2.44365 
 H                    -0.81959   0.00125   2.14441 
 H                     0.89959   0.00125   2.14716 
 
                          Input orientation:                          
 ---------------------------------------------------------------------
 Center     Atomic      Atomic             Coordinates (Angstroms)
 Number     Number       Type             X           Y           Z
 ---------------------------------------------------------------------
      1          6           0        0.019500    2.491155    1.360431
      2          6           0        0.021750    3.709883    0.671989
      3          6           0        0.006500    3.698111   -0.713830
      4          6           0       -0.019375    2.474281   -1.407538
      5          6           0       -0.019625   -2.474781   -1.407538
      6          6           0        0.005000   -3.700611   -0.713830
      7          6           0        0.019375   -3.710758    0.671989
      8          6           0        0.014750   -2.492655    1.360431
      9          6           0        0.010875    0.005500    1.453369
     10          6           0       -0.030500   -0.000250   -1.429189
     11          6           0       -0.004375    1.252555    0.677065
     12          6           0       -0.013000    1.239346   -0.730804
     13          6           0       -0.004750   -1.252430    0.677065
     14          6           0       -0.012000   -1.238596   -0.730804
     15          1           0        0.008000    2.486696    2.443647
     16          1           0        0.022250    4.643003    1.211689
     17          1           0       -0.003250    4.607137   -1.272349
     18          1           0       -0.009500    2.478425   -2.490059
     19          1           0       -0.028125   -0.000125   -2.510266
     20          1           0       -0.008750   -2.478800   -2.490059
     21          1           0       -0.004000   -4.610262   -1.272349
     22          1           0        0.019375   -4.644878    1.211689
     23          1           0        0.002500   -2.488321    2.443647
     24          1           0       -0.819585    0.001250    2.144412
     25          1           0        0.899585    0.001250    2.147162
 ---------------------------------------------------------------------
                    Distance matrix (angstroms):
                    1          2          3          4          5
     1  C    0.000000
     2  C    1.399734   0.000000
     3  C    2.399890   1.385953   0.000000
     4  C    2.768293   2.419264   1.407004   0.000000
     5  C    5.685394   6.525045   6.211804   4.949062   0.000000
     6  C    6.529987   7.538978   7.398722   6.213784   1.408722
     7  C    6.240006   7.420641   7.537374   6.525384   2.419420
     8  C    4.983812   6.240631   6.529028   5.686235   2.768240
     9  C    2.487407   3.785912   4.281606   3.778966   3.786491
    10  C    3.740532   4.264125   3.767092   2.474651   2.474650
    11  C    1.414811   2.457472   2.813441   2.416280   4.270695
    12  C    2.437488   2.841230   2.458901   1.408217   3.775282
    13  C    3.805523   4.962386   5.142234   4.270147   2.416595
    14  C    4.276131   5.143580   4.936771   3.774053   1.409319
    15  H    1.083286   2.152939   3.381891   3.851302   6.280815
    16  H    2.156984   1.077956   2.144922   3.400800   7.584521
    17  H    3.377784   2.141527   1.066943   2.137197   7.083227
    18  H    3.850620   3.393525   2.154734   1.082574   5.070129
    19  H    4.603373   4.888087   4.111609   2.709017   2.709244
    20  H    6.287092   6.949768   6.427243   5.070007   1.082583
    21  H    7.573784   8.544351   8.327131   7.085849   2.139813
    22  H    7.137583   8.372175   8.562316   7.585794   3.401645
    23  H    5.095962   6.446462   6.945619   6.281682   3.851272
    24  H    2.741955   4.077969   4.745392   4.401428   4.403069
    25  H    2.755562   4.086648   4.759166   4.426767   4.428495
                    6          7          8          9         10
     6  C    0.000000
     7  C    1.385931   0.000000
     8  C    2.400377   1.399196   0.000000
     9  C    4.293256   3.797526   2.499886   0.000000
    10  C    3.769041   4.264423   3.741138   2.882861   0.000000
    11  C    5.144758   4.963372   3.807092   1.469022   2.450818
    12  C    4.940019   5.145134   4.278068   2.508696   1.422901
    13  C    2.815719   2.458452   1.416166   1.478269   2.450495
    14  C    2.462132   2.842604   2.438574   2.513744   1.421824
    15  H    6.946397   6.445722   5.095816   2.671515   4.602743
    16  H    8.562933   8.371177   7.137212   4.643810   5.341986
    17  H    8.326505   8.542151   7.572245   5.348346   4.610136
    18  H    6.429283   6.950206   6.287965   4.654718   2.696241
    19  H    4.113621   4.888538   4.604003   3.963831   1.081080
    20  H    2.155922   3.393679   3.850587   4.660768   2.696132
    21  H    1.067469   2.142453   3.378778   5.360505   4.612755
    22  H    2.144638   1.078822   2.157362   4.656662   5.343154
    23  H    3.382206   2.152535   1.083294   2.683256   4.603308
    24  H    4.749028   4.080550   2.744140   1.080381   3.659683
    25  H    4.763332   4.090221   2.760696   1.127463   3.695314
                   11         12         13         14         15
    11  C    0.000000
    12  C    1.407957   0.000000
    13  C    2.504985   2.862012   0.000000
    14  C    2.861466   2.477942   1.407956   0.000000
    15  H    2.155010   3.410786   4.135461   4.894419   0.000000
    16  H    3.432444   3.919107   5.919686   6.194163   2.483462
    17  H    3.879876   3.411068   6.175333   5.870770   4.278437
    18  H    3.396095   2.151815   4.893871   4.112327   4.933744
    19  H    3.424741   2.168641   3.424601   2.168076   5.543179
    20  H    4.894252   4.113345   3.396274   2.152462   6.999849
    21  H    6.178417   5.874629   3.882686   3.414889   8.010966
    22  H    5.921664   6.196646   3.434401   3.921354   7.237209
    23  H    4.137029   4.896211   2.155990   3.411622   4.975020
    24  H    2.093666   3.232697   2.094941   3.233617   2.636642
    25  H    2.131688   3.263186   2.133242   3.263571   2.657117
                   16         17         18         19         20
    16  H    0.000000
    17  H    2.484428   0.000000
    18  H    4.288280   2.452401   0.000000
    19  H    5.950977   4.770736   2.478702   0.000000
    20  H    8.026455   7.189809   4.957225   2.478833   0.000000
    21  H    9.580921   9.217399   7.192519   4.773509   2.454785
    22  H    9.287881   9.579704   8.027778   5.952221   4.289012
    23  H    7.236981   8.009631   7.000726   5.543763   4.933728
    24  H    4.808797   5.792655   5.317044   4.721487   5.318498
    25  H    4.815672   5.807096   5.335415   4.748924   5.336622
                   21         22         23         24         25
    21  H    0.000000
    22  H    2.484389   0.000000
    23  H    4.279171   2.483696   0.000000
    24  H    5.797023   4.812518   2.638812   0.000000
    25  H    5.811675   4.820413   2.662823   1.719172   0.000000
 Stoichiometry    C14H11(1+)
 Framework group  C1[X(C14H11)]
 Deg. of freedom    69
 Full point group                 C1      NOp   1
 Largest Abelian subgroup         C1      NOp   1
 Largest concise Abelian subgroup C1      NOp   1
                         Standard orientation:                         
 ---------------------------------------------------------------------
 Center     Atomic      Atomic             Coordinates (Angstroms)
 Number     Number       Type             X           Y           Z
 ---------------------------------------------------------------------
      1          6           0       -2.491306   -1.360286    0.003324
      2          6           0       -3.709962   -0.671778    0.012795
      3          6           0       -3.698038    0.714124    0.012812
      4          6           0       -2.474127    1.407941   -0.005060
      5          6           0        2.474934    1.407404   -0.003845
      6          6           0        3.700684    0.713333    0.013501
      7          6           0        3.710680   -0.672561    0.012616
      8          6           0        2.492505   -1.360778    0.000049
      9          6           0       -0.005658   -1.453395   -0.005589
     10          6           0        0.000409    1.429443   -0.015213
     11          6           0       -1.252626   -0.676834   -0.012657
     12          6           0       -1.239266    0.731043   -0.005773
     13          6           0        1.252359   -0.677103   -0.012291
     14          6           0        1.238676    0.730762   -0.004039
     15          1           0       -2.486958   -2.443311   -0.020104
     16          1           0       -4.643139   -1.211349    0.007075
     17          1           0       -4.607002    1.272815    0.008945
     18          1           0       -2.478160    2.490288    0.016736
     19          1           0        0.000398    2.510428   -0.000932
     20          1           0        2.479065    2.489739    0.018952
     21          1           0        4.610396    1.271818    0.010922
     22          1           0        4.644743   -1.212331    0.006948
     23          1           0        2.488060   -2.443793   -0.024132
     24          1           0       -0.001235   -2.135250   -0.843608
     25          1           0       -0.001746   -2.156934    0.875427
 ---------------------------------------------------------------------
 Rotational constants (GHZ):           2.1357829           0.4425508           0.3673940
 Standard basis: 6-311++G(d,p) (5D, 7F)
 There are   399 symmetry adapted cartesian basis functions of A   symmetry.
 There are   385 symmetry adapted basis functions of A   symmetry.
   385 basis functions,   603 primitive gaussians,   399 cartesian basis functions
    47 alpha electrons       47 beta electrons
       nuclear repulsion energy       780.0223902948 Hartrees.
 NAtoms=   25 NActive=   25 NUniq=   25 SFac= 1.00D+00 NAtFMM=   60 NAOKFM=F Big=F
 Integral buffers will be    131072 words long.
 Regular integral format.
 Two-electron integral symmetry is turned on.
 Nuclear repulsion after empirical dispersion term =      780.0214103823 Hartrees.
 One-electron integrals computed using PRISM.
 NBasis=   385 RedAO= T EigKep=  1.24D-06  NBF=   385
 NBsUse=   379 1.00D-06 EigRej=  8.76D-07 NBFU=   379
 ExpMin= 3.60D-02 ExpMax= 4.56D+03 ExpMxC= 6.82D+02 IAcc=3 IRadAn=         5 AccDes= 0.00D+00
 Harris functional with IExCor= 1009 and IRadAn=       5 diagonalized for initial guess.
 HarFok:  IExCor= 1009 AccDes= 0.00D+00 IRadAn=         5 IDoV= 1 UseB2=F ITyADJ=14
 ICtDFT=  3500011 ScaDFX=  1.000000  1.000000  1.000000  1.000000
 FoFCou: FMM=F IPFlag=           0 FMFlag=      100000 FMFlg1=           0
         NFxFlg=           0 DoJE=T BraDBF=F KetDBF=T FulRan=T
         wScrn=  0.000000 ICntrl=       500 IOpCl=  0 I1Cent=   200000004 NGrid=           0
         NMat0=    1 NMatS0=      1 NMatT0=    0 NMatD0=    1 NMtDS0=    0 NMtDT0=    0
 Petite list used in FoFCou.
 Requested convergence on RMS density matrix=1.00D-08 within 128 cycles.
 Requested convergence on MAX density matrix=1.00D-06.
 Requested convergence on             energy=1.00D-06.
 No special actions if energy rises.
 SCF Done:  E(RM062X) =  -539.757910199     A.U. after   15 cycles
            NFock= 15  Conv=0.46D-08     -V/T= 2.0043
 DoSCS=F DFT=T ScalE2(SS,OS)=  1.000000  1.000000
 ExpMin= 3.60D-02 ExpMax= 4.56D+03 ExpMxC= 6.82D+02 IAcc=3 IRadAn=         5 AccDes= 0.00D+00
 HarFok:  IExCor=  205 AccDes= 0.00D+00 IRadAn=         5 IDoV=-2 UseB2=F ITyADJ=14
 ICtDFT= 12500011 ScaDFX=  1.000000  1.000000  1.000000  1.000000
 Range of M.O.s used for correlation:    15   379
 NBasis=   385 NAE=    47 NBE=    47 NFC=    14 NFV=     0
 NROrb=    365 NOA=    33 NOB=    33 NVA=   332 NVB=   332

 **** Warning!!: The largest alpha MO coefficient is  0.14970949D+03

 Orbital symmetries:
       Occupied  (A) (A) (A) (A) (A) (A) (A) (A) (A) (A) (A) (A)
                 (A) (A) (A) (A) (A) (A) (A) (A) (A) (A) (A) (A)
                 (A) (A) (A) (A) (A) (A) (A) (A) (A) (A) (A) (A)
                 (A) (A) (A) (A) (A) (A) (A) (A) (A) (A) (A)
       Virtual   (A) (A) (A) (A) (A) (A) (A) (A) (A) (A) (A) (A)
                 (A) (A) (A) (A) (A) (A) (A) (A) (A) (A) (A) (A)
                 (A) (A) (A) (A) (A) (A) (A) (A) (A) (A) (A) (A)
                 (A) (A) (A) (A) (A) (A) (A) (A) (A) (A) (A) (A)
                 (A) (A) (A) (A) (A) (A) (A) (A) (A) (A) (A) (A)
                 (A) (A) (A) (A) (A) (A) (A) (A) (A) (A) (A) (A)
                 (A) (A) (A) (A) (A) (A) (A) (A) (A) (A) (A) (A)
                 (A) (A) (A) (A) (A) (A) (A) (A) (A) (A) (A) (A)
                 (A) (A) (A) (A) (A) (A) (A) (A) (A) (A) (A) (A)
                 (A) (A) (A) (A) (A) (A) (A) (A) (A) (A) (A) (A)
                 (A) (A) (A) (A) (A) (A) (A) (A) (A) (A) (A) (A)
                 (A) (A) (A) (A) (A) (A) (A) (A) (A) (A) (A) (A)
                 (A) (A) (A) (A) (A) (A) (A) (A) (A) (A) (A) (A)
                 (A) (A) (A) (A) (A) (A) (A) (A) (A) (A) (A) (A)
                 (A) (A) (A) (A) (A) (A) (A) (A) (A) (A) (A) (A)
                 (A) (A) (A) (A) (A) (A) (A) (A) (A) (A) (A) (A)
                 (A) (A) (A) (A) (A) (A) (A) (A) (A) (A) (A) (A)
                 (A) (A) (A) (A) (A) (A) (A) (A) (A) (A) (A) (A)
                 (A) (A) (A) (A) (A) (A) (A) (A) (A) (A) (A) (A)
                 (A) (A) (A) (A) (A) (A) (A) (A) (A) (A) (A) (A)
                 (A) (A) (A) (A) (A) (A) (A) (A) (A) (A) (A) (A)
                 (A) (A) (A) (A) (A) (A) (A) (A) (A) (A) (A) (A)
                 (A) (A) (A) (A) (A) (A) (A) (A) (A) (A) (A) (A)
                 (A) (A) (A) (A) (A) (A) (A) (A) (A) (A) (A) (A)
                 (A) (A) (A) (A) (A) (A) (A) (A) (A) (A) (A) (A)
                 (A) (A) (A) (A) (A) (A) (A) (A) (A) (A) (A) (A)
                 (A) (A) (A) (A) (A) (A) (A) (A) (A) (A) (A) (A)
                 (A) (A) (A) (A) (A) (A) (A) (A)
     4 initial guesses have been made.
 Convergence on wavefunction:    0.001000000000000
 Iteration     1 Dimension     4 NMult     0 NNew      4
 CISAX will form     4 AO SS matrices at one time.
 Iteration     2 Dimension     6 NMult     4 NNew      2
 Iteration     3 Dimension     8 NMult     6 NNew      2
 Iteration     4 Dimension    10 NMult     8 NNew      2
 Iteration     5 Dimension    12 NMult    10 NNew      2
 Iteration     6 Dimension    14 NMult    12 NNew      2
 ***********************************************************************
 Excited states from <AA,BB:AA,BB> singles matrix:
 ***********************************************************************
 
 Ground to excited state transition densities written to RWF  633
 Ground to excited state transition electric dipole moments (Au):
       state          X           Y           Z        Dip. S.      Osc.
         1        -0.0074     -0.6357      0.0050      0.4042      0.0277
 Ground to excited state transition velocity dipole moments (Au):
       state          X           Y           Z        Dip. S.      Osc.
         1         0.0008      0.0731     -0.0006      0.0053      0.0346
 Ground to excited state transition magnetic dipole moments (Au):
       state          X           Y           Z
         1        -0.0065     -0.0005      0.0001
 Ground to excited state transition velocity quadrupole moments (Au):
       state          XX          YY          ZZ          XY          XZ          YZ
         1         0.3106      0.0317     -0.0095      0.0010      0.0001      0.0011
 <0|del|b> * <b|rxdel|0> + <0|del|b> * <b|delr+rdel|0>
 Rotatory Strengths (R) in cgs (10**-40 erg-esu-cm/Gauss)
       state          XX          YY          ZZ    R(velocity)    E-M Angle
         1        -0.1420     -0.0124     -0.1294     -0.0946       90.00
 1/2[<0|r|b>*<b|rxdel|0> + (<0|rxdel|b>*<b|r|0>)*]
 Rotatory Strengths (R) in cgs (10**-40 erg-esu-cm/Gauss)
       state          XX          YY          ZZ     R(length)
         1        -0.0339     -0.2226     -0.0003     -0.0856
  1/2[<0|del|b>*<b|r|0> + (<0|r|b>*<b|del|0>)*] (Au)
       state          X           Y           Z        Dip. S.   Osc.(frdel)
         1        -0.0000     -0.0465     -0.0000      0.0465      0.0310

 Excitation energies and oscillator strengths:
 
 Excited State   1:      Singlet-A      2.8001 eV  442.79 nm  f=0.0277  <S**2>=0.000
      47 -> 48         0.70427
 This state for optimization and/or second-order correction.
 Total Energy, E(TD-HF/TD-DFT) =  -539.655009018    
 Copying the excited state density for this state as the 1-particle RhoCI density.
 SavETr:  write IOETrn=   770 NScale= 10 NData=  16 NLR=1 NState=    1 LETran=      28.

 **********************************************************************

            Population analysis using the SCF Density.

 **********************************************************************

 Orbital symmetries:
       Occupied  (A) (A) (A) (A) (A) (A) (A) (A) (A) (A) (A) (A)
                 (A) (A) (A) (A) (A) (A) (A) (A) (A) (A) (A) (A)
                 (A) (A) (A) (A) (A) (A) (A) (A) (A) (A) (A) (A)
                 (A) (A) (A) (A) (A) (A) (A) (A) (A) (A) (A)
       Virtual   (A) (A) (A) (A) (A) (A) (A) (A) (A) (A) (A) (A)
                 (A) (A) (A) (A) (A) (A) (A) (A) (A) (A) (A) (A)
                 (A) (A) (A) (A) (A) (A) (A) (A) (A) (A) (A) (A)
                 (A) (A) (A) (A) (A) (A) (A) (A) (A) (A) (A) (A)
                 (A) (A) (A) (A) (A) (A) (A) (A) (A) (A) (A) (A)
                 (A) (A) (A) (A) (A) (A) (A) (A) (A) (A) (A) (A)
                 (A) (A) (A) (A) (A) (A) (A) (A) (A) (A) (A) (A)
                 (A) (A) (A) (A) (A) (A) (A) (A) (A) (A) (A) (A)
                 (A) (A) (A) (A) (A) (A) (A) (A) (A) (A) (A) (A)
                 (A) (A) (A) (A) (A) (A) (A) (A) (A) (A) (A) (A)
                 (A) (A) (A) (A) (A) (A) (A) (A) (A) (A) (A) (A)
                 (A) (A) (A) (A) (A) (A) (A) (A) (A) (A) (A) (A)
                 (A) (A) (A) (A) (A) (A) (A) (A) (A) (A) (A) (A)
                 (A) (A) (A) (A) (A) (A) (A) (A) (A) (A) (A) (A)
                 (A) (A) (A) (A) (A) (A) (A) (A) (A) (A) (A) (A)
                 (A) (A) (A) (A) (A) (A) (A) (A) (A) (A) (A) (A)
                 (A) (A) (A) (A) (A) (A) (A) (A) (A) (A) (A) (A)
                 (A) (A) (A) (A) (A) (A) (A) (A) (A) (A) (A) (A)
                 (A) (A) (A) (A) (A) (A) (A) (A) (A) (A) (A) (A)
                 (A) (A) (A) (A) (A) (A) (A) (A) (A) (A) (A) (A)
                 (A) (A) (A) (A) (A) (A) (A) (A) (A) (A) (A) (A)
                 (A) (A) (A) (A) (A) (A) (A) (A) (A) (A) (A) (A)
                 (A) (A) (A) (A) (A) (A) (A) (A) (A) (A) (A) (A)
                 (A) (A) (A) (A) (A) (A) (A) (A) (A) (A) (A) (A)
                 (A) (A) (A) (A) (A) (A) (A) (A) (A) (A) (A) (A)
                 (A) (A) (A) (A) (A) (A) (A) (A) (A) (A) (A) (A)
                 (A) (A) (A) (A) (A) (A) (A) (A) (A) (A) (A) (A)
                 (A) (A) (A) (A) (A) (A) (A) (A)
 The electronic state is 1-A.
 Alpha  occ. eigenvalues --  -10.77657 -10.73317 -10.73248 -10.72544 -10.72540
 Alpha  occ. eigenvalues --  -10.71519 -10.71482 -10.71090 -10.71077 -10.70981
 Alpha  occ. eigenvalues --  -10.70127 -10.70101 -10.69607 -10.69573  -1.16363
 Alpha  occ. eigenvalues --   -1.12200  -1.06811  -1.05813  -1.01077  -1.00195
 Alpha  occ. eigenvalues --   -0.95686  -0.91079  -0.86408  -0.85857  -0.83804
 Alpha  occ. eigenvalues --   -0.78390  -0.76004  -0.74365  -0.69585  -0.69328
 Alpha  occ. eigenvalues --   -0.68630  -0.68255  -0.68124  -0.64545  -0.64118
 Alpha  occ. eigenvalues --   -0.63189  -0.62032  -0.59897  -0.59482  -0.59156
 Alpha  occ. eigenvalues --   -0.56933  -0.55277  -0.54909  -0.52336  -0.46465
 Alpha  occ. eigenvalues --   -0.46037  -0.44381
 Alpha virt. eigenvalues --   -0.26068  -0.14822  -0.14134  -0.12936  -0.11177
 Alpha virt. eigenvalues --   -0.10080  -0.09211  -0.08013  -0.07920  -0.07467
 Alpha virt. eigenvalues --   -0.07223  -0.07145  -0.05647  -0.05582  -0.05359
 Alpha virt. eigenvalues --   -0.03786  -0.03650  -0.03284  -0.03133  -0.02155
 Alpha virt. eigenvalues --   -0.01358  -0.00909   0.00191   0.00650   0.00714
 Alpha virt. eigenvalues --    0.01040   0.01512   0.01886   0.02200   0.02296
 Alpha virt. eigenvalues --    0.02421   0.02601   0.02736   0.03266   0.03397
 Alpha virt. eigenvalues --    0.04252   0.04499   0.04685   0.04961   0.05355
 Alpha virt. eigenvalues --    0.06009   0.06285   0.06600   0.07033   0.07212
 Alpha virt. eigenvalues --    0.07856   0.08040   0.08349   0.08482   0.08936
 Alpha virt. eigenvalues --    0.09562   0.09580   0.10025   0.10774   0.11010
 Alpha virt. eigenvalues --    0.11123   0.12229   0.12280   0.12875   0.13042
 Alpha virt. eigenvalues --    0.13405   0.13532   0.14031   0.14243   0.15991
 Alpha virt. eigenvalues --    0.16370   0.16608   0.17397   0.17490   0.17671
 Alpha virt. eigenvalues --    0.18087   0.18918   0.19165   0.19584   0.19716
 Alpha virt. eigenvalues --    0.21446   0.21485   0.22683   0.23131   0.23464
 Alpha virt. eigenvalues --    0.23574   0.24545   0.24883   0.26831   0.27470
 Alpha virt. eigenvalues --    0.28829   0.29277   0.29814   0.31199   0.35797
 Alpha virt. eigenvalues --    0.36217   0.37953   0.39141   0.41159   0.41485
 Alpha virt. eigenvalues --    0.41934   0.42365   0.43034   0.43551   0.44240
 Alpha virt. eigenvalues --    0.44720   0.44785   0.45378   0.46056   0.47910
 Alpha virt. eigenvalues --    0.48609   0.48913   0.49064   0.50463   0.51174
 Alpha virt. eigenvalues --    0.51382   0.51400   0.52129   0.52535   0.54004
 Alpha virt. eigenvalues --    0.54119   0.54492   0.55761   0.55762   0.57410
 Alpha virt. eigenvalues --    0.58181   0.58765   0.61376   0.62058   0.62309
 Alpha virt. eigenvalues --    0.62952   0.63618   0.64448   0.65133   0.67036
 Alpha virt. eigenvalues --    0.70438   0.70592   0.70953   0.72161   0.72739
 Alpha virt. eigenvalues --    0.75521   0.75691   0.76158   0.76586   0.76940
 Alpha virt. eigenvalues --    0.77472   0.77688   0.78115   0.80403   0.80492
 Alpha virt. eigenvalues --    0.81162   0.81534   0.82045   0.82842   0.84844
 Alpha virt. eigenvalues --    0.86805   0.87299   0.88022   0.89564   0.90462
 Alpha virt. eigenvalues --    0.90737   0.91443   0.93072   0.94710   0.96372
 Alpha virt. eigenvalues --    0.96704   1.00463   1.01273   1.01547   1.02637
 Alpha virt. eigenvalues --    1.02991   1.03909   1.04452   1.05911   1.08799
 Alpha virt. eigenvalues --    1.19803   1.23338   1.24083   1.25382   1.27966
 Alpha virt. eigenvalues --    1.29245   1.32091   1.33709   1.35402   1.35915
 Alpha virt. eigenvalues --    1.39057   1.40202   1.40523   1.42811   1.43124
 Alpha virt. eigenvalues --    1.43358   1.44982   1.45073   1.46502   1.46779
 Alpha virt. eigenvalues --    1.47562   1.47585   1.51587   1.53594   1.55536
 Alpha virt. eigenvalues --    1.55973   1.56122   1.56354   1.57603   1.61235
 Alpha virt. eigenvalues --    1.63455   1.63986   1.64076   1.65968   1.67989
 Alpha virt. eigenvalues --    1.68491   1.68602   1.69684   1.73973   1.75914
 Alpha virt. eigenvalues --    1.77021   1.77865   1.79557   1.79935   1.80175
 Alpha virt. eigenvalues --    1.83070   1.83154   1.83363   1.83549   1.84022
 Alpha virt. eigenvalues --    1.84323   1.85787   1.85794   1.88096   1.91500
 Alpha virt. eigenvalues --    1.91731   1.94125   1.95254   1.97417   1.97675
 Alpha virt. eigenvalues --    1.99299   2.02375   2.04049   2.07545   2.11608
 Alpha virt. eigenvalues --    2.11892   2.13617   2.15100   2.18514   2.20941
 Alpha virt. eigenvalues --    2.22180   2.28381   2.29634   2.34372   2.35340
 Alpha virt. eigenvalues --    2.35983   2.39139   2.40295   2.41748   2.42422
 Alpha virt. eigenvalues --    2.46007   2.48532   2.48661   2.52614   2.53738
 Alpha virt. eigenvalues --    2.54117   2.56864   2.57770   2.58300   2.59634
 Alpha virt. eigenvalues --    2.59661   2.61601   2.61731   2.63257   2.63788
 Alpha virt. eigenvalues --    2.64342   2.64541   2.64937   2.65244   2.67780
 Alpha virt. eigenvalues --    2.68828   2.70857   2.71337   2.73367   2.74808
 Alpha virt. eigenvalues --    2.76245   2.78295   2.79542   2.82348   2.82880
 Alpha virt. eigenvalues --    2.84304   2.86280   2.92038   2.96545   2.99342
 Alpha virt. eigenvalues --    2.99666   3.05673   3.10163   3.10647   3.11773
 Alpha virt. eigenvalues --    3.20881   3.23605   3.25977   3.27721   3.30263
 Alpha virt. eigenvalues --    3.31552   3.32900   3.43319   3.44946   3.45688
 Alpha virt. eigenvalues --    3.47507   3.49378   3.56211   3.65169   3.67187
 Alpha virt. eigenvalues --    3.67822   3.94408   3.95520   3.95789   3.96923
 Alpha virt. eigenvalues --    4.04526   4.06899   4.07142   4.12446   4.35645
 Alpha virt. eigenvalues --    4.61514   4.68932   4.70641  23.45583  23.61434
 Alpha virt. eigenvalues --   23.81562  23.85979  23.87271  23.89070  23.90450
 Alpha virt. eigenvalues --   23.92240  23.96754  23.97575  23.97829  23.99184
 Alpha virt. eigenvalues --   24.09383  24.09582
          Condensed to atoms (all electrons):
               1          2          3          4          5          6
     1  C    8.381988   0.475485  -0.569567   1.713771   0.007926  -0.087525
     2  C    0.475485   6.964237   0.362799  -0.895439  -0.034954  -0.014113
     3  C   -0.569567   0.362799   6.572175   0.641781  -0.115380   0.016348
     4  C    1.713771  -0.895439   0.641781  10.505947  -0.140070  -0.114413
     5  C    0.007926  -0.034954  -0.115380  -0.140070  10.488401   0.625505
     6  C   -0.087525  -0.014113   0.016348  -0.114413   0.625505   6.568612
     7  C   -0.029465   0.005330  -0.014248  -0.035806  -0.875888   0.358816
     8  C    0.387364  -0.027816  -0.087658   0.001467   1.727858  -0.578363
     9  C   -1.311620  -0.687333   0.283798  -0.354058  -0.353007   0.285813
    10  C   -1.148642   0.195432  -0.340742  -2.397627  -2.394347  -0.334937
    11  C    0.230544  -0.945485   1.075325  -0.555348  -1.574526  -0.144115
    12  C   -1.588535   1.134104  -1.340643  -0.973091  -0.191378  -0.209917
    13  C    0.105841  -0.209008  -0.148114  -1.583252  -0.572230   1.080232
    14  C   -1.034595  -0.206383  -0.210270  -0.196624  -0.980811  -1.326427
    15  H    0.360051  -0.102785  -0.000398   0.025506   0.005500   0.001119
    16  H   -0.021850   0.380218  -0.018098   0.013305  -0.001464  -0.000314
    17  H   -0.020786  -0.020863   0.380753  -0.062216  -0.000004   0.000378
    18  H    0.045768   0.006487  -0.090935   0.446839   0.010237  -0.004759
    19  H   -0.045756  -0.008386   0.052111  -0.076155  -0.076365   0.052181
    20  H    0.007360   0.001746  -0.004776   0.010089   0.445304  -0.091577
    21  H   -0.001286  -0.000374   0.000380   0.000016  -0.062026   0.380638
    22  H    0.000687   0.000352  -0.000317  -0.001491   0.013599  -0.018367
    23  H    0.005684  -0.002663   0.001122   0.005541   0.025230  -0.000458
    24  H    0.018739   0.014648  -0.001909  -0.012606  -0.013623  -0.001575
    25  H    0.045562   0.013762  -0.000683  -0.012970  -0.011965  -0.001120
               7          8          9         10         11         12
     1  C   -0.029465   0.387364  -1.311620  -1.148642   0.230544  -1.588535
     2  C    0.005330  -0.027816  -0.687333   0.195432  -0.945485   1.134104
     3  C   -0.014248  -0.087658   0.283798  -0.340742   1.075325  -1.340643
     4  C   -0.035806   0.001467  -0.354058  -2.397627  -0.555348  -0.973091
     5  C   -0.875888   1.727858  -0.353007  -2.394347  -1.574526  -0.191378
     6  C    0.358816  -0.578363   0.285813  -0.334937  -0.144115  -0.209917
     7  C    6.933981   0.480716  -0.673138   0.189336  -0.199368  -0.204565
     8  C    0.480716   8.368479  -1.296019  -1.147396   0.114194  -1.016048
     9  C   -0.673138  -1.296019   9.152814   0.326375   1.636846  -1.627538
    10  C    0.189336  -1.147396   0.326375   9.057731  -0.378492   2.094771
    11  C   -0.199368   0.114194   1.636846  -0.378492  14.319073  -3.604201
    12  C   -0.204565  -1.016048  -1.627538   2.094771  -3.604201  15.165248
    13  C   -0.937336   0.197981   1.629506  -0.390315   1.303715  -4.736408
    14  C    1.113270  -1.595156  -1.630121   2.094880  -4.709639   2.666690
    15  H   -0.002579   0.005613   0.087591  -0.009607  -0.022541  -0.022300
    16  H    0.000344   0.000612   0.003514  -0.009723   0.026191  -0.030272
    17  H   -0.000370  -0.001263  -0.004254   0.019149  -0.024319   0.080950
    18  H    0.001738   0.007247  -0.026439   0.022344  -0.019937  -0.040491
    19  H   -0.008513  -0.045684   0.073281   0.423234   0.085165  -0.068288
    20  H    0.007187   0.045650  -0.026391   0.023130  -0.012078  -0.008244
    21  H   -0.021209  -0.020266  -0.004242   0.019099  -0.005748   0.004506
    22  H    0.379843  -0.020931   0.003968  -0.009988   0.002739  -0.008736
    23  H   -0.101635   0.360847   0.087530  -0.009516   0.000241   0.006299
    24  H    0.015689   0.021443   0.368998   0.006469   0.005896  -0.045083
    25  H    0.012397   0.041933   0.346934   0.005263   0.020720  -0.073733
              13         14         15         16         17         18
     1  C    0.105841  -1.034595   0.360051  -0.021850  -0.020786   0.045768
     2  C   -0.209008  -0.206383  -0.102785   0.380218  -0.020863   0.006487
     3  C   -0.148114  -0.210270  -0.000398  -0.018098   0.380753  -0.090935
     4  C   -1.583252  -0.196624   0.025506   0.013305  -0.062216   0.446839
     5  C   -0.572230  -0.980811   0.005500  -0.001464  -0.000004   0.010237
     6  C    1.080232  -1.326427   0.001119  -0.000314   0.000378  -0.004759
     7  C   -0.937336   1.113270  -0.002579   0.000344  -0.000370   0.001738
     8  C    0.197981  -1.595156   0.005613   0.000612  -0.001263   0.007247
     9  C    1.629506  -1.630121   0.087591   0.003514  -0.004254  -0.026439
    10  C   -0.390315   2.094880  -0.009607  -0.009723   0.019149   0.022344
    11  C    1.303715  -4.709639  -0.022541   0.026191  -0.024319  -0.019937
    12  C   -4.736408   2.666690  -0.022300  -0.030272   0.080950  -0.040491
    13  C   14.417095  -3.589966   0.000474   0.002653  -0.005821  -0.012540
    14  C   -3.589966  15.180657   0.006422  -0.008600   0.004533  -0.008861
    15  H    0.000474   0.006422   0.440292  -0.008998   0.001556   0.000131
    16  H    0.002653  -0.008600  -0.008998   0.420062  -0.006952   0.001953
    17  H   -0.005821   0.004533   0.001556  -0.006952   0.424806  -0.010550
    18  H   -0.012540  -0.008861   0.000131   0.001953  -0.010550   0.454138
    19  H    0.085416  -0.067427   0.000331  -0.000574   0.001480  -0.006405
    20  H   -0.020240  -0.040680  -0.000128   0.000016  -0.000148   0.001311
    21  H   -0.023985   0.080163   0.000018  -0.000007   0.000011  -0.000147
    22  H    0.026850  -0.031836  -0.000127   0.000007  -0.000007   0.000015
    23  H   -0.023293  -0.022488   0.000579  -0.000127   0.000017  -0.000125
    24  H    0.005531  -0.043414  -0.001518   0.000766  -0.000195   0.000164
    25  H    0.020256  -0.075741  -0.000348   0.000470  -0.000095   0.000199
              19         20         21         22         23         24
     1  C   -0.045756   0.007360  -0.001286   0.000687   0.005684   0.018739
     2  C   -0.008386   0.001746  -0.000374   0.000352  -0.002663   0.014648
     3  C    0.052111  -0.004776   0.000380  -0.000317   0.001122  -0.001909
     4  C   -0.076155   0.010089   0.000016  -0.001491   0.005541  -0.012606
     5  C   -0.076365   0.445304  -0.062026   0.013599   0.025230  -0.013623
     6  C    0.052181  -0.091577   0.380638  -0.018367  -0.000458  -0.001575
     7  C   -0.008513   0.007187  -0.021209   0.379843  -0.101635   0.015689
     8  C   -0.045684   0.045650  -0.020266  -0.020931   0.360847   0.021443
     9  C    0.073281  -0.026391  -0.004242   0.003968   0.087530   0.368998
    10  C    0.423234   0.023130   0.019099  -0.009988  -0.009516   0.006469
    11  C    0.085165  -0.012078  -0.005748   0.002739   0.000241   0.005896
    12  C   -0.068288  -0.008244   0.004506  -0.008736   0.006299  -0.045083
    13  C    0.085416  -0.020240  -0.023985   0.026850  -0.023293   0.005531
    14  C   -0.067427  -0.040680   0.080163  -0.031836  -0.022488  -0.043414
    15  H    0.000331  -0.000128   0.000018  -0.000127   0.000579  -0.001518
    16  H   -0.000574   0.000016  -0.000007   0.000007  -0.000127   0.000766
    17  H    0.001480  -0.000148   0.000011  -0.000007   0.000017  -0.000195
    18  H   -0.006405   0.001311  -0.000147   0.000015  -0.000125   0.000164
    19  H    0.446070  -0.006401   0.001466  -0.000569   0.000339   0.000636
    20  H   -0.006401   0.454241  -0.010449   0.001971   0.000115   0.000143
    21  H    0.001466  -0.010449   0.424455  -0.006926   0.001557  -0.000187
    22  H   -0.000569   0.001971  -0.006926   0.420070  -0.009010   0.000725
    23  H    0.000339   0.000115   0.001557  -0.009010   0.439901  -0.001351
    24  H    0.000636   0.000143  -0.000187   0.000725  -0.001351   0.491877
    25  H    0.000577   0.000228  -0.000106   0.000511  -0.000507  -0.078684
              25
     1  C    0.045562
     2  C    0.013762
     3  C   -0.000683
     4  C   -0.012970
     5  C   -0.011965
     6  C   -0.001120
     7  C    0.012397
     8  C    0.041933
     9  C    0.346934
    10  C    0.005263
    11  C    0.020720
    12  C   -0.073733
    13  C    0.020256
    14  C   -0.075741
    15  H   -0.000348
    16  H    0.000470
    17  H   -0.000095
    18  H    0.000199
    19  H    0.000577
    20  H    0.000228
    21  H   -0.000106
    22  H    0.000511
    23  H   -0.000507
    24  H   -0.078684
    25  H    0.492175
 Mulliken charges:
               1
     1  C    0.072858
     2  C   -0.398997
     3  C   -0.442853
     4  C    0.046907
     5  C    0.048478
     6  C   -0.441663
     7  C   -0.394527
     8  C    0.075197
     9  C   -0.292809
    10  C    0.094117
    11  C   -0.624850
    12  C    0.636900
    13  C   -0.623043
    14  C    0.632423
    15  H    0.236146
    16  H    0.256866
    17  H    0.244210
    18  H    0.222616
    19  H    0.188235
    20  H    0.222619
    21  H    0.244646
    22  H    0.256967
    23  H    0.236170
    24  H    0.248424
    25  H    0.254964
 Sum of Mulliken charges =   1.00000
 Mulliken charges with hydrogens summed into heavy atoms:
               1
     1  C    0.309003
     2  C   -0.142131
     3  C   -0.198644
     4  C    0.269523
     5  C    0.271097
     6  C   -0.197017
     7  C   -0.137560
     8  C    0.311367
     9  C    0.210579
    10  C    0.282352
    11  C   -0.624850
    12  C    0.636900
    13  C   -0.623043
    14  C    0.632423
 Electronic spatial extent (au):  <R**2>=           2865.7999
 Charge=              1.0000 electrons
 Dipole moment (field-independent basis, Debye):
    X=              0.0068    Y=              0.1915    Z=              0.0011  Tot=              0.1916
 Quadrupole moment (field-independent basis, Debye-Ang):
   XX=            -30.8987   YY=            -56.2597   ZZ=            -84.2228
   XY=              0.0038   XZ=              0.0062   YZ=              0.1195
 Traceless Quadrupole moment (field-independent basis, Debye-Ang):
   XX=             26.2283   YY=              0.8674   ZZ=            -27.0957
   XY=              0.0038   XZ=              0.0062   YZ=              0.1195
 Octapole moment (field-independent basis, Debye-Ang**2):
  XXX=              0.2772  YYY=              5.2009  ZZZ=             -0.0339  XYY=             -0.0034
  XXY=             -4.3789  XXZ=              0.2260  XZZ=             -0.0322  YZZ=             -3.0871
  YYZ=              0.1522  XYZ=              0.0311
 Hexadecapole moment (field-independent basis, Debye-Ang**3):
 XXXX=          -2126.4184 YYYY=           -609.3726 ZZZZ=            -99.6468 XXXY=              0.1552
 XXXZ=              0.1768 YYYX=             -0.0635 YYYZ=              1.3018 ZZZX=              0.0086
 ZZZY=              0.0560 XXYY=           -509.4604 XXZZ=           -593.5039 YYZZ=           -145.8112
 XXYZ=              1.3152 YYXZ=             -0.0001 ZZXY=              0.0033
 N-N= 7.800214103823D+02 E-N=-2.796317826177D+03  KE= 5.374337307014D+02
 Unable to Open any file for archive entry.
 1\1\GINC-GADI-CPU-CLX-0113\SP\RM062X TD-FC\6-311++G(d,p)\C14H11(1+)\TS
 1578\28-Jul-2022\0\\#n M062X/6-311++G(d,p) TD(NStates=1) EmpiricalDisp
 ersion=GD3 SP\\SP_0\\1,1\C,0,0.0195,2.491155,1.360431\C,0,0.02175,3.70
 9883,0.671989\C,0,0.0065,3.698111,-0.71383\C,0,-0.019375,2.474281,-1.4
 07538\C,0,-0.019625,-2.474781,-1.407538\C,0,0.005,-3.700611,-0.71383\C
 ,0,0.019375,-3.710758,0.671989\C,0,0.01475,-2.492655,1.360431\C,0,0.01
 0875,0.0055,1.453369\C,0,-0.0305,-0.00025,-1.429189\C,0,-0.004375,1.25
 2555,0.677065\C,0,-0.013,1.239346,-0.730804\C,0,-0.00475,-1.25243,0.67
 7065\C,0,-0.012,-1.238596,-0.730804\H,0,0.008,2.486696,2.443647\H,0,0.
 02225,4.643003,1.211689\H,0,-0.00325,4.607137,-1.272349\H,0,-0.0095,2.
 478425,-2.490059\H,0,-0.028125,-0.000125,-2.510266\H,0,-0.00875,-2.478
 8,-2.490059\H,0,-0.004,-4.610262,-1.272349\H,0,0.019375,-4.644878,1.21
 1689\H,0,0.0025,-2.488321,2.443647\H,0,-0.819585,0.00125,2.144412\H,0,
 0.899585,0.00125,2.147162\\Version=ES64L-G16RevC.01\State=1-A\HF=-539.
 7579102\RMSD=4.635e-09\PG=C01 [X(C14H11)]\\@
 The archive entry for this job was punched.


 Experience is what you get when you don't get what you want.
 -- Dan Stanford
 Job cpu time:       0 days  1 hours 20 minutes 51.8 seconds.
 Elapsed time:       0 days  0 hours  1 minutes 45.3 seconds.
 File lengths (MBytes):  RWF=    460 Int=      0 D2E=      0 Chk=     15 Scr=      1
 Normal termination of Gaussian 16 at Thu Jul 28 15:15:51 2022.
