 Entering Gaussian System, Link 0=g16
 Initial command:
 /apps/gaussian/g16c01/g16/l1.exe "/jobfs/53002009.gadi-pbs/Gau-803739.inp" -scrdir="/jobfs/53002009.gadi-pbs/"
 Entering Link 1 = /apps/gaussian/g16c01/g16/l1.exe PID=    803740.
  
 Copyright (c) 1988-2019, Gaussian, Inc.  All Rights Reserved.
  
 This is part of the Gaussian(R) 16 program.  It is based on
 the Gaussian(R) 09 system (copyright 2009, Gaussian, Inc.),
 the Gaussian(R) 03 system (copyright 2003, Gaussian, Inc.),
 the Gaussian(R) 98 system (copyright 1998, Gaussian, Inc.),
 the Gaussian(R) 94 system (copyright 1995, Gaussian, Inc.),
 the Gaussian 92(TM) system (copyright 1992, Gaussian, Inc.),
 the Gaussian 90(TM) system (copyright 1990, Gaussian, Inc.),
 the Gaussian 88(TM) system (copyright 1988, Gaussian, Inc.),
 the Gaussian 86(TM) system (copyright 1986, Carnegie Mellon
 University), and the Gaussian 82(TM) system (copyright 1983,
 Carnegie Mellon University). Gaussian is a federally registered
 trademark of Gaussian, Inc.
  
 This software contains proprietary and confidential information,
 including trade secrets, belonging to Gaussian, Inc.
  
 This software is provided under written license and may be
 used, copied, transmitted, or stored only in accord with that
 written license.
  
 The following legend is applicable only to US Government
 contracts under FAR:
  
                    RESTRICTED RIGHTS LEGEND
  
 Use, reproduction and disclosure by the US Government is
 subject to restrictions as set forth in subparagraphs (a)
 and (c) of the Commercial Computer Software - Restricted
 Rights clause in FAR 52.227-19.
  
 Gaussian, Inc.
 340 Quinnipiac St., Bldg. 40, Wallingford CT 06492
  
  
 ---------------------------------------------------------------
 Warning -- This program may not be used in any manner that
 competes with the business of Gaussian, Inc. or will provide
 assistance to any competitor of Gaussian, Inc.  The licensee
 of this program is prohibited from giving any competitor of
 Gaussian, Inc. access to this program.  By using this program,
 the user acknowledges that Gaussian, Inc. is engaged in the
 business of creating and licensing software in the field of
 computational chemistry and represents and warrants to the
 licensee that it is not a competitor of Gaussian, Inc. and that
 it will not use this program in any manner prohibited above.
 ---------------------------------------------------------------
  

 Cite this work as:
 Gaussian 16, Revision C.01,
 M. J. Frisch, G. W. Trucks, H. B. Schlegel, G. E. Scuseria, 
 M. A. Robb, J. R. Cheeseman, G. Scalmani, V. Barone, 
 G. A. Petersson, H. Nakatsuji, X. Li, M. Caricato, A. V. Marenich, 
 J. Bloino, B. G. Janesko, R. Gomperts, B. Mennucci, H. P. Hratchian, 
 J. V. Ortiz, A. F. Izmaylov, J. L. Sonnenberg, D. Williams-Young, 
 F. Ding, F. Lipparini, F. Egidi, J. Goings, B. Peng, A. Petrone, 
 T. Henderson, D. Ranasinghe, V. G. Zakrzewski, J. Gao, N. Rega, 
 G. Zheng, W. Liang, M. Hada, M. Ehara, K. Toyota, R. Fukuda, 
 J. Hasegawa, M. Ishida, T. Nakajima, Y. Honda, O. Kitao, H. Nakai, 
 T. Vreven, K. Throssell, J. A. Montgomery, Jr., J. E. Peralta, 
 F. Ogliaro, M. J. Bearpark, J. J. Heyd, E. N. Brothers, K. N. Kudin, 
 V. N. Staroverov, T. A. Keith, R. Kobayashi, J. Normand, 
 K. Raghavachari, A. P. Rendell, J. C. Burant, S. S. Iyengar, 
 J. Tomasi, M. Cossi, J. M. Millam, M. Klene, C. Adamo, R. Cammi, 
 J. W. Ochterski, R. L. Martin, K. Morokuma, O. Farkas, 
 J. B. Foresman, and D. J. Fox, Gaussian, Inc., Wallingford CT, 2019.
 
 ******************************************
 Gaussian 16:  ES64L-G16RevC.01  3-Jul-2019
                28-Jul-2022 
 ******************************************
 %NProcShared=48
 Will use up to   48 processors via shared memory.
 %mem = 190GB
 ---------------------------------------------------------------
 #n M062X/6-311++G(d,p) TD(NStates=1) EmpiricalDispersion=GD3 SP
 ---------------------------------------------------------------
 1/38=1,172=1/1;
 2/12=2,17=6,18=5,40=1/2;
 3/5=4,6=6,7=1111,11=9,25=1,30=1,74=-55,124=31/1,2,3,8;
 4//1;
 5/5=2,38=5/2;
 8/6=1,10=2,108=1/1;
 9/41=1,42=1,70=2/14;
 6/7=2,8=2,9=2,10=2/1;
 99/5=1,9=1/99;
 ------
 SP_125
 ------
 Symbolic Z-matrix:
 Charge =  1 Multiplicity = 1
 C                    -0.00305   2.49176   1.36043 
 C                    -0.00632   3.69728   0.67199 
 C                    -0.0011    3.67566  -0.71383 
 C                     0.008     2.45821  -1.40754 
 C                     0.0076   -2.45901  -1.40754 
 C                    -0.0035   -3.67966  -0.71383 
 C                    -0.01013  -3.69868   0.67199 
 C                    -0.01065  -2.49416   1.36043 
 C                    -0.00448   0.0088    1.45337 
 C                     0.0122   -0.0004   -1.42919 
 C                     0.00212   1.26598   0.67707 
 C                     0.0042    1.23747  -0.7308 
 C                     0.00153  -1.26578   0.67707 
 C                     0.0058   -1.23627  -0.7308 
 H                     0.0023    2.487     2.44365 
 H                    -0.00603   4.63238   1.21169 
 H                     0.00205   4.60699  -1.27235 
 H                     0.00305   2.46283  -2.49006 
 H                     0.01125  -0.0002   -2.51027 
 H                     0.00425  -2.46343  -2.49006 
 H                     0.00085  -4.61199  -1.27235 
 H                    -0.01063  -4.63538   1.21169 
 H                    -0.0065   -2.4896    2.44365 
 H                    -0.87559   0.002     2.14359 
 H                     0.84359   0.002     2.14799 
 
                          Input orientation:                          
 ---------------------------------------------------------------------
 Center     Atomic      Atomic             Coordinates (Angstroms)
 Number     Number       Type             X           Y           Z
 ---------------------------------------------------------------------
      1          6           0       -0.003050    2.491755    1.360431
      2          6           0       -0.006325    3.697283    0.671989
      3          6           0       -0.001100    3.675661   -0.713830
      4          6           0        0.008000    2.458206   -1.407538
      5          6           0        0.007600   -2.459006   -1.407538
      6          6           0       -0.003500   -3.679661   -0.713830
      7          6           0       -0.010125   -3.698683    0.671989
      8          6           0       -0.010650   -2.494155    1.360431
      9          6           0       -0.004475    0.008800    1.453369
     10          6           0        0.012200   -0.000400   -1.429189
     11          6           0        0.002125    1.265980    0.677065
     12          6           0        0.004200    1.237471   -0.730804
     13          6           0        0.001525   -1.265780    0.677065
     14          6           0        0.005800   -1.236271   -0.730804
     15          1           0        0.002300    2.486996    2.443647
     16          1           0       -0.006025    4.632378    1.211689
     17          1           0        0.002050    4.606987   -1.272349
     18          1           0        0.003050    2.462825   -2.490059
     19          1           0        0.011250   -0.000200   -2.510266
     20          1           0        0.004250   -2.463425   -2.490059
     21          1           0        0.000850   -4.611987   -1.272349
     22          1           0       -0.010625   -4.635378    1.211689
     23          1           0       -0.006500   -2.489596    2.443647
     24          1           0       -0.875585    0.002000    2.143587
     25          1           0        0.843585    0.002000    2.147987
 ---------------------------------------------------------------------
                    Distance matrix (angstroms):
                    1          2          3          4          5
     1  C    0.000000
     2  C    1.388258   0.000000
     3  C    2.388346   1.385998   0.000000
     4  C    2.768194   2.420733   1.401253   0.000000
     5  C    5.672019   6.498040   6.173771   4.917212   0.000000
     6  C    6.510678   7.505985   7.355322   6.176955   1.404049
     7  C    6.228605   7.395967   7.503434   6.498619   2.421063
     8  C    4.985916   6.229597   6.509169   5.673436   2.768252
     9  C    2.484694   3.770340   4.259417   3.766236   3.778227
    10  C    3.740728   4.253017   3.745042   2.458705   2.458706
    11  C    1.403403   2.431323   2.782294   2.401459   4.268620
    12  C    2.438554   2.831716   2.438255   1.395771   3.757915
    13  C    3.819173   4.963072   5.133462   4.267749   2.401956
    14  C    4.274520   5.129126   4.911966   3.755946   1.397517
    15  H    1.083240   2.145610   3.373810   3.851297   6.268540
    16  H    2.145787   1.079666   2.150106   3.404052   7.559647
    17  H    3.377242   2.146644   1.085966   2.153038   7.067288
    18  H    3.850604   3.394484   2.150809   1.082542   5.039473
    19  H    4.603514   4.878364   4.091368   2.694398   2.694763
    20  H    6.275359   6.924809   6.390884   5.039277   1.082535
    21  H    7.575929   8.533725   8.306447   7.071489   2.157232
    22  H    7.128689   8.350122   8.531183   7.561721   3.405478
    23  H    5.097767   6.435545   6.926766   6.269975   3.851332
    24  H    2.752005   4.071404   4.735540   4.407285   4.409882
    25  H    2.745162   4.068911   4.732787   4.401467   4.404223
                    6          7          8          9         10
     6  C    0.000000
     7  C    1.385965   0.000000
     8  C    2.389149   1.387386   0.000000
     9  C    4.278025   3.788933   2.504687   0.000000
    10  C    3.748192   4.253557   3.741833   2.882621   0.000000
    11  C    5.137508   4.964681   3.821749   1.477563   2.457667
    12  C    4.917167   5.131632   4.277677   2.506057   1.421313
    13  C    2.785935   2.432936   1.405718   1.492393   2.457154
    14  C    2.443467   2.834000   2.440452   2.514144   1.419563
    15  H    6.928012   6.434404   5.097587   2.668736   4.602836
    16  H    8.532152   8.348525   7.128087   4.629890   5.332654
    17  H    8.305451   8.530226   7.573500   5.345363   4.610067
    18  H    6.394151   6.925525   6.276792   4.644666   2.681978
    19  H    4.094610   4.879137   4.604627   3.963676   1.081077
    20  H    2.152738   3.394793   3.850641   4.654310   2.681791
    21  H    1.086828   2.148184   3.378887   5.364815   4.614267
    22  H    2.149667   1.081052   2.146383   4.650466   5.334583
    23  H    3.374304   2.144919   1.083234   2.687496   4.603836
    24  H    4.741307   4.075497   2.755401   1.111431   3.681426
    25  H    4.739428   4.074610   2.753316   1.096242   3.672519
                   11         12         13         14         15
    11  C    0.000000
    12  C    1.408159   0.000000
    13  C    2.531760   2.871997   0.000000
    14  C    2.871127   2.473743   1.408185   0.000000
    15  H    2.147485   3.411518   4.147787   4.892838   0.000000
    16  H    3.408596   3.911365   5.922343   6.181785   2.473955
    17  H    3.868145   3.412757   6.187860   5.868300   4.278199
    18  H    3.385722   2.143938   4.892154   4.096132   4.933765
    19  H    3.429632   2.167571   3.429412   2.166653   5.543237
    20  H    4.892764   4.097757   3.386006   2.144968   6.989143
    21  H    6.192795   5.874474   3.872637   3.418882   8.012752
    22  H    5.925539   6.185778   3.411768   3.915032   7.228146
    23  H    4.150330   4.895741   2.149093   3.412933   4.976600
    24  H    2.125725   3.250005   2.127739   3.251504   2.652531
    25  H    2.114075   3.243207   2.116588   3.243861   2.640148
                   16         17         18         19         20
    16  H    0.000000
    17  H    2.484181   0.000000
    18  H    4.290685   2.465816   0.000000
    19  H    5.942561   4.770607   2.463122   0.000000
    20  H    8.003341   7.174507   4.926250   2.463318   0.000000
    21  H    9.572292   9.218974   7.178843   4.775052   2.469645
    22  H    9.267757   9.570367   8.005474   5.944603   4.291916
    23  H    7.227741   8.010630   6.990566   5.544246   4.933787
    24  H    4.802600   5.800411   5.319618   4.737597   5.321946
    25  H    4.799885   5.797653   5.317295   4.732030   5.319236
                   21         22         23         24         25
    21  H    0.000000
    22  H    2.484175   0.000000
    23  H    4.279395   2.474291   0.000000
    24  H    5.807377   4.808520   2.655823   0.000000
    25  H    5.804979   4.807453   2.649172   1.719176   0.000000
 Stoichiometry    C14H11(1+)
 Framework group  C1[X(C14H11)]
 Deg. of freedom    69
 Full point group                 C1      NOp   1
 Largest Abelian subgroup         C1      NOp   1
 Largest concise Abelian subgroup C1      NOp   1
                         Standard orientation:                         
 ---------------------------------------------------------------------
 Center     Atomic      Atomic             Coordinates (Angstroms)
 Number     Number       Type             X           Y           Z
 ---------------------------------------------------------------------
      1          6           0        2.491985   -1.360016   -0.001909
      2          6           0        3.697395   -0.671394    0.004956
      3          6           0        3.675542    0.714431    0.005790
      4          6           0        2.457974    1.407970   -0.000853
      5          6           0       -2.459237    1.407149   -0.002799
      6          6           0       -3.679780    0.713196    0.004681
      7          6           0       -3.698572   -0.672642    0.005227
      8          6           0       -2.493928   -1.360879    0.003312
      9          6           0        0.009045   -1.453372   -0.002076
     10          6           0       -0.000633    1.429229   -0.006131
     11          6           0        1.266097   -0.676838   -0.004676
     12          6           0        1.237352    0.731022   -0.000599
     13          6           0       -1.265663   -0.677262   -0.005284
     14          6           0       -1.236389    0.730617   -0.003379
     15          1           0        2.487411   -2.443199   -0.012005
     16          1           0        4.632581   -1.210932    0.002738
     17          1           0        4.606775    1.273114    0.005530
     18          1           0        2.462409    2.490459    0.008840
     19          1           0       -0.000616    2.510292   -0.000446
     20          1           0       -2.463840    2.489644    0.005290
     21          1           0       -4.612198    1.271573    0.002332
     22          1           0       -4.635176   -1.212495    0.002917
     23          1           0       -2.489185   -2.444066   -0.005580
     24          1           0        0.001946   -2.147400    0.866000
     25          1           0        0.002766   -2.144271   -0.853173
 ---------------------------------------------------------------------
 Rotational constants (GHZ):           2.1361536           0.4454549           0.3693962
 Standard basis: 6-311++G(d,p) (5D, 7F)
 There are   399 symmetry adapted cartesian basis functions of A   symmetry.
 There are   385 symmetry adapted basis functions of A   symmetry.
   385 basis functions,   603 primitive gaussians,   399 cartesian basis functions
    47 alpha electrons       47 beta electrons
       nuclear repulsion energy       781.6553727314 Hartrees.
 NAtoms=   25 NActive=   25 NUniq=   25 SFac= 1.00D+00 NAtFMM=   60 NAOKFM=F Big=F
 Integral buffers will be    131072 words long.
 Regular integral format.
 Two-electron integral symmetry is turned on.
 Nuclear repulsion after empirical dispersion term =      781.6543933902 Hartrees.
 One-electron integrals computed using PRISM.
 NBasis=   385 RedAO= T EigKep=  1.13D-06  NBF=   385
 NBsUse=   379 1.00D-06 EigRej=  8.33D-07 NBFU=   379
 ExpMin= 3.60D-02 ExpMax= 4.56D+03 ExpMxC= 6.82D+02 IAcc=3 IRadAn=         5 AccDes= 0.00D+00
 Harris functional with IExCor= 1009 and IRadAn=       5 diagonalized for initial guess.
 HarFok:  IExCor= 1009 AccDes= 0.00D+00 IRadAn=         5 IDoV= 1 UseB2=F ITyADJ=14
 ICtDFT=  3500011 ScaDFX=  1.000000  1.000000  1.000000  1.000000
 FoFCou: FMM=F IPFlag=           0 FMFlag=      100000 FMFlg1=           0
         NFxFlg=           0 DoJE=T BraDBF=F KetDBF=T FulRan=T
         wScrn=  0.000000 ICntrl=       500 IOpCl=  0 I1Cent=   200000004 NGrid=           0
         NMat0=    1 NMatS0=      1 NMatT0=    0 NMatD0=    1 NMtDS0=    0 NMtDT0=    0
 Petite list used in FoFCou.
 Requested convergence on RMS density matrix=1.00D-08 within 128 cycles.
 Requested convergence on MAX density matrix=1.00D-06.
 Requested convergence on             energy=1.00D-06.
 No special actions if energy rises.
 SCF Done:  E(RM062X) =  -539.760107097     A.U. after   15 cycles
            NFock= 15  Conv=0.46D-08     -V/T= 2.0041
 DoSCS=F DFT=T ScalE2(SS,OS)=  1.000000  1.000000
 ExpMin= 3.60D-02 ExpMax= 4.56D+03 ExpMxC= 6.82D+02 IAcc=3 IRadAn=         5 AccDes= 0.00D+00
 HarFok:  IExCor=  205 AccDes= 0.00D+00 IRadAn=         5 IDoV=-2 UseB2=F ITyADJ=14
 ICtDFT= 12500011 ScaDFX=  1.000000  1.000000  1.000000  1.000000
 Range of M.O.s used for correlation:    15   379
 NBasis=   385 NAE=    47 NBE=    47 NFC=    14 NFV=     0
 NROrb=    365 NOA=    33 NOB=    33 NVA=   332 NVB=   332

 **** Warning!!: The largest alpha MO coefficient is  0.15402742D+03

 Orbital symmetries:
       Occupied  (A) (A) (A) (A) (A) (A) (A) (A) (A) (A) (A) (A)
                 (A) (A) (A) (A) (A) (A) (A) (A) (A) (A) (A) (A)
                 (A) (A) (A) (A) (A) (A) (A) (A) (A) (A) (A) (A)
                 (A) (A) (A) (A) (A) (A) (A) (A) (A) (A) (A)
       Virtual   (A) (A) (A) (A) (A) (A) (A) (A) (A) (A) (A) (A)
                 (A) (A) (A) (A) (A) (A) (A) (A) (A) (A) (A) (A)
                 (A) (A) (A) (A) (A) (A) (A) (A) (A) (A) (A) (A)
                 (A) (A) (A) (A) (A) (A) (A) (A) (A) (A) (A) (A)
                 (A) (A) (A) (A) (A) (A) (A) (A) (A) (A) (A) (A)
                 (A) (A) (A) (A) (A) (A) (A) (A) (A) (A) (A) (A)
                 (A) (A) (A) (A) (A) (A) (A) (A) (A) (A) (A) (A)
                 (A) (A) (A) (A) (A) (A) (A) (A) (A) (A) (A) (A)
                 (A) (A) (A) (A) (A) (A) (A) (A) (A) (A) (A) (A)
                 (A) (A) (A) (A) (A) (A) (A) (A) (A) (A) (A) (A)
                 (A) (A) (A) (A) (A) (A) (A) (A) (A) (A) (A) (A)
                 (A) (A) (A) (A) (A) (A) (A) (A) (A) (A) (A) (A)
                 (A) (A) (A) (A) (A) (A) (A) (A) (A) (A) (A) (A)
                 (A) (A) (A) (A) (A) (A) (A) (A) (A) (A) (A) (A)
                 (A) (A) (A) (A) (A) (A) (A) (A) (A) (A) (A) (A)
                 (A) (A) (A) (A) (A) (A) (A) (A) (A) (A) (A) (A)
                 (A) (A) (A) (A) (A) (A) (A) (A) (A) (A) (A) (A)
                 (A) (A) (A) (A) (A) (A) (A) (A) (A) (A) (A) (A)
                 (A) (A) (A) (A) (A) (A) (A) (A) (A) (A) (A) (A)
                 (A) (A) (A) (A) (A) (A) (A) (A) (A) (A) (A) (A)
                 (A) (A) (A) (A) (A) (A) (A) (A) (A) (A) (A) (A)
                 (A) (A) (A) (A) (A) (A) (A) (A) (A) (A) (A) (A)
                 (A) (A) (A) (A) (A) (A) (A) (A) (A) (A) (A) (A)
                 (A) (A) (A) (A) (A) (A) (A) (A) (A) (A) (A) (A)
                 (A) (A) (A) (A) (A) (A) (A) (A) (A) (A) (A) (A)
                 (A) (A) (A) (A) (A) (A) (A) (A) (A) (A) (A) (A)
                 (A) (A) (A) (A) (A) (A) (A) (A) (A) (A) (A) (A)
                 (A) (A) (A) (A) (A) (A) (A) (A)
     4 initial guesses have been made.
 Convergence on wavefunction:    0.001000000000000
 Iteration     1 Dimension     4 NMult     0 NNew      4
 CISAX will form     4 AO SS matrices at one time.
 Iteration     2 Dimension     6 NMult     4 NNew      2
 Iteration     3 Dimension     8 NMult     6 NNew      2
 Iteration     4 Dimension    10 NMult     8 NNew      2
 Iteration     5 Dimension    12 NMult    10 NNew      2
 Iteration     6 Dimension    14 NMult    12 NNew      2
 ***********************************************************************
 Excited states from <AA,BB:AA,BB> singles matrix:
 ***********************************************************************
 
 Ground to excited state transition densities written to RWF  633
 Ground to excited state transition electric dipole moments (Au):
       state          X           Y           Z        Dip. S.      Osc.
         1         0.0113     -0.6476      0.0018      0.4195      0.0291
 Ground to excited state transition velocity dipole moments (Au):
       state          X           Y           Z        Dip. S.      Osc.
         1        -0.0012      0.0750     -0.0002      0.0056      0.0361
 Ground to excited state transition magnetic dipole moments (Au):
       state          X           Y           Z
         1        -0.0028     -0.0008     -0.0006
 Ground to excited state transition velocity quadrupole moments (Au):
       state          XX          YY          ZZ          XY          XZ          YZ
         1         0.2916      0.0363     -0.0099     -0.0018      0.0001      0.0002
 <0|del|b> * <b|rxdel|0> + <0|del|b> * <b|delr+rdel|0>
 Rotatory Strengths (R) in cgs (10**-40 erg-esu-cm/Gauss)
       state          XX          YY          ZZ    R(velocity)    E-M Angle
         1        -0.2300      0.0100     -0.1868     -0.1356       90.00
 1/2[<0|r|b>*<b|rxdel|0> + (<0|rxdel|b>*<b|r|0>)*]
 Rotatory Strengths (R) in cgs (10**-40 erg-esu-cm/Gauss)
       state          XX          YY          ZZ     R(length)
         1         0.0226     -0.3871      0.0008     -0.1212
  1/2[<0|del|b>*<b|r|0> + (<0|r|b>*<b|del|0>)*] (Au)
       state          X           Y           Z        Dip. S.   Osc.(frdel)
         1        -0.0000     -0.0486     -0.0000      0.0486      0.0324

 Excitation energies and oscillator strengths:
 
 Excited State   1:      Singlet-A      2.8302 eV  438.07 nm  f=0.0291  <S**2>=0.000
      47 -> 48         0.70425
 This state for optimization and/or second-order correction.
 Total Energy, E(TD-HF/TD-DFT) =  -539.656098118    
 Copying the excited state density for this state as the 1-particle RhoCI density.
 SavETr:  write IOETrn=   770 NScale= 10 NData=  16 NLR=1 NState=    1 LETran=      28.

 **********************************************************************

            Population analysis using the SCF Density.

 **********************************************************************

 Orbital symmetries:
       Occupied  (A) (A) (A) (A) (A) (A) (A) (A) (A) (A) (A) (A)
                 (A) (A) (A) (A) (A) (A) (A) (A) (A) (A) (A) (A)
                 (A) (A) (A) (A) (A) (A) (A) (A) (A) (A) (A) (A)
                 (A) (A) (A) (A) (A) (A) (A) (A) (A) (A) (A)
       Virtual   (A) (A) (A) (A) (A) (A) (A) (A) (A) (A) (A) (A)
                 (A) (A) (A) (A) (A) (A) (A) (A) (A) (A) (A) (A)
                 (A) (A) (A) (A) (A) (A) (A) (A) (A) (A) (A) (A)
                 (A) (A) (A) (A) (A) (A) (A) (A) (A) (A) (A) (A)
                 (A) (A) (A) (A) (A) (A) (A) (A) (A) (A) (A) (A)
                 (A) (A) (A) (A) (A) (A) (A) (A) (A) (A) (A) (A)
                 (A) (A) (A) (A) (A) (A) (A) (A) (A) (A) (A) (A)
                 (A) (A) (A) (A) (A) (A) (A) (A) (A) (A) (A) (A)
                 (A) (A) (A) (A) (A) (A) (A) (A) (A) (A) (A) (A)
                 (A) (A) (A) (A) (A) (A) (A) (A) (A) (A) (A) (A)
                 (A) (A) (A) (A) (A) (A) (A) (A) (A) (A) (A) (A)
                 (A) (A) (A) (A) (A) (A) (A) (A) (A) (A) (A) (A)
                 (A) (A) (A) (A) (A) (A) (A) (A) (A) (A) (A) (A)
                 (A) (A) (A) (A) (A) (A) (A) (A) (A) (A) (A) (A)
                 (A) (A) (A) (A) (A) (A) (A) (A) (A) (A) (A) (A)
                 (A) (A) (A) (A) (A) (A) (A) (A) (A) (A) (A) (A)
                 (A) (A) (A) (A) (A) (A) (A) (A) (A) (A) (A) (A)
                 (A) (A) (A) (A) (A) (A) (A) (A) (A) (A) (A) (A)
                 (A) (A) (A) (A) (A) (A) (A) (A) (A) (A) (A) (A)
                 (A) (A) (A) (A) (A) (A) (A) (A) (A) (A) (A) (A)
                 (A) (A) (A) (A) (A) (A) (A) (A) (A) (A) (A) (A)
                 (A) (A) (A) (A) (A) (A) (A) (A) (A) (A) (A) (A)
                 (A) (A) (A) (A) (A) (A) (A) (A) (A) (A) (A) (A)
                 (A) (A) (A) (A) (A) (A) (A) (A) (A) (A) (A) (A)
                 (A) (A) (A) (A) (A) (A) (A) (A) (A) (A) (A) (A)
                 (A) (A) (A) (A) (A) (A) (A) (A) (A) (A) (A) (A)
                 (A) (A) (A) (A) (A) (A) (A) (A) (A) (A) (A) (A)
                 (A) (A) (A) (A) (A) (A) (A) (A)
 The electronic state is 1-A.
 Alpha  occ. eigenvalues --  -10.77670 -10.73281 -10.73169 -10.72397 -10.72392
 Alpha  occ. eigenvalues --  -10.71346 -10.71287 -10.70983 -10.70978 -10.70964
 Alpha  occ. eigenvalues --  -10.69939 -10.69896 -10.69674 -10.69620  -1.16477
 Alpha  occ. eigenvalues --   -1.12571  -1.07001  -1.05699  -1.01418  -1.00167
 Alpha  occ. eigenvalues --   -0.95821  -0.91045  -0.86426  -0.85919  -0.83821
 Alpha  occ. eigenvalues --   -0.78408  -0.76034  -0.74439  -0.69560  -0.69230
 Alpha  occ. eigenvalues --   -0.68492  -0.68158  -0.68050  -0.64818  -0.64352
 Alpha  occ. eigenvalues --   -0.63005  -0.61793  -0.60038  -0.59755  -0.59064
 Alpha  occ. eigenvalues --   -0.56886  -0.55196  -0.54791  -0.52479  -0.46702
 Alpha  occ. eigenvalues --   -0.46049  -0.44545
 Alpha virt. eigenvalues --   -0.26099  -0.14617  -0.14085  -0.12713  -0.11180
 Alpha virt. eigenvalues --   -0.10090  -0.09238  -0.08003  -0.07962  -0.07479
 Alpha virt. eigenvalues --   -0.07206  -0.07136  -0.05641  -0.05581  -0.05323
 Alpha virt. eigenvalues --   -0.03841  -0.03664  -0.03279  -0.03132  -0.02167
 Alpha virt. eigenvalues --   -0.01374  -0.00942   0.00193   0.00568   0.00665
 Alpha virt. eigenvalues --    0.01060   0.01513   0.01953   0.02223   0.02283
 Alpha virt. eigenvalues --    0.02456   0.02663   0.02798   0.03276   0.03357
 Alpha virt. eigenvalues --    0.04236   0.04507   0.04699   0.05061   0.05371
 Alpha virt. eigenvalues --    0.06017   0.06301   0.06601   0.07044   0.07263
 Alpha virt. eigenvalues --    0.07902   0.08209   0.08356   0.08563   0.08926
 Alpha virt. eigenvalues --    0.09541   0.09555   0.10036   0.10842   0.11071
 Alpha virt. eigenvalues --    0.11123   0.12167   0.12238   0.12934   0.12950
 Alpha virt. eigenvalues --    0.13417   0.13507   0.14015   0.14435   0.16181
 Alpha virt. eigenvalues --    0.16244   0.16426   0.17330   0.17624   0.17780
 Alpha virt. eigenvalues --    0.18129   0.19111   0.19266   0.19658   0.19756
 Alpha virt. eigenvalues --    0.21594   0.21621   0.22703   0.23092   0.23556
 Alpha virt. eigenvalues --    0.23821   0.24583   0.25271   0.26911   0.27650
 Alpha virt. eigenvalues --    0.28847   0.29287   0.29857   0.31387   0.35813
 Alpha virt. eigenvalues --    0.36509   0.38200   0.39319   0.41146   0.41374
 Alpha virt. eigenvalues --    0.41974   0.42146   0.42969   0.43741   0.44272
 Alpha virt. eigenvalues --    0.45030   0.45076   0.46120   0.46144   0.47935
 Alpha virt. eigenvalues --    0.48506   0.48860   0.49007   0.50406   0.51226
 Alpha virt. eigenvalues --    0.51630   0.51729   0.52124   0.53029   0.53948
 Alpha virt. eigenvalues --    0.54066   0.54708   0.55698   0.55764   0.57443
 Alpha virt. eigenvalues --    0.58255   0.58816   0.61456   0.62204   0.62342
 Alpha virt. eigenvalues --    0.63233   0.63488   0.64917   0.65166   0.67170
 Alpha virt. eigenvalues --    0.70436   0.70569   0.71032   0.72442   0.72869
 Alpha virt. eigenvalues --    0.75771   0.75986   0.76315   0.76857   0.77073
 Alpha virt. eigenvalues --    0.77819   0.77892   0.78245   0.80001   0.80372
 Alpha virt. eigenvalues --    0.81298   0.81634   0.82155   0.83045   0.85161
 Alpha virt. eigenvalues --    0.87172   0.88142   0.88390   0.89379   0.90414
 Alpha virt. eigenvalues --    0.91004   0.91367   0.93303   0.94677   0.96413
 Alpha virt. eigenvalues --    0.96656   1.00325   1.01297   1.01750   1.02828
 Alpha virt. eigenvalues --    1.03201   1.03924   1.04741   1.05389   1.08855
 Alpha virt. eigenvalues --    1.19436   1.23244   1.24057   1.25311   1.28038
 Alpha virt. eigenvalues --    1.29868   1.31599   1.34416   1.35846   1.36077
 Alpha virt. eigenvalues --    1.39419   1.40137   1.41011   1.43155   1.43545
 Alpha virt. eigenvalues --    1.43586   1.45223   1.45427   1.46367   1.46657
 Alpha virt. eigenvalues --    1.47696   1.48193   1.51757   1.53663   1.55755
 Alpha virt. eigenvalues --    1.55944   1.56466   1.56621   1.57850   1.61538
 Alpha virt. eigenvalues --    1.63142   1.63400   1.63605   1.66161   1.68269
 Alpha virt. eigenvalues --    1.68433   1.68714   1.69738   1.74534   1.75997
 Alpha virt. eigenvalues --    1.77197   1.78081   1.79999   1.80329   1.80912
 Alpha virt. eigenvalues --    1.83136   1.83281   1.83578   1.83939   1.84111
 Alpha virt. eigenvalues --    1.84367   1.85964   1.86132   1.88277   1.91337
 Alpha virt. eigenvalues --    1.92141   1.94113   1.95179   1.97813   1.98349
 Alpha virt. eigenvalues --    1.99927   2.02396   2.04548   2.07086   2.11850
 Alpha virt. eigenvalues --    2.12132   2.14120   2.15261   2.19375   2.21258
 Alpha virt. eigenvalues --    2.22999   2.28735   2.30309   2.34560   2.35050
 Alpha virt. eigenvalues --    2.36268   2.38429   2.39239   2.42422   2.44119
 Alpha virt. eigenvalues --    2.46669   2.46751   2.49521   2.53010   2.53803
 Alpha virt. eigenvalues --    2.54227   2.56709   2.57897   2.58370   2.59683
 Alpha virt. eigenvalues --    2.59897   2.61554   2.62200   2.63572   2.63885
 Alpha virt. eigenvalues --    2.64798   2.65097   2.65323   2.65383   2.67971
 Alpha virt. eigenvalues --    2.68433   2.71025   2.71406   2.73380   2.74832
 Alpha virt. eigenvalues --    2.76357   2.78924   2.79812   2.83088   2.83144
 Alpha virt. eigenvalues --    2.85124   2.86343   2.92148   2.96955   2.99627
 Alpha virt. eigenvalues --    3.00224   3.04820   3.11413   3.11720   3.13454
 Alpha virt. eigenvalues --    3.20856   3.23754   3.26991   3.28375   3.30957
 Alpha virt. eigenvalues --    3.33237   3.33658   3.43448   3.46026   3.47100
 Alpha virt. eigenvalues --    3.48878   3.50462   3.56574   3.65628   3.66902
 Alpha virt. eigenvalues --    3.67577   3.93631   3.94593   3.94657   3.96187
 Alpha virt. eigenvalues --    4.03713   4.06882   4.07629   4.12554   4.35423
 Alpha virt. eigenvalues --    4.61207   4.70097   4.71953  23.45242  23.60155
 Alpha virt. eigenvalues --   23.82457  23.85298  23.88128  23.89514  23.90564
 Alpha virt. eigenvalues --   23.92358  23.98100  24.00267  24.00519  24.00810
 Alpha virt. eigenvalues --   24.10931  24.11201
          Condensed to atoms (all electrons):
               1          2          3          4          5          6
     1  C    8.558905   0.378195  -0.551387   1.872084  -0.010620  -0.095964
     2  C    0.378195   7.130273   0.364051  -1.033610  -0.025967  -0.015309
     3  C   -0.551387   0.364051   6.610614   0.771322  -0.124593   0.017284
     4  C    1.872084  -1.033610   0.771322  10.798694  -0.336322  -0.120472
     5  C   -0.010620  -0.025967  -0.124593  -0.336322  10.895043   0.751639
     6  C   -0.095964  -0.015309   0.017284  -0.120472   0.751639   6.602575
     7  C   -0.023041   0.003496  -0.015430  -0.028094  -1.030346   0.359938
     8  C    0.410359  -0.018738  -0.096149  -0.026106   1.923936  -0.565921
     9  C   -1.271366  -0.760232   0.287941  -0.298374  -0.244464   0.290697
    10  C   -1.248261   0.233830  -0.374148  -2.540592  -2.546749  -0.353790
    11  C    0.325880  -0.954961   1.017860  -0.203706  -1.528255  -0.183902
    12  C   -1.945794   1.268057  -1.399025  -1.408652  -0.345481  -0.198902
    13  C    0.193602  -0.228401  -0.185987  -1.505337  -0.208401   1.007567
    14  C   -1.089727  -0.208302  -0.196767  -0.311361  -1.537669  -1.367581
    15  H    0.364691  -0.104375  -0.001812   0.025824   0.005949   0.001126
    16  H   -0.020235   0.379103  -0.015410   0.013608  -0.001602  -0.000337
    17  H   -0.023526  -0.016867   0.373271  -0.065951   0.000364   0.000402
    18  H    0.048996   0.002808  -0.084363   0.453995   0.007048  -0.005015
    19  H   -0.046490  -0.007691   0.051101  -0.064875  -0.068900   0.050676
    20  H    0.007577   0.001965  -0.005108   0.006856   0.455382  -0.085605
    21  H   -0.001339  -0.000401   0.000407   0.000368  -0.066569   0.373099
    22  H    0.000806   0.000376  -0.000341  -0.001592   0.014115  -0.016213
    23  H    0.005828  -0.002720   0.001150   0.005786   0.026263  -0.002081
    24  H    0.036660   0.013097  -0.001666  -0.010952  -0.012960  -0.001067
    25  H    0.030937   0.015940  -0.001479  -0.012550  -0.011332  -0.002241
               7          8          9         10         11         12
     1  C   -0.023041   0.410359  -1.271366  -1.248261   0.325880  -1.945794
     2  C    0.003496  -0.018738  -0.760232   0.233830  -0.954961   1.268057
     3  C   -0.015430  -0.096149   0.287941  -0.374148   1.017860  -1.399025
     4  C   -0.028094  -0.026106  -0.298374  -2.540592  -0.203706  -1.408652
     5  C   -1.030346   1.923936  -0.244464  -2.546749  -1.528255  -0.345481
     6  C    0.359938  -0.565921   0.290697  -0.353790  -0.183902  -0.198902
     7  C    7.103245   0.369569  -0.761676   0.227846  -0.212335  -0.201944
     8  C    0.369569   8.561943  -1.222903  -1.251697   0.211291  -1.064635
     9  C   -0.761676  -1.222903   9.513667   0.301000   1.633283  -1.801110
    10  C    0.227846  -1.251697   0.301000   9.200353  -0.515779   2.379588
    11  C   -0.212335   0.211291   1.633283  -0.515779  14.377339  -3.817231
    12  C   -0.201944  -1.064635  -1.801110   2.379588  -3.817231  15.838222
    13  C   -0.940032   0.276920   1.597054  -0.492044   1.155094  -4.766014
    14  C    1.277066  -2.011421  -1.837998   2.419695  -4.728801   3.004370
    15  H   -0.002653   0.005817   0.088775  -0.009249  -0.027158  -0.022022
    16  H    0.000369   0.000687   0.003590  -0.009804   0.028332  -0.034527
    17  H   -0.000401  -0.001318  -0.005418   0.020299  -0.027797   0.090233
    18  H    0.001979   0.007364  -0.026034   0.014763  -0.006842  -0.052548
    19  H   -0.007637  -0.046604   0.075693   0.421816   0.074841  -0.063737
    20  H    0.003411   0.049727  -0.025612   0.014577  -0.011435  -0.013576
    21  H   -0.017507  -0.023390  -0.005389   0.020282  -0.006163   0.005222
    22  H    0.378150  -0.018119   0.004277  -0.009949   0.003195  -0.009328
    23  H   -0.104183   0.366580   0.090286  -0.009379   0.000892   0.006725
    24  H    0.014841   0.040517   0.350620   0.004892   0.018348  -0.068093
    25  H    0.014002   0.025419   0.360324   0.005237   0.008308  -0.051603
              13         14         15         16         17         18
     1  C    0.193602  -1.089727   0.364691  -0.020235  -0.023526   0.048996
     2  C   -0.228401  -0.208302  -0.104375   0.379103  -0.016867   0.002808
     3  C   -0.185987  -0.196767  -0.001812  -0.015410   0.373271  -0.084363
     4  C   -1.505337  -0.311361   0.025824   0.013608  -0.065951   0.453995
     5  C   -0.208401  -1.537669   0.005949  -0.001602   0.000364   0.007048
     6  C    1.007567  -1.367581   0.001126  -0.000337   0.000402  -0.005015
     7  C   -0.940032   1.277066  -0.002653   0.000369  -0.000401   0.001979
     8  C    0.276920  -2.011421   0.005817   0.000687  -0.001318   0.007364
     9  C    1.597054  -1.837998   0.088775   0.003590  -0.005418  -0.026034
    10  C   -0.492044   2.419695  -0.009249  -0.009804   0.020299   0.014763
    11  C    1.155094  -4.728801  -0.027158   0.028332  -0.027797  -0.006842
    12  C   -4.766014   3.004370  -0.022022  -0.034527   0.090233  -0.052548
    13  C   14.453927  -3.792536   0.000855   0.003227  -0.006438  -0.011058
    14  C   -3.792536  15.931726   0.006751  -0.009250   0.005233  -0.013616
    15  H    0.000855   0.006751   0.438662  -0.008986   0.001453   0.000195
    16  H    0.003227  -0.009250  -0.008986   0.419422  -0.006621   0.001898
    17  H   -0.006438   0.005233   0.001453  -0.006621   0.422011  -0.010202
    18  H   -0.011058  -0.013616   0.000195   0.001898  -0.010202   0.453687
    19  H    0.071615  -0.063908   0.000307  -0.000530   0.001381  -0.005934
    20  H   -0.006917  -0.053915  -0.000112   0.000015  -0.000143   0.001275
    21  H   -0.026622   0.089774   0.000013  -0.000007   0.000010  -0.000142
    22  H    0.028993  -0.036936  -0.000126   0.000008  -0.000007   0.000015
    23  H   -0.028136  -0.024109   0.000597  -0.000127   0.000014  -0.000113
    24  H    0.015701  -0.065821  -0.000729   0.000614  -0.000133   0.000216
    25  H    0.010180  -0.053254  -0.001039   0.000662  -0.000153   0.000153
              19         20         21         22         23         24
     1  C   -0.046490   0.007577  -0.001339   0.000806   0.005828   0.036660
     2  C   -0.007691   0.001965  -0.000401   0.000376  -0.002720   0.013097
     3  C    0.051101  -0.005108   0.000407  -0.000341   0.001150  -0.001666
     4  C   -0.064875   0.006856   0.000368  -0.001592   0.005786  -0.010952
     5  C   -0.068900   0.455382  -0.066569   0.014115   0.026263  -0.012960
     6  C    0.050676  -0.085605   0.373099  -0.016213  -0.002081  -0.001067
     7  C   -0.007637   0.003411  -0.017507   0.378150  -0.104183   0.014841
     8  C   -0.046604   0.049727  -0.023390  -0.018119   0.366580   0.040517
     9  C    0.075693  -0.025612  -0.005389   0.004277   0.090286   0.350620
    10  C    0.421816   0.014577   0.020282  -0.009949  -0.009379   0.004892
    11  C    0.074841  -0.011435  -0.006163   0.003195   0.000892   0.018348
    12  C   -0.063737  -0.013576   0.005222  -0.009328   0.006725  -0.068093
    13  C    0.071615  -0.006917  -0.026622   0.028993  -0.028136   0.015701
    14  C   -0.063908  -0.053915   0.089774  -0.036936  -0.024109  -0.065821
    15  H    0.000307  -0.000112   0.000013  -0.000126   0.000597  -0.000729
    16  H   -0.000530   0.000015  -0.000007   0.000008  -0.000127   0.000614
    17  H    0.001381  -0.000143   0.000010  -0.000007   0.000014  -0.000133
    18  H   -0.005934   0.001275  -0.000142   0.000015  -0.000113   0.000216
    19  H    0.441878  -0.006117   0.001388  -0.000533   0.000322   0.000579
    20  H   -0.006117   0.453769  -0.010118   0.001945   0.000193   0.000172
    21  H    0.001388  -0.010118   0.421673  -0.006573   0.001426  -0.000111
    22  H   -0.000533   0.001945  -0.006573   0.419319  -0.009041   0.000544
    23  H    0.000322   0.000193   0.001426  -0.009041   0.438737  -0.000615
    24  H    0.000579   0.000172  -0.000111   0.000544  -0.000615   0.494322
    25  H    0.000569   0.000193  -0.000169   0.000722  -0.001222  -0.079773
              25
     1  C    0.030937
     2  C    0.015940
     3  C   -0.001479
     4  C   -0.012550
     5  C   -0.011332
     6  C   -0.002241
     7  C    0.014002
     8  C    0.025419
     9  C    0.360324
    10  C    0.005237
    11  C    0.008308
    12  C   -0.051603
    13  C    0.010180
    14  C   -0.053254
    15  H   -0.001039
    16  H    0.000662
    17  H   -0.000153
    18  H    0.000153
    19  H    0.000569
    20  H    0.000193
    21  H   -0.000169
    22  H    0.000722
    23  H   -0.001222
    24  H   -0.079773
    25  H    0.494430
 Mulliken charges:
               1
     1  C    0.093226
     2  C   -0.413617
     3  C   -0.441337
     4  C    0.020013
     5  C    0.020490
     6  C   -0.440604
     7  C   -0.408634
     8  C    0.096872
     9  C   -0.336634
    10  C    0.097265
    11  C   -0.630297
    12  C    0.671802
    13  C   -0.616810
    14  C    0.668355
    15  H    0.237245
    16  H    0.255901
    17  H    0.250303
    18  H    0.221473
    19  H    0.190790
    20  H    0.221601
    21  H    0.250839
    22  H    0.256294
    23  H    0.236925
    24  H    0.250797
    25  H    0.247740
 Sum of Mulliken charges =   1.00000
 Mulliken charges with hydrogens summed into heavy atoms:
               1
     1  C    0.330471
     2  C   -0.157716
     3  C   -0.191033
     4  C    0.241486
     5  C    0.242091
     6  C   -0.189765
     7  C   -0.152339
     8  C    0.333798
     9  C    0.161903
    10  C    0.288055
    11  C   -0.630297
    12  C    0.671802
    13  C   -0.616810
    14  C    0.668355
 Electronic spatial extent (au):  <R**2>=           2852.0348
 Charge=              1.0000 electrons
 Dipole moment (field-independent basis, Debye):
    X=             -0.0104    Y=              0.1853    Z=              0.0005  Tot=              0.1856
 Quadrupole moment (field-independent basis, Debye-Ang):
   XX=            -31.2031   YY=            -56.2630   ZZ=            -84.1096
   XY=             -0.0058   XZ=              0.0098   YZ=              0.0495
 Traceless Quadrupole moment (field-independent basis, Debye-Ang):
   XX=             25.9888   YY=              0.9289   ZZ=            -26.9177
   XY=             -0.0058   XZ=              0.0098   YZ=              0.0495
 Octapole moment (field-independent basis, Debye-Ang**2):
  XXX=             -0.4362  YYY=              5.2072  ZZZ=             -0.0075  XYY=              0.0032
  XXY=             -5.4993  XXZ=              0.0815  XZZ=              0.0543  YZZ=             -3.0907
  YYZ=              0.0426  XYZ=              0.0489
 Hexadecapole moment (field-independent basis, Debye-Ang**3):
 XXXX=          -2120.8576 YYYY=           -609.2549 ZZZZ=            -99.2406 XXXY=             -0.2489
 XXXZ=              0.2742 YYYX=              0.1048 YYYZ=              0.5690 ZZZX=              0.0121
 ZZZY=              0.0113 XXYY=           -507.0450 XXZZ=           -589.6618 YYZZ=           -145.6625
 XXYZ=              0.5065 YYXZ=              0.0010 ZZXY=             -0.0049
 N-N= 7.816543933902D+02 E-N=-2.799676017324D+03  KE= 5.375350255782D+02
 Unable to Open any file for archive entry.
 1\1\GINC-GADI-CPU-CLX-0113\SP\RM062X TD-FC\6-311++G(d,p)\C14H11(1+)\TS
 1578\28-Jul-2022\0\\#n M062X/6-311++G(d,p) TD(NStates=1) EmpiricalDisp
 ersion=GD3 SP\\SP_125\\1,1\C,0,-0.00305,2.491755,1.360431\C,0,-0.00632
 5,3.697283,0.671989\C,0,-0.0011,3.675661,-0.71383\C,0,0.008,2.458206,-
 1.407538\C,0,0.0076,-2.459006,-1.407538\C,0,-0.0035,-3.679661,-0.71383
 \C,0,-0.010125,-3.698683,0.671989\C,0,-0.01065,-2.494155,1.360431\C,0,
 -0.004475,0.0088,1.453369\C,0,0.0122,-0.0004,-1.429189\C,0,0.002125,1.
 26598,0.677065\C,0,0.0042,1.237471,-0.730804\C,0,0.001525,-1.26578,0.6
 77065\C,0,0.0058,-1.236271,-0.730804\H,0,0.0023,2.486996,2.443647\H,0,
 -0.006025,4.632378,1.211689\H,0,0.00205,4.606987,-1.272349\H,0,0.00305
 ,2.462825,-2.490059\H,0,0.01125,-0.0002,-2.510266\H,0,0.00425,-2.46342
 5,-2.490059\H,0,0.00085,-4.611987,-1.272349\H,0,-0.010625,-4.635378,1.
 211689\H,0,-0.0065,-2.489596,2.443647\H,0,-0.875585,0.002,2.143587\H,0
 ,0.843585,0.002,2.147987\\Version=ES64L-G16RevC.01\State=1-A\HF=-539.7
 601071\RMSD=4.585e-09\PG=C01 [X(C14H11)]\\@
 The archive entry for this job was punched.


 Standing in the middle of the road is very dangerous;
 you get knocked down by the traffic from both sides.
                                -- Margaret Thatcher
 Job cpu time:       0 days  1 hours 19 minutes 54.8 seconds.
 Elapsed time:       0 days  0 hours  1 minutes 40.0 seconds.
 File lengths (MBytes):  RWF=    460 Int=      0 D2E=      0 Chk=     15 Scr=      1
 Normal termination of Gaussian 16 at Thu Jul 28 16:58:16 2022.
