 Entering Gaussian System, Link 0=g16
 Initial command:
 /apps/gaussian/g16c01/g16/l1.exe "/jobfs/53002009.gadi-pbs/Gau-808090.inp" -scrdir="/jobfs/53002009.gadi-pbs/"
 Entering Link 1 = /apps/gaussian/g16c01/g16/l1.exe PID=    808091.
  
 Copyright (c) 1988-2019, Gaussian, Inc.  All Rights Reserved.
  
 This is part of the Gaussian(R) 16 program.  It is based on
 the Gaussian(R) 09 system (copyright 2009, Gaussian, Inc.),
 the Gaussian(R) 03 system (copyright 2003, Gaussian, Inc.),
 the Gaussian(R) 98 system (copyright 1998, Gaussian, Inc.),
 the Gaussian(R) 94 system (copyright 1995, Gaussian, Inc.),
 the Gaussian 92(TM) system (copyright 1992, Gaussian, Inc.),
 the Gaussian 90(TM) system (copyright 1990, Gaussian, Inc.),
 the Gaussian 88(TM) system (copyright 1988, Gaussian, Inc.),
 the Gaussian 86(TM) system (copyright 1986, Carnegie Mellon
 University), and the Gaussian 82(TM) system (copyright 1983,
 Carnegie Mellon University). Gaussian is a federally registered
 trademark of Gaussian, Inc.
  
 This software contains proprietary and confidential information,
 including trade secrets, belonging to Gaussian, Inc.
  
 This software is provided under written license and may be
 used, copied, transmitted, or stored only in accord with that
 written license.
  
 The following legend is applicable only to US Government
 contracts under FAR:
  
                    RESTRICTED RIGHTS LEGEND
  
 Use, reproduction and disclosure by the US Government is
 subject to restrictions as set forth in subparagraphs (a)
 and (c) of the Commercial Computer Software - Restricted
 Rights clause in FAR 52.227-19.
  
 Gaussian, Inc.
 340 Quinnipiac St., Bldg. 40, Wallingford CT 06492
  
  
 ---------------------------------------------------------------
 Warning -- This program may not be used in any manner that
 competes with the business of Gaussian, Inc. or will provide
 assistance to any competitor of Gaussian, Inc.  The licensee
 of this program is prohibited from giving any competitor of
 Gaussian, Inc. access to this program.  By using this program,
 the user acknowledges that Gaussian, Inc. is engaged in the
 business of creating and licensing software in the field of
 computational chemistry and represents and warrants to the
 licensee that it is not a competitor of Gaussian, Inc. and that
 it will not use this program in any manner prohibited above.
 ---------------------------------------------------------------
  

 Cite this work as:
 Gaussian 16, Revision C.01,
 M. J. Frisch, G. W. Trucks, H. B. Schlegel, G. E. Scuseria, 
 M. A. Robb, J. R. Cheeseman, G. Scalmani, V. Barone, 
 G. A. Petersson, H. Nakatsuji, X. Li, M. Caricato, A. V. Marenich, 
 J. Bloino, B. G. Janesko, R. Gomperts, B. Mennucci, H. P. Hratchian, 
 J. V. Ortiz, A. F. Izmaylov, J. L. Sonnenberg, D. Williams-Young, 
 F. Ding, F. Lipparini, F. Egidi, J. Goings, B. Peng, A. Petrone, 
 T. Henderson, D. Ranasinghe, V. G. Zakrzewski, J. Gao, N. Rega, 
 G. Zheng, W. Liang, M. Hada, M. Ehara, K. Toyota, R. Fukuda, 
 J. Hasegawa, M. Ishida, T. Nakajima, Y. Honda, O. Kitao, H. Nakai, 
 T. Vreven, K. Throssell, J. A. Montgomery, Jr., J. E. Peralta, 
 F. Ogliaro, M. J. Bearpark, J. J. Heyd, E. N. Brothers, K. N. Kudin, 
 V. N. Staroverov, T. A. Keith, R. Kobayashi, J. Normand, 
 K. Raghavachari, A. P. Rendell, J. C. Burant, S. S. Iyengar, 
 J. Tomasi, M. Cossi, J. M. Millam, M. Klene, C. Adamo, R. Cammi, 
 J. W. Ochterski, R. L. Martin, K. Morokuma, O. Farkas, 
 J. B. Foresman, and D. J. Fox, Gaussian, Inc., Wallingford CT, 2019.
 
 ******************************************
 Gaussian 16:  ES64L-G16RevC.01  3-Jul-2019
                28-Jul-2022 
 ******************************************
 %NProcShared=48
 Will use up to   48 processors via shared memory.
 %mem = 190GB
 ---------------------------------------------------------------
 #n M062X/6-311++G(d,p) TD(NStates=1) EmpiricalDispersion=GD3 SP
 ---------------------------------------------------------------
 1/38=1,172=1/1;
 2/12=2,17=6,18=5,40=1/2;
 3/5=4,6=6,7=1111,11=9,25=1,30=1,74=-55,124=31/1,2,3,8;
 4//1;
 5/5=2,38=5/2;
 8/6=1,10=2,108=1/1;
 9/41=1,42=1,70=2/14;
 6/7=2,8=2,9=2,10=2/1;
 99/5=1,9=1/99;
 ------
 SP_150
 ------
 Symbolic Z-matrix:
 Charge =  1 Multiplicity = 1
 C                    -0.0294    2.49356   1.36043 
 C                    -0.0363    3.68538   0.67199 
 C                    -0.0099    3.65521  -0.71383 
 C                     0.03517   2.44253  -1.40754 
 C                     0.03502  -2.44283  -1.40754 
 C                    -0.0108   -3.65671  -0.71383 
 C                    -0.03773  -3.68591   0.67199 
 C                    -0.03225  -2.49446   1.36043 
 C                    -0.01973   0.0033    1.45337 
 C                     0.0549   -0.00015  -1.42919 
 C                     0.00833   1.27931   0.67707 
 C                     0.0222    1.235    -0.7308 
 C                     0.0081   -1.27923   0.67707 
 C                     0.0228   -1.23455  -0.7308 
 H                    -0.0078    2.4886    2.44365 
 H                    -0.0366    4.62325   1.21169 
 H                     0.00675   4.60934  -1.27235 
 H                     0.0162    2.44753  -2.49006 
 H                     0.05063  -0.00008  -2.51027 
 H                     0.01665  -2.44775  -2.49006 
 H                     0.0063   -4.61121  -1.27235 
 H                    -0.03833  -4.62438   1.21169 
 H                    -0.0111   -2.48957   2.44365 
 H                    -0.93159   0.00075   2.14496 
 H                     0.78759   0.00075   2.14661 
 
                          Input orientation:                          
 ---------------------------------------------------------------------
 Center     Atomic      Atomic             Coordinates (Angstroms)
 Number     Number       Type             X           Y           Z
 ---------------------------------------------------------------------
      1          6           0       -0.029400    2.493555    1.360431
      2          6           0       -0.036300    3.685383    0.671989
      3          6           0       -0.009900    3.655211   -0.713830
      4          6           0        0.035175    2.442531   -1.407538
      5          6           0        0.035025   -2.442831   -1.407538
      6          6           0       -0.010800   -3.656711   -0.713830
      7          6           0       -0.037725   -3.685908    0.671989
      8          6           0       -0.032250   -2.494455    1.360431
      9          6           0       -0.019725    0.003300    1.453369
     10          6           0        0.054900   -0.000150   -1.429189
     11          6           0        0.008325    1.279305    0.677065
     12          6           0        0.022200    1.234996   -0.730804
     13          6           0        0.008100   -1.279230    0.677065
     14          6           0        0.022800   -1.234546   -0.730804
     15          1           0       -0.007800    2.488596    2.443647
     16          1           0       -0.036600    4.623253    1.211689
     17          1           0        0.006750    4.609337   -1.272349
     18          1           0        0.016200    2.447525   -2.490059
     19          1           0        0.050625   -0.000075   -2.510266
     20          1           0        0.016650   -2.447750   -2.490059
     21          1           0        0.006300   -4.611212   -1.272349
     22          1           0       -0.038325   -4.624378    1.211689
     23          1           0       -0.011100   -2.489571    2.443647
     24          1           0       -0.931585    0.000750    2.144962
     25          1           0        0.787585    0.000750    2.146612
 ---------------------------------------------------------------------
                    Distance matrix (angstroms):
                    1          2          3          4          5
     1  C    0.000000
     2  C    1.376392   0.000000
     3  C    2.377474   1.386399   0.000000
     4  C    2.769192   2.423679   1.397804   0.000000
     5  C    5.659833   6.471826   6.137537   4.885362   0.000000
     6  C    6.490661   7.471779   7.311922   6.138737   1.398869
     7  C    6.217699   7.371291   7.470830   6.472056   2.423833
     8  C    4.988011   6.218068   6.490104   5.660391   2.769268
     9  C    2.492007   3.764115   4.246564   3.760007   3.764484
    10  C    3.742680   4.243397   3.725265   2.442857   2.442858
    11  C    1.393849   2.406497   2.753153   2.387339   4.266214
    12  C    2.441290   2.824119   2.420487   1.384297   3.739592
    13  C    3.834358   4.964814   5.126755   4.265889   2.387522
    14  C    4.274895   5.116349   4.889896   3.738852   1.384944
    15  H    1.083443   2.138196   3.366104   3.851700   6.257190
    16  H    2.134898   1.082070   2.155329   3.408966   7.536247
    17  H    3.377776   2.153136   1.105702   2.171205   7.053520
    18  H    3.851035   3.396115   2.148063   1.082699   5.008771
    19  H    4.605094   4.870000   4.073323   2.680032   2.680170
    20  H    6.264574   6.900483   6.356243   5.008697   1.082688
    21  H    7.576973   8.521488   8.285285   7.055097   2.172781
    22  H    7.119493   8.327269   8.500590   7.537039   3.409527
    23  H    5.099533   6.424131   6.908546   6.257747   3.851745
    24  H    2.764689   4.067887   4.730463   4.417825   4.418787
    25  H    2.738544   4.053371   4.708842   4.377259   4.378289
                    6          7          8          9         10
     6  C    0.000000
     7  C    1.386388   0.000000
     8  C    2.377784   1.376061   0.000000
     9  C    4.253529   3.771092   2.499515   0.000000
    10  C    3.726459   4.243624   3.743145   2.883526   0.000000
    11  C    5.128275   4.965429   3.835349   1.493862   2.464849
    12  C    4.891848   5.117296   4.276100   2.507876   1.419294
    13  C    2.754517   2.407120   1.394772   1.499435   2.464659
    14  C    2.422458   2.825007   2.442062   2.510913   1.418628
    15  H    6.909014   6.423719   5.099485   2.675348   4.603982
    16  H    8.500947   8.326670   7.119263   4.626301   5.325267
    17  H    8.284914   8.520183   7.576075   5.352179   4.612406
    18  H    6.357469   6.900758   6.265125   4.639628   2.667968
    19  H    4.074548   4.870310   4.605550   3.964261   1.081085
    20  H    2.148797   3.396254   3.851084   4.643231   2.667893
    21  H    1.106033   2.153735   3.378413   5.359472   4.613985
    22  H    2.155171   1.082591   2.135119   4.634022   5.326013
    23  H    3.366285   2.137920   1.083433   2.682374   4.604393
    24  H    4.732606   4.069408   2.765925   1.144463   3.707790
    25  H    4.711323   4.055502   2.741579   1.064115   3.650093
                   11         12         13         14         15
    11  C    0.000000
    12  C    1.408634   0.000000
    13  C    2.558535   2.881601   0.000000
    14  C    2.881276   2.469542   1.408655   0.000000
    15  H    2.140901   3.413144   4.161439   4.892838   0.000000
    16  H    3.386714   3.906024   5.926814   6.171760   2.464814
    17  H    3.858670   3.417556   6.202857   5.868943   4.278596
    18  H    3.375718   2.136642   4.890751   4.080768   4.933935
    19  H    3.434775   2.166263   3.434694   2.165913   5.544200
    20  H    4.890980   4.081376   3.375824   2.137026   6.979224
    21  H    6.204709   5.871258   3.860353   3.419856   8.013495
    22  H    5.928024   6.173265   3.387919   3.907426   7.218937
    23  H    4.162405   4.893940   2.141520   3.413704   4.978168
    24  H    2.161679   3.271559   2.162424   3.272130   2.670575
    25  H    2.097979   3.223151   2.098932   3.223410   2.628734
                   16         17         18         19         20
    16  H    0.000000
    17  H    2.484455   0.000000
    18  H    4.294126   2.481197   0.000000
    19  H    5.935968   4.772949   2.447925   0.000000
    20  H    7.981532   7.161382   4.895275   2.447994   0.000000
    21  H    9.562825   9.220549   7.163008   4.774619   2.482638
    22  H    9.247631   9.562111   7.982338   5.936753   4.294609
    23  H    7.218770   8.012705   6.979765   5.544606   4.933961
    24  H    4.799951   5.813567   5.326202   4.757718   5.327074
    25  H    4.787577   5.791206   5.299100   4.714830   5.299831
                   21         22         23         24         25
    21  H    0.000000
    22  H    2.484474   0.000000
    23  H    4.279052   2.464926   0.000000
    24  H    5.816170   4.802158   2.671742   0.000000
    25  H    5.793953   4.790409   2.632076   1.719171   0.000000
 Stoichiometry    C14H11(1+)
 Framework group  C1[X(C14H11)]
 Deg. of freedom    69
 Full point group                 C1      NOp   1
 Largest Abelian subgroup         C1      NOp   1
 Largest concise Abelian subgroup C1      NOp   1
                         Standard orientation:                         
 ---------------------------------------------------------------------
 Center     Atomic      Atomic             Coordinates (Angstroms)
 Number     Number       Type             X           Y           Z
 ---------------------------------------------------------------------
      1          6           0        2.493636   -1.360582    0.002087
      2          6           0        3.685420   -0.672341    0.022828
      3          6           0        3.655165    0.713728    0.023857
      4          6           0        2.442450    1.408120   -0.007697
      5          6           0       -2.442912    1.407827   -0.008427
      6          6           0       -3.656757    0.713276    0.023439
      7          6           0       -3.685871   -0.672806    0.022923
      8          6           0       -2.494374   -1.360934    0.004038
      9          6           0        0.003389   -1.453458   -0.009874
     10          6           0       -0.000229    1.430012   -0.027430
     11          6           0        1.279350   -0.676675   -0.022323
     12          6           0        1.234955    0.731190   -0.008337
     13          6           0       -1.279185   -0.676832   -0.022559
     14          6           0       -1.234587    0.731055   -0.009382
     15          1           0        2.488749   -2.443159   -0.040950
     16          1           0        4.623324   -1.211885    0.012614
     17          1           0        4.609259    1.272523    0.018437
     18          1           0        2.447372    2.490054    0.032702
     19          1           0       -0.000223    2.510793   -0.001757
     20          1           0       -2.447903    2.489772    0.031370
     21          1           0       -4.611290    1.271967    0.017225
     22          1           0       -4.624308   -1.212468    0.012672
     23          1           0       -2.489418   -2.443519   -0.038548
     24          1           0        0.000719   -2.162965    0.888118
     25          1           0        0.001027   -2.130586   -0.830748
 ---------------------------------------------------------------------
 Rotational constants (GHZ):           2.1347910           0.4483493           0.3713736
 Standard basis: 6-311++G(d,p) (5D, 7F)
 There are   399 symmetry adapted cartesian basis functions of A   symmetry.
 There are   385 symmetry adapted basis functions of A   symmetry.
   385 basis functions,   603 primitive gaussians,   399 cartesian basis functions
    47 alpha electrons       47 beta electrons
       nuclear repulsion energy       783.1983272092 Hartrees.
 NAtoms=   25 NActive=   25 NUniq=   25 SFac= 1.00D+00 NAtFMM=   60 NAOKFM=F Big=F
 Integral buffers will be    131072 words long.
 Regular integral format.
 Two-electron integral symmetry is turned on.
 Nuclear repulsion after empirical dispersion term =      783.1973482955 Hartrees.
 One-electron integrals computed using PRISM.
 NBasis=   385 RedAO= T EigKep=  1.42D-06  NBF=   385
 NBsUse=   379 1.00D-06 EigRej=  8.21D-07 NBFU=   379
 ExpMin= 3.60D-02 ExpMax= 4.56D+03 ExpMxC= 6.82D+02 IAcc=3 IRadAn=         5 AccDes= 0.00D+00
 Harris functional with IExCor= 1009 and IRadAn=       5 diagonalized for initial guess.
 HarFok:  IExCor= 1009 AccDes= 0.00D+00 IRadAn=         5 IDoV= 1 UseB2=F ITyADJ=14
 ICtDFT=  3500011 ScaDFX=  1.000000  1.000000  1.000000  1.000000
 FoFCou: FMM=F IPFlag=           0 FMFlag=      100000 FMFlg1=           0
         NFxFlg=           0 DoJE=T BraDBF=F KetDBF=T FulRan=T
         wScrn=  0.000000 ICntrl=       500 IOpCl=  0 I1Cent=   200000004 NGrid=           0
         NMat0=    1 NMatS0=      1 NMatT0=    0 NMatD0=    1 NMtDS0=    0 NMtDT0=    0
 Petite list used in FoFCou.
 Requested convergence on RMS density matrix=1.00D-08 within 128 cycles.
 Requested convergence on MAX density matrix=1.00D-06.
 Requested convergence on             energy=1.00D-06.
 No special actions if energy rises.
 SCF Done:  E(RM062X) =  -539.755642709     A.U. after   15 cycles
            NFock= 15  Conv=0.59D-08     -V/T= 2.0039
 DoSCS=F DFT=T ScalE2(SS,OS)=  1.000000  1.000000
 ExpMin= 3.60D-02 ExpMax= 4.56D+03 ExpMxC= 6.82D+02 IAcc=3 IRadAn=         5 AccDes= 0.00D+00
 HarFok:  IExCor=  205 AccDes= 0.00D+00 IRadAn=         5 IDoV=-2 UseB2=F ITyADJ=14
 ICtDFT= 12500011 ScaDFX=  1.000000  1.000000  1.000000  1.000000
 Range of M.O.s used for correlation:    15   379
 NBasis=   385 NAE=    47 NBE=    47 NFC=    14 NFV=     0
 NROrb=    365 NOA=    33 NOB=    33 NVA=   332 NVB=   332

 **** Warning!!: The largest alpha MO coefficient is  0.14388597D+03

 Orbital symmetries:
       Occupied  (A) (A) (A) (A) (A) (A) (A) (A) (A) (A) (A) (A)
                 (A) (A) (A) (A) (A) (A) (A) (A) (A) (A) (A) (A)
                 (A) (A) (A) (A) (A) (A) (A) (A) (A) (A) (A) (A)
                 (A) (A) (A) (A) (A) (A) (A) (A) (A) (A) (A)
       Virtual   (A) (A) (A) (A) (A) (A) (A) (A) (A) (A) (A) (A)
                 (A) (A) (A) (A) (A) (A) (A) (A) (A) (A) (A) (A)
                 (A) (A) (A) (A) (A) (A) (A) (A) (A) (A) (A) (A)
                 (A) (A) (A) (A) (A) (A) (A) (A) (A) (A) (A) (A)
                 (A) (A) (A) (A) (A) (A) (A) (A) (A) (A) (A) (A)
                 (A) (A) (A) (A) (A) (A) (A) (A) (A) (A) (A) (A)
                 (A) (A) (A) (A) (A) (A) (A) (A) (A) (A) (A) (A)
                 (A) (A) (A) (A) (A) (A) (A) (A) (A) (A) (A) (A)
                 (A) (A) (A) (A) (A) (A) (A) (A) (A) (A) (A) (A)
                 (A) (A) (A) (A) (A) (A) (A) (A) (A) (A) (A) (A)
                 (A) (A) (A) (A) (A) (A) (A) (A) (A) (A) (A) (A)
                 (A) (A) (A) (A) (A) (A) (A) (A) (A) (A) (A) (A)
                 (A) (A) (A) (A) (A) (A) (A) (A) (A) (A) (A) (A)
                 (A) (A) (A) (A) (A) (A) (A) (A) (A) (A) (A) (A)
                 (A) (A) (A) (A) (A) (A) (A) (A) (A) (A) (A) (A)
                 (A) (A) (A) (A) (A) (A) (A) (A) (A) (A) (A) (A)
                 (A) (A) (A) (A) (A) (A) (A) (A) (A) (A) (A) (A)
                 (A) (A) (A) (A) (A) (A) (A) (A) (A) (A) (A) (A)
                 (A) (A) (A) (A) (A) (A) (A) (A) (A) (A) (A) (A)
                 (A) (A) (A) (A) (A) (A) (A) (A) (A) (A) (A) (A)
                 (A) (A) (A) (A) (A) (A) (A) (A) (A) (A) (A) (A)
                 (A) (A) (A) (A) (A) (A) (A) (A) (A) (A) (A) (A)
                 (A) (A) (A) (A) (A) (A) (A) (A) (A) (A) (A) (A)
                 (A) (A) (A) (A) (A) (A) (A) (A) (A) (A) (A) (A)
                 (A) (A) (A) (A) (A) (A) (A) (A) (A) (A) (A) (A)
                 (A) (A) (A) (A) (A) (A) (A) (A) (A) (A) (A) (A)
                 (A) (A) (A) (A) (A) (A) (A) (A) (A) (A) (A) (A)
                 (A) (A) (A) (A) (A) (A) (A) (A)
     4 initial guesses have been made.
 Convergence on wavefunction:    0.001000000000000
 Iteration     1 Dimension     4 NMult     0 NNew      4
 CISAX will form     4 AO SS matrices at one time.
 Iteration     2 Dimension     6 NMult     4 NNew      2
 Iteration     3 Dimension     8 NMult     6 NNew      2
 Iteration     4 Dimension    10 NMult     8 NNew      2
 Iteration     5 Dimension    12 NMult    10 NNew      2
 Iteration     6 Dimension    14 NMult    12 NNew      2
 ***********************************************************************
 Excited states from <AA,BB:AA,BB> singles matrix:
 ***********************************************************************
 
 Ground to excited state transition densities written to RWF  633
 Ground to excited state transition electric dipole moments (Au):
       state          X           Y           Z        Dip. S.      Osc.
         1         0.0039     -0.6583      0.0094      0.4334      0.0302
 Ground to excited state transition velocity dipole moments (Au):
       state          X           Y           Z        Dip. S.      Osc.
         1        -0.0004      0.0761     -0.0011      0.0058      0.0369
 Ground to excited state transition magnetic dipole moments (Au):
       state          X           Y           Z
         1        -0.0128     -0.0004     -0.0004
 Ground to excited state transition velocity quadrupole moments (Au):
       state          XX          YY          ZZ          XY          XZ          YZ
         1         0.2684      0.0398     -0.0101     -0.0007      0.0000      0.0014
 <0|del|b> * <b|rxdel|0> + <0|del|b> * <b|delr+rdel|0>
 Rotatory Strengths (R) in cgs (10**-40 erg-esu-cm/Gauss)
       state          XX          YY          ZZ    R(velocity)    E-M Angle
         1        -0.0975      0.0151     -0.0602     -0.0475       90.00
 1/2[<0|r|b>*<b|rxdel|0> + (<0|rxdel|b>*<b|r|0>)*]
 Rotatory Strengths (R) in cgs (10**-40 erg-esu-cm/Gauss)
       state          XX          YY          ZZ     R(length)
         1         0.0354     -0.1648      0.0025     -0.0423
  1/2[<0|del|b>*<b|r|0> + (<0|r|b>*<b|del|0>)*] (Au)
       state          X           Y           Z        Dip. S.   Osc.(frdel)
         1        -0.0000     -0.0501     -0.0000      0.0501      0.0334

 Excitation energies and oscillator strengths:
 
 Excited State   1:      Singlet-A      2.8488 eV  435.22 nm  f=0.0302  <S**2>=0.000
      47 -> 48         0.70421
 This state for optimization and/or second-order correction.
 Total Energy, E(TD-HF/TD-DFT) =  -539.650952992    
 Copying the excited state density for this state as the 1-particle RhoCI density.
 SavETr:  write IOETrn=   770 NScale= 10 NData=  16 NLR=1 NState=    1 LETran=      28.

 **********************************************************************

            Population analysis using the SCF Density.

 **********************************************************************

 Orbital symmetries:
       Occupied  (A) (A) (A) (A) (A) (A) (A) (A) (A) (A) (A) (A)
                 (A) (A) (A) (A) (A) (A) (A) (A) (A) (A) (A) (A)
                 (A) (A) (A) (A) (A) (A) (A) (A) (A) (A) (A) (A)
                 (A) (A) (A) (A) (A) (A) (A) (A) (A) (A) (A)
       Virtual   (A) (A) (A) (A) (A) (A) (A) (A) (A) (A) (A) (A)
                 (A) (A) (A) (A) (A) (A) (A) (A) (A) (A) (A) (A)
                 (A) (A) (A) (A) (A) (A) (A) (A) (A) (A) (A) (A)
                 (A) (A) (A) (A) (A) (A) (A) (A) (A) (A) (A) (A)
                 (A) (A) (A) (A) (A) (A) (A) (A) (A) (A) (A) (A)
                 (A) (A) (A) (A) (A) (A) (A) (A) (A) (A) (A) (A)
                 (A) (A) (A) (A) (A) (A) (A) (A) (A) (A) (A) (A)
                 (A) (A) (A) (A) (A) (A) (A) (A) (A) (A) (A) (A)
                 (A) (A) (A) (A) (A) (A) (A) (A) (A) (A) (A) (A)
                 (A) (A) (A) (A) (A) (A) (A) (A) (A) (A) (A) (A)
                 (A) (A) (A) (A) (A) (A) (A) (A) (A) (A) (A) (A)
                 (A) (A) (A) (A) (A) (A) (A) (A) (A) (A) (A) (A)
                 (A) (A) (A) (A) (A) (A) (A) (A) (A) (A) (A) (A)
                 (A) (A) (A) (A) (A) (A) (A) (A) (A) (A) (A) (A)
                 (A) (A) (A) (A) (A) (A) (A) (A) (A) (A) (A) (A)
                 (A) (A) (A) (A) (A) (A) (A) (A) (A) (A) (A) (A)
                 (A) (A) (A) (A) (A) (A) (A) (A) (A) (A) (A) (A)
                 (A) (A) (A) (A) (A) (A) (A) (A) (A) (A) (A) (A)
                 (A) (A) (A) (A) (A) (A) (A) (A) (A) (A) (A) (A)
                 (A) (A) (A) (A) (A) (A) (A) (A) (A) (A) (A) (A)
                 (A) (A) (A) (A) (A) (A) (A) (A) (A) (A) (A) (A)
                 (A) (A) (A) (A) (A) (A) (A) (A) (A) (A) (A) (A)
                 (A) (A) (A) (A) (A) (A) (A) (A) (A) (A) (A) (A)
                 (A) (A) (A) (A) (A) (A) (A) (A) (A) (A) (A) (A)
                 (A) (A) (A) (A) (A) (A) (A) (A) (A) (A) (A) (A)
                 (A) (A) (A) (A) (A) (A) (A) (A) (A) (A) (A) (A)
                 (A) (A) (A) (A) (A) (A) (A) (A) (A) (A) (A) (A)
                 (A) (A) (A) (A) (A) (A) (A) (A)
 The electronic state is 1-A.
 Alpha  occ. eigenvalues --  -10.77691 -10.73202 -10.73160 -10.72260 -10.72257
 Alpha  occ. eigenvalues --  -10.71150 -10.71127 -10.70966 -10.70873 -10.70866
 Alpha  occ. eigenvalues --  -10.69741 -10.69730 -10.69725 -10.69710  -1.16604
 Alpha  occ. eigenvalues --   -1.12936  -1.07211  -1.05567  -1.01810  -1.00077
 Alpha  occ. eigenvalues --   -0.95963  -0.91004  -0.86454  -0.85990  -0.83832
 Alpha  occ. eigenvalues --   -0.78460  -0.76040  -0.74510  -0.69572  -0.69244
 Alpha  occ. eigenvalues --   -0.68536  -0.67996  -0.67757  -0.65094  -0.64590
 Alpha  occ. eigenvalues --   -0.62710  -0.61554  -0.60107  -0.60013  -0.58950
 Alpha  occ. eigenvalues --   -0.56858  -0.55089  -0.54637  -0.52625  -0.46993
 Alpha  occ. eigenvalues --   -0.45992  -0.44682
 Alpha virt. eigenvalues --   -0.26148  -0.14475  -0.14048  -0.12520  -0.11186
 Alpha virt. eigenvalues --   -0.10105  -0.09266  -0.08092  -0.07928  -0.07489
 Alpha virt. eigenvalues --   -0.07235  -0.07088  -0.05636  -0.05582  -0.05296
 Alpha virt. eigenvalues --   -0.03897  -0.03798  -0.03280  -0.03123  -0.02158
 Alpha virt. eigenvalues --   -0.01401  -0.01002   0.00200   0.00488   0.00684
 Alpha virt. eigenvalues --    0.01072   0.01510   0.01950   0.02242   0.02280
 Alpha virt. eigenvalues --    0.02454   0.02720   0.02961   0.03126   0.03295
 Alpha virt. eigenvalues --    0.04223   0.04515   0.04719   0.05155   0.05404
 Alpha virt. eigenvalues --    0.05861   0.06322   0.06640   0.07015   0.07263
 Alpha virt. eigenvalues --    0.07914   0.08315   0.08338   0.08628   0.08923
 Alpha virt. eigenvalues --    0.09519   0.09582   0.10017   0.10832   0.11064
 Alpha virt. eigenvalues --    0.11178   0.12179   0.12201   0.12880   0.12989
 Alpha virt. eigenvalues --    0.13398   0.13443   0.14006   0.14583   0.15676
 Alpha virt. eigenvalues --    0.16143   0.16759   0.17097   0.17295   0.17737
 Alpha virt. eigenvalues --    0.18115   0.19239   0.19366   0.19665   0.19731
 Alpha virt. eigenvalues --    0.21549   0.21725   0.22666   0.23002   0.23571
 Alpha virt. eigenvalues --    0.23807   0.24606   0.24677   0.26801   0.27787
 Alpha virt. eigenvalues --    0.28809   0.29228   0.29755   0.31435   0.35753
 Alpha virt. eigenvalues --    0.36707   0.37936   0.39463   0.41036   0.41304
 Alpha virt. eigenvalues --    0.41946   0.42031   0.42945   0.43952   0.43985
 Alpha virt. eigenvalues --    0.44125   0.45370   0.45620   0.46263   0.47812
 Alpha virt. eigenvalues --    0.48425   0.48872   0.48981   0.50344   0.51080
 Alpha virt. eigenvalues --    0.51596   0.51822   0.52231   0.53471   0.53857
 Alpha virt. eigenvalues --    0.53924   0.54849   0.55775   0.55862   0.57129
 Alpha virt. eigenvalues --    0.58265   0.58785   0.61461   0.62045   0.62253
 Alpha virt. eigenvalues --    0.63055   0.63611   0.63718   0.65239   0.66266
 Alpha virt. eigenvalues --    0.70242   0.70750   0.70905   0.72235   0.72655
 Alpha virt. eigenvalues --    0.75397   0.75615   0.76021   0.76265   0.76606
 Alpha virt. eigenvalues --    0.77382   0.77742   0.78281   0.80246   0.80752
 Alpha virt. eigenvalues --    0.81053   0.82053   0.82189   0.83059   0.84461
 Alpha virt. eigenvalues --    0.86633   0.86785   0.87755   0.89505   0.90433
 Alpha virt. eigenvalues --    0.91311   0.91579   0.93863   0.95047   0.95975
 Alpha virt. eigenvalues --    0.96872   1.00223   1.01336   1.02053   1.02736
 Alpha virt. eigenvalues --    1.03593   1.04266   1.04554   1.06183   1.09434
 Alpha virt. eigenvalues --    1.19108   1.23264   1.24098   1.25607   1.28317
 Alpha virt. eigenvalues --    1.30314   1.31006   1.34691   1.35848   1.36488
 Alpha virt. eigenvalues --    1.39424   1.40033   1.40858   1.43594   1.43722
 Alpha virt. eigenvalues --    1.43911   1.45094   1.45579   1.46638   1.46676
 Alpha virt. eigenvalues --    1.48109   1.48833   1.51731   1.53900   1.55929
 Alpha virt. eigenvalues --    1.56229   1.56652   1.57113   1.58141   1.61886
 Alpha virt. eigenvalues --    1.62846   1.62999   1.63081   1.66309   1.67943
 Alpha virt. eigenvalues --    1.68652   1.68885   1.69675   1.74924   1.76000
 Alpha virt. eigenvalues --    1.77238   1.78028   1.79634   1.80816   1.81608
 Alpha virt. eigenvalues --    1.82890   1.82921   1.83512   1.84017   1.84429
 Alpha virt. eigenvalues --    1.84618   1.86291   1.86501   1.88531   1.91199
 Alpha virt. eigenvalues --    1.92092   1.93999   1.95206   1.98308   1.99024
 Alpha virt. eigenvalues --    2.00622   2.02077   2.04808   2.06525   2.12103
 Alpha virt. eigenvalues --    2.12177   2.13630   2.15361   2.20454   2.20906
 Alpha virt. eigenvalues --    2.23347   2.29211   2.30580   2.34077   2.35815
 Alpha virt. eigenvalues --    2.36092   2.37455   2.37785   2.40089   2.42264
 Alpha virt. eigenvalues --    2.47065   2.49541   2.50626   2.53240   2.53667
 Alpha virt. eigenvalues --    2.53852   2.56522   2.58195   2.58745   2.60033
 Alpha virt. eigenvalues --    2.60210   2.61389   2.62192   2.63101   2.63993
 Alpha virt. eigenvalues --    2.64572   2.64827   2.65336   2.65559   2.67811
 Alpha virt. eigenvalues --    2.67971   2.71195   2.71343   2.73756   2.74848
 Alpha virt. eigenvalues --    2.76659   2.79365   2.80207   2.83381   2.84035
 Alpha virt. eigenvalues --    2.85892   2.86717   2.92319   2.95856   3.00216
 Alpha virt. eigenvalues --    3.00804   3.03804   3.12294   3.12667   3.14661
 Alpha virt. eigenvalues --    3.20443   3.22808   3.27921   3.28755   3.31556
 Alpha virt. eigenvalues --    3.33260   3.34259   3.43626   3.46172   3.48693
 Alpha virt. eigenvalues --    3.49854   3.51481   3.56720   3.64016   3.67742
 Alpha virt. eigenvalues --    3.68215   3.91585   3.92399   3.94706   3.96138
 Alpha virt. eigenvalues --    4.02701   4.07016   4.07603   4.12385   4.34900
 Alpha virt. eigenvalues --    4.60324   4.70751   4.72681  23.44876  23.58864
 Alpha virt. eigenvalues --   23.82750  23.84818  23.88018  23.90561  23.90846
 Alpha virt. eigenvalues --   23.92688  23.98987  24.01294  24.03478  24.03668
 Alpha virt. eigenvalues --   24.12833  24.12933
          Condensed to atoms (all electrons):
               1          2          3          4          5          6
     1  C    8.429036   0.609971  -0.608483   1.484751   0.013107  -0.093195
     2  C    0.609971   6.918400   0.389092  -0.702005  -0.077426  -0.019740
     3  C   -0.608483   0.389092   6.673251   0.626385  -0.104589   0.019256
     4  C    1.484751  -0.702005   0.626385   9.807058  -0.041850  -0.102721
     5  C    0.013107  -0.077426  -0.104589  -0.041850   9.854309   0.621674
     6  C   -0.093195  -0.019740   0.019256  -0.102721   0.621674   6.667793
     7  C   -0.030159   0.014203  -0.019840  -0.077848  -0.702765   0.387828
     8  C    0.412748  -0.029348  -0.092965   0.009037   1.495455  -0.614080
     9  C   -1.577028  -0.450433   0.236007  -0.622799  -0.605198   0.236474
    10  C   -1.041077   0.069167  -0.350163  -2.162845  -2.179986  -0.340597
    11  C    0.220711  -0.960354   0.992546  -0.448487  -1.568819  -0.204764
    12  C   -1.475817   0.716588  -1.246029  -0.540056  -0.116492  -0.176638
    13  C    0.208597  -0.103705  -0.205863  -1.556948  -0.422114   0.982518
    14  C   -1.042646  -0.245506  -0.176046  -0.101121  -0.592174  -1.229993
    15  H    0.357298  -0.094695  -0.003795   0.019097   0.005736   0.001351
    16  H   -0.024642   0.382434  -0.012443   0.012420  -0.001700  -0.000378
    17  H   -0.015200  -0.024932   0.371367  -0.054102   0.000312   0.000393
    18  H    0.044915   0.006870  -0.090791   0.436749   0.011795  -0.004581
    19  H   -0.043725  -0.008318   0.049545  -0.054616  -0.056307   0.049290
    20  H    0.008030   0.001397  -0.004625   0.011736   0.437786  -0.091233
    21  H   -0.001286  -0.000371   0.000395   0.000302  -0.054613   0.371365
    22  H    0.000815   0.000377  -0.000380  -0.001690   0.012692  -0.012769
    23  H    0.006114  -0.002524   0.001370   0.005647   0.019281  -0.003993
    24  H    0.055352   0.011377  -0.000983  -0.010842  -0.011385  -0.000748
    25  H    0.016421   0.016665  -0.002639  -0.010943  -0.010684  -0.002925
               7          8          9         10         11         12
     1  C   -0.030159   0.412748  -1.577028  -1.041077   0.220711  -1.475817
     2  C    0.014203  -0.029348  -0.450433   0.069167  -0.960354   0.716588
     3  C   -0.019840  -0.092965   0.236007  -0.350163   0.992546  -1.246029
     4  C   -0.077848   0.009037  -0.622799  -2.162845  -0.448487  -0.540056
     5  C   -0.702765   1.495455  -0.605198  -2.179986  -1.568819  -0.116492
     6  C    0.387828  -0.614080   0.236474  -0.340597  -0.204764  -0.176638
     7  C    6.914999   0.607031  -0.453363   0.069671  -0.102229  -0.243238
     8  C    0.607031   8.425504  -1.560712  -1.041888   0.212083  -1.034163
     9  C   -0.453363  -1.560712   8.621813   0.711975   1.278859  -0.795911
    10  C    0.069671  -1.041888   0.711975   8.886545  -0.333516   1.727639
    11  C   -0.102229   0.212083   1.278859  -0.333516  13.455518  -3.291796
    12  C   -0.243238  -1.034163  -0.795911   1.727639  -3.291796  13.869720
    13  C   -0.963122   0.219662   1.272668  -0.326654   1.318490  -4.086753
    14  C    0.727010  -1.498845  -0.802904   1.751082  -4.087287   2.341672
    15  H   -0.002506   0.006134   0.073964  -0.007754  -0.013637  -0.012225
    16  H    0.000374   0.000773   0.003326  -0.011082   0.032433  -0.036692
    17  H   -0.000374  -0.001288  -0.001572   0.014713  -0.015594   0.066931
    18  H    0.001420   0.007982  -0.030744   0.025169  -0.012765  -0.045327
    19  H   -0.008374  -0.043689   0.072588   0.423532   0.056013  -0.056614
    20  H    0.007026   0.045269  -0.030725   0.024644  -0.006667  -0.009616
    21  H   -0.025114  -0.015398  -0.001515   0.014828  -0.005808   0.003199
    22  H    0.382150  -0.023931   0.003499  -0.011144   0.002667  -0.009257
    23  H   -0.094965   0.357662   0.074486  -0.007825  -0.002981   0.007105
    24  H    0.011852   0.056901   0.335233   0.004082   0.025346  -0.084606
    25  H    0.016057   0.014363   0.368951   0.003937  -0.004649  -0.027907
              13         14         15         16         17         18
     1  C    0.208597  -1.042646   0.357298  -0.024642  -0.015200   0.044915
     2  C   -0.103705  -0.245506  -0.094695   0.382434  -0.024932   0.006870
     3  C   -0.205863  -0.176046  -0.003795  -0.012443   0.371367  -0.090791
     4  C   -1.556948  -0.101121   0.019097   0.012420  -0.054102   0.436749
     5  C   -0.422114  -0.592174   0.005736  -0.001700   0.000312   0.011795
     6  C    0.982518  -1.229993   0.001351  -0.000378   0.000393  -0.004581
     7  C   -0.963122   0.727010  -0.002506   0.000374  -0.000374   0.001420
     8  C    0.219662  -1.498845   0.006134   0.000773  -0.001288   0.007982
     9  C    1.272668  -0.802904   0.073964   0.003326  -0.001572  -0.030744
    10  C   -0.326654   1.751082  -0.007754  -0.011082   0.014713   0.025169
    11  C    1.318490  -4.087287  -0.013637   0.032433  -0.015594  -0.012765
    12  C   -4.086753   2.341672  -0.012225  -0.036692   0.066931  -0.045327
    13  C   13.436248  -3.296630  -0.002955   0.002693  -0.005930  -0.006266
    14  C   -3.296630  13.903350   0.007045  -0.009266   0.003206  -0.009510
    15  H   -0.002955   0.007045   0.439803  -0.008910   0.001296   0.000205
    16  H    0.002693  -0.009266  -0.008910   0.419558  -0.006594   0.001889
    17  H   -0.005930   0.003206   0.001296  -0.006594   0.420811  -0.010000
    18  H   -0.006266  -0.009510   0.000205   0.001889  -0.010000   0.457763
    19  H    0.053839  -0.057295   0.000395  -0.000514   0.001229  -0.004988
    20  H   -0.012520  -0.045580  -0.000130   0.000016  -0.000144   0.001203
    21  H   -0.015177   0.067057   0.000020  -0.000007   0.000009  -0.000144
    22  H    0.032507  -0.037483  -0.000126   0.000007  -0.000007   0.000017
    23  H   -0.013332  -0.012916   0.000610  -0.000128   0.000020  -0.000132
    24  H    0.023575  -0.084058  -0.000111   0.000414  -0.000076   0.000260
    25  H   -0.003380  -0.028174  -0.001659   0.000886  -0.000209   0.000152
              19         20         21         22         23         24
     1  C   -0.043725   0.008030  -0.001286   0.000815   0.006114   0.055352
     2  C   -0.008318   0.001397  -0.000371   0.000377  -0.002524   0.011377
     3  C    0.049545  -0.004625   0.000395  -0.000380   0.001370  -0.000983
     4  C   -0.054616   0.011736   0.000302  -0.001690   0.005647  -0.010842
     5  C   -0.056307   0.437786  -0.054613   0.012692   0.019281  -0.011385
     6  C    0.049290  -0.091233   0.371365  -0.012769  -0.003993  -0.000748
     7  C   -0.008374   0.007026  -0.025114   0.382150  -0.094965   0.011852
     8  C   -0.043689   0.045269  -0.015398  -0.023931   0.357662   0.056901
     9  C    0.072588  -0.030725  -0.001515   0.003499   0.074486   0.335233
    10  C    0.423532   0.024644   0.014828  -0.011144  -0.007825   0.004082
    11  C    0.056013  -0.006667  -0.005808   0.002667  -0.002981   0.025346
    12  C   -0.056614  -0.009616   0.003199  -0.009257   0.007105  -0.084606
    13  C    0.053839  -0.012520  -0.015177   0.032507  -0.013332   0.023575
    14  C   -0.057295  -0.045580   0.067057  -0.037483  -0.012916  -0.084058
    15  H    0.000395  -0.000130   0.000020  -0.000126   0.000610  -0.000111
    16  H   -0.000514   0.000016  -0.000007   0.000007  -0.000128   0.000414
    17  H    0.001229  -0.000144   0.000009  -0.000007   0.000020  -0.000076
    18  H   -0.004988   0.001203  -0.000144   0.000017  -0.000132   0.000260
    19  H    0.441234  -0.005071   0.001238  -0.000520   0.000401   0.000434
    20  H   -0.005071   0.457741  -0.009995   0.001911   0.000209   0.000244
    21  H    0.001238  -0.009995   0.420734  -0.006577   0.001282  -0.000069
    22  H   -0.000520   0.001911  -0.006577   0.419502  -0.008929   0.000389
    23  H    0.000401   0.000209   0.001282  -0.008929   0.440065  -0.000098
    24  H    0.000434   0.000244  -0.000069   0.000389  -0.000098   0.495277
    25  H    0.000464   0.000164  -0.000213   0.000904  -0.001703  -0.079074
              25
     1  C    0.016421
     2  C    0.016665
     3  C   -0.002639
     4  C   -0.010943
     5  C   -0.010684
     6  C   -0.002925
     7  C    0.016057
     8  C    0.014363
     9  C    0.368951
    10  C    0.003937
    11  C   -0.004649
    12  C   -0.027907
    13  C   -0.003380
    14  C   -0.028174
    15  H   -0.001659
    16  H    0.000886
    17  H   -0.000209
    18  H    0.000152
    19  H    0.000464
    20  H    0.000164
    21  H   -0.000213
    22  H    0.000904
    23  H   -0.001703
    24  H   -0.079074
    25  H    0.494861
 Mulliken charges:
               1
     1  C    0.085393
     2  C   -0.417185
     3  C   -0.439581
     4  C    0.075695
     5  C    0.073954
     6  C   -0.439588
     7  C   -0.415724
     8  C    0.085704
     9  C   -0.356939
    10  C    0.087546
    11  C   -0.535314
    12  C    0.556282
    13  C   -0.529449
    14  C    0.557009
    15  H    0.235551
    16  H    0.255132
    17  H    0.255737
    18  H    0.218857
    19  H    0.189827
    20  H    0.218931
    21  H    0.255857
    22  H    0.255377
    23  H    0.235274
    24  H    0.251316
    25  H    0.240335
 Sum of Mulliken charges =   1.00000
 Mulliken charges with hydrogens summed into heavy atoms:
               1
     1  C    0.320945
     2  C   -0.162053
     3  C   -0.183844
     4  C    0.294552
     5  C    0.292885
     6  C   -0.183730
     7  C   -0.160347
     8  C    0.320978
     9  C    0.134712
    10  C    0.277373
    11  C   -0.535314
    12  C    0.556282
    13  C   -0.529449
    14  C    0.557009
 Electronic spatial extent (au):  <R**2>=           2838.7374
 Charge=              1.0000 electrons
 Dipole moment (field-independent basis, Debye):
    X=             -0.0037    Y=              0.1754    Z=             -0.0022  Tot=              0.1755
 Quadrupole moment (field-independent basis, Debye-Ang):
   XX=            -31.5093   YY=            -56.2606   ZZ=            -83.9972
   XY=             -0.0020   XZ=              0.0036   YZ=              0.2155
 Traceless Quadrupole moment (field-independent basis, Debye-Ang):
   XX=             25.7464   YY=              0.9951   ZZ=            -26.7415
   XY=             -0.0020   XZ=              0.0036   YZ=              0.2155
 Octapole moment (field-independent basis, Debye-Ang**2):
  XXX=             -0.1617  YYY=              5.1693  ZZZ=             -0.0660  XYY=              0.0004
  XXY=             -6.6698  XXZ=              0.3373  XZZ=              0.0214  YZZ=             -3.1080
  YYZ=              0.2327  XYZ=              0.0180
 Hexadecapole moment (field-independent basis, Debye-Ang**3):
 XXXX=          -2115.4376 YYYY=           -609.5461 ZZZZ=            -99.0909 XXXY=             -0.0930
 XXXZ=              0.0993 YYYX=              0.0404 YYYZ=              2.3937 ZZZX=              0.0038
 ZZZY=              0.0800 XXYY=           -504.8336 XXZZ=           -585.8902 YYZZ=           -145.5283
 XXYZ=              2.2599 YYXZ=              0.0006 ZZXY=             -0.0018
 N-N= 7.831973482955D+02 E-N=-2.802846098233D+03  KE= 5.376389848068D+02
 Unable to Open any file for archive entry.
 1\1\GINC-GADI-CPU-CLX-0113\SP\RM062X TD-FC\6-311++G(d,p)\C14H11(1+)\TS
 1578\28-Jul-2022\0\\#n M062X/6-311++G(d,p) TD(NStates=1) EmpiricalDisp
 ersion=GD3 SP\\SP_150\\1,1\C,0,-0.0294,2.493555,1.360431\C,0,-0.0363,3
 .685383,0.671989\C,0,-0.0099,3.655211,-0.71383\C,0,0.035175,2.442531,-
 1.407538\C,0,0.035025,-2.442831,-1.407538\C,0,-0.0108,-3.656711,-0.713
 83\C,0,-0.037725,-3.685908,0.671989\C,0,-0.03225,-2.494455,1.360431\C,
 0,-0.019725,0.0033,1.453369\C,0,0.0549,-0.00015,-1.429189\C,0,0.008325
 ,1.279305,0.677065\C,0,0.0222,1.234996,-0.730804\C,0,0.0081,-1.27923,0
 .677065\C,0,0.0228,-1.234546,-0.730804\H,0,-0.0078,2.488596,2.443647\H
 ,0,-0.0366,4.623253,1.211689\H,0,0.00675,4.609337,-1.272349\H,0,0.0162
 ,2.447525,-2.490059\H,0,0.050625,-0.000075,-2.510266\H,0,0.01665,-2.44
 775,-2.490059\H,0,0.0063,-4.611212,-1.272349\H,0,-0.038325,-4.624378,1
 .211689\H,0,-0.0111,-2.489571,2.443647\H,0,-0.931585,0.00075,2.144962\
 H,0,0.787585,0.00075,2.146612\\Version=ES64L-G16RevC.01\State=1-A\HF=-
 539.7556427\RMSD=5.862e-09\PG=C01 [X(C14H11)]\\@
 The archive entry for this job was punched.


 IT TAKES GREATER CHARACTER TO CARRY OFF GOOD FORTUNE THAN BAD.
                     FRENCH PROVERB.
 Job cpu time:       0 days  1 hours 19 minutes 40.0 seconds.
 Elapsed time:       0 days  0 hours  1 minutes 39.7 seconds.
 File lengths (MBytes):  RWF=    460 Int=      0 D2E=      0 Chk=     15 Scr=      1
 Normal termination of Gaussian 16 at Thu Jul 28 17:09:21 2022.
