 Entering Gaussian System, Link 0=g16
 Initial command:
 /apps/gaussian/g16c01/g16/l1.exe "/jobfs/53002009.gadi-pbs/Gau-779328.inp" -scrdir="/jobfs/53002009.gadi-pbs/"
 Entering Link 1 = /apps/gaussian/g16c01/g16/l1.exe PID=    779329.
  
 Copyright (c) 1988-2019, Gaussian, Inc.  All Rights Reserved.
  
 This is part of the Gaussian(R) 16 program.  It is based on
 the Gaussian(R) 09 system (copyright 2009, Gaussian, Inc.),
 the Gaussian(R) 03 system (copyright 2003, Gaussian, Inc.),
 the Gaussian(R) 98 system (copyright 1998, Gaussian, Inc.),
 the Gaussian(R) 94 system (copyright 1995, Gaussian, Inc.),
 the Gaussian 92(TM) system (copyright 1992, Gaussian, Inc.),
 the Gaussian 90(TM) system (copyright 1990, Gaussian, Inc.),
 the Gaussian 88(TM) system (copyright 1988, Gaussian, Inc.),
 the Gaussian 86(TM) system (copyright 1986, Carnegie Mellon
 University), and the Gaussian 82(TM) system (copyright 1983,
 Carnegie Mellon University). Gaussian is a federally registered
 trademark of Gaussian, Inc.
  
 This software contains proprietary and confidential information,
 including trade secrets, belonging to Gaussian, Inc.
  
 This software is provided under written license and may be
 used, copied, transmitted, or stored only in accord with that
 written license.
  
 The following legend is applicable only to US Government
 contracts under FAR:
  
                    RESTRICTED RIGHTS LEGEND
  
 Use, reproduction and disclosure by the US Government is
 subject to restrictions as set forth in subparagraphs (a)
 and (c) of the Commercial Computer Software - Restricted
 Rights clause in FAR 52.227-19.
  
 Gaussian, Inc.
 340 Quinnipiac St., Bldg. 40, Wallingford CT 06492
  
  
 ---------------------------------------------------------------
 Warning -- This program may not be used in any manner that
 competes with the business of Gaussian, Inc. or will provide
 assistance to any competitor of Gaussian, Inc.  The licensee
 of this program is prohibited from giving any competitor of
 Gaussian, Inc. access to this program.  By using this program,
 the user acknowledges that Gaussian, Inc. is engaged in the
 business of creating and licensing software in the field of
 computational chemistry and represents and warrants to the
 licensee that it is not a competitor of Gaussian, Inc. and that
 it will not use this program in any manner prohibited above.
 ---------------------------------------------------------------
  

 Cite this work as:
 Gaussian 16, Revision C.01,
 M. J. Frisch, G. W. Trucks, H. B. Schlegel, G. E. Scuseria, 
 M. A. Robb, J. R. Cheeseman, G. Scalmani, V. Barone, 
 G. A. Petersson, H. Nakatsuji, X. Li, M. Caricato, A. V. Marenich, 
 J. Bloino, B. G. Janesko, R. Gomperts, B. Mennucci, H. P. Hratchian, 
 J. V. Ortiz, A. F. Izmaylov, J. L. Sonnenberg, D. Williams-Young, 
 F. Ding, F. Lipparini, F. Egidi, J. Goings, B. Peng, A. Petrone, 
 T. Henderson, D. Ranasinghe, V. G. Zakrzewski, J. Gao, N. Rega, 
 G. Zheng, W. Liang, M. Hada, M. Ehara, K. Toyota, R. Fukuda, 
 J. Hasegawa, M. Ishida, T. Nakajima, Y. Honda, O. Kitao, H. Nakai, 
 T. Vreven, K. Throssell, J. A. Montgomery, Jr., J. E. Peralta, 
 F. Ogliaro, M. J. Bearpark, J. J. Heyd, E. N. Brothers, K. N. Kudin, 
 V. N. Staroverov, T. A. Keith, R. Kobayashi, J. Normand, 
 K. Raghavachari, A. P. Rendell, J. C. Burant, S. S. Iyengar, 
 J. Tomasi, M. Cossi, J. M. Millam, M. Klene, C. Adamo, R. Cammi, 
 J. W. Ochterski, R. L. Martin, K. Morokuma, O. Farkas, 
 J. B. Foresman, and D. J. Fox, Gaussian, Inc., Wallingford CT, 2019.
 
 ******************************************
 Gaussian 16:  ES64L-G16RevC.01  3-Jul-2019
                28-Jul-2022 
 ******************************************
 %NProcShared=48
 Will use up to   48 processors via shared memory.
 %mem = 190GB
 ---------------------------------------------------------------
 #n M062X/6-311++G(d,p) TD(NStates=1) EmpiricalDispersion=GD3 SP
 ---------------------------------------------------------------
 1/38=1,172=1/1;
 2/12=2,17=6,18=5,40=1/2;
 3/5=4,6=6,7=1111,11=9,25=1,30=1,74=-55,124=31/1,2,3,8;
 4//1;
 5/5=2,38=5/2;
 8/6=1,10=2,108=1/1;
 9/41=1,42=1,70=2/14;
 6/7=2,8=2,9=2,10=2/1;
 99/5=1,9=1/99;
 -----
 SP_50
 -----
 Symbolic Z-matrix:
 Charge =  1 Multiplicity = 1
 C                     0.0058    2.49176   1.36043 
 C                     0.0053    3.70283   0.67199 
 C                     0.0019    3.68571  -0.71383 
 C                    -0.00377   2.46518  -1.40754 
 C                    -0.00402  -2.46568  -1.40754 
 C                     0.0004   -3.68821  -0.71383 
 C                     0.00292  -3.70371   0.67199 
 C                     0.00105  -2.49325   1.36043 
 C                     0.00213   0.0055    1.45337 
 C                    -0.0061   -0.00025  -1.42919 
 C                    -0.00073   1.26021   0.67707 
 C                    -0.003     1.23815  -0.7308 
 C                    -0.0011   -1.26008   0.67707 
 C                    -0.002    -1.2374   -0.7308 
 H                     0.0038    2.48715   2.44365 
 H                     0.0056    4.63725   1.21169 
 H                    -0.00035   4.60759  -1.27235 
 H                    -0.0022    2.46958  -2.49006 
 H                    -0.00563  -0.00013  -2.51027 
 H                    -0.00145  -2.46995  -2.49006 
 H                    -0.0011   -4.61071  -1.27235 
 H                     0.00273  -4.63913   1.21169 
 H                    -0.0017   -2.48877   2.44365 
 H                    -0.85159   0.00125   2.14441 
 H                     0.86759   0.00125   2.14716 
 
                          Input orientation:                          
 ---------------------------------------------------------------------
 Center     Atomic      Atomic             Coordinates (Angstroms)
 Number     Number       Type             X           Y           Z
 ---------------------------------------------------------------------
      1          6           0        0.005800    2.491755    1.360431
      2          6           0        0.005300    3.702833    0.671989
      3          6           0        0.001900    3.685711   -0.713830
      4          6           0       -0.003775    2.465181   -1.407538
      5          6           0       -0.004025   -2.465681   -1.407538
      6          6           0        0.000400   -3.688211   -0.713830
      7          6           0        0.002925   -3.703708    0.671989
      8          6           0        0.001050   -2.493255    1.360431
      9          6           0        0.002125    0.005500    1.453369
     10          6           0       -0.006100   -0.000250   -1.429189
     11          6           0       -0.000725    1.260205    0.677065
     12          6           0       -0.003000    1.238146   -0.730804
     13          6           0       -0.001100   -1.260080    0.677065
     14          6           0       -0.002000   -1.237396   -0.730804
     15          1           0        0.003800    2.487146    2.443647
     16          1           0        0.005600    4.637253    1.211689
     17          1           0       -0.000350    4.607587   -1.272349
     18          1           0       -0.002200    2.469575   -2.490059
     19          1           0       -0.005625   -0.000125   -2.510266
     20          1           0       -0.001450   -2.469950   -2.490059
     21          1           0       -0.001100   -4.610712   -1.272349
     22          1           0        0.002725   -4.639128    1.211689
     23          1           0       -0.001700   -2.488771    2.443647
     24          1           0       -0.851585    0.001250    2.144412
     25          1           0        0.867585    0.001250    2.147162
 ---------------------------------------------------------------------
                    Distance matrix (angstroms):
                    1          2          3          4          5
     1  C    0.000000
     2  C    1.393077   0.000000
     3  C    2.393346   1.385929   0.000000
     4  C    2.768113   2.419979   1.403908   0.000000
     5  C    5.677845   6.509615   6.190387   4.930862   0.000000
     6  C    6.518786   7.519844   7.373922   6.192373   1.405642
     7  C    6.233596   7.406541   7.518245   6.509967   2.420164
     8  C    4.985012   6.234218   6.517836   5.678711   2.768111
     9  C    2.487994   3.778999   4.270914   3.772911   3.780418
    10  C    3.740616   4.257687   3.754745   2.465527   2.465527
    11  C    1.408456   2.442641   2.796011   2.407809   4.269404
    12  C    2.438212   2.835944   2.447629   1.401280   3.765143
    13  C    3.813568   4.962920   5.137650   4.268858   2.408122
    14  C    4.275499   5.135537   4.923138   3.763914   1.402376
    15  H    1.083228   2.148644   3.377310   3.851255   6.273929
    16  H    2.150648   1.079082   2.147806   3.402695   7.570476
    17  H    3.377619   2.144542   1.077870   2.146670   7.074561
    18  H    3.850562   3.394043   2.152671   1.082531   5.052584
    19  H    4.603465   4.882496   4.100320   2.700694   2.700922
    20  H    6.280513   6.935549   6.406806   5.052462   1.082532
    21  H    7.574735   8.537887   8.315202   7.077185   2.149289
    22  H    7.132435   8.359402   8.544622   7.571763   3.403567
    23  H    5.096965   6.440092   6.934977   6.274812   3.851255
    24  H    2.748154   4.074800   4.740595   4.405234   4.406865
    25  H    2.750315   4.076934   4.744464   4.412042   4.413768
                    6          7          8          9         10
     6  C    0.000000
     7  C    1.385908   0.000000
     8  C    2.393842   1.392535   0.000000
     9  C    4.282552   3.790617   2.500483   0.000000
    10  C    3.756706   4.258008   3.741270   2.882575   0.000000
    11  C    5.140176   4.963917   3.815161   1.475446   2.454604
    12  C    4.926387   5.137099   4.277456   2.507998   1.421751
    13  C    2.798287   2.443637   1.409863   1.484706   2.454282
    14  C    2.450875   2.837349   2.439355   2.513050   1.420665
    15  H    6.935756   6.439367   5.096838   2.671932   4.602836
    16  H    8.545233   8.358404   7.132061   4.638055   5.336741
    17  H    8.314578   8.535695   7.573209   5.348715   4.610509
    18  H    6.408847   6.935993   6.281398   4.649979   2.688028
    19  H    4.102340   4.882965   4.604133   3.963647   1.081077
    20  H    2.153869   3.394219   3.850561   4.656017   2.687915
    21  H    1.078403   2.145489   3.378633   5.360873   4.613132
    22  H    2.147527   1.079948   2.151023   4.650912   5.337931
    23  H    3.377621   2.148224   1.083229   2.683664   4.603435
    24  H    4.744212   4.077368   2.750303   1.098353   3.672257
    25  H    4.748622   4.080501   2.755428   1.109228   3.681523
                   11         12         13         14         15
    11  C    0.000000
    12  C    1.408044   0.000000
    13  C    2.520285   2.867618   0.000000
    14  C    2.867073   2.475542   1.408052   0.000000
    15  H    2.150864   3.411332   4.142769   4.893811   0.000000
    16  H    3.419110   3.915007   5.921520   6.187474   2.478040
    17  H    3.873652   3.412684   6.183020   5.870017   4.278424
    18  H    3.390170   2.147416   4.892954   4.103244   4.933741
    19  H    3.427468   2.167904   3.427329   2.167334   5.543272
    20  H    4.893335   4.104261   3.390348   2.148061   6.993875
    21  H    6.186104   5.873876   3.876461   3.416509   8.011756
    22  H    5.923509   6.189965   3.421082   3.917280   7.231978
    23  H    4.144350   4.895616   2.151858   3.412196   4.975920
    24  H    2.112354   3.242973   2.113619   3.243903   2.645922
    25  H    2.121347   3.251233   2.122911   3.251632   2.648340
                   16         17         18         19         20
    16  H    0.000000
    17  H    2.484222   0.000000
    18  H    4.289735   2.460471   0.000000
    19  H    5.946289   4.771108   2.469785   0.000000
    20  H    8.013446   7.181528   4.939525   2.469911   0.000000
    21  H    9.575769   9.218299   7.184239   4.773884   2.462860
    22  H    9.276381   9.574560   8.014775   5.947551   4.290488
    23  H    7.231735   8.010426   6.994759   5.543882   4.933742
    24  H    4.805961   5.798034   5.319061   4.730928   5.320515
    25  H    4.807354   5.802130   5.324751   4.738579   5.325962
                   21         22         23         24         25
    21  H    0.000000
    22  H    2.484203   0.000000
    23  H    4.279166   2.478261   0.000000
    24  H    5.802394   4.809670   2.648028   0.000000
    25  H    5.806708   4.812089   2.654009   1.719172   0.000000
 Stoichiometry    C14H11(1+)
 Framework group  C1[X(C14H11)]
 Deg. of freedom    69
 Full point group                 C1      NOp   1
 Largest Abelian subgroup         C1      NOp   1
 Largest concise Abelian subgroup C1      NOp   1
                         Standard orientation:                         
 ---------------------------------------------------------------------
 Center     Atomic      Atomic             Coordinates (Angstroms)
 Number     Number       Type             X           Y           Z
 ---------------------------------------------------------------------
      1          6           0       -2.491902   -1.360176    0.001961
      2          6           0       -3.702907   -0.671606    0.002624
      3          6           0       -3.685637    0.714216    0.002296
      4          6           0       -2.465032    1.407805   -0.001481
      5          6           0        2.465829    1.407282   -0.000265
      6          6           0        3.688285    0.713436    0.002988
      7          6           0        3.703635   -0.672387    0.002451
      8          6           0        2.493110   -1.360695   -0.001308
      9          6           0       -0.005655   -1.453369   -0.001181
     10          6           0        0.000401    1.429199   -0.003025
     11          6           0       -1.260277   -0.676928   -0.002686
     12          6           0       -1.238069    0.730941   -0.001839
     13          6           0        1.260007   -0.677195   -0.002312
     14          6           0        1.237472    0.730675   -0.000103
     15          1           0       -2.487406   -2.443385   -0.002435
     16          1           0       -4.637384   -1.211206    0.001452
     17          1           0       -4.607454    1.272836    0.001008
     18          1           0       -2.469313    2.490320    0.002489
     19          1           0        0.000390    2.510272   -0.000158
     20          1           0        2.470212    2.489794    0.004707
     21          1           0        4.610845    1.271859    0.002998
     22          1           0        4.638998   -1.212185    0.001334
     23          1           0        2.488512   -2.443901   -0.006456
     24          1           0       -0.001224   -2.142522   -0.856417
     25          1           0       -0.001736   -2.149076    0.862743
 ---------------------------------------------------------------------
 Rotational constants (GHZ):           2.1362083           0.4442118           0.3685413
 Standard basis: 6-311++G(d,p) (5D, 7F)
 There are   399 symmetry adapted cartesian basis functions of A   symmetry.
 There are   385 symmetry adapted basis functions of A   symmetry.
   385 basis functions,   603 primitive gaussians,   399 cartesian basis functions
    47 alpha electrons       47 beta electrons
       nuclear repulsion energy       780.9662779620 Hartrees.
 NAtoms=   25 NActive=   25 NUniq=   25 SFac= 1.00D+00 NAtFMM=   60 NAOKFM=F Big=F
 Integral buffers will be    131072 words long.
 Regular integral format.
 Two-electron integral symmetry is turned on.
 Nuclear repulsion after empirical dispersion term =      780.9652983922 Hartrees.
 One-electron integrals computed using PRISM.
 NBasis=   385 RedAO= T EigKep=  1.13D-06  NBF=   385
 NBsUse=   379 1.00D-06 EigRej=  8.44D-07 NBFU=   379
 ExpMin= 3.60D-02 ExpMax= 4.56D+03 ExpMxC= 6.82D+02 IAcc=3 IRadAn=         5 AccDes= 0.00D+00
 Harris functional with IExCor= 1009 and IRadAn=       5 diagonalized for initial guess.
 HarFok:  IExCor= 1009 AccDes= 0.00D+00 IRadAn=         5 IDoV= 1 UseB2=F ITyADJ=14
 ICtDFT=  3500011 ScaDFX=  1.000000  1.000000  1.000000  1.000000
 FoFCou: FMM=F IPFlag=           0 FMFlag=      100000 FMFlg1=           0
         NFxFlg=           0 DoJE=T BraDBF=F KetDBF=T FulRan=T
         wScrn=  0.000000 ICntrl=       500 IOpCl=  0 I1Cent=   200000004 NGrid=           0
         NMat0=    1 NMatS0=      1 NMatT0=    0 NMatD0=    1 NMtDS0=    0 NMtDT0=    0
 Petite list used in FoFCou.
 Requested convergence on RMS density matrix=1.00D-08 within 128 cycles.
 Requested convergence on MAX density matrix=1.00D-06.
 Requested convergence on             energy=1.00D-06.
 No special actions if energy rises.
 SCF Done:  E(RM062X) =  -539.760017056     A.U. after   15 cycles
            NFock= 15  Conv=0.45D-08     -V/T= 2.0042
 DoSCS=F DFT=T ScalE2(SS,OS)=  1.000000  1.000000
 ExpMin= 3.60D-02 ExpMax= 4.56D+03 ExpMxC= 6.82D+02 IAcc=3 IRadAn=         5 AccDes= 0.00D+00
 HarFok:  IExCor=  205 AccDes= 0.00D+00 IRadAn=         5 IDoV=-2 UseB2=F ITyADJ=14
 ICtDFT= 12500011 ScaDFX=  1.000000  1.000000  1.000000  1.000000
 Range of M.O.s used for correlation:    15   379
 NBasis=   385 NAE=    47 NBE=    47 NFC=    14 NFV=     0
 NROrb=    365 NOA=    33 NOB=    33 NVA=   332 NVB=   332

 **** Warning!!: The largest alpha MO coefficient is  0.14910726D+03

 Orbital symmetries:
       Occupied  (A) (A) (A) (A) (A) (A) (A) (A) (A) (A) (A) (A)
                 (A) (A) (A) (A) (A) (A) (A) (A) (A) (A) (A) (A)
                 (A) (A) (A) (A) (A) (A) (A) (A) (A) (A) (A) (A)
                 (A) (A) (A) (A) (A) (A) (A) (A) (A) (A) (A)
       Virtual   (A) (A) (A) (A) (A) (A) (A) (A) (A) (A) (A) (A)
                 (A) (A) (A) (A) (A) (A) (A) (A) (A) (A) (A) (A)
                 (A) (A) (A) (A) (A) (A) (A) (A) (A) (A) (A) (A)
                 (A) (A) (A) (A) (A) (A) (A) (A) (A) (A) (A) (A)
                 (A) (A) (A) (A) (A) (A) (A) (A) (A) (A) (A) (A)
                 (A) (A) (A) (A) (A) (A) (A) (A) (A) (A) (A) (A)
                 (A) (A) (A) (A) (A) (A) (A) (A) (A) (A) (A) (A)
                 (A) (A) (A) (A) (A) (A) (A) (A) (A) (A) (A) (A)
                 (A) (A) (A) (A) (A) (A) (A) (A) (A) (A) (A) (A)
                 (A) (A) (A) (A) (A) (A) (A) (A) (A) (A) (A) (A)
                 (A) (A) (A) (A) (A) (A) (A) (A) (A) (A) (A) (A)
                 (A) (A) (A) (A) (A) (A) (A) (A) (A) (A) (A) (A)
                 (A) (A) (A) (A) (A) (A) (A) (A) (A) (A) (A) (A)
                 (A) (A) (A) (A) (A) (A) (A) (A) (A) (A) (A) (A)
                 (A) (A) (A) (A) (A) (A) (A) (A) (A) (A) (A) (A)
                 (A) (A) (A) (A) (A) (A) (A) (A) (A) (A) (A) (A)
                 (A) (A) (A) (A) (A) (A) (A) (A) (A) (A) (A) (A)
                 (A) (A) (A) (A) (A) (A) (A) (A) (A) (A) (A) (A)
                 (A) (A) (A) (A) (A) (A) (A) (A) (A) (A) (A) (A)
                 (A) (A) (A) (A) (A) (A) (A) (A) (A) (A) (A) (A)
                 (A) (A) (A) (A) (A) (A) (A) (A) (A) (A) (A) (A)
                 (A) (A) (A) (A) (A) (A) (A) (A) (A) (A) (A) (A)
                 (A) (A) (A) (A) (A) (A) (A) (A) (A) (A) (A) (A)
                 (A) (A) (A) (A) (A) (A) (A) (A) (A) (A) (A) (A)
                 (A) (A) (A) (A) (A) (A) (A) (A) (A) (A) (A) (A)
                 (A) (A) (A) (A) (A) (A) (A) (A) (A) (A) (A) (A)
                 (A) (A) (A) (A) (A) (A) (A) (A) (A) (A) (A) (A)
                 (A) (A) (A) (A) (A) (A) (A) (A)
     4 initial guesses have been made.
 Convergence on wavefunction:    0.001000000000000
 Iteration     1 Dimension     4 NMult     0 NNew      4
 CISAX will form     4 AO SS matrices at one time.
 Iteration     2 Dimension     6 NMult     4 NNew      2
 Iteration     3 Dimension     8 NMult     6 NNew      2
 Iteration     4 Dimension    10 NMult     8 NNew      2
 Iteration     5 Dimension    12 NMult    10 NNew      2
 Iteration     6 Dimension    14 NMult    12 NNew      2
 ***********************************************************************
 Excited states from <AA,BB:AA,BB> singles matrix:
 ***********************************************************************
 
 Ground to excited state transition densities written to RWF  633
 Ground to excited state transition electric dipole moments (Au):
       state          X           Y           Z        Dip. S.      Osc.
         1        -0.0072     -0.6426      0.0011      0.4130      0.0285
 Ground to excited state transition velocity dipole moments (Au):
       state          X           Y           Z        Dip. S.      Osc.
         1         0.0008      0.0743     -0.0001      0.0055      0.0355
 Ground to excited state transition magnetic dipole moments (Au):
       state          X           Y           Z
         1        -0.0013     -0.0005      0.0002
 Ground to excited state transition velocity quadrupole moments (Au):
       state          XX          YY          ZZ          XY          XZ          YZ
         1         0.3003      0.0345     -0.0098      0.0011      0.0000      0.0003
 <0|del|b> * <b|rxdel|0> + <0|del|b> * <b|delr+rdel|0>
 Rotatory Strengths (R) in cgs (10**-40 erg-esu-cm/Gauss)
       state          XX          YY          ZZ    R(velocity)    E-M Angle
         1        -0.1296     -0.0022     -0.1216     -0.0845       90.00
 1/2[<0|r|b>*<b|rxdel|0> + (<0|rxdel|b>*<b|r|0>)*]
 Rotatory Strengths (R) in cgs (10**-40 erg-esu-cm/Gauss)
       state          XX          YY          ZZ     R(length)
         1        -0.0065     -0.2208     -0.0002     -0.0758
  1/2[<0|del|b>*<b|r|0> + (<0|r|b>*<b|del|0>)*] (Au)
       state          X           Y           Z        Dip. S.   Osc.(frdel)
         1        -0.0000     -0.0477     -0.0000      0.0478      0.0318

 Excitation energies and oscillator strengths:
 
 Excited State   1:      Singlet-A      2.8187 eV  439.86 nm  f=0.0285  <S**2>=0.000
      47 -> 48         0.70426
 This state for optimization and/or second-order correction.
 Total Energy, E(TD-HF/TD-DFT) =  -539.656430743    
 Copying the excited state density for this state as the 1-particle RhoCI density.
 SavETr:  write IOETrn=   770 NScale= 10 NData=  16 NLR=1 NState=    1 LETran=      28.

 **********************************************************************

            Population analysis using the SCF Density.

 **********************************************************************

 Orbital symmetries:
       Occupied  (A) (A) (A) (A) (A) (A) (A) (A) (A) (A) (A) (A)
                 (A) (A) (A) (A) (A) (A) (A) (A) (A) (A) (A) (A)
                 (A) (A) (A) (A) (A) (A) (A) (A) (A) (A) (A) (A)
                 (A) (A) (A) (A) (A) (A) (A) (A) (A) (A) (A)
       Virtual   (A) (A) (A) (A) (A) (A) (A) (A) (A) (A) (A) (A)
                 (A) (A) (A) (A) (A) (A) (A) (A) (A) (A) (A) (A)
                 (A) (A) (A) (A) (A) (A) (A) (A) (A) (A) (A) (A)
                 (A) (A) (A) (A) (A) (A) (A) (A) (A) (A) (A) (A)
                 (A) (A) (A) (A) (A) (A) (A) (A) (A) (A) (A) (A)
                 (A) (A) (A) (A) (A) (A) (A) (A) (A) (A) (A) (A)
                 (A) (A) (A) (A) (A) (A) (A) (A) (A) (A) (A) (A)
                 (A) (A) (A) (A) (A) (A) (A) (A) (A) (A) (A) (A)
                 (A) (A) (A) (A) (A) (A) (A) (A) (A) (A) (A) (A)
                 (A) (A) (A) (A) (A) (A) (A) (A) (A) (A) (A) (A)
                 (A) (A) (A) (A) (A) (A) (A) (A) (A) (A) (A) (A)
                 (A) (A) (A) (A) (A) (A) (A) (A) (A) (A) (A) (A)
                 (A) (A) (A) (A) (A) (A) (A) (A) (A) (A) (A) (A)
                 (A) (A) (A) (A) (A) (A) (A) (A) (A) (A) (A) (A)
                 (A) (A) (A) (A) (A) (A) (A) (A) (A) (A) (A) (A)
                 (A) (A) (A) (A) (A) (A) (A) (A) (A) (A) (A) (A)
                 (A) (A) (A) (A) (A) (A) (A) (A) (A) (A) (A) (A)
                 (A) (A) (A) (A) (A) (A) (A) (A) (A) (A) (A) (A)
                 (A) (A) (A) (A) (A) (A) (A) (A) (A) (A) (A) (A)
                 (A) (A) (A) (A) (A) (A) (A) (A) (A) (A) (A) (A)
                 (A) (A) (A) (A) (A) (A) (A) (A) (A) (A) (A) (A)
                 (A) (A) (A) (A) (A) (A) (A) (A) (A) (A) (A) (A)
                 (A) (A) (A) (A) (A) (A) (A) (A) (A) (A) (A) (A)
                 (A) (A) (A) (A) (A) (A) (A) (A) (A) (A) (A) (A)
                 (A) (A) (A) (A) (A) (A) (A) (A) (A) (A) (A) (A)
                 (A) (A) (A) (A) (A) (A) (A) (A) (A) (A) (A) (A)
                 (A) (A) (A) (A) (A) (A) (A) (A) (A) (A) (A) (A)
                 (A) (A) (A) (A) (A) (A) (A) (A)
 The electronic state is 1-A.
 Alpha  occ. eigenvalues --  -10.77663 -10.73283 -10.73214 -10.72458 -10.72454
 Alpha  occ. eigenvalues --  -10.71413 -10.71376 -10.71026 -10.71014 -10.70980
 Alpha  occ. eigenvalues --  -10.70013 -10.69987 -10.69638 -10.69604  -1.16426
 Alpha  occ. eigenvalues --   -1.12413  -1.06917  -1.05749  -1.01263  -1.00190
 Alpha  occ. eigenvalues --   -0.95762  -0.91061  -0.86416  -0.85892  -0.83814
 Alpha  occ. eigenvalues --   -0.78396  -0.76024  -0.74408  -0.69564  -0.69257
 Alpha  occ. eigenvalues --   -0.68519  -0.68209  -0.68120  -0.64700  -0.64251
 Alpha  occ. eigenvalues --   -0.63096  -0.61899  -0.59985  -0.59640  -0.59106
 Alpha  occ. eigenvalues --   -0.56903  -0.55230  -0.54852  -0.52417  -0.46589
 Alpha  occ. eigenvalues --   -0.46057  -0.44478
 Alpha virt. eigenvalues --   -0.26083  -0.14697  -0.14105  -0.12805  -0.11178
 Alpha virt. eigenvalues --   -0.10085  -0.09226  -0.07984  -0.07964  -0.07474
 Alpha virt. eigenvalues --   -0.07204  -0.07148  -0.05644  -0.05582  -0.05337
 Alpha virt. eigenvalues --   -0.03818  -0.03641  -0.03280  -0.03133  -0.02164
 Alpha virt. eigenvalues --   -0.01365  -0.00925   0.00191   0.00603   0.00667
 Alpha virt. eigenvalues --    0.01053   0.01513   0.01933   0.02217   0.02287
 Alpha virt. eigenvalues --    0.02445   0.02676   0.02720   0.03325   0.03376
 Alpha virt. eigenvalues --    0.04243   0.04504   0.04693   0.05016   0.05362
 Alpha virt. eigenvalues --    0.06037   0.06294   0.06595   0.07043   0.07249
 Alpha virt. eigenvalues --    0.07886   0.08140   0.08364   0.08524   0.08930
 Alpha virt. eigenvalues --    0.09551   0.09561   0.10037   0.10844   0.11038
 Alpha virt. eigenvalues --    0.11115   0.12178   0.12252   0.12909   0.12986
 Alpha virt. eigenvalues --    0.13407   0.13529   0.14019   0.14358   0.16231
 Alpha virt. eigenvalues --    0.16255   0.16406   0.17356   0.17620   0.17785
 Alpha virt. eigenvalues --    0.18118   0.19051   0.19220   0.19627   0.19722
 Alpha virt. eigenvalues --    0.21538   0.21572   0.22731   0.23115   0.23561
 Alpha virt. eigenvalues --    0.23770   0.24570   0.25300   0.26913   0.27580
 Alpha virt. eigenvalues --    0.28844   0.29294   0.29857   0.31335   0.35815
 Alpha virt. eigenvalues --    0.36391   0.38158   0.39252   0.41160   0.41422
 Alpha virt. eigenvalues --    0.41962   0.42231   0.42993   0.43651   0.44298
 Alpha virt. eigenvalues --    0.44908   0.44983   0.46082   0.46103   0.47948
 Alpha virt. eigenvalues --    0.48544   0.48873   0.49038   0.50432   0.51142
 Alpha virt. eigenvalues --    0.51557   0.51633   0.52114   0.52842   0.53978
 Alpha virt. eigenvalues --    0.54098   0.54620   0.55687   0.55759   0.57473
 Alpha virt. eigenvalues --    0.58231   0.58807   0.61432   0.62174   0.62344
 Alpha virt. eigenvalues --    0.63177   0.63511   0.64943   0.65148   0.67252
 Alpha virt. eigenvalues --    0.70408   0.70618   0.71009   0.72382   0.72852
 Alpha virt. eigenvalues --    0.75773   0.75988   0.76259   0.76889   0.77080
 Alpha virt. eigenvalues --    0.77818   0.77829   0.78221   0.79933   0.80400
 Alpha virt. eigenvalues --    0.81223   0.81649   0.82118   0.82990   0.85159
 Alpha virt. eigenvalues --    0.87127   0.88171   0.88457   0.89184   0.90407
 Alpha virt. eigenvalues --    0.91034   0.91276   0.93150   0.94630   0.96458
 Alpha virt. eigenvalues --    0.96634   1.00426   1.01281   1.01658   1.02666
 Alpha virt. eigenvalues --    1.03175   1.03844   1.04705   1.05449   1.08746
 Alpha virt. eigenvalues --    1.19611   1.23292   1.24053   1.25272   1.27984
 Alpha virt. eigenvalues --    1.29620   1.31829   1.34218   1.35709   1.35978
 Alpha virt. eigenvalues --    1.39307   1.40179   1.40890   1.42963   1.43397
 Alpha virt. eigenvalues --    1.43501   1.45158   1.45283   1.46375   1.46695
 Alpha virt. eigenvalues --    1.47616   1.47927   1.51706   1.53613   1.55752
 Alpha virt. eigenvalues --    1.55821   1.56277   1.56549   1.57739   1.61397
 Alpha virt. eigenvalues --    1.63279   1.63622   1.63814   1.66083   1.68247
 Alpha virt. eigenvalues --    1.68391   1.68674   1.69728   1.74310   1.75979
 Alpha virt. eigenvalues --    1.77145   1.78024   1.80014   1.80028   1.80597
 Alpha virt. eigenvalues --    1.83159   1.83192   1.83601   1.83761   1.84191
 Alpha virt. eigenvalues --    1.84233   1.85849   1.86005   1.88193   1.91408
 Alpha virt. eigenvalues --    1.92015   1.94132   1.95204   1.97630   1.98056
 Alpha virt. eigenvalues --    1.99649   2.02429   2.04336   2.07336   2.11763
 Alpha virt. eigenvalues --    2.12044   2.14053   2.15197   2.18973   2.21224
 Alpha virt. eigenvalues --    2.22679   2.28571   2.30069   2.34630   2.34969
 Alpha virt. eigenvalues --    2.36185   2.38802   2.39757   2.42319   2.44375
 Alpha virt. eigenvalues --    2.46417   2.46457   2.49254   2.52841   2.53798
 Alpha virt. eigenvalues --    2.54231   2.56821   2.57819   2.58280   2.59634
 Alpha virt. eigenvalues --    2.59775   2.61623   2.62067   2.63497   2.63775
 Alpha virt. eigenvalues --    2.64745   2.65078   2.65200   2.65247   2.67929
 Alpha virt. eigenvalues --    2.68599   2.70929   2.71408   2.73336   2.74817
 Alpha virt. eigenvalues --    2.76284   2.78682   2.79682   2.82750   2.83025
 Alpha virt. eigenvalues --    2.84765   2.86278   2.92095   2.96976   2.99460
 Alpha virt. eigenvalues --    2.99978   3.05223   3.10917   3.11288   3.12827
 Alpha virt. eigenvalues --    3.20975   3.23769   3.26570   3.28124   3.30670
 Alpha virt. eigenvalues --    3.32582   3.33495   3.43388   3.45810   3.46328
 Alpha virt. eigenvalues --    3.48340   3.49978   3.56439   3.65852   3.66871
 Alpha virt. eigenvalues --    3.67425   3.94450   3.94585   3.95394   3.96265
 Alpha virt. eigenvalues --    4.04137   4.06910   4.07404   4.12537   4.35564
 Alpha virt. eigenvalues --    4.61419   4.69667   4.71458  23.45391  23.60712
 Alpha virt. eigenvalues --   23.82129  23.85651  23.87847  23.89215  23.90492
 Alpha virt. eigenvalues --   23.92254  23.97594  23.99189  23.99478  23.99931
 Alpha virt. eigenvalues --   24.10267  24.10454
          Condensed to atoms (all electrons):
               1          2          3          4          5          6
     1  C    8.575554   0.322152  -0.540485   1.957480  -0.022684  -0.094647
     2  C    0.322152   7.134137   0.355814  -1.073575  -0.017488  -0.014251
     3  C   -0.540485   0.355814   6.583717   0.757632  -0.124435   0.016804
     4  C    1.957480  -1.073575   0.757632  10.980112  -0.348173  -0.122445
     5  C   -0.022684  -0.017488  -0.124435  -0.348173  11.005941   0.743305
     6  C   -0.094647  -0.014251   0.016804  -0.122445   0.743305   6.579645
     7  C   -0.020415   0.001568  -0.014339  -0.018718  -1.063330   0.352365
     8  C    0.402794  -0.017575  -0.094843  -0.032372   1.984085  -0.549296
     9  C   -1.176615  -0.804423   0.293542  -0.230887  -0.207669   0.295874
    10  C   -1.276291   0.250216  -0.354629  -2.567239  -2.567113  -0.344970
    11  C    0.307608  -0.913466   1.017655  -0.302872  -1.509325  -0.168210
    12  C   -2.038033   1.350711  -1.402378  -1.541809  -0.327535  -0.201416
    13  C    0.193643  -0.250384  -0.170553  -1.503969  -0.312494   1.016675
    14  C   -1.082298  -0.197027  -0.200669  -0.315343  -1.594580  -1.385654
    15  H    0.366372  -0.106387  -0.001133   0.027430   0.005722   0.001092
    16  H   -0.020105   0.379397  -0.016835   0.013397  -0.001522  -0.000324
    17  H   -0.024923  -0.016468   0.375931  -0.067716   0.000271   0.000395
    18  H    0.049738   0.003029  -0.085003   0.457275   0.006679  -0.005034
    19  H   -0.046778  -0.007765   0.051473  -0.070464  -0.072016   0.051357
    20  H    0.007273   0.002028  -0.005076   0.006561   0.457056  -0.085774
    21  H   -0.001319  -0.000398   0.000398   0.000281  -0.067815   0.375795
    22  H    0.000739   0.000365  -0.000326  -0.001529   0.013719  -0.017262
    23  H    0.005736  -0.002686   0.001100   0.005684   0.027472  -0.001249
    24  H    0.029309   0.014105  -0.001816  -0.011711  -0.012936  -0.001454
    25  H    0.036399   0.014866  -0.001124  -0.012823  -0.011892  -0.001590
               7          8          9         10         11         12
     1  C   -0.020415   0.402794  -1.176615  -1.276291   0.307608  -2.038033
     2  C    0.001568  -0.017575  -0.804423   0.250216  -0.913466   1.350711
     3  C   -0.014339  -0.094843   0.293542  -0.354629   1.017655  -1.402378
     4  C   -0.018718  -0.032372  -0.230887  -2.567239  -0.302872  -1.541809
     5  C   -1.063330   1.984085  -0.207669  -2.567113  -1.509325  -0.327535
     6  C    0.352365  -0.549296   0.295874  -0.344970  -0.168210  -0.201416
     7  C    7.109267   0.322171  -0.799053   0.245205  -0.239140  -0.193415
     8  C    0.322171   8.573807  -1.150493  -1.277061   0.205824  -1.065816
     9  C   -0.799053  -1.150493   9.578842   0.252996   1.633203  -1.934539
    10  C    0.245205  -1.277061   0.252996   9.148513  -0.443842   2.402049
    11  C   -0.239140   0.205824   1.633203  -0.443842  14.468841  -3.761635
    12  C   -0.193415  -1.065816  -1.934539   2.402049  -3.761635  16.006855
    13  C   -0.904836   0.270486   1.613343  -0.440010   1.096641  -4.828236
    14  C    1.345491  -2.067959  -1.952857   2.416872  -4.803512   3.062334
    15  H   -0.002625   0.005686   0.091381  -0.009649  -0.029881  -0.024237
    16  H    0.000359   0.000665   0.003211  -0.009290   0.026169  -0.031863
    17  H   -0.000396  -0.001301  -0.005704   0.020499  -0.027576   0.091776
    18  H    0.002030   0.007131  -0.024899   0.013343  -0.008265  -0.052929
    19  H   -0.007794  -0.046788   0.075496   0.422059   0.079896  -0.066145
    20  H    0.003562   0.049939  -0.024704   0.013655  -0.012038  -0.013313
    21  H   -0.016869  -0.024611  -0.005686   0.020452  -0.006187   0.005259
    22  H    0.378808  -0.018842   0.003674  -0.009440   0.003020  -0.009052
    23  H   -0.105798   0.367481   0.092004  -0.009657   0.001543   0.006474
    24  H    0.015215   0.031734   0.358428   0.005390   0.012681  -0.057945
    25  H    0.013547   0.032984   0.354913   0.005490   0.014803  -0.062359
              13         14         15         16         17         18
     1  C    0.193643  -1.082298   0.366372  -0.020105  -0.024923   0.049738
     2  C   -0.250384  -0.197027  -0.106387   0.379397  -0.016468   0.003029
     3  C   -0.170553  -0.200669  -0.001133  -0.016835   0.375931  -0.085003
     4  C   -1.503969  -0.315343   0.027430   0.013397  -0.067716   0.457275
     5  C   -0.312494  -1.594580   0.005722  -0.001522   0.000271   0.006679
     6  C    1.016675  -1.385654   0.001092  -0.000324   0.000395  -0.005034
     7  C   -0.904836   1.345491  -0.002625   0.000359  -0.000396   0.002030
     8  C    0.270486  -2.067959   0.005686   0.000665  -0.001301   0.007131
     9  C    1.613343  -1.952857   0.091381   0.003211  -0.005704  -0.024899
    10  C   -0.440010   2.416872  -0.009649  -0.009290   0.020499   0.013343
    11  C    1.096641  -4.803512  -0.029881   0.026169  -0.027576  -0.008265
    12  C   -4.828236   3.062334  -0.024237  -0.031863   0.091776  -0.052929
    13  C   14.546744  -3.743507   0.001636   0.002999  -0.006320  -0.012107
    14  C   -3.743507  16.052370   0.006553  -0.008969   0.005276  -0.013597
    15  H    0.001636   0.006553   0.439263  -0.009003   0.001489   0.000170
    16  H    0.002999  -0.008969  -0.009003   0.419559  -0.006689   0.001915
    17  H   -0.006320   0.005276   0.001489  -0.006689   0.422954  -0.010351
    18  H   -0.012107  -0.013597   0.000170   0.001915  -0.010351   0.453553
    19  H    0.078863  -0.065817   0.000304  -0.000546   0.001435  -0.006245
    20  H   -0.008465  -0.053454  -0.000114   0.000015  -0.000144   0.001272
    21  H   -0.026984   0.091222   0.000014  -0.000007   0.000011  -0.000143
    22  H    0.026666  -0.033418  -0.000127   0.000007  -0.000007   0.000015
    23  H   -0.030665  -0.025167   0.000575  -0.000127   0.000014  -0.000113
    24  H    0.011599  -0.056434  -0.001051   0.000678  -0.000159   0.000194
    25  H    0.015184  -0.063770  -0.000760   0.000581  -0.000126   0.000167
              19         20         21         22         23         24
     1  C   -0.046778   0.007273  -0.001319   0.000739   0.005736   0.029309
     2  C   -0.007765   0.002028  -0.000398   0.000365  -0.002686   0.014105
     3  C    0.051473  -0.005076   0.000398  -0.000326   0.001100  -0.001816
     4  C   -0.070464   0.006561   0.000281  -0.001529   0.005684  -0.011711
     5  C   -0.072016   0.457056  -0.067815   0.013719   0.027472  -0.012936
     6  C    0.051357  -0.085774   0.375795  -0.017262  -0.001249  -0.001454
     7  C   -0.007794   0.003562  -0.016869   0.378808  -0.105798   0.015215
     8  C   -0.046788   0.049939  -0.024611  -0.018842   0.367481   0.031734
     9  C    0.075496  -0.024704  -0.005686   0.003674   0.092004   0.358428
    10  C    0.422059   0.013655   0.020452  -0.009440  -0.009657   0.005390
    11  C    0.079896  -0.012038  -0.006187   0.003020   0.001543   0.012681
    12  C   -0.066145  -0.013313   0.005259  -0.009052   0.006474  -0.057945
    13  C    0.078863  -0.008465  -0.026984   0.026666  -0.030665   0.011599
    14  C   -0.065817  -0.053454   0.091222  -0.033418  -0.025167  -0.056434
    15  H    0.000304  -0.000114   0.000014  -0.000127   0.000575  -0.001051
    16  H   -0.000546   0.000015  -0.000007   0.000007  -0.000127   0.000678
    17  H    0.001435  -0.000144   0.000011  -0.000007   0.000014  -0.000159
    18  H   -0.006245   0.001272  -0.000143   0.000015  -0.000113   0.000194
    19  H    0.443283  -0.006312   0.001430  -0.000544   0.000312   0.000595
    20  H   -0.006312   0.453623  -0.010275   0.001939   0.000162   0.000168
    21  H    0.001430  -0.010275   0.422685  -0.006660   0.001480  -0.000147
    22  H   -0.000544   0.001939  -0.006660   0.419520  -0.009028   0.000635
    23  H    0.000312   0.000162   0.001480  -0.009028   0.439112  -0.000946
    24  H    0.000595   0.000168  -0.000147   0.000635  -0.000946   0.493488
    25  H    0.000608   0.000194  -0.000138   0.000620  -0.000888  -0.079531
              25
     1  C    0.036399
     2  C    0.014866
     3  C   -0.001124
     4  C   -0.012823
     5  C   -0.011892
     6  C   -0.001590
     7  C    0.013547
     8  C    0.032984
     9  C    0.354913
    10  C    0.005490
    11  C    0.014803
    12  C   -0.062359
    13  C    0.015184
    14  C   -0.063770
    15  H   -0.000760
    16  H    0.000581
    17  H   -0.000126
    18  H    0.000167
    19  H    0.000608
    20  H    0.000194
    21  H   -0.000138
    22  H    0.000620
    23  H   -0.000888
    24  H   -0.079531
    25  H    0.493699
 Mulliken charges:
               1
     1  C    0.089798
     2  C   -0.406494
     3  C   -0.440424
     4  C    0.015793
     5  C    0.016757
     6  C   -0.439730
     7  C   -0.402859
     8  C    0.092168
     9  C   -0.329378
    10  C    0.092450
    11  C   -0.641937
    12  C    0.687197
    13  C   -0.635948
    14  C    0.683915
    15  H    0.237279
    16  H    0.256327
    17  H    0.247832
    18  H    0.222176
    19  H    0.190101
    20  H    0.222222
    21  H    0.248213
    22  H    0.256510
    23  H    0.237174
    24  H    0.249910
    25  H    0.250946
 Sum of Mulliken charges =   1.00000
 Mulliken charges with hydrogens summed into heavy atoms:
               1
     1  C    0.327078
     2  C   -0.150167
     3  C   -0.192592
     4  C    0.237969
     5  C    0.238979
     6  C   -0.191517
     7  C   -0.146349
     8  C    0.329342
     9  C    0.171478
    10  C    0.282551
    11  C   -0.641937
    12  C    0.687197
    13  C   -0.635948
    14  C    0.683915
 Electronic spatial extent (au):  <R**2>=           2857.8753
 Charge=              1.0000 electrons
 Dipole moment (field-independent basis, Debye):
    X=              0.0066    Y=              0.1885    Z=             -0.0002  Tot=              0.1886
 Quadrupole moment (field-independent basis, Debye-Ang):
   XX=            -31.0725   YY=            -56.2623   ZZ=            -84.1580
   XY=              0.0037   XZ=              0.0061   YZ=              0.0232
 Traceless Quadrupole moment (field-independent basis, Debye-Ang):
   XX=             26.0917   YY=              0.9020   ZZ=            -26.9937
   XY=              0.0037   XZ=              0.0061   YZ=              0.0232
 Octapole moment (field-independent basis, Debye-Ang**2):
  XXX=              0.2744  YYY=              5.2102  ZZZ=             -0.0103  XYY=             -0.0026
  XXY=             -5.0130  XXZ=              0.0425  XZZ=             -0.0332  YZZ=             -3.0875
  YYZ=              0.0361  XYZ=              0.0308
 Hexadecapole moment (field-independent basis, Debye-Ang**3):
 XXXX=          -2123.2295 YYYY=           -609.2539 ZZZZ=            -99.3829 XXXY=              0.1555
 XXXZ=              0.1735 YYYX=             -0.0647 YYYZ=              0.2415 ZZZX=              0.0080
 ZZZY=              0.0149 XXYY=           -508.0534 XXZZ=           -591.2994 YYZZ=           -145.7245
 XXYZ=              0.2644 YYXZ=              0.0004 ZZXY=              0.0031
 N-N= 7.809652983922D+02 E-N=-2.798259271831D+03  KE= 5.374912034692D+02
 Unable to Open any file for archive entry.
 1\1\GINC-GADI-CPU-CLX-0113\SP\RM062X TD-FC\6-311++G(d,p)\C14H11(1+)\TS
 1578\28-Jul-2022\0\\#n M062X/6-311++G(d,p) TD(NStates=1) EmpiricalDisp
 ersion=GD3 SP\\SP_50\\1,1\C,0,0.0058,2.491755,1.360431\C,0,0.0053,3.70
 2833,0.671989\C,0,0.0019,3.685711,-0.71383\C,0,-0.003775,2.465181,-1.4
 07538\C,0,-0.004025,-2.465681,-1.407538\C,0,0.0004,-3.688211,-0.71383\
 C,0,0.002925,-3.703708,0.671989\C,0,0.00105,-2.493255,1.360431\C,0,0.0
 02125,0.0055,1.453369\C,0,-0.0061,-0.00025,-1.429189\C,0,-0.000725,1.2
 60205,0.677065\C,0,-0.003,1.238146,-0.730804\C,0,-0.0011,-1.26008,0.67
 7065\C,0,-0.002,-1.237396,-0.730804\H,0,0.0038,2.487146,2.443647\H,0,0
 .0056,4.637253,1.211689\H,0,-0.00035,4.607587,-1.272349\H,0,-0.0022,2.
 469575,-2.490059\H,0,-0.005625,-0.000125,-2.510266\H,0,-0.00145,-2.469
 95,-2.490059\H,0,-0.0011,-4.610712,-1.272349\H,0,0.002725,-4.639128,1.
 211689\H,0,-0.0017,-2.488771,2.443647\H,0,-0.851585,0.00125,2.144412\H
 ,0,0.867585,0.00125,2.147162\\Version=ES64L-G16RevC.01\State=1-A\HF=-5
 39.7600171\RMSD=4.526e-09\PG=C01 [X(C14H11)]\\@
 The archive entry for this job was punched.


 THERE ARE PEOPLE SO ADDICTED TO EXAGERATING THEY
 CAN'T TELL THE TRUTH WITHOUT LYING. -- FORTUNE COOKIE
 Job cpu time:       0 days  1 hours 19 minutes 34.1 seconds.
 Elapsed time:       0 days  0 hours  1 minutes 39.6 seconds.
 File lengths (MBytes):  RWF=    460 Int=      0 D2E=      0 Chk=     15 Scr=      1
 Normal termination of Gaussian 16 at Thu Jul 28 15:54:42 2022.
