 Entering Gaussian System, Link 0=g16
 Initial command:
 /apps/gaussian/g16c01/g16/l1.exe "/jobfs/53002009.gadi-pbs/Gau-724017.inp" -scrdir="/jobfs/53002009.gadi-pbs/"
 Entering Link 1 = /apps/gaussian/g16c01/g16/l1.exe PID=    724018.
  
 Copyright (c) 1988-2019, Gaussian, Inc.  All Rights Reserved.
  
 This is part of the Gaussian(R) 16 program.  It is based on
 the Gaussian(R) 09 system (copyright 2009, Gaussian, Inc.),
 the Gaussian(R) 03 system (copyright 2003, Gaussian, Inc.),
 the Gaussian(R) 98 system (copyright 1998, Gaussian, Inc.),
 the Gaussian(R) 94 system (copyright 1995, Gaussian, Inc.),
 the Gaussian 92(TM) system (copyright 1992, Gaussian, Inc.),
 the Gaussian 90(TM) system (copyright 1990, Gaussian, Inc.),
 the Gaussian 88(TM) system (copyright 1988, Gaussian, Inc.),
 the Gaussian 86(TM) system (copyright 1986, Carnegie Mellon
 University), and the Gaussian 82(TM) system (copyright 1983,
 Carnegie Mellon University). Gaussian is a federally registered
 trademark of Gaussian, Inc.
  
 This software contains proprietary and confidential information,
 including trade secrets, belonging to Gaussian, Inc.
  
 This software is provided under written license and may be
 used, copied, transmitted, or stored only in accord with that
 written license.
  
 The following legend is applicable only to US Government
 contracts under FAR:
  
                    RESTRICTED RIGHTS LEGEND
  
 Use, reproduction and disclosure by the US Government is
 subject to restrictions as set forth in subparagraphs (a)
 and (c) of the Commercial Computer Software - Restricted
 Rights clause in FAR 52.227-19.
  
 Gaussian, Inc.
 340 Quinnipiac St., Bldg. 40, Wallingford CT 06492
  
  
 ---------------------------------------------------------------
 Warning -- This program may not be used in any manner that
 competes with the business of Gaussian, Inc. or will provide
 assistance to any competitor of Gaussian, Inc.  The licensee
 of this program is prohibited from giving any competitor of
 Gaussian, Inc. access to this program.  By using this program,
 the user acknowledges that Gaussian, Inc. is engaged in the
 business of creating and licensing software in the field of
 computational chemistry and represents and warrants to the
 licensee that it is not a competitor of Gaussian, Inc. and that
 it will not use this program in any manner prohibited above.
 ---------------------------------------------------------------
  

 Cite this work as:
 Gaussian 16, Revision C.01,
 M. J. Frisch, G. W. Trucks, H. B. Schlegel, G. E. Scuseria, 
 M. A. Robb, J. R. Cheeseman, G. Scalmani, V. Barone, 
 G. A. Petersson, H. Nakatsuji, X. Li, M. Caricato, A. V. Marenich, 
 J. Bloino, B. G. Janesko, R. Gomperts, B. Mennucci, H. P. Hratchian, 
 J. V. Ortiz, A. F. Izmaylov, J. L. Sonnenberg, D. Williams-Young, 
 F. Ding, F. Lipparini, F. Egidi, J. Goings, B. Peng, A. Petrone, 
 T. Henderson, D. Ranasinghe, V. G. Zakrzewski, J. Gao, N. Rega, 
 G. Zheng, W. Liang, M. Hada, M. Ehara, K. Toyota, R. Fukuda, 
 J. Hasegawa, M. Ishida, T. Nakajima, Y. Honda, O. Kitao, H. Nakai, 
 T. Vreven, K. Throssell, J. A. Montgomery, Jr., J. E. Peralta, 
 F. Ogliaro, M. J. Bearpark, J. J. Heyd, E. N. Brothers, K. N. Kudin, 
 V. N. Staroverov, T. A. Keith, R. Kobayashi, J. Normand, 
 K. Raghavachari, A. P. Rendell, J. C. Burant, S. S. Iyengar, 
 J. Tomasi, M. Cossi, J. M. Millam, M. Klene, C. Adamo, R. Cammi, 
 J. W. Ochterski, R. L. Martin, K. Morokuma, O. Farkas, 
 J. B. Foresman, and D. J. Fox, Gaussian, Inc., Wallingford CT, 2019.
 
 ******************************************
 Gaussian 16:  ES64L-G16RevC.01  3-Jul-2019
                28-Jul-2022 
 ******************************************
 %NProcShared=48
 Will use up to   48 processors via shared memory.
 %mem = 190GB
 ---------------------------------------------------------------
 #n M062X/6-311++G(d,p) TD(NStates=1) EmpiricalDispersion=GD3 SP
 ---------------------------------------------------------------
 1/38=1,172=1/1;
 2/12=2,17=6,18=5,40=1/2;
 3/5=4,6=6,7=1111,11=9,25=1,30=1,74=-55,124=31/1,2,3,8;
 4//1;
 5/5=2,38=5/2;
 8/6=1,10=2,108=1/1;
 9/41=1,42=1,70=2/14;
 6/7=2,8=2,9=2,10=2/1;
 99/5=1,9=1/99;
 -------
 SP_-125
 -------
 Symbolic Z-matrix:
 Charge =  1 Multiplicity = 1
 C                     0.03425   2.49116   1.36043 
 C                     0.04113   3.71913   0.67199 
 C                     0.0115    3.71486  -0.71383 
 C                    -0.039     2.48591  -1.40754 
 C                    -0.039    -2.48591  -1.40754 
 C                     0.0115   -3.71486  -0.71383 
 C                     0.04113  -3.71913   0.67199 
 C                     0.03425  -2.49116   1.36043 
 C                     0.02188   0.        1.45337 
 C                    -0.061     0.       -1.42919 
 C                    -0.00913   1.24293   0.67707 
 C                    -0.025     1.24047  -0.7308 
 C                    -0.00913  -1.24293   0.67707 
 C                    -0.025    -1.24047  -0.7308 
 H                     0.0105    2.48695   2.44365 
 H                     0.04163   4.65113   1.21169 
 H                    -0.00725   4.60814  -1.27235 
 H                    -0.01825   2.48968  -2.49006 
 H                    -0.05625   0.       -2.51027 
 H                    -0.01825  -2.48968  -2.49006 
 H                    -0.00725  -4.60814  -1.27235 
 H                     0.04163  -4.65113   1.21169 
 H                     0.0105   -2.48695   2.44365 
 H                    -0.77959   0.        2.14579 
 H                     0.93959   0.        2.14579 
 
                          Input orientation:                          
 ---------------------------------------------------------------------
 Center     Atomic      Atomic             Coordinates (Angstroms)
 Number     Number       Type             X           Y           Z
 ---------------------------------------------------------------------
      1          6           0        0.034250    2.491155    1.360431
      2          6           0        0.041125    3.719133    0.671989
      3          6           0        0.011500    3.714861   -0.713830
      4          6           0       -0.039000    2.485906   -1.407538
      5          6           0       -0.039000   -2.485906   -1.407538
      6          6           0        0.011500   -3.714861   -0.713830
      7          6           0        0.041125   -3.719133    0.671989
      8          6           0        0.034250   -2.491155    1.360431
      9          6           0        0.021875    0.000000    1.453369
     10          6           0       -0.061000    0.000000   -1.429189
     11          6           0       -0.009125    1.242930    0.677065
     12          6           0       -0.025000    1.240471   -0.730804
     13          6           0       -0.009125   -1.242930    0.677065
     14          6           0       -0.025000   -1.240471   -0.730804
     15          1           0        0.010500    2.486946    2.443647
     16          1           0        0.041625    4.651128    1.211689
     17          1           0       -0.007250    4.608137   -1.272349
     18          1           0       -0.018250    2.489675   -2.490059
     19          1           0       -0.056250    0.000000   -2.510266
     20          1           0       -0.018250   -2.489675   -2.490059
     21          1           0       -0.007250   -4.608137   -1.272349
     22          1           0        0.041625   -4.651128    1.211689
     23          1           0        0.010500   -2.486946    2.443647
     24          1           0       -0.779585    0.000000    2.145787
     25          1           0        0.939585    0.000000    2.145787
 ---------------------------------------------------------------------
                    Distance matrix (angstroms):
                    1          2          3          4          5
     1  C    0.000000
     2  C    1.407810   0.000000
     3  C    2.408429   1.386142   0.000000
     4  C    2.768943   2.419029   1.412130   0.000000
     5  C    5.695450   6.544720   6.239655   4.971812   0.000000
     6  C    6.543524   7.562119   7.429722   6.239655   1.412130
     7  C    6.248334   7.438266   7.562119   6.544720   2.419029
     8  C    4.982310   6.248334   6.543524   5.695450   2.768943
     9  C    2.492919   3.800378   4.300820   3.790544   3.790544
    10  C    3.741244   4.272860   3.783806   2.486098   2.486098
    11  C    1.423705   2.476718   2.836452   2.427231   4.272081
    12  C    2.437414   2.848853   2.474717   1.417488   3.787354
    13  C    3.796348   4.962320   5.149243   4.272081   2.427231
    14  C    4.278061   5.154597   4.955495   3.787354   1.417488
    15  H    1.083485   2.158239   3.387837   3.851503   6.289939
    16  H    2.165101   1.076982   2.141291   3.399270   7.602901
    17  H    3.378589   2.138485   1.053678   2.126770   7.095402
    18  H    3.850848   3.393175   2.157998   1.082726   5.092022
    19  H    4.603948   4.895731   4.126980   2.719565   2.719565
    20  H    6.295848   6.967881   6.453847   5.092022   1.082726
    21  H    7.571869   8.551387   8.341738   7.095402   2.126770
    22  H    7.143835   8.387642   8.584772   7.602901   3.399270
    23  H    5.094645   6.454078   6.959315   6.289939   3.851503
    24  H    2.735866   4.083821   4.754305   4.399354   4.399354
    25  H    2.764465   4.100154   4.779011   4.445613   4.445613
                    6          7          8          9         10
     6  C    0.000000
     7  C    1.386142   0.000000
     8  C    2.408429   1.407810   0.000000
     9  C    4.300820   3.800378   2.492919   0.000000
    10  C    3.783806   4.272860   3.741244   2.883749   0.000000
    11  C    5.149243   4.962320   3.796348   1.465771   2.446195
    12  C    4.955495   5.154597   4.278061   2.512285   1.424011
    13  C    2.836452   2.476718   1.423705   1.465771   2.446195
    14  C    2.474717   2.848853   2.437414   2.512285   1.424011
    15  H    6.959315   6.454078   5.094645   2.676879   4.603137
    16  H    8.584772   8.387642   7.143835   4.657445   5.349557
    17  H    8.341738   8.551387   7.571869   5.354000   4.611119
    18  H    6.453847   6.967881   6.295848   4.663766   2.706613
    19  H    4.126980   4.895731   4.603948   3.964405   1.081087
    20  H    2.157998   3.393175   3.850848   4.663766   2.706613
    21  H    1.053678   2.138485   3.378589   5.354000   4.611119
    22  H    2.141291   1.076982   2.165101   4.657445   5.349557
    23  H    3.387837   2.158239   1.083485   2.676879   4.603137
    24  H    4.754305   4.083821   2.735866   1.059142   3.646480
    25  H    4.779011   4.100154   2.764465   1.149624   3.712361
                   11         12         13         14         15
    11  C    0.000000
    12  C    1.407961   0.000000
    13  C    2.485860   2.854755   0.000000
    14  C    2.854755   2.480942   1.407961   0.000000
    15  H    2.160734   3.410586   4.127126   4.896125   0.000000
    16  H    3.450248   3.925595   5.918473   6.203923   2.490456
    17  H    3.889066   3.410976   6.167269   5.873653   4.278831
    18  H    3.403694   2.157669   4.895212   4.124198   4.933791
    19  H    3.421429   2.169385   3.421429   2.169385   5.543520
    20  H    4.895212   4.124198   3.403694   2.157669   7.007784
    21  H    6.167269   5.873653   3.889066   3.410976   8.009316
    22  H    5.918473   6.203923   3.450248   3.925595   7.243672
    23  H    4.127126   4.896125   2.160734   3.410586   4.973892
    24  H    2.072590   3.222257   2.072590   3.222257   2.626377
    25  H    2.145244   3.277799   2.145244   3.277799   2.671483
                   16         17         18         19         20
    16  H    0.000000
    17  H    2.484891   0.000000
    18  H    4.287004   2.443526   0.000000
    19  H    5.957812   4.771768   2.490047   0.000000
    20  H    8.043481   7.201519   4.979350   2.490047   0.000000
    21  H    9.586805   9.216274   7.201519   4.771768   2.443526
    22  H    9.302256   9.586805   8.043481   5.957812   4.287004
    23  H    7.243672   8.009316   7.007784   5.543520   4.933791
    24  H    4.814553   5.789221   5.316877   4.711904   5.316877
    25  H    4.828236   5.815073   5.348551   4.761357   5.348551
                   21         22         23         24         25
    21  H    0.000000
    22  H    2.484891   0.000000
    23  H    4.278831   2.490456   0.000000
    24  H    5.789221   4.814553   2.626377   0.000000
    25  H    5.815073   4.828236   2.671483   1.719170   0.000000
 Stoichiometry    C14H11(1+)
 Framework group  CS[SG(C2H3),X(C12H8)]
 Deg. of freedom    37
 Full point group                 CS      NOp   2
 Largest Abelian subgroup         CS      NOp   2
 Largest concise Abelian subgroup CS      NOp   2
                         Standard orientation:                         
 ---------------------------------------------------------------------
 Center     Atomic      Atomic             Coordinates (Angstroms)
 Number     Number       Type             X           Y           Z
 ---------------------------------------------------------------------
      1          6           0        1.360835    0.003392    2.491155
      2          6           0        0.672711    0.025412    3.719133
      3          6           0       -0.713424    0.026284    3.714861
      4          6           0       -1.408076   -0.008941    2.485906
      5          6           0       -1.408076   -0.008941   -2.485906
      6          6           0       -0.713424    0.026284   -3.714861
      7          6           0        0.672711    0.025412   -3.719133
      8          6           0        1.360835    0.003392   -2.491155
      9          6           0        1.453478   -0.011025   -0.000000
     10          6           0       -1.430205   -0.030459    0.000000
     11          6           0        0.676680   -0.024937    1.242930
     12          6           0       -0.731197   -0.009833    1.240471
     13          6           0        0.676680   -0.024937   -1.242930
     14          6           0       -0.731197   -0.009833   -1.240471
     15          1           0        2.443266   -0.044185    2.486946
     16          1           0        1.212291    0.014038    4.651128
     17          1           0       -1.272221    0.019827    4.608137
     18          1           0       -2.489878    0.035621    2.489675
     19          1           0       -2.510916   -0.001925    0.000000
     20          1           0       -2.489878    0.035621   -2.489675
     21          1           0       -1.272221    0.019827   -4.608137
     22          1           0        1.212291    0.014038   -4.651128
     23          1           0        2.443266   -0.044185   -2.486946
     24          1           0        2.128095   -0.827525   -0.000000
     25          1           0        2.165920    0.891229   -0.000000
 ---------------------------------------------------------------------
 Rotational constants (GHZ):           2.1344550           0.4404703           0.3659489
 Standard basis: 6-311++G(d,p) (5D, 7F)
 There are   218 symmetry adapted cartesian basis functions of A'  symmetry.
 There are   181 symmetry adapted cartesian basis functions of A"  symmetry.
 There are   210 symmetry adapted basis functions of A'  symmetry.
 There are   175 symmetry adapted basis functions of A"  symmetry.
   385 basis functions,   603 primitive gaussians,   399 cartesian basis functions
    47 alpha electrons       47 beta electrons
       nuclear repulsion energy       778.8011366361 Hartrees.
 NAtoms=   25 NActive=   25 NUniq=   15 SFac= 2.78D+00 NAtFMM=   60 NAOKFM=F Big=F
 Integral buffers will be    131072 words long.
 Regular integral format.
 Two-electron integral symmetry is turned on.
 Nuclear repulsion after empirical dispersion term =      778.8001562296 Hartrees.
 One-electron integrals computed using PRISM.
 NBasis=   385 RedAO= T EigKep=  1.57D-06  NBF=   210   175
 NBsUse=   379 1.00D-06 EigRej=  9.24D-07 NBFU=   207   172
 ExpMin= 3.60D-02 ExpMax= 4.56D+03 ExpMxC= 6.82D+02 IAcc=3 IRadAn=         5 AccDes= 0.00D+00
 Harris functional with IExCor= 1009 and IRadAn=       5 diagonalized for initial guess.
 HarFok:  IExCor= 1009 AccDes= 0.00D+00 IRadAn=         5 IDoV= 1 UseB2=F ITyADJ=14
 ICtDFT=  3500011 ScaDFX=  1.000000  1.000000  1.000000  1.000000
 FoFCou: FMM=F IPFlag=           0 FMFlag=      100000 FMFlg1=           0
         NFxFlg=           0 DoJE=T BraDBF=F KetDBF=T FulRan=T
         wScrn=  0.000000 ICntrl=       500 IOpCl=  0 I1Cent=   200000004 NGrid=           0
         NMat0=    1 NMatS0=      1 NMatT0=    0 NMatD0=    1 NMtDS0=    0 NMtDT0=    0
 Petite list used in FoFCou.
 Initial guess orbital symmetries:
       Occupied  (A') (A") (A') (A") (A') (A") (A') (A") (A') (A')
                 (A") (A') (A") (A') (A') (A") (A') (A') (A") (A")
                 (A') (A') (A") (A') (A") (A') (A") (A') (A') (A")
                 (A") (A') (A') (A") (A") (A') (A') (A') (A") (A")
                 (A') (A") (A') (A') (A") (A") (A')
       Virtual   (A') (A') (A") (A") (A') (A') (A") (A') (A') (A")
                 (A') (A") (A') (A") (A') (A') (A') (A") (A") (A")
                 (A') (A') (A') (A") (A') (A') (A") (A") (A') (A')
                 (A') (A") (A") (A") (A') (A') (A") (A') (A') (A')
                 (A') (A") (A") (A') (A') (A") (A') (A") (A") (A")
                 (A") (A") (A') (A') (A') (A') (A') (A') (A') (A")
                 (A") (A") (A') (A') (A') (A') (A") (A") (A') (A")
                 (A") (A') (A') (A") (A") (A') (A') (A') (A") (A")
                 (A') (A') (A") (A") (A') (A") (A') (A') (A') (A")
                 (A") (A') (A") (A') (A") (A') (A") (A") (A') (A')
                 (A") (A') (A') (A') (A') (A") (A') (A") (A") (A')
                 (A") (A') (A") (A') (A') (A') (A") (A") (A') (A')
                 (A") (A") (A') (A') (A") (A') (A") (A") (A') (A')
                 (A') (A") (A') (A') (A") (A') (A") (A') (A") (A')
                 (A") (A") (A') (A') (A") (A") (A") (A') (A") (A')
                 (A') (A") (A") (A') (A") (A") (A') (A') (A') (A")
                 (A') (A") (A") (A') (A') (A') (A") (A") (A') (A")
                 (A') (A') (A") (A") (A') (A') (A") (A") (A') (A')
                 (A') (A") (A') (A") (A") (A') (A") (A') (A") (A')
                 (A') (A") (A') (A') (A") (A') (A") (A') (A') (A")
                 (A') (A") (A') (A') (A") (A") (A") (A') (A') (A')
                 (A") (A') (A") (A') (A") (A") (A') (A') (A") (A")
                 (A') (A") (A') (A") (A') (A") (A') (A") (A") (A')
                 (A') (A") (A') (A") (A") (A') (A") (A') (A") (A')
                 (A') (A') (A") (A') (A") (A') (A") (A") (A') (A')
                 (A") (A") (A') (A") (A') (A') (A") (A') (A') (A')
                 (A") (A') (A') (A") (A') (A') (A") (A") (A') (A')
                 (A") (A") (A") (A') (A') (A') (A') (A") (A") (A')
                 (A") (A") (A') (A") (A') (A') (A") (A") (A') (A')
                 (A") (A') (A") (A') (A") (A') (A') (A') (A") (A")
                 (A') (A") (A') (A') (A") (A') (A') (A") (A') (A")
                 (A') (A") (A') (A') (A") (A") (A") (A') (A') (A")
                 (A') (A") (A') (A") (A') (A') (A") (A') (A") (A')
                 (A') (A")
 The electronic state of the initial guess is 1-A'.
 Requested convergence on RMS density matrix=1.00D-08 within 128 cycles.
 Requested convergence on MAX density matrix=1.00D-06.
 Requested convergence on             energy=1.00D-06.
 No special actions if energy rises.
 SCF Done:  E(RM062X) =  -539.752294478     A.U. after   15 cycles
            NFock= 15  Conv=0.54D-08     -V/T= 2.0044
 DoSCS=F DFT=T ScalE2(SS,OS)=  1.000000  1.000000
 ExpMin= 3.60D-02 ExpMax= 4.56D+03 ExpMxC= 6.82D+02 IAcc=3 IRadAn=         5 AccDes= 0.00D+00
 HarFok:  IExCor=  205 AccDes= 0.00D+00 IRadAn=         5 IDoV=-2 UseB2=F ITyADJ=14
 ICtDFT= 12500011 ScaDFX=  1.000000  1.000000  1.000000  1.000000
 Range of M.O.s used for correlation:    15   379
 NBasis=   385 NAE=    47 NBE=    47 NFC=    14 NFV=     0
 NROrb=    365 NOA=    33 NOB=    33 NVA=   332 NVB=   332

 **** Warning!!: The largest alpha MO coefficient is  0.14782939D+03

 Orbital symmetries:
       Occupied  (A') (A") (A') (A") (A') (A") (A') (A") (A') (A')
                 (A") (A') (A") (A') (A') (A") (A') (A') (A") (A")
                 (A') (A') (A') (A") (A") (A') (A") (A') (A') (A")
                 (A') (A") (A') (A") (A') (A") (A') (A') (A") (A')
                 (A") (A') (A") (A') (A") (A") (A')
       Virtual   (A') (A') (A") (A") (A') (A') (A") (A') (A') (A")
                 (A') (A') (A") (A') (A') (A") (A") (A') (A") (A')
                 (A') (A") (A') (A') (A") (A') (A') (A') (A") (A')
                 (A") (A") (A") (A") (A') (A") (A") (A') (A') (A')
                 (A") (A') (A") (A') (A') (A') (A") (A') (A') (A")
                 (A") (A') (A') (A') (A") (A') (A") (A') (A') (A")
                 (A') (A") (A") (A') (A') (A") (A') (A") (A') (A")
                 (A') (A") (A') (A') (A") (A') (A") (A") (A") (A')
                 (A') (A") (A') (A") (A') (A') (A") (A') (A") (A')
                 (A") (A') (A") (A') (A') (A') (A') (A") (A") (A")
                 (A') (A") (A') (A') (A') (A") (A") (A') (A') (A")
                 (A') (A") (A') (A") (A') (A") (A') (A") (A") (A')
                 (A') (A') (A") (A") (A') (A') (A") (A') (A') (A")
                 (A") (A') (A') (A') (A') (A") (A') (A') (A") (A")
                 (A") (A') (A") (A') (A") (A") (A") (A') (A") (A')
                 (A') (A") (A") (A') (A") (A') (A') (A") (A') (A')
                 (A") (A") (A') (A') (A") (A") (A') (A") (A') (A")
                 (A') (A') (A") (A') (A") (A') (A") (A") (A') (A')
                 (A') (A') (A") (A") (A') (A") (A') (A") (A") (A')
                 (A') (A") (A') (A') (A') (A") (A") (A') (A') (A")
                 (A') (A') (A") (A') (A") (A") (A") (A') (A') (A')
                 (A') (A") (A") (A") (A') (A') (A") (A") (A') (A")
                 (A') (A") (A') (A") (A") (A') (A') (A") (A") (A')
                 (A') (A') (A") (A") (A') (A") (A") (A') (A") (A')
                 (A') (A') (A") (A") (A') (A") (A') (A') (A") (A')
                 (A") (A") (A') (A') (A") (A') (A') (A") (A') (A")
                 (A') (A') (A') (A") (A') (A") (A') (A") (A') (A')
                 (A") (A") (A') (A') (A") (A') (A") (A') (A') (A")
                 (A") (A") (A') (A') (A') (A") (A") (A') (A') (A")
                 (A") (A') (A") (A') (A') (A") (A') (A") (A') (A")
                 (A') (A") (A') (A') (A") (A') (A') (A") (A') (A")
                 (A') (A") (A') (A') (A") (A") (A") (A') (A') (A")
                 (A') (A") (A') (A") (A') (A') (A") (A') (A") (A')
                 (A') (A")
     4 initial guesses have been made.
 Convergence on wavefunction:    0.001000000000000
 Iteration     1 Dimension     4 NMult     0 NNew      4
 CISAX will form     4 AO SS matrices at one time.
 Iteration     2 Dimension     6 NMult     4 NNew      2
 Iteration     3 Dimension     8 NMult     6 NNew      2
 Iteration     4 Dimension    10 NMult     8 NNew      2
 Iteration     5 Dimension    12 NMult    10 NNew      2
 Iteration     6 Dimension    14 NMult    12 NNew      2
 ***********************************************************************
 Excited states from <AA,BB:AA,BB> singles matrix:
 ***********************************************************************
 
 Ground to excited state transition densities written to RWF  633
 Ground to excited state transition electric dipole moments (Au):
       state          X           Y           Z        Dip. S.      Osc.
         1         0.6267      0.0096     -0.0000      0.3928      0.0267
 Ground to excited state transition velocity dipole moments (Au):
       state          X           Y           Z        Dip. S.      Osc.
         1        -0.0712     -0.0012     -0.0000      0.0051      0.0332
 Ground to excited state transition magnetic dipole moments (Au):
       state          X           Y           Z
         1        -0.0000      0.0000      0.0127
 Ground to excited state transition velocity quadrupole moments (Au):
       state          XX          YY          ZZ          XY          XZ          YZ
         1         0.0278     -0.0092      0.3217     -0.0021      0.0000     -0.0000
 <0|del|b> * <b|rxdel|0> + <0|del|b> * <b|delr+rdel|0>
 Rotatory Strengths (R) in cgs (10**-40 erg-esu-cm/Gauss)
       state          XX          YY          ZZ    R(velocity)    E-M Angle
         1        -0.0000      0.0000     -0.0000     -0.0000       90.00
 1/2[<0|r|b>*<b|rxdel|0> + (<0|rxdel|b>*<b|r|0>)*]
 Rotatory Strengths (R) in cgs (10**-40 erg-esu-cm/Gauss)
       state          XX          YY          ZZ     R(length)
         1         0.0000     -0.0000      0.0000      0.0000
  1/2[<0|del|b>*<b|r|0> + (<0|r|b>*<b|del|0>)*] (Au)
       state          X           Y           Z        Dip. S.   Osc.(frdel)
         1        -0.0446     -0.0000      0.0000      0.0446      0.0298

 Excitation energies and oscillator strengths:
 
 Excited State   1:      Singlet-A'     2.7718 eV  447.30 nm  f=0.0267  <S**2>=0.000
      47 -> 48         0.70427
 This state for optimization and/or second-order correction.
 Total Energy, E(TD-HF/TD-DFT) =  -539.650431960    
 Copying the excited state density for this state as the 1-particle RhoCI density.
 SavETr:  write IOETrn=   770 NScale= 10 NData=  16 NLR=1 NState=    1 LETran=      28.

 **********************************************************************

            Population analysis using the SCF Density.

 **********************************************************************

 Orbital symmetries:
       Occupied  (A') (A") (A') (A") (A') (A") (A') (A") (A') (A')
                 (A") (A') (A") (A') (A') (A") (A') (A') (A") (A")
                 (A') (A') (A') (A") (A") (A') (A") (A') (A') (A")
                 (A') (A") (A') (A") (A') (A") (A') (A') (A") (A')
                 (A") (A') (A") (A') (A") (A") (A')
       Virtual   (A') (A') (A") (A") (A') (A') (A") (A') (A') (A")
                 (A') (A') (A") (A') (A') (A") (A") (A') (A") (A')
                 (A') (A") (A') (A') (A") (A') (A') (A') (A") (A')
                 (A") (A") (A") (A") (A') (A") (A") (A') (A') (A')
                 (A") (A') (A") (A') (A') (A') (A") (A') (A') (A")
                 (A") (A') (A') (A') (A") (A') (A") (A') (A') (A")
                 (A') (A") (A") (A') (A') (A") (A') (A") (A') (A")
                 (A') (A") (A') (A') (A") (A') (A") (A") (A") (A')
                 (A') (A") (A') (A") (A') (A') (A") (A') (A") (A')
                 (A") (A') (A") (A') (A') (A') (A') (A") (A") (A")
                 (A') (A") (A') (A') (A') (A") (A") (A') (A') (A")
                 (A') (A") (A') (A") (A') (A") (A') (A") (A") (A')
                 (A') (A') (A") (A") (A') (A') (A") (A') (A') (A")
                 (A") (A') (A') (A') (A') (A") (A') (A') (A") (A")
                 (A") (A') (A") (A') (A") (A") (A") (A') (A") (A')
                 (A') (A") (A") (A') (A") (A') (A') (A") (A') (A')
                 (A") (A") (A') (A') (A") (A") (A') (A") (A') (A")
                 (A') (A') (A") (A') (A") (A') (A") (A") (A') (A')
                 (A') (A') (A") (A") (A') (A") (A') (A") (A") (A')
                 (A') (A") (A') (A') (A') (A") (A") (A') (A') (A")
                 (A') (A') (A") (A') (A") (A") (A") (A') (A') (A')
                 (A') (A") (A") (A") (A') (A') (A") (A") (A') (A")
                 (A') (A") (A') (A") (A") (A') (A') (A") (A") (A')
                 (A') (A') (A") (A") (A') (A") (A") (A') (A") (A')
                 (A') (A') (A") (A") (A') (A") (A') (A') (A") (A')
                 (A") (A") (A') (A') (A") (A') (A') (A") (A') (A")
                 (A') (A') (A') (A") (A') (A") (A') (A") (A') (A')
                 (A") (A") (A') (A') (A") (A') (A") (A') (A') (A")
                 (A") (A") (A') (A') (A') (A") (A") (A') (A') (A")
                 (A") (A') (A") (A') (A') (A") (A') (A") (A') (A")
                 (A') (A") (A') (A') (A") (A') (A') (A") (A') (A")
                 (A') (A") (A') (A') (A") (A") (A") (A') (A') (A")
                 (A') (A") (A') (A") (A') (A') (A") (A') (A") (A')
                 (A') (A")
 The electronic state is 1-A'.
 Alpha  occ. eigenvalues --  -10.77653 -10.73331 -10.73331 -10.72655 -10.72654
 Alpha  occ. eigenvalues --  -10.71634 -10.71634 -10.71165 -10.71165 -10.70978
 Alpha  occ. eigenvalues --  -10.70262 -10.70262 -10.69558 -10.69558  -1.16291
 Alpha  occ. eigenvalues --   -1.11932  -1.06694  -1.05879  -1.00897  -1.00142
 Alpha  occ. eigenvalues --   -0.95592  -0.91095  -0.86404  -0.85817  -0.83788
 Alpha  occ. eigenvalues --   -0.78397  -0.75968  -0.74310  -0.69634  -0.69472
 Alpha  occ. eigenvalues --   -0.68826  -0.68281  -0.68046  -0.64364  -0.63955
 Alpha  occ. eigenvalues --   -0.63246  -0.62187  -0.59767  -0.59277  -0.59208
 Alpha  occ. eigenvalues --   -0.56983  -0.55324  -0.54954  -0.52235  -0.46378
 Alpha  occ. eigenvalues --   -0.45938  -0.44248
 Alpha virt. eigenvalues --   -0.26058  -0.15006  -0.14177  -0.13113  -0.11178
 Alpha virt. eigenvalues --   -0.10077  -0.09192  -0.08057  -0.07869  -0.07457
 Alpha virt. eigenvalues --   -0.07262  -0.07127  -0.05651  -0.05585  -0.05389
 Alpha virt. eigenvalues --   -0.03753  -0.03703  -0.03293  -0.03131  -0.02133
 Alpha virt. eigenvalues --   -0.01354  -0.00903   0.00193   0.00707   0.00774
 Alpha virt. eigenvalues --    0.01021   0.01505   0.01803   0.02191   0.02312
 Alpha virt. eigenvalues --    0.02367   0.02468   0.02850   0.03207   0.03417
 Alpha virt. eigenvalues --    0.04263   0.04495   0.04659   0.04914   0.05350
 Alpha virt. eigenvalues --    0.05908   0.06275   0.06618   0.07009   0.07140
 Alpha virt. eigenvalues --    0.07807   0.07909   0.08274   0.08471   0.08942
 Alpha virt. eigenvalues --    0.09572   0.09613   0.09998   0.10636   0.10974
 Alpha virt. eigenvalues --    0.11137   0.12296   0.12302   0.12837   0.13107
 Alpha virt. eigenvalues --    0.13415   0.13497   0.14043   0.14068   0.15669
 Alpha virt. eigenvalues --    0.16425   0.16779   0.16927   0.17454   0.17636
 Alpha virt. eigenvalues --    0.18027   0.18688   0.19113   0.19521   0.19691
 Alpha virt. eigenvalues --    0.21325   0.21359   0.22381   0.23096   0.23131
 Alpha virt. eigenvalues --    0.23596   0.24354   0.24500   0.26678   0.27304
 Alpha virt. eigenvalues --    0.28795   0.29226   0.29695   0.31036   0.35751
 Alpha virt. eigenvalues --    0.35969   0.37471   0.38995   0.41137   0.41543
 Alpha virt. eigenvalues --    0.41888   0.42541   0.43015   0.43412   0.43700
 Alpha virt. eigenvalues --    0.43926   0.44588   0.44659   0.46008   0.47794
 Alpha virt. eigenvalues --    0.48691   0.48937   0.48981   0.50493   0.50928
 Alpha virt. eigenvalues --    0.51151   0.51239   0.52137   0.52138   0.53967
 Alpha virt. eigenvalues --    0.54105   0.54358   0.55767   0.55902   0.57174
 Alpha virt. eigenvalues --    0.58087   0.58651   0.61248   0.61969   0.62192
 Alpha virt. eigenvalues --    0.62610   0.62992   0.63730   0.65101   0.66763
 Alpha virt. eigenvalues --    0.70489   0.70544   0.70762   0.71516   0.72599
 Alpha virt. eigenvalues --    0.74594   0.75234   0.75922   0.75981   0.76620
 Alpha virt. eigenvalues --    0.76995   0.77465   0.77955   0.80372   0.80589
 Alpha virt. eigenvalues --    0.80862   0.81853   0.81907   0.82591   0.84077
 Alpha virt. eigenvalues --    0.85811   0.86171   0.87584   0.89243   0.90520
 Alpha virt. eigenvalues --    0.90915   0.91441   0.93129   0.94800   0.96114
 Alpha virt. eigenvalues --    0.96875   1.00307   1.01102   1.01653   1.02427
 Alpha virt. eigenvalues --    1.03126   1.04042   1.04255   1.06903   1.09099
 Alpha virt. eigenvalues --    1.19885   1.23253   1.24121   1.25800   1.28012
 Alpha virt. eigenvalues --    1.28736   1.32258   1.33198   1.34879   1.35872
 Alpha virt. eigenvalues --    1.38547   1.40003   1.40202   1.42715   1.42733
 Alpha virt. eigenvalues --    1.43126   1.44737   1.44781   1.46793   1.46895
 Alpha virt. eigenvalues --    1.47166   1.47547   1.51397   1.53614   1.55260
 Alpha virt. eigenvalues --    1.55568   1.55994   1.56765   1.57452   1.61047
 Alpha virt. eigenvalues --    1.63653   1.64368   1.64445   1.65825   1.67610
 Alpha virt. eigenvalues --    1.68387   1.68717   1.69582   1.73510   1.75694
 Alpha virt. eigenvalues --    1.76830   1.77482   1.78909   1.79608   1.79675
 Alpha virt. eigenvalues --    1.82845   1.82884   1.83018   1.83212   1.83780
 Alpha virt. eigenvalues --    1.84344   1.85671   1.85922   1.87996   1.91265
 Alpha virt. eigenvalues --    1.91590   1.94044   1.95320   1.97185   1.97227
 Alpha virt. eigenvalues --    1.98904   2.02169   2.03644   2.07496   2.11423
 Alpha virt. eigenvalues --    2.11647   2.13021   2.14958   2.17996   2.20134
 Alpha virt. eigenvalues --    2.21595   2.28149   2.28918   2.33987   2.35588
 Alpha virt. eigenvalues --    2.35991   2.38565   2.40168   2.40686   2.41480
 Alpha virt. eigenvalues --    2.45404   2.47527   2.49813   2.53039   2.53588
 Alpha virt. eigenvalues --    2.54049   2.56777   2.57762   2.58424   2.59519
 Alpha virt. eigenvalues --    2.59821   2.60870   2.61757   2.62676   2.63023
 Alpha virt. eigenvalues --    2.63381   2.64490   2.64620   2.65407   2.67547
 Alpha virt. eigenvalues --    2.69151   2.70776   2.71206   2.73458   2.74717
 Alpha virt. eigenvalues --    2.76276   2.77863   2.79418   2.81963   2.82521
 Alpha virt. eigenvalues --    2.83892   2.86380   2.91973   2.95436   2.99279
 Alpha virt. eigenvalues --    2.99284   3.06143   3.09104   3.09742   3.10367
 Alpha virt. eigenvalues --    3.20505   3.22894   3.25191   3.27099   3.29735
 Alpha virt. eigenvalues --    3.30180   3.31851   3.43192   3.43255   3.45107
 Alpha virt. eigenvalues --    3.46316   3.48624   3.55878   3.64049   3.67002
 Alpha virt. eigenvalues --    3.69125   3.94156   3.95702   3.96731   3.98141
 Alpha virt. eigenvalues --    4.04631   4.06140   4.07787   4.12326   4.35619
 Alpha virt. eigenvalues --    4.61363   4.67787   4.69377  23.45826  23.62321
 Alpha virt. eigenvalues --   23.80723  23.86246  23.86246  23.88929  23.90198
 Alpha virt. eigenvalues --   23.92628  23.95384  23.95701  23.95864  23.98156
 Alpha virt. eigenvalues --   24.08418  24.08614
          Condensed to atoms (all electrons):
               1          2          3          4          5          6
     1  C    8.208037   0.620221  -0.592631   1.443937   0.014056  -0.077365
     2  C    0.620221   6.698414   0.360655  -0.613331  -0.055190  -0.014650
     3  C   -0.592631   0.360655   6.561184   0.434156  -0.102938   0.016123
     4  C    1.443937  -0.613331   0.434156   9.910875   0.130056  -0.102938
     5  C    0.014056  -0.055190  -0.102938   0.130056   9.910875   0.434156
     6  C   -0.077365  -0.014650   0.016123  -0.102938   0.434156   6.561184
     7  C   -0.035519   0.010482  -0.014650  -0.055190  -0.613331   0.360655
     8  C    0.358782  -0.035519  -0.077365   0.014056   1.443937  -0.592631
     9  C   -1.422276  -0.464012   0.248873  -0.552030  -0.552030   0.248873
    10  C   -0.978893   0.084335  -0.289215  -2.112756  -2.112756  -0.289215
    11  C    0.126084  -0.916163   1.109177  -1.054832  -1.647333  -0.107767
    12  C   -1.168968   0.761509  -1.207555  -0.235181   0.018978  -0.213336
    13  C    0.057071  -0.140168  -0.107767  -1.647333  -1.054832   1.109177
    14  C   -0.980754  -0.204059  -0.213336   0.018978  -0.235181  -1.207555
    15  H    0.352341  -0.096718   0.000694   0.021618   0.004781   0.001220
    16  H   -0.026420   0.383399  -0.019504   0.012321  -0.001339  -0.000306
    17  H   -0.014902  -0.028474   0.388876  -0.052858  -0.000321   0.000341
    18  H    0.041631   0.012405  -0.099922   0.432999   0.013551  -0.004261
    19  H   -0.042306  -0.009811   0.052439  -0.079276  -0.079276   0.052439
    20  H    0.006835   0.001371  -0.004261   0.013551   0.432999  -0.099922
    21  H   -0.001152  -0.000333   0.000341  -0.000321  -0.052858   0.388876
    22  H    0.000537   0.000324  -0.000306  -0.001339   0.012321  -0.019504
    23  H    0.005681  -0.002388   0.001220   0.004781   0.021618   0.000694
    24  H    0.007176   0.015147  -0.001216  -0.014796  -0.014796  -0.001216
    25  H    0.055777   0.011594  -0.001077  -0.011344  -0.011344  -0.001077
               7          8          9         10         11         12
     1  C   -0.035519   0.358782  -1.422276  -0.978893   0.126084  -1.168968
     2  C    0.010482  -0.035519  -0.464012   0.084335  -0.916163   0.761509
     3  C   -0.014650  -0.077365   0.248873  -0.289215   1.109177  -1.207555
     4  C   -0.055190   0.014056  -0.552030  -2.112756  -1.054832  -0.235181
     5  C   -0.613331   1.443937  -0.552030  -2.112756  -1.647333   0.018978
     6  C    0.360655  -0.592631   0.248873  -0.289215  -0.107767  -0.213336
     7  C    6.698414   0.620221  -0.464012   0.084335  -0.140168  -0.204059
     8  C    0.620221   8.208037  -1.422276  -0.978893   0.057071  -0.980754
     9  C   -0.464012  -1.422276   8.298482   0.551582   1.379763  -0.928508
    10  C    0.084335  -0.978893   0.551582   8.670918  -0.082005   1.482689
    11  C   -0.140168   0.057071   1.379763  -0.082005  13.521938  -2.967665
    12  C   -0.204059  -0.980754  -0.928508   1.482689  -2.967665  13.471208
    13  C   -0.916163   0.126084   1.379763  -0.082005   1.489065  -4.254334
    14  C    0.761509  -1.168968  -0.928508   1.482689  -4.254334   2.072416
    15  H   -0.002388   0.005681   0.077868  -0.009034  -0.011128  -0.017534
    16  H    0.000324   0.000537   0.002830  -0.009869   0.023856  -0.024473
    17  H   -0.000333  -0.001152  -0.001266   0.014731  -0.014530   0.060208
    18  H    0.001371   0.006835  -0.027967   0.031906  -0.031912  -0.028650
    19  H   -0.009811  -0.042306   0.067448   0.425752   0.085550  -0.066552
    20  H    0.012405   0.041631  -0.027967   0.031906  -0.010505  -0.003701
    21  H   -0.028474  -0.014902  -0.001266   0.014731  -0.004997   0.002951
    22  H    0.383399  -0.026420   0.002830  -0.009869   0.001768  -0.007763
    23  H   -0.096718   0.352341   0.077868  -0.009034  -0.001630   0.005407
    24  H    0.015147   0.007176   0.382368   0.008913  -0.001487  -0.028755
    25  H    0.011594   0.055777   0.335290   0.003440   0.022824  -0.084047
              13         14         15         16         17         18
     1  C    0.057071  -0.980754   0.352341  -0.026420  -0.014902   0.041631
     2  C   -0.140168  -0.204059  -0.096718   0.383399  -0.028474   0.012405
     3  C   -0.107767  -0.213336   0.000694  -0.019504   0.388876  -0.099922
     4  C   -1.647333   0.018978   0.021618   0.012321  -0.052858   0.432999
     5  C   -1.054832  -0.235181   0.004781  -0.001339  -0.000321   0.013551
     6  C    1.109177  -1.207555   0.001220  -0.000306   0.000341  -0.004261
     7  C   -0.916163   0.761509  -0.002388   0.000324  -0.000333   0.001371
     8  C    0.126084  -1.168968   0.005681   0.000537  -0.001152   0.006835
     9  C    1.379763  -0.928508   0.077868   0.002830  -0.001266  -0.027967
    10  C   -0.082005   1.482689  -0.009034  -0.009869   0.014731   0.031906
    11  C    1.489065  -4.254334  -0.011128   0.023856  -0.014530  -0.031912
    12  C   -4.254334   2.072416  -0.017534  -0.024473   0.060208  -0.028650
    13  C   13.521938  -2.967665  -0.001630   0.001768  -0.004997  -0.010505
    14  C   -2.967665  13.471208   0.005407  -0.007763   0.002951  -0.003701
    15  H   -0.001630   0.005407   0.442931  -0.008909   0.001606   0.000032
    16  H    0.001768  -0.007763  -0.008909   0.420954  -0.007296   0.001980
    17  H   -0.004997   0.002951   0.001606  -0.007296   0.427617  -0.010986
    18  H   -0.010505  -0.003701   0.000032   0.001980  -0.010986   0.457749
    19  H    0.085550  -0.066552   0.000426  -0.000608   0.001444  -0.005986
    20  H   -0.031912  -0.028650  -0.000157   0.000018  -0.000146   0.001173
    21  H   -0.014530   0.060208   0.000027  -0.000007   0.000011  -0.000146
    22  H    0.023856  -0.024473  -0.000130   0.000007  -0.000007   0.000018
    23  H   -0.011128  -0.017534   0.000543  -0.000130   0.000027  -0.000157
    24  H   -0.001487  -0.028755  -0.001958   0.000819  -0.000218   0.000078
    25  H    0.022824  -0.084047   0.000023   0.000393  -0.000093   0.000329
              19         20         21         22         23         24
     1  C   -0.042306   0.006835  -0.001152   0.000537   0.005681   0.007176
     2  C   -0.009811   0.001371  -0.000333   0.000324  -0.002388   0.015147
     3  C    0.052439  -0.004261   0.000341  -0.000306   0.001220  -0.001216
     4  C   -0.079276   0.013551  -0.000321  -0.001339   0.004781  -0.014796
     5  C   -0.079276   0.432999  -0.052858   0.012321   0.021618  -0.014796
     6  C    0.052439  -0.099922   0.388876  -0.019504   0.000694  -0.001216
     7  C   -0.009811   0.012405  -0.028474   0.383399  -0.096718   0.015147
     8  C   -0.042306   0.041631  -0.014902  -0.026420   0.352341   0.007176
     9  C    0.067448  -0.027967  -0.001266   0.002830   0.077868   0.382368
    10  C    0.425752   0.031906   0.014731  -0.009869  -0.009034   0.008913
    11  C    0.085550  -0.010505  -0.004997   0.001768  -0.001630  -0.001487
    12  C   -0.066552  -0.003701   0.002951  -0.007763   0.005407  -0.028755
    13  C    0.085550  -0.031912  -0.014530   0.023856  -0.011128  -0.001487
    14  C   -0.066552  -0.028650   0.060208  -0.024473  -0.017534  -0.028755
    15  H    0.000426  -0.000157   0.000027  -0.000130   0.000543  -0.001958
    16  H   -0.000608   0.000018  -0.000007   0.000007  -0.000130   0.000819
    17  H    0.001444  -0.000146   0.000011  -0.000007   0.000027  -0.000218
    18  H   -0.005986   0.001173  -0.000146   0.000018  -0.000157   0.000078
    19  H    0.449950  -0.005986   0.001444  -0.000608   0.000426   0.000781
    20  H   -0.005986   0.457749  -0.010986   0.001980   0.000032   0.000078
    21  H    0.001444  -0.010986   0.427617  -0.007296   0.001606  -0.000218
    22  H   -0.000608   0.001980  -0.007296   0.420954  -0.008909   0.000819
    23  H    0.000426   0.000032   0.001606  -0.008909   0.442931  -0.001958
    24  H    0.000781   0.000078  -0.000218   0.000819  -0.001958   0.489697
    25  H    0.000321   0.000329  -0.000093   0.000393   0.000023  -0.077126
              25
     1  C    0.055777
     2  C    0.011594
     3  C   -0.001077
     4  C   -0.011344
     5  C   -0.011344
     6  C   -0.001077
     7  C    0.011594
     8  C    0.055777
     9  C    0.335290
    10  C    0.003440
    11  C    0.022824
    12  C   -0.084047
    13  C    0.022824
    14  C   -0.084047
    15  H    0.000023
    16  H    0.000393
    17  H   -0.000093
    18  H    0.000329
    19  H    0.000321
    20  H    0.000329
    21  H   -0.000093
    22  H    0.000393
    23  H    0.000023
    24  H   -0.077126
    25  H    0.489550
 Mulliken charges:
               1
     1  C    0.043022
     2  C   -0.379042
     3  C   -0.441996
     4  C    0.096196
     5  C    0.096196
     6  C   -0.441996
     7  C   -0.379042
     8  C    0.043022
     9  C   -0.261721
    10  C    0.075620
    11  C   -0.570640
    12  C    0.546470
    13  C   -0.570640
    14  C    0.546470
    15  H    0.234389
    16  H    0.257416
    17  H    0.239767
    18  H    0.222137
    19  H    0.185109
    20  H    0.222137
    21  H    0.239767
    22  H    0.257416
    23  H    0.234389
    24  H    0.245790
    25  H    0.259766
 Sum of Mulliken charges =   1.00000
 Mulliken charges with hydrogens summed into heavy atoms:
               1
     1  C    0.277410
     2  C   -0.121625
     3  C   -0.202229
     4  C    0.318333
     5  C    0.318333
     6  C   -0.202229
     7  C   -0.121625
     8  C    0.277410
     9  C    0.243836
    10  C    0.260729
    11  C   -0.570640
    12  C    0.546470
    13  C   -0.570640
    14  C    0.546470
 Electronic spatial extent (au):  <R**2>=           2875.9238
 Charge=              1.0000 electrons
 Dipole moment (field-independent basis, Debye):
    X=             -0.1930    Y=              0.0049    Z=              0.0000  Tot=              0.1931
 Quadrupole moment (field-independent basis, Debye-Ang):
   XX=            -56.2540   YY=            -84.3033   ZZ=            -30.6860
   XY=             -0.2400   XZ=             -0.0000   YZ=              0.0000
 Traceless Quadrupole moment (field-independent basis, Debye-Ang):
   XX=              0.8271   YY=            -27.2222   ZZ=             26.3951
   XY=             -0.2400   XZ=             -0.0000   YZ=              0.0000
 Octapole moment (field-independent basis, Debye-Ang**2):
  XXX=             -5.1674  YYY=             -0.0538  ZZZ=             -0.0000  XYY=              3.0937
  XXY=              0.2969  XXZ=             -0.0000  XZZ=              3.6147  YZZ=              0.4889
  YYZ=              0.0000  XYZ=              0.0000
 Hexadecapole moment (field-independent basis, Debye-Ang**3):
 XXXX=           -609.7105 YYYY=           -100.0917 ZZZZ=          -2130.5763 XXXY=             -2.6410
 XXXZ=              0.0000 YYYX=             -0.1053 YYYZ=             -0.0000 ZZZX=             -0.0000
 ZZZY=             -0.0000 XXYY=           -145.9274 XXZZ=           -511.3170 YYZZ=           -596.2918
 XXYZ=              0.0000 YYXZ=             -0.0000 ZZXY=             -2.6481
 N-N= 7.788001562296D+02 E-N=-2.793804585150D+03  KE= 5.373629205907D+02
 Symmetry A'   KE= 3.037126638102D+02
 Symmetry A"   KE= 2.336502567804D+02
 Unable to Open any file for archive entry.
 1\1\GINC-GADI-CPU-CLX-0113\SP\RM062X TD-FC\6-311++G(d,p)\C14H11(1+)\TS
 1578\28-Jul-2022\0\\#n M062X/6-311++G(d,p) TD(NStates=1) EmpiricalDisp
 ersion=GD3 SP\\SP_-125\\1,1\C,0,0.03425,2.491155,1.360431\C,0,0.041125
 ,3.719133,0.671989\C,0,0.0115,3.714861,-0.71383\C,0,-0.039,2.485906,-1
 .407538\C,0,-0.039,-2.485906,-1.407538\C,0,0.0115,-3.714861,-0.71383\C
 ,0,0.041125,-3.719133,0.671989\C,0,0.03425,-2.491155,1.360431\C,0,0.02
 1875,0.,1.453369\C,0,-0.061,0.,-1.429189\C,0,-0.009125,1.24293,0.67706
 5\C,0,-0.025,1.240471,-0.730804\C,0,-0.009125,-1.24293,0.677065\C,0,-0
 .025,-1.240471,-0.730804\H,0,0.0105,2.486946,2.443647\H,0,0.041625,4.6
 51128,1.211689\H,0,-0.00725,4.608137,-1.272349\H,0,-0.01825,2.489675,-
 2.490059\H,0,-0.05625,0.,-2.510266\H,0,-0.01825,-2.489675,-2.490059\H,
 0,-0.00725,-4.608137,-1.272349\H,0,0.041625,-4.651128,1.211689\H,0,0.0
 105,-2.486946,2.443647\H,0,-0.779585,0.,2.145787\H,0,0.939585,0.,2.145
 787\\Version=ES64L-G16RevC.01\State=1-A'\HF=-539.7522945\RMSD=5.361e-0
 9\PG=CS [SG(C2H3),X(C12H8)]\\@
 The archive entry for this job was punched.


 BLESSED ARE THOSE WHO NOUGHT EXPECT,
 FOR THEY SHALL NOT BE DISAPPOINTED..  WALCOT - ODE TO PITT
 Job cpu time:       0 days  0 hours 46 minutes 51.5 seconds.
 Elapsed time:       0 days  0 hours  1 minutes  6.3 seconds.
 File lengths (MBytes):  RWF=    460 Int=      0 D2E=      0 Chk=     15 Scr=      1
 Normal termination of Gaussian 16 at Thu Jul 28 13:30:49 2022.
