 Entering Gaussian System, Link 0=g16
 Initial command:
 /apps/gaussian/g16c01/g16/l1.exe "/jobfs/53002009.gadi-pbs/Gau-808713.inp" -scrdir="/jobfs/53002009.gadi-pbs/"
 Entering Link 1 = /apps/gaussian/g16c01/g16/l1.exe PID=    808714.
  
 Copyright (c) 1988-2019, Gaussian, Inc.  All Rights Reserved.
  
 This is part of the Gaussian(R) 16 program.  It is based on
 the Gaussian(R) 09 system (copyright 2009, Gaussian, Inc.),
 the Gaussian(R) 03 system (copyright 2003, Gaussian, Inc.),
 the Gaussian(R) 98 system (copyright 1998, Gaussian, Inc.),
 the Gaussian(R) 94 system (copyright 1995, Gaussian, Inc.),
 the Gaussian 92(TM) system (copyright 1992, Gaussian, Inc.),
 the Gaussian 90(TM) system (copyright 1990, Gaussian, Inc.),
 the Gaussian 88(TM) system (copyright 1988, Gaussian, Inc.),
 the Gaussian 86(TM) system (copyright 1986, Carnegie Mellon
 University), and the Gaussian 82(TM) system (copyright 1983,
 Carnegie Mellon University). Gaussian is a federally registered
 trademark of Gaussian, Inc.
  
 This software contains proprietary and confidential information,
 including trade secrets, belonging to Gaussian, Inc.
  
 This software is provided under written license and may be
 used, copied, transmitted, or stored only in accord with that
 written license.
  
 The following legend is applicable only to US Government
 contracts under FAR:
  
                    RESTRICTED RIGHTS LEGEND
  
 Use, reproduction and disclosure by the US Government is
 subject to restrictions as set forth in subparagraphs (a)
 and (c) of the Commercial Computer Software - Restricted
 Rights clause in FAR 52.227-19.
  
 Gaussian, Inc.
 340 Quinnipiac St., Bldg. 40, Wallingford CT 06492
  
  
 ---------------------------------------------------------------
 Warning -- This program may not be used in any manner that
 competes with the business of Gaussian, Inc. or will provide
 assistance to any competitor of Gaussian, Inc.  The licensee
 of this program is prohibited from giving any competitor of
 Gaussian, Inc. access to this program.  By using this program,
 the user acknowledges that Gaussian, Inc. is engaged in the
 business of creating and licensing software in the field of
 computational chemistry and represents and warrants to the
 licensee that it is not a competitor of Gaussian, Inc. and that
 it will not use this program in any manner prohibited above.
 ---------------------------------------------------------------
  

 Cite this work as:
 Gaussian 16, Revision C.01,
 M. J. Frisch, G. W. Trucks, H. B. Schlegel, G. E. Scuseria, 
 M. A. Robb, J. R. Cheeseman, G. Scalmani, V. Barone, 
 G. A. Petersson, H. Nakatsuji, X. Li, M. Caricato, A. V. Marenich, 
 J. Bloino, B. G. Janesko, R. Gomperts, B. Mennucci, H. P. Hratchian, 
 J. V. Ortiz, A. F. Izmaylov, J. L. Sonnenberg, D. Williams-Young, 
 F. Ding, F. Lipparini, F. Egidi, J. Goings, B. Peng, A. Petrone, 
 T. Henderson, D. Ranasinghe, V. G. Zakrzewski, J. Gao, N. Rega, 
 G. Zheng, W. Liang, M. Hada, M. Ehara, K. Toyota, R. Fukuda, 
 J. Hasegawa, M. Ishida, T. Nakajima, Y. Honda, O. Kitao, H. Nakai, 
 T. Vreven, K. Throssell, J. A. Montgomery, Jr., J. E. Peralta, 
 F. Ogliaro, M. J. Bearpark, J. J. Heyd, E. N. Brothers, K. N. Kudin, 
 V. N. Staroverov, T. A. Keith, R. Kobayashi, J. Normand, 
 K. Raghavachari, A. P. Rendell, J. C. Burant, S. S. Iyengar, 
 J. Tomasi, M. Cossi, J. M. Millam, M. Klene, C. Adamo, R. Cammi, 
 J. W. Ochterski, R. L. Martin, K. Morokuma, O. Farkas, 
 J. B. Foresman, and D. J. Fox, Gaussian, Inc., Wallingford CT, 2019.
 
 ******************************************
 Gaussian 16:  ES64L-G16RevC.01  3-Jul-2019
                28-Jul-2022 
 ******************************************
 %NProcShared=48
 Will use up to   48 processors via shared memory.
 %mem = 190GB
 ---------------------------------------------------------------
 #n M062X/6-311++G(d,p) TD(NStates=1) EmpiricalDispersion=GD3 SP
 ---------------------------------------------------------------
 1/38=1,172=1/1;
 2/12=2,17=6,18=5,40=1/2;
 3/5=4,6=6,7=1111,11=9,25=1,30=1,74=-55,124=31/1,2,3,8;
 4//1;
 5/5=2,38=5/2;
 8/6=1,10=2,108=1/1;
 9/41=1,42=1,70=2/14;
 6/7=2,8=2,9=2,10=2/1;
 99/5=1,9=1/99;
 ------
 SP_150
 ------
 Symbolic Z-matrix:
 Charge =  1 Multiplicity = 1
 C                    -0.0255    2.49325   1.36043 
 C                    -0.03195   3.68706   0.67199 
 C                    -0.0086    3.65806  -0.71383 
 C                     0.0313    2.44476  -1.40754 
 C                     0.0311   -2.44516  -1.40754 
 C                    -0.0098   -3.66006  -0.71383 
 C                    -0.03385  -3.68776   0.67199 
 C                    -0.0293   -2.49446   1.36043 
 C                    -0.01755   0.0044    1.45337 
 C                     0.0488   -0.0002   -1.42919 
 C                     0.00745   1.27741   0.67707 
 C                     0.0196    1.23537  -0.7308 
 C                     0.00715  -1.2773    0.67707 
 C                     0.0204   -1.23477  -0.7308 
 H                    -0.0062    2.48832   2.44365 
 H                    -0.03215   4.6245    1.21169 
 H                     0.0061    4.60891  -1.27235 
 H                     0.0143    2.4497   -2.49006 
 H                     0.045    -0.0001   -2.51027 
 H                     0.0149   -2.45     -2.49006 
 H                     0.0055   -4.61141  -1.27235 
 H                    -0.03445  -4.626     1.21169 
 H                    -0.0106   -2.48962   2.44365 
 H                    -0.92359   0.001     2.14469 
 H                     0.79559   0.001     2.14689 
 
                          Input orientation:                          
 ---------------------------------------------------------------------
 Center     Atomic      Atomic             Coordinates (Angstroms)
 Number     Number       Type             X           Y           Z
 ---------------------------------------------------------------------
      1          6           0       -0.025500    2.493255    1.360431
      2          6           0       -0.031950    3.687058    0.671989
      3          6           0       -0.008600    3.658061   -0.713830
      4          6           0        0.031300    2.444756   -1.407538
      5          6           0        0.031100   -2.445156   -1.407538
      6          6           0       -0.009800   -3.660061   -0.713830
      7          6           0       -0.033850   -3.687758    0.671989
      8          6           0       -0.029300   -2.494455    1.360431
      9          6           0       -0.017550    0.004400    1.453369
     10          6           0        0.048800   -0.000200   -1.429189
     11          6           0        0.007450    1.277405    0.677065
     12          6           0        0.019600    1.235371   -0.730804
     13          6           0        0.007150   -1.277305    0.677065
     14          6           0        0.020400   -1.234771   -0.730804
     15          1           0       -0.006200    2.488321    2.443647
     16          1           0       -0.032150    4.624503    1.211689
     17          1           0        0.006100    4.608912   -1.272349
     18          1           0        0.014300    2.449700   -2.490059
     19          1           0        0.045000   -0.000100   -2.510266
     20          1           0        0.014900   -2.450000   -2.490059
     21          1           0        0.005500   -4.611412   -1.272349
     22          1           0       -0.034450   -4.626003    1.211689
     23          1           0       -0.010600   -2.489621    2.443647
     24          1           0       -0.923585    0.001000    2.144687
     25          1           0        0.795585    0.001000    2.146887
 ---------------------------------------------------------------------
                    Distance matrix (angstroms):
                    1          2          3          4          5
     1  C    0.000000
     2  C    1.378100   0.000000
     3  C    2.378995   1.386319   0.000000
     4  C    2.768976   2.423169   1.398189   0.000000
     5  C    5.661516   6.475527   6.142643   4.889912   0.000000
     6  C    6.493543   7.476707   7.318122   6.144242   1.399606
     7  C    6.219240   7.374816   7.475439   6.475832   2.423368
     8  C    4.987711   6.219732   6.492799   5.662255   2.769067
     9  C    2.490602   3.764669   4.248067   3.760653   3.766627
    10  C    3.742301   4.244684   3.727990   2.445114   2.445116
    11  C    1.395122   2.409980   2.757239   2.389319   4.266566
    12  C    2.440813   2.825111   2.422914   1.385900   3.742243
    13  C    3.832124   4.964520   5.127638   4.266133   2.389565
    14  C    4.274757   5.118102   4.892947   3.741257   1.386764
    15  H    1.083399   2.139253   3.367189   3.851614   6.258771
    16  H    2.136442   1.081702   2.154574   3.408177   7.539524
    17  H    3.377652   2.152141   1.102850   2.168521   7.055408
    18  H    3.850942   3.395842   2.148406   1.082666   5.013158
    19  H    4.604789   4.871119   4.075806   2.682073   2.682257
    20  H    6.266073   6.903928   6.361128   5.013059   1.082653
    21  H    7.576858   8.523289   8.288325   7.057510   2.170621
    22  H    7.120817   8.330562   8.504940   7.540577   3.408921
    23  H    5.099278   6.425776   6.911126   6.259509   3.851667
    24  H    2.762779   4.068277   4.731005   4.416113   4.417398
    25  H    2.739348   4.055510   4.712166   4.380641   4.382015
                    6          7          8          9         10
     6  C    0.000000
     7  C    1.386304   0.000000
     8  C    2.379407   1.377659   0.000000
     9  C    4.257357   3.773970   2.500610   0.000000
    10  C    3.729578   4.244981   3.742912   2.883325   0.000000
    11  C    5.129664   4.965337   3.833441   1.491246   2.463796
    12  C    4.895550   5.119364   4.276360   2.507445   1.419588
    13  C    2.759058   2.410807   1.396342   1.498675   2.463542
    14  C    2.425537   2.826290   2.441831   2.511493   1.418701
    15  H    6.911749   6.425223   5.099210   2.674069   4.603762
    16  H    8.505417   8.329764   7.120512   4.626443   5.326224
    17  H    8.287829   8.521548   7.575659   5.350853   4.611977
    18  H    6.362763   6.904293   6.266805   4.640165   2.669952
    19  H    4.077438   4.871528   4.605391   3.964131   1.081084
    20  H    2.149383   3.396023   3.851000   4.644971   2.669853
    21  H    1.103289   2.152936   3.378498   5.360577   4.614082
    22  H    2.154362   1.082396   2.136738   4.636737   5.327215
    23  H    3.367431   2.138889   1.083388   2.683438   4.604303
    24  H    4.733866   4.070308   2.764435   1.139663   3.703799
    25  H    4.715476   4.058352   2.743400   1.068722   3.653219
                   11         12         13         14         15
    11  C    0.000000
    12  C    1.408549   0.000000
    13  C    2.554710   2.880241   0.000000
    14  C    2.879807   2.470142   1.408574   0.000000
    15  H    2.141802   3.412871   4.159439   4.892776   0.000000
    16  H    3.389758   3.906683   5.926104   6.173097   2.466104
    17  H    3.859942   3.416758   6.200626   5.868740   4.278514
    18  H    3.377129   2.137663   4.890940   4.082933   4.933900
    19  H    3.434022   2.166453   3.433914   2.165988   5.544016
    20  H    4.891245   4.083743   3.377269   2.138174   6.980610
    21  H    6.203095   5.871826   3.862187   3.419824   8.013424
    22  H    5.927715   6.175104   3.391361   3.908547   7.220258
    23  H    4.160724   4.894243   2.142624   3.413612   4.977944
    24  H    2.156374   3.268290   2.157370   3.269050   2.667909
    25  H    2.100177   3.225977   2.101445   3.226321   2.630150
                   16         17         18         19         20
    16  H    0.000000
    17  H    2.484381   0.000000
    18  H    4.293584   2.478927   0.000000
    19  H    5.936822   4.772520   2.450076   0.000000
    20  H    7.984594   7.163179   4.899700   2.450168   0.000000
    21  H    9.564203   9.220324   7.165347   4.774746   2.480848
    22  H    9.250506   9.563250   7.985668   5.937865   4.294224
    23  H    7.220038   8.012370   6.981330   5.544552   4.933931
    24  H    4.800200   5.811480   5.325094   4.754655   5.326258
    25  H    4.789209   5.792004   5.301680   4.717251   5.302654
                   21         22         23         24         25
    21  H    0.000000
    22  H    2.484402   0.000000
    23  H    4.279122   2.466256   0.000000
    24  H    5.814953   4.803145   2.669478   0.000000
    25  H    5.795667   4.792986   2.634615   1.719171   0.000000
 Stoichiometry    C14H11(1+)
 Framework group  C1[X(C14H11)]
 Deg. of freedom    69
 Full point group                 C1      NOp   1
 Largest Abelian subgroup         C1      NOp   1
 Largest concise Abelian subgroup C1      NOp   1
                         Standard orientation:                         
 ---------------------------------------------------------------------
 Center     Atomic      Atomic             Coordinates (Angstroms)
 Number     Number       Type             X           Y           Z
 ---------------------------------------------------------------------
      1          6           0        2.493364   -1.360457    0.001426
      2          6           0        3.687108   -0.672140    0.020272
      3          6           0        3.658000    0.713873    0.021296
      4          6           0        2.444646    1.408079   -0.006687
      5          6           0       -2.445265    1.407685   -0.007661
      6          6           0       -3.660122    0.713268    0.020739
      7          6           0       -3.687708   -0.672762    0.020401
      8          6           0       -2.494346   -1.360922    0.004028
      9          6           0        0.004519   -1.453440   -0.008755
     10          6           0       -0.000307    1.429839   -0.024390
     11          6           0        1.277465   -0.676714   -0.019790
     12          6           0        1.235316    0.731147   -0.007183
     13          6           0       -1.277245   -0.676923   -0.020103
     14          6           0       -1.234826    0.730964   -0.008576
     15          1           0        2.488526   -2.443167   -0.036926
     16          1           0        4.624598   -1.211685    0.011203
     17          1           0        4.608808    1.272640    0.016651
     18          1           0        2.449496    2.490134    0.029354
     19          1           0       -0.000299    2.510682   -0.001574
     20          1           0       -2.450204    2.489753    0.027578
     21          1           0       -4.611516    1.271894    0.015037
     22          1           0       -4.625908   -1.212463    0.011282
     23          1           0       -2.489417   -2.443641   -0.033722
     24          1           0        0.000961   -2.160588    0.884978
     25          1           0        0.001371   -2.132547   -0.833964
 ---------------------------------------------------------------------
 Rotational constants (GHZ):           2.1350918           0.4479365           0.3710927
 Standard basis: 6-311++G(d,p) (5D, 7F)
 There are   399 symmetry adapted cartesian basis functions of A   symmetry.
 There are   385 symmetry adapted basis functions of A   symmetry.
   385 basis functions,   603 primitive gaussians,   399 cartesian basis functions
    47 alpha electrons       47 beta electrons
       nuclear repulsion energy       782.9833469336 Hartrees.
 NAtoms=   25 NActive=   25 NUniq=   25 SFac= 1.00D+00 NAtFMM=   60 NAOKFM=F Big=F
 Integral buffers will be    131072 words long.
 Regular integral format.
 Two-electron integral symmetry is turned on.
 Nuclear repulsion after empirical dispersion term =      782.9823679678 Hartrees.
 One-electron integrals computed using PRISM.
 NBasis=   385 RedAO= T EigKep=  1.36D-06  NBF=   385
 NBsUse=   379 1.00D-06 EigRej=  8.23D-07 NBFU=   379
 ExpMin= 3.60D-02 ExpMax= 4.56D+03 ExpMxC= 6.82D+02 IAcc=3 IRadAn=         5 AccDes= 0.00D+00
 Harris functional with IExCor= 1009 and IRadAn=       5 diagonalized for initial guess.
 HarFok:  IExCor= 1009 AccDes= 0.00D+00 IRadAn=         5 IDoV= 1 UseB2=F ITyADJ=14
 ICtDFT=  3500011 ScaDFX=  1.000000  1.000000  1.000000  1.000000
 FoFCou: FMM=F IPFlag=           0 FMFlag=      100000 FMFlg1=           0
         NFxFlg=           0 DoJE=T BraDBF=F KetDBF=T FulRan=T
         wScrn=  0.000000 ICntrl=       500 IOpCl=  0 I1Cent=   200000004 NGrid=           0
         NMat0=    1 NMatS0=      1 NMatT0=    0 NMatD0=    1 NMtDS0=    0 NMtDT0=    0
 Petite list used in FoFCou.
 Requested convergence on RMS density matrix=1.00D-08 within 128 cycles.
 Requested convergence on MAX density matrix=1.00D-06.
 Requested convergence on             energy=1.00D-06.
 No special actions if energy rises.
 SCF Done:  E(RM062X) =  -539.756705290     A.U. after   15 cycles
            NFock= 15  Conv=0.55D-08     -V/T= 2.0040
 DoSCS=F DFT=T ScalE2(SS,OS)=  1.000000  1.000000
 ExpMin= 3.60D-02 ExpMax= 4.56D+03 ExpMxC= 6.82D+02 IAcc=3 IRadAn=         5 AccDes= 0.00D+00
 HarFok:  IExCor=  205 AccDes= 0.00D+00 IRadAn=         5 IDoV=-2 UseB2=F ITyADJ=14
 ICtDFT= 12500011 ScaDFX=  1.000000  1.000000  1.000000  1.000000
 Range of M.O.s used for correlation:    15   379
 NBasis=   385 NAE=    47 NBE=    47 NFC=    14 NFV=     0
 NROrb=    365 NOA=    33 NOB=    33 NVA=   332 NVB=   332

 **** Warning!!: The largest alpha MO coefficient is  0.14485471D+03

 Orbital symmetries:
       Occupied  (A) (A) (A) (A) (A) (A) (A) (A) (A) (A) (A) (A)
                 (A) (A) (A) (A) (A) (A) (A) (A) (A) (A) (A) (A)
                 (A) (A) (A) (A) (A) (A) (A) (A) (A) (A) (A) (A)
                 (A) (A) (A) (A) (A) (A) (A) (A) (A) (A) (A)
       Virtual   (A) (A) (A) (A) (A) (A) (A) (A) (A) (A) (A) (A)
                 (A) (A) (A) (A) (A) (A) (A) (A) (A) (A) (A) (A)
                 (A) (A) (A) (A) (A) (A) (A) (A) (A) (A) (A) (A)
                 (A) (A) (A) (A) (A) (A) (A) (A) (A) (A) (A) (A)
                 (A) (A) (A) (A) (A) (A) (A) (A) (A) (A) (A) (A)
                 (A) (A) (A) (A) (A) (A) (A) (A) (A) (A) (A) (A)
                 (A) (A) (A) (A) (A) (A) (A) (A) (A) (A) (A) (A)
                 (A) (A) (A) (A) (A) (A) (A) (A) (A) (A) (A) (A)
                 (A) (A) (A) (A) (A) (A) (A) (A) (A) (A) (A) (A)
                 (A) (A) (A) (A) (A) (A) (A) (A) (A) (A) (A) (A)
                 (A) (A) (A) (A) (A) (A) (A) (A) (A) (A) (A) (A)
                 (A) (A) (A) (A) (A) (A) (A) (A) (A) (A) (A) (A)
                 (A) (A) (A) (A) (A) (A) (A) (A) (A) (A) (A) (A)
                 (A) (A) (A) (A) (A) (A) (A) (A) (A) (A) (A) (A)
                 (A) (A) (A) (A) (A) (A) (A) (A) (A) (A) (A) (A)
                 (A) (A) (A) (A) (A) (A) (A) (A) (A) (A) (A) (A)
                 (A) (A) (A) (A) (A) (A) (A) (A) (A) (A) (A) (A)
                 (A) (A) (A) (A) (A) (A) (A) (A) (A) (A) (A) (A)
                 (A) (A) (A) (A) (A) (A) (A) (A) (A) (A) (A) (A)
                 (A) (A) (A) (A) (A) (A) (A) (A) (A) (A) (A) (A)
                 (A) (A) (A) (A) (A) (A) (A) (A) (A) (A) (A) (A)
                 (A) (A) (A) (A) (A) (A) (A) (A) (A) (A) (A) (A)
                 (A) (A) (A) (A) (A) (A) (A) (A) (A) (A) (A) (A)
                 (A) (A) (A) (A) (A) (A) (A) (A) (A) (A) (A) (A)
                 (A) (A) (A) (A) (A) (A) (A) (A) (A) (A) (A) (A)
                 (A) (A) (A) (A) (A) (A) (A) (A) (A) (A) (A) (A)
                 (A) (A) (A) (A) (A) (A) (A) (A) (A) (A) (A) (A)
                 (A) (A) (A) (A) (A) (A) (A) (A)
     4 initial guesses have been made.
 Convergence on wavefunction:    0.001000000000000
 Iteration     1 Dimension     4 NMult     0 NNew      4
 CISAX will form     4 AO SS matrices at one time.
 Iteration     2 Dimension     6 NMult     4 NNew      2
 Iteration     3 Dimension     8 NMult     6 NNew      2
 Iteration     4 Dimension    10 NMult     8 NNew      2
 Iteration     5 Dimension    12 NMult    10 NNew      2
 Iteration     6 Dimension    14 NMult    12 NNew      2
 ***********************************************************************
 Excited states from <AA,BB:AA,BB> singles matrix:
 ***********************************************************************
 
 Ground to excited state transition densities written to RWF  633
 Ground to excited state transition electric dipole moments (Au):
       state          X           Y           Z        Dip. S.      Osc.
         1         0.0053     -0.6568      0.0083      0.4315      0.0301
 Ground to excited state transition velocity dipole moments (Au):
       state          X           Y           Z        Dip. S.      Osc.
         1        -0.0006      0.0760     -0.0010      0.0058      0.0368
 Ground to excited state transition magnetic dipole moments (Au):
       state          X           Y           Z
         1        -0.0113     -0.0005     -0.0005
 Ground to excited state transition velocity quadrupole moments (Au):
       state          XX          YY          ZZ          XY          XZ          YZ
         1         0.2719      0.0393     -0.0101     -0.0010      0.0000      0.0012
 <0|del|b> * <b|rxdel|0> + <0|del|b> * <b|delr+rdel|0>
 Rotatory Strengths (R) in cgs (10**-40 erg-esu-cm/Gauss)
       state          XX          YY          ZZ    R(velocity)    E-M Angle
         1        -0.1215      0.0180     -0.0819     -0.0618       90.00
 1/2[<0|r|b>*<b|rxdel|0> + (<0|rxdel|b>*<b|r|0>)*]
 Rotatory Strengths (R) in cgs (10**-40 erg-esu-cm/Gauss)
       state          XX          YY          ZZ     R(length)
         1         0.0425     -0.2105      0.0030     -0.0550
  1/2[<0|del|b>*<b|r|0> + (<0|r|b>*<b|del|0>)*] (Au)
       state          X           Y           Z        Dip. S.   Osc.(frdel)
         1        -0.0000     -0.0499     -0.0000      0.0499      0.0333

 Excitation energies and oscillator strengths:
 
 Excited State   1:      Singlet-A      2.8468 eV  435.52 nm  f=0.0301  <S**2>=0.000
      47 -> 48         0.70422
 This state for optimization and/or second-order correction.
 Total Energy, E(TD-HF/TD-DFT) =  -539.652086001    
 Copying the excited state density for this state as the 1-particle RhoCI density.
 SavETr:  write IOETrn=   770 NScale= 10 NData=  16 NLR=1 NState=    1 LETran=      28.

 **********************************************************************

            Population analysis using the SCF Density.

 **********************************************************************

 Orbital symmetries:
       Occupied  (A) (A) (A) (A) (A) (A) (A) (A) (A) (A) (A) (A)
                 (A) (A) (A) (A) (A) (A) (A) (A) (A) (A) (A) (A)
                 (A) (A) (A) (A) (A) (A) (A) (A) (A) (A) (A) (A)
                 (A) (A) (A) (A) (A) (A) (A) (A) (A) (A) (A)
       Virtual   (A) (A) (A) (A) (A) (A) (A) (A) (A) (A) (A) (A)
                 (A) (A) (A) (A) (A) (A) (A) (A) (A) (A) (A) (A)
                 (A) (A) (A) (A) (A) (A) (A) (A) (A) (A) (A) (A)
                 (A) (A) (A) (A) (A) (A) (A) (A) (A) (A) (A) (A)
                 (A) (A) (A) (A) (A) (A) (A) (A) (A) (A) (A) (A)
                 (A) (A) (A) (A) (A) (A) (A) (A) (A) (A) (A) (A)
                 (A) (A) (A) (A) (A) (A) (A) (A) (A) (A) (A) (A)
                 (A) (A) (A) (A) (A) (A) (A) (A) (A) (A) (A) (A)
                 (A) (A) (A) (A) (A) (A) (A) (A) (A) (A) (A) (A)
                 (A) (A) (A) (A) (A) (A) (A) (A) (A) (A) (A) (A)
                 (A) (A) (A) (A) (A) (A) (A) (A) (A) (A) (A) (A)
                 (A) (A) (A) (A) (A) (A) (A) (A) (A) (A) (A) (A)
                 (A) (A) (A) (A) (A) (A) (A) (A) (A) (A) (A) (A)
                 (A) (A) (A) (A) (A) (A) (A) (A) (A) (A) (A) (A)
                 (A) (A) (A) (A) (A) (A) (A) (A) (A) (A) (A) (A)
                 (A) (A) (A) (A) (A) (A) (A) (A) (A) (A) (A) (A)
                 (A) (A) (A) (A) (A) (A) (A) (A) (A) (A) (A) (A)
                 (A) (A) (A) (A) (A) (A) (A) (A) (A) (A) (A) (A)
                 (A) (A) (A) (A) (A) (A) (A) (A) (A) (A) (A) (A)
                 (A) (A) (A) (A) (A) (A) (A) (A) (A) (A) (A) (A)
                 (A) (A) (A) (A) (A) (A) (A) (A) (A) (A) (A) (A)
                 (A) (A) (A) (A) (A) (A) (A) (A) (A) (A) (A) (A)
                 (A) (A) (A) (A) (A) (A) (A) (A) (A) (A) (A) (A)
                 (A) (A) (A) (A) (A) (A) (A) (A) (A) (A) (A) (A)
                 (A) (A) (A) (A) (A) (A) (A) (A) (A) (A) (A) (A)
                 (A) (A) (A) (A) (A) (A) (A) (A) (A) (A) (A) (A)
                 (A) (A) (A) (A) (A) (A) (A) (A) (A) (A) (A) (A)
                 (A) (A) (A) (A) (A) (A) (A) (A)
 The electronic state is 1-A.
 Alpha  occ. eigenvalues --  -10.77688 -10.73214 -10.73158 -10.72279 -10.72275
 Alpha  occ. eigenvalues --  -10.71178 -10.71149 -10.70969 -10.70889 -10.70880
 Alpha  occ. eigenvalues --  -10.69769 -10.69748 -10.69722 -10.69695  -1.16585
 Alpha  occ. eigenvalues --   -1.12884  -1.07180  -1.05587  -1.01752  -1.00092
 Alpha  occ. eigenvalues --   -0.95942  -0.91010  -0.86449  -0.85979  -0.83831
 Alpha  occ. eigenvalues --   -0.78451  -0.76041  -0.74500  -0.69568  -0.69236
 Alpha  occ. eigenvalues --   -0.68526  -0.68022  -0.67803  -0.65055  -0.64556
 Alpha  occ. eigenvalues --   -0.62758  -0.61587  -0.60102  -0.59977  -0.58968
 Alpha  occ. eigenvalues --   -0.56861  -0.55105  -0.54662  -0.52604  -0.46950
 Alpha  occ. eigenvalues --   -0.46002  -0.44664
 Alpha virt. eigenvalues --   -0.26139  -0.14491  -0.14053  -0.12545  -0.11185
 Alpha virt. eigenvalues --   -0.10102  -0.09261  -0.08079  -0.07932  -0.07488
 Alpha virt. eigenvalues --   -0.07230  -0.07095  -0.05637  -0.05582  -0.05299
 Alpha virt. eigenvalues --   -0.03887  -0.03775  -0.03279  -0.03125  -0.02160
 Alpha virt. eigenvalues --   -0.01396  -0.00992   0.00199   0.00499   0.00684
 Alpha virt. eigenvalues --    0.01071   0.01511   0.01954   0.02237   0.02280
 Alpha virt. eigenvalues --    0.02456   0.02706   0.02942   0.03132   0.03305
 Alpha virt. eigenvalues --    0.04224   0.04513   0.04715   0.05144   0.05398
 Alpha virt. eigenvalues --    0.05890   0.06319   0.06634   0.07022   0.07265
 Alpha virt. eigenvalues --    0.07915   0.08319   0.08326   0.08622   0.08922
 Alpha virt. eigenvalues --    0.09522   0.09574   0.10022   0.10841   0.11063
 Alpha virt. eigenvalues --    0.11170   0.12179   0.12206   0.12890   0.12984
 Alpha virt. eigenvalues --    0.13417   0.13439   0.14010   0.14565   0.15753
 Alpha virt. eigenvalues --    0.16184   0.16717   0.17203   0.17298   0.17733
 Alpha virt. eigenvalues --    0.18121   0.19221   0.19354   0.19693   0.19721
 Alpha virt. eigenvalues --    0.21564   0.21711   0.22665   0.23019   0.23567
 Alpha virt. eigenvalues --    0.23793   0.24602   0.24755   0.26819   0.27770
 Alpha virt. eigenvalues --    0.28819   0.29240   0.29777   0.31425   0.35770
 Alpha virt. eigenvalues --    0.36686   0.38001   0.39443   0.41057   0.41310
 Alpha virt. eigenvalues --    0.41962   0.42035   0.42947   0.43937   0.44151
 Alpha virt. eigenvalues --    0.44274   0.45339   0.45639   0.46244   0.47834
 Alpha virt. eigenvalues --    0.48438   0.48869   0.48990   0.50353   0.51153
 Alpha virt. eigenvalues --    0.51615   0.51792   0.52216   0.53400   0.53872
 Alpha virt. eigenvalues --    0.53950   0.54837   0.55770   0.55846   0.57192
 Alpha virt. eigenvalues --    0.58267   0.58794   0.61466   0.62120   0.62247
 Alpha virt. eigenvalues --    0.63073   0.63679   0.63887   0.65229   0.66385
 Alpha virt. eigenvalues --    0.70296   0.70691   0.70956   0.72313   0.72688
 Alpha virt. eigenvalues --    0.75494   0.75655   0.76172   0.76274   0.76702
 Alpha virt. eigenvalues --    0.77455   0.77760   0.78280   0.80268   0.80739
 Alpha virt. eigenvalues --    0.81148   0.81914   0.82189   0.83060   0.84603
 Alpha virt. eigenvalues --    0.86748   0.87013   0.87817   0.89594   0.90445
 Alpha virt. eigenvalues --    0.91210   0.91566   0.93779   0.94996   0.96063
 Alpha virt. eigenvalues --    0.96837   1.00213   1.01343   1.01990   1.02809
 Alpha virt. eigenvalues --    1.03486   1.04359   1.04429   1.06009   1.09332
 Alpha virt. eigenvalues --    1.19146   1.23249   1.24091   1.25556   1.28267
 Alpha virt. eigenvalues --    1.30263   1.31094   1.34634   1.35863   1.36426
 Alpha virt. eigenvalues --    1.39451   1.40048   1.40894   1.43596   1.43646
 Alpha virt. eigenvalues --    1.43862   1.45141   1.45562   1.46585   1.46662
 Alpha virt. eigenvalues --    1.48027   1.48740   1.51745   1.53856   1.55900
 Alpha virt. eigenvalues --    1.56282   1.56521   1.57038   1.58097   1.61837
 Alpha virt. eigenvalues --    1.62886   1.63054   1.63159   1.66291   1.67994
 Alpha virt. eigenvalues --    1.68647   1.68838   1.69692   1.74882   1.76003
 Alpha virt. eigenvalues --    1.77234   1.78051   1.79717   1.80768   1.81517
 Alpha virt. eigenvalues --    1.82943   1.83041   1.83488   1.84026   1.84360
 Alpha virt. eigenvalues --    1.84589   1.86247   1.86424   1.88489   1.91214
 Alpha virt. eigenvalues --    1.92130   1.94021   1.95192   1.98234   1.98931
 Alpha virt. eigenvalues --    2.00517   2.02142   2.04809   2.06578   2.12075
 Alpha virt. eigenvalues --    2.12168   2.13713   2.15353   2.20296   2.20987
 Alpha virt. eigenvalues --    2.23336   2.29137   2.30560   2.34146   2.35706
 Alpha virt. eigenvalues --    2.36161   2.37598   2.37995   2.40603   2.42352
 Alpha virt. eigenvalues --    2.47027   2.49590   2.50160   2.53203   2.53699
 Alpha virt. eigenvalues --    2.53925   2.56524   2.58146   2.58685   2.59962
 Alpha virt. eigenvalues --    2.60164   2.61403   2.62201   2.63234   2.64061
 Alpha virt. eigenvalues --    2.64625   2.64854   2.65342   2.65492   2.67848
 Alpha virt. eigenvalues --    2.68036   2.71241   2.71299   2.73683   2.74857
 Alpha virt. eigenvalues --    2.76606   2.79317   2.80142   2.83340   2.83893
 Alpha virt. eigenvalues --    2.85789   2.86645   2.92290   2.96087   3.00125
 Alpha virt. eigenvalues --    3.00720   3.03962   3.12193   3.12536   3.14488
 Alpha virt. eigenvalues --    3.20523   3.22986   3.27792   3.28720   3.31482
 Alpha virt. eigenvalues --    3.33349   3.34137   3.43598   3.46163   3.48502
 Alpha virt. eigenvalues --    3.49735   3.51354   3.56713   3.64256   3.67693
 Alpha virt. eigenvalues --    3.68044   3.91885   3.92729   3.94705   3.96148
 Alpha virt. eigenvalues --    4.02837   4.06994   4.07645   4.12424   4.34992
 Alpha virt. eigenvalues --    4.60485   4.70688   4.72613  23.44931  23.59049
 Alpha virt. eigenvalues --   23.82759  23.84854  23.88064  23.90400  23.90801
 Alpha virt. eigenvalues --   23.92627  23.98881  24.01183  24.03022  24.03264
 Alpha virt. eigenvalues --   24.12537  24.12671
          Condensed to atoms (all electrons):
               1          2          3          4          5          6
     1  C    8.432740   0.597959  -0.607195   1.517380   0.015513  -0.093553
     2  C    0.597959   6.939965   0.389159  -0.740318  -0.071723  -0.019145
     3  C   -0.607195   0.389159   6.665826   0.646710  -0.107286   0.018984
     4  C    1.517380  -0.740318   0.646710   9.906288  -0.076246  -0.104784
     5  C    0.015513  -0.071723  -0.107286  -0.076246   9.970693   0.640089
     6  C   -0.093553  -0.019145   0.018984  -0.104784   0.640089   6.658929
     7  C   -0.030082   0.013015  -0.019261  -0.072397  -0.741786   0.387577
     8  C    0.412541  -0.028913  -0.093288   0.009754   1.533456  -0.614535
     9  C   -1.558254  -0.489966   0.244680  -0.586185  -0.561346   0.245163
    10  C   -1.059910   0.092093  -0.359004  -2.212330  -2.233103  -0.346224
    11  C    0.221290  -0.973810   1.004457  -0.394566  -1.574423  -0.204018
    12  C   -1.488975   0.781653  -1.266246  -0.624339  -0.152898  -0.180547
    13  C    0.196841  -0.115896  -0.205278  -1.558627  -0.363667   0.991518
    14  C   -1.046771  -0.244015  -0.179734  -0.132030  -0.695815  -1.245347
    15  H    0.357776  -0.095503  -0.003485   0.019919   0.005838   0.001309
    16  H   -0.023780   0.381562  -0.012805   0.012798  -0.001702  -0.000373
    17  H   -0.015961  -0.023792   0.371352  -0.055529   0.000320   0.000397
    18  H    0.045154   0.006257  -0.089998   0.438223   0.011394  -0.004644
    19  H   -0.044231  -0.008186   0.049889  -0.056107  -0.058413   0.049550
    20  H    0.008053   0.001465  -0.004704   0.011310   0.439582  -0.090590
    21  H   -0.001300  -0.000376   0.000399   0.000309  -0.056191   0.371351
    22  H    0.000827   0.000379  -0.000376  -0.001690   0.013148  -0.013245
    23  H    0.006034  -0.002577   0.001334   0.005718   0.020172  -0.003730
    24  H    0.052715   0.011653  -0.001035  -0.010900  -0.011667  -0.000722
    25  H    0.018441   0.016614  -0.002522  -0.011129  -0.010757  -0.002905
               7          8          9         10         11         12
     1  C   -0.030082   0.412541  -1.558254  -1.059910   0.221290  -1.488975
     2  C    0.013015  -0.028913  -0.489966   0.092093  -0.973810   0.781653
     3  C   -0.019261  -0.093288   0.244680  -0.359004   1.004457  -1.266246
     4  C   -0.072397   0.009754  -0.586185  -2.212330  -0.394566  -0.624339
     5  C   -0.741786   1.533456  -0.561346  -2.233103  -1.574423  -0.152898
     6  C    0.387577  -0.614535   0.245163  -0.346224  -0.204018  -0.180547
     7  C    6.934773   0.593664  -0.493799   0.092355  -0.113140  -0.241050
     8  C    0.593664   8.428470  -1.536336  -1.061397   0.202051  -1.035360
     9  C   -0.493799  -1.536336   8.751597   0.646063   1.362856  -0.945490
    10  C    0.092355  -1.061397   0.646063   8.970193  -0.398345   1.829856
    11  C   -0.113140   0.202051   1.362856  -0.398345  13.663158  -3.421106
    12  C   -0.241050  -1.035360  -0.945490   1.829856  -3.421106  14.173219
    13  C   -0.975706   0.218285   1.353591  -0.387211   1.330043  -4.211614
    14  C    0.794822  -1.520514  -0.956586   1.860822  -4.208857   2.418966
    15  H   -0.002553   0.006059   0.076098  -0.007973  -0.015105  -0.013679
    16  H    0.000375   0.000771   0.003660  -0.011104   0.032723  -0.037444
    17  H   -0.000379  -0.001301  -0.002174   0.015775  -0.018063   0.070289
    18  H    0.001491   0.007983  -0.030286   0.024958  -0.012928  -0.045371
    19  H   -0.008238  -0.044191   0.073250   0.423153   0.059323  -0.057755
    20  H    0.006464   0.045619  -0.030224   0.024293  -0.007643  -0.009747
    21  H   -0.024050  -0.016189  -0.002110   0.015905  -0.005831   0.003560
    22  H    0.381182  -0.022818   0.003911  -0.011182   0.002833  -0.009354
    23  H   -0.095821   0.358310   0.076825  -0.008068  -0.002498   0.007150
    24  H    0.012324   0.054787   0.337257   0.004252   0.024934  -0.082851
    25  H    0.015790   0.015681   0.367981   0.004109  -0.003103  -0.031108
              13         14         15         16         17         18
     1  C    0.196841  -1.046771   0.357776  -0.023780  -0.015961   0.045154
     2  C   -0.115896  -0.244015  -0.095503   0.381562  -0.023792   0.006257
     3  C   -0.205278  -0.179734  -0.003485  -0.012805   0.371352  -0.089998
     4  C   -1.558627  -0.132030   0.019919   0.012798  -0.055529   0.438223
     5  C   -0.363667  -0.695815   0.005838  -0.001702   0.000320   0.011394
     6  C    0.991518  -1.245347   0.001309  -0.000373   0.000397  -0.004644
     7  C   -0.975706   0.794822  -0.002553   0.000375  -0.000379   0.001491
     8  C    0.218285  -1.520514   0.006059   0.000771  -0.001301   0.007983
     9  C    1.353591  -0.956586   0.076098   0.003660  -0.002174  -0.030286
    10  C   -0.387211   1.860822  -0.007973  -0.011104   0.015775   0.024958
    11  C    1.330043  -4.208857  -0.015105   0.032723  -0.018063  -0.012928
    12  C   -4.211614   2.418966  -0.013679  -0.037444   0.070289  -0.045371
    13  C   13.642968  -3.425868  -0.002485   0.002869  -0.005995  -0.007140
    14  C   -3.425868  14.219023   0.007080  -0.009359   0.003568  -0.009603
    15  H   -0.002485   0.007080   0.439305  -0.008931   0.001326   0.000210
    16  H    0.002869  -0.009359  -0.008931   0.419525  -0.006603   0.001893
    17  H   -0.005995   0.003568   0.001326  -0.006603   0.420883  -0.009982
    18  H   -0.007140  -0.009603   0.000210   0.001893  -0.009982   0.456806
    19  H    0.056505  -0.058606   0.000378  -0.000515   0.001254  -0.005156
    20  H   -0.012612  -0.045779  -0.000127   0.000016  -0.000144   0.001237
    21  H   -0.017487   0.070419   0.000018  -0.000007   0.000009  -0.000144
    22  H    0.032865  -0.038536  -0.000126   0.000007  -0.000007   0.000016
    23  H   -0.014800  -0.014652   0.000619  -0.000127   0.000019  -0.000128
    24  H    0.022682  -0.082050  -0.000177   0.000441  -0.000081   0.000249
    25  H   -0.001457  -0.031515  -0.001586   0.000857  -0.000204   0.000156
              19         20         21         22         23         24
     1  C   -0.044231   0.008053  -0.001300   0.000827   0.006034   0.052715
     2  C   -0.008186   0.001465  -0.000376   0.000379  -0.002577   0.011653
     3  C    0.049889  -0.004704   0.000399  -0.000376   0.001334  -0.001035
     4  C   -0.056107   0.011310   0.000309  -0.001690   0.005718  -0.010900
     5  C   -0.058413   0.439582  -0.056191   0.013148   0.020172  -0.011667
     6  C    0.049550  -0.090590   0.371351  -0.013245  -0.003730  -0.000722
     7  C   -0.008238   0.006464  -0.024050   0.381182  -0.095821   0.012324
     8  C   -0.044191   0.045619  -0.016189  -0.022818   0.358310   0.054787
     9  C    0.073250  -0.030224  -0.002110   0.003911   0.076825   0.337257
    10  C    0.423153   0.024293   0.015905  -0.011182  -0.008068   0.004252
    11  C    0.059323  -0.007643  -0.005831   0.002833  -0.002498   0.024934
    12  C   -0.057755  -0.009747   0.003560  -0.009354   0.007150  -0.082851
    13  C    0.056505  -0.012612  -0.017487   0.032865  -0.014800   0.022682
    14  C   -0.058606  -0.045779   0.070419  -0.038536  -0.014652  -0.082050
    15  H    0.000378  -0.000127   0.000018  -0.000126   0.000619  -0.000177
    16  H   -0.000515   0.000016  -0.000007   0.000007  -0.000127   0.000441
    17  H    0.001254  -0.000144   0.000009  -0.000007   0.000019  -0.000081
    18  H   -0.005156   0.001237  -0.000144   0.000016  -0.000128   0.000249
    19  H    0.441145  -0.005267   0.001265  -0.000522   0.000387   0.000473
    20  H   -0.005267   0.456784  -0.009971   0.001922   0.000214   0.000227
    21  H    0.001265  -0.009971   0.420774  -0.006581   0.001308  -0.000071
    22  H   -0.000522   0.001922  -0.006581   0.419453  -0.008958   0.000407
    23  H    0.000387   0.000214   0.001308  -0.008958   0.439620  -0.000155
    24  H    0.000473   0.000227  -0.000071   0.000407  -0.000155   0.495214
    25  H    0.000470   0.000172  -0.000210   0.000882  -0.001651  -0.079259
              25
     1  C    0.018441
     2  C    0.016614
     3  C   -0.002522
     4  C   -0.011129
     5  C   -0.010757
     6  C   -0.002905
     7  C    0.015790
     8  C    0.015681
     9  C    0.367981
    10  C    0.004109
    11  C   -0.003103
    12  C   -0.031108
    13  C   -0.001457
    14  C   -0.031515
    15  H   -0.001586
    16  H    0.000857
    17  H   -0.000204
    18  H    0.000156
    19  H    0.000470
    20  H    0.000172
    21  H   -0.000210
    22  H    0.000882
    23  H   -0.001651
    24  H   -0.079259
    25  H    0.494850
 Mulliken charges:
               1
     1  C    0.086750
     2  C   -0.417553
     3  C   -0.440574
     4  C    0.068768
     5  C    0.066816
     6  C   -0.440506
     7  C   -0.415572
     8  C    0.087409
     9  C   -0.350175
    10  C    0.092024
    11  C   -0.550233
    12  C    0.570240
    13  C   -0.542322
    14  C    0.570933
    15  H    0.235793
    16  H    0.255255
    17  H    0.255024
    18  H    0.219352
    19  H    0.190145
    20  H    0.219449
    21  H    0.255201
    22  H    0.255562
    23  H    0.235456
    24  H    0.251351
    25  H    0.241407
 Sum of Mulliken charges =   1.00000
 Mulliken charges with hydrogens summed into heavy atoms:
               1
     1  C    0.322543
     2  C   -0.162299
     3  C   -0.185550
     4  C    0.288120
     5  C    0.286265
     6  C   -0.185305
     7  C   -0.160010
     8  C    0.322865
     9  C    0.142583
    10  C    0.282169
    11  C   -0.550233
    12  C    0.570240
    13  C   -0.542322
    14  C    0.570933
 Electronic spatial extent (au):  <R**2>=           2840.6077
 Charge=              1.0000 electrons
 Dipole moment (field-independent basis, Debye):
    X=             -0.0050    Y=              0.1771    Z=             -0.0016  Tot=              0.1771
 Quadrupole moment (field-independent basis, Debye-Ang):
   XX=            -31.4649   YY=            -56.2613   ZZ=            -84.0133
   XY=             -0.0027   XZ=              0.0048   YZ=              0.1920
 Traceless Quadrupole moment (field-independent basis, Debye-Ang):
   XX=             25.7816   YY=              0.9852   ZZ=            -26.7668
   XY=             -0.0027   XZ=              0.0048   YZ=              0.1920
 Octapole moment (field-independent basis, Debye-Ang**2):
  XXX=             -0.2159  YYY=              5.1776  ZZZ=             -0.0568  XYY=              0.0007
  XXY=             -6.4993  XXZ=              0.3034  XZZ=              0.0284  YZZ=             -3.1046
  YYZ=              0.2062  XYZ=              0.0241
 Hexadecapole moment (field-independent basis, Debye-Ang**3):
 XXXX=          -2116.1837 YYYY=           -609.4804 ZZZZ=            -99.0968 XXXY=             -0.1241
 XXXZ=              0.1332 YYYX=              0.0537 YYYZ=              2.1360 ZZZX=              0.0052
 ZZZY=              0.0703 XXYY=           -505.1370 XXZZ=           -586.4245 YYZZ=           -145.5465
 XXYZ=              2.0145 YYXZ=              0.0007 ZZXY=             -0.0024
 N-N= 7.829823679678D+02 E-N=-2.802404590613D+03  KE= 5.376239005839D+02
 Unable to Open any file for archive entry.
 1\1\GINC-GADI-CPU-CLX-0113\SP\RM062X TD-FC\6-311++G(d,p)\C14H11(1+)\TS
 1578\28-Jul-2022\0\\#n M062X/6-311++G(d,p) TD(NStates=1) EmpiricalDisp
 ersion=GD3 SP\\SP_150\\1,1\C,0,-0.0255,2.493255,1.360431\C,0,-0.03195,
 3.687058,0.671989\C,0,-0.0086,3.658061,-0.71383\C,0,0.0313,2.444756,-1
 .407538\C,0,0.0311,-2.445156,-1.407538\C,0,-0.0098,-3.660061,-0.71383\
 C,0,-0.03385,-3.687758,0.671989\C,0,-0.0293,-2.494455,1.360431\C,0,-0.
 01755,0.0044,1.453369\C,0,0.0488,-0.0002,-1.429189\C,0,0.00745,1.27740
 5,0.677065\C,0,0.0196,1.235371,-0.730804\C,0,0.00715,-1.277305,0.67706
 5\C,0,0.0204,-1.234771,-0.730804\H,0,-0.0062,2.488321,2.443647\H,0,-0.
 03215,4.624503,1.211689\H,0,0.0061,4.608912,-1.272349\H,0,0.0143,2.449
 7,-2.490059\H,0,0.045,-0.0001,-2.510266\H,0,0.0149,-2.45,-2.490059\H,0
 ,0.0055,-4.611412,-1.272349\H,0,-0.03445,-4.626003,1.211689\H,0,-0.010
 6,-2.489621,2.443647\H,0,-0.923585,0.001,2.144687\H,0,0.795585,0.001,2
 .146887\\Version=ES64L-G16RevC.01\State=1-A\HF=-539.7567053\RMSD=5.492
 e-09\PG=C01 [X(C14H11)]\\@
 The archive entry for this job was punched.


 My opinions may have changed, but not the fact that I am right.
                       -- Ashleigh Brilliant
 Job cpu time:       0 days  1 hours 19 minutes 49.5 seconds.
 Elapsed time:       0 days  0 hours  1 minutes 40.3 seconds.
 File lengths (MBytes):  RWF=    460 Int=      0 D2E=      0 Chk=     15 Scr=      1
 Normal termination of Gaussian 16 at Thu Jul 28 17:11:02 2022.
