 Entering Gaussian System, Link 0=g16
 Initial command:
 /apps/gaussian/g16c01/g16/l1.exe "/jobfs/53002009.gadi-pbs/Gau-799385.inp" -scrdir="/jobfs/53002009.gadi-pbs/"
 Entering Link 1 = /apps/gaussian/g16c01/g16/l1.exe PID=    799386.
  
 Copyright (c) 1988-2019, Gaussian, Inc.  All Rights Reserved.
  
 This is part of the Gaussian(R) 16 program.  It is based on
 the Gaussian(R) 09 system (copyright 2009, Gaussian, Inc.),
 the Gaussian(R) 03 system (copyright 2003, Gaussian, Inc.),
 the Gaussian(R) 98 system (copyright 1998, Gaussian, Inc.),
 the Gaussian(R) 94 system (copyright 1995, Gaussian, Inc.),
 the Gaussian 92(TM) system (copyright 1992, Gaussian, Inc.),
 the Gaussian 90(TM) system (copyright 1990, Gaussian, Inc.),
 the Gaussian 88(TM) system (copyright 1988, Gaussian, Inc.),
 the Gaussian 86(TM) system (copyright 1986, Carnegie Mellon
 University), and the Gaussian 82(TM) system (copyright 1983,
 Carnegie Mellon University). Gaussian is a federally registered
 trademark of Gaussian, Inc.
  
 This software contains proprietary and confidential information,
 including trade secrets, belonging to Gaussian, Inc.
  
 This software is provided under written license and may be
 used, copied, transmitted, or stored only in accord with that
 written license.
  
 The following legend is applicable only to US Government
 contracts under FAR:
  
                    RESTRICTED RIGHTS LEGEND
  
 Use, reproduction and disclosure by the US Government is
 subject to restrictions as set forth in subparagraphs (a)
 and (c) of the Commercial Computer Software - Restricted
 Rights clause in FAR 52.227-19.
  
 Gaussian, Inc.
 340 Quinnipiac St., Bldg. 40, Wallingford CT 06492
  
  
 ---------------------------------------------------------------
 Warning -- This program may not be used in any manner that
 competes with the business of Gaussian, Inc. or will provide
 assistance to any competitor of Gaussian, Inc.  The licensee
 of this program is prohibited from giving any competitor of
 Gaussian, Inc. access to this program.  By using this program,
 the user acknowledges that Gaussian, Inc. is engaged in the
 business of creating and licensing software in the field of
 computational chemistry and represents and warrants to the
 licensee that it is not a competitor of Gaussian, Inc. and that
 it will not use this program in any manner prohibited above.
 ---------------------------------------------------------------
  

 Cite this work as:
 Gaussian 16, Revision C.01,
 M. J. Frisch, G. W. Trucks, H. B. Schlegel, G. E. Scuseria, 
 M. A. Robb, J. R. Cheeseman, G. Scalmani, V. Barone, 
 G. A. Petersson, H. Nakatsuji, X. Li, M. Caricato, A. V. Marenich, 
 J. Bloino, B. G. Janesko, R. Gomperts, B. Mennucci, H. P. Hratchian, 
 J. V. Ortiz, A. F. Izmaylov, J. L. Sonnenberg, D. Williams-Young, 
 F. Ding, F. Lipparini, F. Egidi, J. Goings, B. Peng, A. Petrone, 
 T. Henderson, D. Ranasinghe, V. G. Zakrzewski, J. Gao, N. Rega, 
 G. Zheng, W. Liang, M. Hada, M. Ehara, K. Toyota, R. Fukuda, 
 J. Hasegawa, M. Ishida, T. Nakajima, Y. Honda, O. Kitao, H. Nakai, 
 T. Vreven, K. Throssell, J. A. Montgomery, Jr., J. E. Peralta, 
 F. Ogliaro, M. J. Bearpark, J. J. Heyd, E. N. Brothers, K. N. Kudin, 
 V. N. Staroverov, T. A. Keith, R. Kobayashi, J. Normand, 
 K. Raghavachari, A. P. Rendell, J. C. Burant, S. S. Iyengar, 
 J. Tomasi, M. Cossi, J. M. Millam, M. Klene, C. Adamo, R. Cammi, 
 J. W. Ochterski, R. L. Martin, K. Morokuma, O. Farkas, 
 J. B. Foresman, and D. J. Fox, Gaussian, Inc., Wallingford CT, 2019.
 
 ******************************************
 Gaussian 16:  ES64L-G16RevC.01  3-Jul-2019
                28-Jul-2022 
 ******************************************
 %NProcShared=48
 Will use up to   48 processors via shared memory.
 %mem = 190GB
 ---------------------------------------------------------------
 #n M062X/6-311++G(d,p) TD(NStates=1) EmpiricalDispersion=GD3 SP
 ---------------------------------------------------------------
 1/38=1,172=1/1;
 2/12=2,17=6,18=5,40=1/2;
 3/5=4,6=6,7=1111,11=9,25=1,30=1,74=-55,124=31/1,2,3,8;
 4//1;
 5/5=2,38=5/2;
 8/6=1,10=2,108=1/1;
 9/41=1,42=1,70=2/14;
 6/7=2,8=2,9=2,10=2/1;
 99/5=1,9=1/99;
 ------
 SP_125
 ------
 Symbolic Z-matrix:
 Charge =  1 Multiplicity = 1
 C                    -0.03035   2.49386   1.36043 
 C                    -0.03678   3.68556   0.67199 
 C                    -0.0102    3.65571  -0.71383 
 C                     0.03512   2.44263  -1.40754 
 C                     0.03507  -2.44273  -1.40754 
 C                    -0.0105   -3.65621  -0.71383 
 C                    -0.03725  -3.68573   0.67199 
 C                    -0.0313   -2.49416   1.36043 
 C                    -0.0197    0.0011    1.45337 
 C                     0.0549   -0.00005  -1.42919 
 C                     0.00825   1.27928   0.67707 
 C                     0.0224    1.23485  -0.7308 
 C                     0.00818  -1.27926   0.67707 
 C                     0.0226   -1.2347   -0.7308 
 H                    -0.0089    2.48892   2.44365 
 H                    -0.03718   4.62363   1.21169 
 H                     0.0066    4.60996  -1.27235 
 H                     0.01635   2.4476   -2.49006 
 H                     0.05063  -0.00003  -2.51027 
 H                     0.0165   -2.44768  -2.49006 
 H                     0.00645  -4.61059  -1.27235 
 H                    -0.03775  -4.624     1.21169 
 H                    -0.01     -2.48925   2.44365 
 H                    -0.93159   0.00025   2.14551 
 H                     0.78759   0.00025   2.14606 
 
                          Input orientation:                          
 ---------------------------------------------------------------------
 Center     Atomic      Atomic             Coordinates (Angstroms)
 Number     Number       Type             X           Y           Z
 ---------------------------------------------------------------------
      1          6           0       -0.030350    2.493855    1.360431
      2          6           0       -0.036775    3.685558    0.671989
      3          6           0       -0.010200    3.655711   -0.713830
      4          6           0        0.035125    2.442631   -1.407538
      5          6           0        0.035075   -2.442731   -1.407538
      6          6           0       -0.010500   -3.656211   -0.713830
      7          6           0       -0.037250   -3.685733    0.671989
      8          6           0       -0.031300   -2.494155    1.360431
      9          6           0       -0.019700    0.001100    1.453369
     10          6           0        0.054900   -0.000050   -1.429189
     11          6           0        0.008250    1.279280    0.677065
     12          6           0        0.022400    1.234846   -0.730804
     13          6           0        0.008175   -1.279255    0.677065
     14          6           0        0.022600   -1.234696   -0.730804
     15          1           0       -0.008900    2.488921    2.443647
     16          1           0       -0.037175    4.623628    1.211689
     17          1           0        0.006600    4.609962   -1.272349
     18          1           0        0.016350    2.447600   -2.490059
     19          1           0        0.050625   -0.000025   -2.510266
     20          1           0        0.016500   -2.447675   -2.490059
     21          1           0        0.006450   -4.610587   -1.272349
     22          1           0       -0.037750   -4.624003    1.211689
     23          1           0       -0.010000   -2.489246    2.443647
     24          1           0       -0.931585    0.000250    2.145512
     25          1           0        0.787585    0.000250    2.146062
 ---------------------------------------------------------------------
                    Distance matrix (angstroms):
                    1          2          3          4          5
     1  C    0.000000
     2  C    1.376281   0.000000
     3  C    2.377577   1.386395   0.000000
     4  C    2.769217   2.423731   1.398159   0.000000
     5  C    5.660019   6.471902   6.137937   4.885362   0.000000
     6  C    6.490475   7.471463   7.311922   6.138337   1.398514
     7  C    6.217822   7.371291   7.471146   6.471979   2.423782
     8  C    4.988010   6.217945   6.490289   5.660205   2.769242
     9  C    2.494510   3.766441   4.248885   3.761498   3.762991
    10  C    3.742834   4.243473   3.725663   2.442857   2.442857
    11  C    1.394156   2.406705   2.753607   2.387400   4.266105
    12  C    2.441547   2.824415   2.421144   1.384513   3.739345
    13  C    3.834688   4.965019   5.127262   4.265997   2.387461
    14  C    4.275296   5.116664   4.890546   3.739099   1.384729
    15  H    1.083440   2.138104   3.366164   3.851715   6.257376
    16  H    2.134972   1.082244   2.155276   3.409153   7.536511
    17  H    3.377988   2.153336   1.105812   2.171731   7.054046
    18  H    3.851051   3.396161   2.148308   1.082695   5.008746
    19  H    4.605246   4.870103   4.073731   2.680078   2.680124
    20  H    6.264758   6.900575   6.356652   5.008722   1.082692
    21  H    7.576673   8.521053   8.285162   7.054572   2.172256
    22  H    7.119416   8.327069   8.500709   7.536775   3.409340
    23  H    5.099516   6.423994   6.908702   6.257561   3.851730
    24  H    2.765256   4.068593   4.731509   4.418588   4.418908
    25  H    2.739398   4.053882   4.709335   4.377156   4.377499
                    6          7          8          9         10
     6  C    0.000000
     7  C    1.386392   0.000000
     8  C    2.377681   1.376171   0.000000
     9  C    4.251207   3.768766   2.497012   0.000000
    10  C    3.726061   4.243548   3.742989   2.883523   0.000000
    11  C    5.127769   4.965224   3.835018   1.495718   2.464785
    12  C    4.891197   5.116980   4.275698   2.508887   1.419072
    13  C    2.754062   2.406912   1.394464   1.497576   2.464722
    14  C    2.421801   2.824711   2.441804   2.509899   1.418850
    15  H    6.908857   6.423856   5.099500   2.677689   4.604118
    16  H    8.500828   8.326870   7.119339   4.628875   5.325515
    17  H    8.285038   8.520618   7.576374   5.354609   4.612932
    18  H    6.357061   6.900666   6.264941   4.640828   2.667943
    19  H    4.074140   4.870207   4.605398   3.964259   1.081085
    20  H    2.148552   3.396207   3.851067   4.642029   2.667918
    21  H    1.105922   2.153535   3.378201   5.357040   4.613458
    22  H    2.155223   1.082417   2.135045   4.631448   5.325764
    23  H    3.366225   2.138012   1.083437   2.680031   4.604255
    24  H    4.732224   4.069100   2.765668   1.144813   3.708320
    25  H    4.710162   4.054592   2.740410   1.063736   3.649554
                   11         12         13         14         15
    11  C    0.000000
    12  C    1.408641   0.000000
    13  C    2.558535   2.881493   0.000000
    14  C    2.881384   2.469542   1.408648   0.000000
    15  H    2.141107   3.413330   4.161761   4.893205   0.000000
    16  H    3.387115   3.906491   5.927217   6.172262   2.464852
    17  H    3.859231   3.418322   6.203474   5.869715   4.278748
    18  H    3.375753   2.136770   4.890827   4.080971   4.933944
    19  H    3.434748   2.166146   3.434721   2.166029   5.544335
    20  H    4.890903   4.081173   3.375789   2.136898   6.979404
    21  H    6.204092   5.870487   3.859792   3.419089   8.013231
    22  H    5.927621   6.172763   3.387517   3.906958   7.218881
    23  H    4.162083   4.893572   2.141313   3.413517   4.978167
    24  H    2.162301   3.272233   2.162549   3.272423   2.670902
    25  H    2.097912   3.222746   2.098229   3.222833   2.629910
                   16         17         18         19         20
    16  H    0.000000
    17  H    2.484461   0.000000
    18  H    4.294287   2.481677   0.000000
    19  H    5.936230   4.773506   2.447948   0.000000
    20  H    7.981801   7.161924   4.895275   2.447971   0.000000
    21  H    9.562587   9.220549   7.162466   4.774062   2.482158
    22  H    9.247631   9.562349   7.982070   5.936492   4.294448
    23  H    7.218825   8.012968   6.979584   5.544470   4.933952
    24  H    4.800794   5.814758   5.326971   4.758257   5.327262
    25  H    4.788414   5.791797   5.298862   4.714287   5.299106
                   21         22         23         24         25
    21  H    0.000000
    22  H    2.484467   0.000000
    23  H    4.278900   2.464889   0.000000
    24  H    5.815626   4.801529   2.671291   0.000000
    25  H    5.792713   4.789358   2.631024   1.719170   0.000000
 Stoichiometry    C14H11(1+)
 Framework group  C1[X(C14H11)]
 Deg. of freedom    69
 Full point group                 C1      NOp   1
 Largest Abelian subgroup         C1      NOp   1
 Largest concise Abelian subgroup C1      NOp   1
                         Standard orientation:                         
 ---------------------------------------------------------------------
 Center     Atomic      Atomic             Coordinates (Angstroms)
 Number     Number       Type             X           Y           Z
 ---------------------------------------------------------------------
      1          6           0        2.493882   -1.360699    0.002732
      2          6           0        3.685570   -0.672496    0.022858
      3          6           0        3.655696    0.713577    0.023723
      4          6           0        2.442604    1.408022   -0.007931
      5          6           0       -2.442758    1.407925   -0.008175
      6          6           0       -3.656226    0.713426    0.023584
      7          6           0       -3.685721   -0.672651    0.022890
      8          6           0       -2.494128   -1.360817    0.003382
      9          6           0        0.001130   -1.453458   -0.009906
     10          6           0       -0.000076    1.430012   -0.027421
     11          6           0        1.279295   -0.676727   -0.022404
     12          6           0        1.234832    0.731145   -0.008680
     13          6           0       -1.279240   -0.676779   -0.022482
     14          6           0       -1.234710    0.731100   -0.009028
     15          1           0        2.488972   -2.443279   -0.040160
     16          1           0        4.623651   -1.212080    0.012629
     17          1           0        4.609936    1.272338    0.018042
     18          1           0        2.447549    2.489959    0.032273
     19          1           0       -0.000074    2.510793   -0.001743
     20          1           0       -2.447726    2.489866    0.031828
     21          1           0       -4.610613    1.272152    0.017638
     22          1           0       -4.623980   -1.212274    0.012648
     23          1           0       -2.489195   -2.443399   -0.039359
     24          1           0        0.000240   -2.163519    0.888097
     25          1           0        0.000342   -2.130032   -0.830747
 ---------------------------------------------------------------------
 Rotational constants (GHZ):           2.1347914           0.4483494           0.3713736
 Standard basis: 6-311++G(d,p) (5D, 7F)
 There are   399 symmetry adapted cartesian basis functions of A   symmetry.
 There are   385 symmetry adapted basis functions of A   symmetry.
   385 basis functions,   603 primitive gaussians,   399 cartesian basis functions
    47 alpha electrons       47 beta electrons
       nuclear repulsion energy       783.1985551574 Hartrees.
 NAtoms=   25 NActive=   25 NUniq=   25 SFac= 1.00D+00 NAtFMM=   60 NAOKFM=F Big=F
 Integral buffers will be    131072 words long.
 Regular integral format.
 Two-electron integral symmetry is turned on.
 Nuclear repulsion after empirical dispersion term =      783.1975762433 Hartrees.
 One-electron integrals computed using PRISM.
 NBasis=   385 RedAO= T EigKep=  1.42D-06  NBF=   385
 NBsUse=   379 1.00D-06 EigRej=  8.21D-07 NBFU=   379
 ExpMin= 3.60D-02 ExpMax= 4.56D+03 ExpMxC= 6.82D+02 IAcc=3 IRadAn=         5 AccDes= 0.00D+00
 Harris functional with IExCor= 1009 and IRadAn=       5 diagonalized for initial guess.
 HarFok:  IExCor= 1009 AccDes= 0.00D+00 IRadAn=         5 IDoV= 1 UseB2=F ITyADJ=14
 ICtDFT=  3500011 ScaDFX=  1.000000  1.000000  1.000000  1.000000
 FoFCou: FMM=F IPFlag=           0 FMFlag=      100000 FMFlg1=           0
         NFxFlg=           0 DoJE=T BraDBF=F KetDBF=T FulRan=T
         wScrn=  0.000000 ICntrl=       500 IOpCl=  0 I1Cent=   200000004 NGrid=           0
         NMat0=    1 NMatS0=      1 NMatT0=    0 NMatD0=    1 NMtDS0=    0 NMtDT0=    0
 Petite list used in FoFCou.
 Requested convergence on RMS density matrix=1.00D-08 within 128 cycles.
 Requested convergence on MAX density matrix=1.00D-06.
 Requested convergence on             energy=1.00D-06.
 No special actions if energy rises.
 SCF Done:  E(RM062X) =  -539.755617607     A.U. after   15 cycles
            NFock= 15  Conv=0.59D-08     -V/T= 2.0039
 DoSCS=F DFT=T ScalE2(SS,OS)=  1.000000  1.000000
 ExpMin= 3.60D-02 ExpMax= 4.56D+03 ExpMxC= 6.82D+02 IAcc=3 IRadAn=         5 AccDes= 0.00D+00
 HarFok:  IExCor=  205 AccDes= 0.00D+00 IRadAn=         5 IDoV=-2 UseB2=F ITyADJ=14
 ICtDFT= 12500011 ScaDFX=  1.000000  1.000000  1.000000  1.000000
 Range of M.O.s used for correlation:    15   379
 NBasis=   385 NAE=    47 NBE=    47 NFC=    14 NFV=     0
 NROrb=    365 NOA=    33 NOB=    33 NVA=   332 NVB=   332

 **** Warning!!: The largest alpha MO coefficient is  0.14321919D+03

 Orbital symmetries:
       Occupied  (A) (A) (A) (A) (A) (A) (A) (A) (A) (A) (A) (A)
                 (A) (A) (A) (A) (A) (A) (A) (A) (A) (A) (A) (A)
                 (A) (A) (A) (A) (A) (A) (A) (A) (A) (A) (A) (A)
                 (A) (A) (A) (A) (A) (A) (A) (A) (A) (A) (A)
       Virtual   (A) (A) (A) (A) (A) (A) (A) (A) (A) (A) (A) (A)
                 (A) (A) (A) (A) (A) (A) (A) (A) (A) (A) (A) (A)
                 (A) (A) (A) (A) (A) (A) (A) (A) (A) (A) (A) (A)
                 (A) (A) (A) (A) (A) (A) (A) (A) (A) (A) (A) (A)
                 (A) (A) (A) (A) (A) (A) (A) (A) (A) (A) (A) (A)
                 (A) (A) (A) (A) (A) (A) (A) (A) (A) (A) (A) (A)
                 (A) (A) (A) (A) (A) (A) (A) (A) (A) (A) (A) (A)
                 (A) (A) (A) (A) (A) (A) (A) (A) (A) (A) (A) (A)
                 (A) (A) (A) (A) (A) (A) (A) (A) (A) (A) (A) (A)
                 (A) (A) (A) (A) (A) (A) (A) (A) (A) (A) (A) (A)
                 (A) (A) (A) (A) (A) (A) (A) (A) (A) (A) (A) (A)
                 (A) (A) (A) (A) (A) (A) (A) (A) (A) (A) (A) (A)
                 (A) (A) (A) (A) (A) (A) (A) (A) (A) (A) (A) (A)
                 (A) (A) (A) (A) (A) (A) (A) (A) (A) (A) (A) (A)
                 (A) (A) (A) (A) (A) (A) (A) (A) (A) (A) (A) (A)
                 (A) (A) (A) (A) (A) (A) (A) (A) (A) (A) (A) (A)
                 (A) (A) (A) (A) (A) (A) (A) (A) (A) (A) (A) (A)
                 (A) (A) (A) (A) (A) (A) (A) (A) (A) (A) (A) (A)
                 (A) (A) (A) (A) (A) (A) (A) (A) (A) (A) (A) (A)
                 (A) (A) (A) (A) (A) (A) (A) (A) (A) (A) (A) (A)
                 (A) (A) (A) (A) (A) (A) (A) (A) (A) (A) (A) (A)
                 (A) (A) (A) (A) (A) (A) (A) (A) (A) (A) (A) (A)
                 (A) (A) (A) (A) (A) (A) (A) (A) (A) (A) (A) (A)
                 (A) (A) (A) (A) (A) (A) (A) (A) (A) (A) (A) (A)
                 (A) (A) (A) (A) (A) (A) (A) (A) (A) (A) (A) (A)
                 (A) (A) (A) (A) (A) (A) (A) (A) (A) (A) (A) (A)
                 (A) (A) (A) (A) (A) (A) (A) (A) (A) (A) (A) (A)
                 (A) (A) (A) (A) (A) (A) (A) (A)
     4 initial guesses have been made.
 Convergence on wavefunction:    0.001000000000000
 Iteration     1 Dimension     4 NMult     0 NNew      4
 CISAX will form     4 AO SS matrices at one time.
 Iteration     2 Dimension     6 NMult     4 NNew      2
 Iteration     3 Dimension     8 NMult     6 NNew      2
 Iteration     4 Dimension    10 NMult     8 NNew      2
 Iteration     5 Dimension    12 NMult    10 NNew      2
 Iteration     6 Dimension    14 NMult    12 NNew      2
 ***********************************************************************
 Excited states from <AA,BB:AA,BB> singles matrix:
 ***********************************************************************
 
 Ground to excited state transition densities written to RWF  633
 Ground to excited state transition electric dipole moments (Au):
       state          X           Y           Z        Dip. S.      Osc.
         1         0.0013     -0.6583      0.0094      0.4334      0.0302
 Ground to excited state transition velocity dipole moments (Au):
       state          X           Y           Z        Dip. S.      Osc.
         1        -0.0001      0.0761     -0.0012      0.0058      0.0369
 Ground to excited state transition magnetic dipole moments (Au):
       state          X           Y           Z
         1        -0.0128     -0.0001     -0.0002
 Ground to excited state transition velocity quadrupole moments (Au):
       state          XX          YY          ZZ          XY          XZ          YZ
         1         0.2684      0.0398     -0.0101     -0.0003      0.0000      0.0014
 <0|del|b> * <b|rxdel|0> + <0|del|b> * <b|delr+rdel|0>
 Rotatory Strengths (R) in cgs (10**-40 erg-esu-cm/Gauss)
       state          XX          YY          ZZ    R(velocity)    E-M Angle
         1        -0.0447      0.0049     -0.0198     -0.0199       90.00
 1/2[<0|r|b>*<b|rxdel|0> + (<0|rxdel|b>*<b|r|0>)*]
 Rotatory Strengths (R) in cgs (10**-40 erg-esu-cm/Gauss)
       state          XX          YY          ZZ     R(length)
         1         0.0117     -0.0658      0.0010     -0.0177
  1/2[<0|del|b>*<b|r|0> + (<0|r|b>*<b|del|0>)*] (Au)
       state          X           Y           Z        Dip. S.   Osc.(frdel)
         1        -0.0000     -0.0501     -0.0000      0.0501      0.0334

 Excitation energies and oscillator strengths:
 
 Excited State   1:      Singlet-A      2.8487 eV  435.22 nm  f=0.0302  <S**2>=0.000
      47 -> 48         0.70421
 This state for optimization and/or second-order correction.
 Total Energy, E(TD-HF/TD-DFT) =  -539.650928108    
 Copying the excited state density for this state as the 1-particle RhoCI density.
 SavETr:  write IOETrn=   770 NScale= 10 NData=  16 NLR=1 NState=    1 LETran=      28.

 **********************************************************************

            Population analysis using the SCF Density.

 **********************************************************************

 Orbital symmetries:
       Occupied  (A) (A) (A) (A) (A) (A) (A) (A) (A) (A) (A) (A)
                 (A) (A) (A) (A) (A) (A) (A) (A) (A) (A) (A) (A)
                 (A) (A) (A) (A) (A) (A) (A) (A) (A) (A) (A) (A)
                 (A) (A) (A) (A) (A) (A) (A) (A) (A) (A) (A)
       Virtual   (A) (A) (A) (A) (A) (A) (A) (A) (A) (A) (A) (A)
                 (A) (A) (A) (A) (A) (A) (A) (A) (A) (A) (A) (A)
                 (A) (A) (A) (A) (A) (A) (A) (A) (A) (A) (A) (A)
                 (A) (A) (A) (A) (A) (A) (A) (A) (A) (A) (A) (A)
                 (A) (A) (A) (A) (A) (A) (A) (A) (A) (A) (A) (A)
                 (A) (A) (A) (A) (A) (A) (A) (A) (A) (A) (A) (A)
                 (A) (A) (A) (A) (A) (A) (A) (A) (A) (A) (A) (A)
                 (A) (A) (A) (A) (A) (A) (A) (A) (A) (A) (A) (A)
                 (A) (A) (A) (A) (A) (A) (A) (A) (A) (A) (A) (A)
                 (A) (A) (A) (A) (A) (A) (A) (A) (A) (A) (A) (A)
                 (A) (A) (A) (A) (A) (A) (A) (A) (A) (A) (A) (A)
                 (A) (A) (A) (A) (A) (A) (A) (A) (A) (A) (A) (A)
                 (A) (A) (A) (A) (A) (A) (A) (A) (A) (A) (A) (A)
                 (A) (A) (A) (A) (A) (A) (A) (A) (A) (A) (A) (A)
                 (A) (A) (A) (A) (A) (A) (A) (A) (A) (A) (A) (A)
                 (A) (A) (A) (A) (A) (A) (A) (A) (A) (A) (A) (A)
                 (A) (A) (A) (A) (A) (A) (A) (A) (A) (A) (A) (A)
                 (A) (A) (A) (A) (A) (A) (A) (A) (A) (A) (A) (A)
                 (A) (A) (A) (A) (A) (A) (A) (A) (A) (A) (A) (A)
                 (A) (A) (A) (A) (A) (A) (A) (A) (A) (A) (A) (A)
                 (A) (A) (A) (A) (A) (A) (A) (A) (A) (A) (A) (A)
                 (A) (A) (A) (A) (A) (A) (A) (A) (A) (A) (A) (A)
                 (A) (A) (A) (A) (A) (A) (A) (A) (A) (A) (A) (A)
                 (A) (A) (A) (A) (A) (A) (A) (A) (A) (A) (A) (A)
                 (A) (A) (A) (A) (A) (A) (A) (A) (A) (A) (A) (A)
                 (A) (A) (A) (A) (A) (A) (A) (A) (A) (A) (A) (A)
                 (A) (A) (A) (A) (A) (A) (A) (A) (A) (A) (A) (A)
                 (A) (A) (A) (A) (A) (A) (A) (A)
 The electronic state is 1-A.
 Alpha  occ. eigenvalues --  -10.77691 -10.73188 -10.73174 -10.72259 -10.72258
 Alpha  occ. eigenvalues --  -10.71142 -10.71135 -10.70966 -10.70871 -10.70868
 Alpha  occ. eigenvalues --  -10.69736 -10.69730 -10.69723 -10.69717  -1.16604
 Alpha  occ. eigenvalues --   -1.12936  -1.07211  -1.05567  -1.01810  -1.00077
 Alpha  occ. eigenvalues --   -0.95963  -0.91004  -0.86454  -0.85990  -0.83832
 Alpha  occ. eigenvalues --   -0.78460  -0.76040  -0.74510  -0.69573  -0.69244
 Alpha  occ. eigenvalues --   -0.68536  -0.67996  -0.67755  -0.65094  -0.64590
 Alpha  occ. eigenvalues --   -0.62709  -0.61555  -0.60106  -0.60014  -0.58950
 Alpha  occ. eigenvalues --   -0.56858  -0.55088  -0.54639  -0.52625  -0.46993
 Alpha  occ. eigenvalues --   -0.45992  -0.44682
 Alpha virt. eigenvalues --   -0.26148  -0.14475  -0.14048  -0.12520  -0.11186
 Alpha virt. eigenvalues --   -0.10105  -0.09266  -0.08092  -0.07928  -0.07489
 Alpha virt. eigenvalues --   -0.07235  -0.07088  -0.05636  -0.05582  -0.05296
 Alpha virt. eigenvalues --   -0.03897  -0.03798  -0.03280  -0.03123  -0.02158
 Alpha virt. eigenvalues --   -0.01401  -0.01002   0.00200   0.00488   0.00684
 Alpha virt. eigenvalues --    0.01072   0.01510   0.01949   0.02242   0.02280
 Alpha virt. eigenvalues --    0.02455   0.02720   0.02961   0.03126   0.03295
 Alpha virt. eigenvalues --    0.04223   0.04515   0.04719   0.05155   0.05404
 Alpha virt. eigenvalues --    0.05861   0.06322   0.06641   0.07015   0.07263
 Alpha virt. eigenvalues --    0.07915   0.08316   0.08338   0.08628   0.08923
 Alpha virt. eigenvalues --    0.09519   0.09582   0.10017   0.10835   0.11062
 Alpha virt. eigenvalues --    0.11178   0.12185   0.12194   0.12880   0.12989
 Alpha virt. eigenvalues --    0.13398   0.13443   0.14006   0.14583   0.15674
 Alpha virt. eigenvalues --    0.16143   0.16760   0.17097   0.17295   0.17737
 Alpha virt. eigenvalues --    0.18115   0.19239   0.19366   0.19665   0.19731
 Alpha virt. eigenvalues --    0.21549   0.21725   0.22666   0.23003   0.23572
 Alpha virt. eigenvalues --    0.23807   0.24607   0.24677   0.26801   0.27788
 Alpha virt. eigenvalues --    0.28809   0.29228   0.29755   0.31435   0.35753
 Alpha virt. eigenvalues --    0.36707   0.37936   0.39463   0.41036   0.41304
 Alpha virt. eigenvalues --    0.41945   0.42033   0.42945   0.43953   0.43985
 Alpha virt. eigenvalues --    0.44125   0.45370   0.45621   0.46263   0.47811
 Alpha virt. eigenvalues --    0.48425   0.48872   0.48981   0.50344   0.51081
 Alpha virt. eigenvalues --    0.51595   0.51822   0.52232   0.53470   0.53858
 Alpha virt. eigenvalues --    0.53924   0.54849   0.55775   0.55862   0.57125
 Alpha virt. eigenvalues --    0.58265   0.58786   0.61461   0.62047   0.62252
 Alpha virt. eigenvalues --    0.63056   0.63614   0.63716   0.65240   0.66266
 Alpha virt. eigenvalues --    0.70242   0.70756   0.70905   0.72237   0.72655
 Alpha virt. eigenvalues --    0.75397   0.75616   0.76021   0.76266   0.76606
 Alpha virt. eigenvalues --    0.77383   0.77742   0.78281   0.80246   0.80753
 Alpha virt. eigenvalues --    0.81053   0.82054   0.82189   0.83059   0.84461
 Alpha virt. eigenvalues --    0.86633   0.86783   0.87755   0.89505   0.90433
 Alpha virt. eigenvalues --    0.91313   0.91578   0.93862   0.95047   0.95976
 Alpha virt. eigenvalues --    0.96872   1.00223   1.01335   1.02053   1.02736
 Alpha virt. eigenvalues --    1.03593   1.04268   1.04554   1.06182   1.09433
 Alpha virt. eigenvalues --    1.19110   1.23263   1.24098   1.25610   1.28317
 Alpha virt. eigenvalues --    1.30313   1.31005   1.34691   1.35849   1.36488
 Alpha virt. eigenvalues --    1.39422   1.40033   1.40858   1.43592   1.43725
 Alpha virt. eigenvalues --    1.43913   1.45097   1.45576   1.46644   1.46669
 Alpha virt. eigenvalues --    1.48109   1.48832   1.51731   1.53901   1.55929
 Alpha virt. eigenvalues --    1.56229   1.56649   1.57113   1.58142   1.61885
 Alpha virt. eigenvalues --    1.62847   1.62998   1.63081   1.66310   1.67944
 Alpha virt. eigenvalues --    1.68652   1.68885   1.69674   1.74924   1.76000
 Alpha virt. eigenvalues --    1.77238   1.78027   1.79633   1.80817   1.81608
 Alpha virt. eigenvalues --    1.82895   1.82913   1.83511   1.84016   1.84431
 Alpha virt. eigenvalues --    1.84617   1.86291   1.86502   1.88531   1.91198
 Alpha virt. eigenvalues --    1.92092   1.94000   1.95206   1.98309   1.99024
 Alpha virt. eigenvalues --    2.00625   2.02075   2.04805   2.06528   2.12121
 Alpha virt. eigenvalues --    2.12159   2.13632   2.15360   2.20457   2.20902
 Alpha virt. eigenvalues --    2.23340   2.29213   2.30579   2.34078   2.35819
 Alpha virt. eigenvalues --    2.36092   2.37456   2.37783   2.40060   2.42264
 Alpha virt. eigenvalues --    2.47066   2.49542   2.50658   2.53246   2.53667
 Alpha virt. eigenvalues --    2.53843   2.56522   2.58195   2.58748   2.60034
 Alpha virt. eigenvalues --    2.60210   2.61394   2.62195   2.63100   2.63994
 Alpha virt. eigenvalues --    2.64572   2.64826   2.65337   2.65563   2.67813
 Alpha virt. eigenvalues --    2.67967   2.71196   2.71343   2.73757   2.74847
 Alpha virt. eigenvalues --    2.76659   2.79367   2.80207   2.83381   2.84035
 Alpha virt. eigenvalues --    2.85892   2.86717   2.92319   2.95854   3.00215
 Alpha virt. eigenvalues --    3.00803   3.03807   3.12295   3.12668   3.14659
 Alpha virt. eigenvalues --    3.20454   3.22790   3.27922   3.28753   3.31558
 Alpha virt. eigenvalues --    3.33261   3.34257   3.43626   3.46172   3.48694
 Alpha virt. eigenvalues --    3.49854   3.51480   3.56719   3.64007   3.67749
 Alpha virt. eigenvalues --    3.68226   3.91587   3.92398   3.94708   3.96137
 Alpha virt. eigenvalues --    4.02706   4.07018   4.07602   4.12386   4.34902
 Alpha virt. eigenvalues --    4.60327   4.70752   4.72681  23.44878  23.58865
 Alpha virt. eigenvalues --   23.82751  23.84827  23.88013  23.90558  23.90849
 Alpha virt. eigenvalues --   23.92692  23.98989  24.01294  24.03525  24.03621
 Alpha virt. eigenvalues --   24.12859  24.12906
          Condensed to atoms (all electrons):
               1          2          3          4          5          6
     1  C    8.427577   0.609162  -0.610432   1.488016   0.011777  -0.093103
     2  C    0.609162   6.917281   0.388864  -0.702239  -0.077563  -0.019774
     3  C   -0.610432   0.388864   6.671219   0.624712  -0.103964   0.019255
     4  C    1.488016  -0.702239   0.624712   9.823190  -0.041834  -0.103342
     5  C    0.011777  -0.077563  -0.103964  -0.041834   9.838944   0.623141
     6  C   -0.093103  -0.019774   0.019255  -0.103342   0.623141   6.669402
     7  C   -0.029915   0.014198  -0.019807  -0.077704  -0.702492   0.388442
     8  C    0.412665  -0.029644  -0.093025   0.010419   1.491583  -0.612298
     9  C   -1.571658  -0.451587   0.236103  -0.616808  -0.610940   0.236258
    10  C   -1.041158   0.069315  -0.346869  -2.168899  -2.174613  -0.343680
    11  C    0.220308  -0.961494   0.989170  -0.439301  -1.565012  -0.205108
    12  C   -1.482900   0.720246  -1.240520  -0.557658  -0.111203  -0.176454
    13  C    0.209690  -0.103295  -0.205473  -1.561053  -0.430504   0.985826
    14  C   -1.039801  -0.244778  -0.176257  -0.106076  -0.575033  -1.235173
    15  H    0.357414  -0.094787  -0.003862   0.019158   0.005706   0.001357
    16  H   -0.024403   0.382333  -0.012547   0.012514  -0.001697  -0.000379
    17  H   -0.015266  -0.024988   0.371360  -0.054278   0.000309   0.000394
    18  H    0.045027   0.006917  -0.090924   0.437104   0.011774  -0.004595
    19  H   -0.043712  -0.008338   0.049459  -0.055190  -0.055754   0.049374
    20  H    0.008014   0.001405  -0.004610   0.011755   0.437450  -0.091072
    21  H   -0.001287  -0.000372   0.000394   0.000306  -0.054448   0.371359
    22  H    0.000800   0.000376  -0.000379  -0.001694   0.012605  -0.012656
    23  H    0.006119  -0.002519   0.001363   0.005676   0.019220  -0.003928
    24  H    0.055771   0.011546  -0.000900  -0.011034  -0.011215  -0.000821
    25  H    0.015879   0.016469  -0.002744  -0.010851  -0.010764  -0.002839
               7          8          9         10         11         12
     1  C   -0.029915   0.412665  -1.571658  -1.041158   0.220308  -1.482900
     2  C    0.014198  -0.029644  -0.451587   0.069315  -0.961494   0.720246
     3  C   -0.019807  -0.093025   0.236103  -0.346869   0.989170  -1.240520
     4  C   -0.077704   0.010419  -0.616808  -2.168899  -0.439301  -0.557658
     5  C   -0.702492   1.491583  -0.610940  -2.174613  -1.565012  -0.111203
     6  C    0.388442  -0.612298   0.236258  -0.343680  -0.205108  -0.176454
     7  C    6.916144   0.608180  -0.452562   0.069483  -0.102803  -0.244021
     8  C    0.608180   8.426396  -1.566216  -1.041428   0.210854  -1.036971
     9  C   -0.452562  -1.566216   8.622173   0.711751   1.277273  -0.798730
    10  C    0.069483  -1.041428   0.711751   8.887050  -0.331462   1.735620
    11  C   -0.102803   0.210854   1.277273  -0.331462  13.450289  -3.294124
    12  C   -0.244021  -1.036971  -0.798730   1.735620  -3.294124  13.881766
    13  C   -0.962417   0.219961   1.275209  -0.329174   1.318217  -4.087276
    14  C    0.723721  -1.490578  -0.801063   1.743435  -4.087458   2.341450
    15  H   -0.002512   0.006125   0.074164  -0.007779  -0.013521  -0.012482
    16  H    0.000375   0.000787   0.003386  -0.011106   0.032464  -0.036965
    17  H   -0.000373  -0.001287  -0.001557   0.014758  -0.015471   0.066991
    18  H    0.001412   0.007998  -0.030734   0.024986  -0.012672  -0.045421
    19  H   -0.008357  -0.043699   0.072597   0.423548   0.055290  -0.056844
    20  H    0.006969   0.045145  -0.030727   0.024811  -0.006540  -0.009580
    21  H   -0.025049  -0.015332  -0.001538   0.014797  -0.005849   0.003203
    22  H    0.382238  -0.024166   0.003443  -0.011127   0.002676  -0.009259
    23  H   -0.094877   0.357535   0.074338  -0.007802  -0.002964   0.007082
    24  H    0.011704   0.056288   0.335384   0.004119   0.024653  -0.084304
    25  H    0.016266   0.015193   0.368790   0.003897  -0.004139  -0.028150
              13         14         15         16         17         18
     1  C    0.209690  -1.039801   0.357414  -0.024403  -0.015266   0.045027
     2  C   -0.103295  -0.244778  -0.094787   0.382333  -0.024988   0.006917
     3  C   -0.205473  -0.176257  -0.003862  -0.012547   0.371360  -0.090924
     4  C   -1.561053  -0.106076   0.019158   0.012514  -0.054278   0.437104
     5  C   -0.430504  -0.575033   0.005706  -0.001697   0.000309   0.011774
     6  C    0.985826  -1.235173   0.001357  -0.000379   0.000394  -0.004595
     7  C   -0.962417   0.723721  -0.002512   0.000375  -0.000373   0.001412
     8  C    0.219961  -1.490578   0.006125   0.000787  -0.001287   0.007998
     9  C    1.275209  -0.801063   0.074164   0.003386  -0.001557  -0.030734
    10  C   -0.329174   1.743435  -0.007779  -0.011106   0.014758   0.024986
    11  C    1.318217  -4.087458  -0.013521   0.032464  -0.015471  -0.012672
    12  C   -4.087276   2.341450  -0.012482  -0.036965   0.066991  -0.045421
    13  C   13.443859  -3.295739  -0.002955   0.002684  -0.005889  -0.006407
    14  C   -3.295739  13.892988   0.007062  -0.009262   0.003205  -0.009545
    15  H   -0.002955   0.007062   0.439882  -0.008917   0.001292   0.000206
    16  H    0.002684  -0.009262  -0.008917   0.419539  -0.006589   0.001897
    17  H   -0.005889   0.003205   0.001292  -0.006589   0.420785  -0.009998
    18  H   -0.006407  -0.009545   0.000206   0.001897  -0.009998   0.457752
    19  H    0.054565  -0.057071   0.000397  -0.000516   0.001232  -0.005015
    20  H   -0.012591  -0.045506  -0.000131   0.000016  -0.000144   0.001202
    21  H   -0.015331   0.067033   0.000020  -0.000007   0.000009  -0.000144
    22  H    0.032488  -0.037229  -0.000127   0.000007  -0.000007   0.000016
    23  H   -0.013420  -0.012712   0.000610  -0.000127   0.000020  -0.000131
    24  H    0.024064  -0.084121  -0.000114   0.000406  -0.000074   0.000254
    25  H   -0.003717  -0.028239  -0.001668   0.000893  -0.000211   0.000157
              19         20         21         22         23         24
     1  C   -0.043712   0.008014  -0.001287   0.000800   0.006119   0.055771
     2  C   -0.008338   0.001405  -0.000372   0.000376  -0.002519   0.011546
     3  C    0.049459  -0.004610   0.000394  -0.000379   0.001363  -0.000900
     4  C   -0.055190   0.011755   0.000306  -0.001694   0.005676  -0.011034
     5  C   -0.055754   0.437450  -0.054448   0.012605   0.019220  -0.011215
     6  C    0.049374  -0.091072   0.371359  -0.012656  -0.003928  -0.000821
     7  C   -0.008357   0.006969  -0.025049   0.382238  -0.094877   0.011704
     8  C   -0.043699   0.045145  -0.015332  -0.024166   0.357535   0.056288
     9  C    0.072597  -0.030727  -0.001538   0.003443   0.074338   0.335384
    10  C    0.423548   0.024811   0.014797  -0.011127  -0.007802   0.004119
    11  C    0.055290  -0.006540  -0.005849   0.002676  -0.002964   0.024653
    12  C   -0.056844  -0.009580   0.003203  -0.009259   0.007082  -0.084304
    13  C    0.054565  -0.012591  -0.015331   0.032488  -0.013420   0.024064
    14  C   -0.057071  -0.045506   0.067033  -0.037229  -0.012712  -0.084121
    15  H    0.000397  -0.000131   0.000020  -0.000127   0.000610  -0.000114
    16  H   -0.000516   0.000016  -0.000007   0.000007  -0.000127   0.000406
    17  H    0.001232  -0.000144   0.000009  -0.000007   0.000020  -0.000074
    18  H   -0.005015   0.001202  -0.000144   0.000016  -0.000131   0.000254
    19  H    0.441232  -0.005042   0.001235  -0.000518   0.000399   0.000436
    20  H   -0.005042   0.457745  -0.009996   0.001904   0.000208   0.000248
    21  H    0.001235  -0.009996   0.420759  -0.006583   0.001287  -0.000071
    22  H   -0.000518   0.001904  -0.006583   0.419521  -0.008923   0.000397
    23  H    0.000399   0.000208   0.001287  -0.008923   0.439969  -0.000109
    24  H    0.000436   0.000248  -0.000071   0.000397  -0.000109   0.495343
    25  H    0.000462   0.000161  -0.000212   0.000899  -0.001682  -0.079081
              25
     1  C    0.015879
     2  C    0.016469
     3  C   -0.002744
     4  C   -0.010851
     5  C   -0.010764
     6  C   -0.002839
     7  C    0.016266
     8  C    0.015193
     9  C    0.368790
    10  C    0.003897
    11  C   -0.004139
    12  C   -0.028150
    13  C   -0.003717
    14  C   -0.028239
    15  H   -0.001668
    16  H    0.000893
    17  H   -0.000211
    18  H    0.000157
    19  H    0.000462
    20  H    0.000161
    21  H   -0.000212
    22  H    0.000899
    23  H   -0.001682
    24  H   -0.079081
    25  H    0.494861
 Mulliken charges:
               1
     1  C    0.085415
     2  C   -0.416734
     3  C   -0.439585
     4  C    0.075108
     5  C    0.074527
     6  C   -0.439588
     7  C   -0.416247
     8  C    0.085517
     9  C   -0.356749
    10  C    0.087527
    11  C   -0.533276
    12  C    0.556504
    13  C   -0.531322
    14  C    0.556746
    15  H    0.235460
    16  H    0.255214
    17  H    0.255777
    18  H    0.218881
    19  H    0.189830
    20  H    0.218906
    21  H    0.255818
    22  H    0.255295
    23  H    0.235368
    24  H    0.251235
    25  H    0.240372
 Sum of Mulliken charges =   1.00000
 Mulliken charges with hydrogens summed into heavy atoms:
               1
     1  C    0.320875
     2  C   -0.161520
     3  C   -0.183808
     4  C    0.293989
     5  C    0.293433
     6  C   -0.183770
     7  C   -0.160951
     8  C    0.320885
     9  C    0.134858
    10  C    0.277357
    11  C   -0.533276
    12  C    0.556504
    13  C   -0.531322
    14  C    0.556746
 Electronic spatial extent (au):  <R**2>=           2838.7368
 Charge=              1.0000 electrons
 Dipole moment (field-independent basis, Debye):
    X=             -0.0012    Y=              0.1754    Z=             -0.0023  Tot=              0.1755
 Quadrupole moment (field-independent basis, Debye-Ang):
   XX=            -31.5091   YY=            -56.2605   ZZ=            -83.9972
   XY=             -0.0007   XZ=              0.0012   YZ=              0.2152
 Traceless Quadrupole moment (field-independent basis, Debye-Ang):
   XX=             25.7465   YY=              0.9951   ZZ=            -26.7416
   XY=             -0.0007   XZ=              0.0012   YZ=              0.2152
 Octapole moment (field-independent basis, Debye-Ang**2):
  XXX=             -0.0539  YYY=              5.1691  ZZZ=             -0.0676  XYY=              0.0001
  XXY=             -6.6699  XXZ=              0.3373  XZZ=              0.0071  YZZ=             -3.1080
  YYZ=              0.2357  XYZ=              0.0060
 Hexadecapole moment (field-independent basis, Debye-Ang**3):
 XXXX=          -2115.4358 YYYY=           -609.5453 ZZZZ=            -99.0906 XXXY=             -0.0310
 XXXZ=              0.0331 YYYX=              0.0135 YYYZ=              2.3844 ZZZX=              0.0013
 ZZZY=              0.0821 XXYY=           -504.8331 XXZZ=           -585.8899 YYZZ=           -145.5280
 XXYZ=              2.2619 YYXZ=              0.0002 ZZXY=             -0.0006
 N-N= 7.831975762433D+02 E-N=-2.802846579320D+03  KE= 5.376390936379D+02
 Unable to Open any file for archive entry.
 1\1\GINC-GADI-CPU-CLX-0113\SP\RM062X TD-FC\6-311++G(d,p)\C14H11(1+)\TS
 1578\28-Jul-2022\0\\#n M062X/6-311++G(d,p) TD(NStates=1) EmpiricalDisp
 ersion=GD3 SP\\SP_125\\1,1\C,0,-0.03035,2.493855,1.360431\C,0,-0.03677
 5,3.685558,0.671989\C,0,-0.0102,3.655711,-0.71383\C,0,0.035125,2.44263
 1,-1.407538\C,0,0.035075,-2.442731,-1.407538\C,0,-0.0105,-3.656211,-0.
 71383\C,0,-0.03725,-3.685733,0.671989\C,0,-0.0313,-2.494155,1.360431\C
 ,0,-0.0197,0.0011,1.453369\C,0,0.0549,-0.00005,-1.429189\C,0,0.00825,1
 .27928,0.677065\C,0,0.0224,1.234846,-0.730804\C,0,0.008175,-1.279255,0
 .677065\C,0,0.0226,-1.234696,-0.730804\H,0,-0.0089,2.488921,2.443647\H
 ,0,-0.037175,4.623628,1.211689\H,0,0.0066,4.609962,-1.272349\H,0,0.016
 35,2.4476,-2.490059\H,0,0.050625,-0.000025,-2.510266\H,0,0.0165,-2.447
 675,-2.490059\H,0,0.00645,-4.610587,-1.272349\H,0,-0.03775,-4.624003,1
 .211689\H,0,-0.01,-2.489246,2.443647\H,0,-0.931585,0.00025,2.145512\H,
 0,0.787585,0.00025,2.146062\\Version=ES64L-G16RevC.01\State=1-A\HF=-53
 9.7556176\RMSD=5.858e-09\PG=C01 [X(C14H11)]\\@
 The archive entry for this job was punched.


 Money is a good servant but a bad master.
                        -- French Proverb
 Job cpu time:       0 days  1 hours 22 minutes 46.8 seconds.
 Elapsed time:       0 days  0 hours  1 minutes 52.9 seconds.
 File lengths (MBytes):  RWF=    460 Int=      0 D2E=      0 Chk=     15 Scr=      1
 Normal termination of Gaussian 16 at Thu Jul 28 16:46:32 2022.
