 Entering Gaussian System, Link 0=g16
 Initial command:
 /apps/gaussian/g16c01/g16/l1.exe "/jobfs/53002009.gadi-pbs/Gau-756331.inp" -scrdir="/jobfs/53002009.gadi-pbs/"
 Entering Link 1 = /apps/gaussian/g16c01/g16/l1.exe PID=    756332.
  
 Copyright (c) 1988-2019, Gaussian, Inc.  All Rights Reserved.
  
 This is part of the Gaussian(R) 16 program.  It is based on
 the Gaussian(R) 09 system (copyright 2009, Gaussian, Inc.),
 the Gaussian(R) 03 system (copyright 2003, Gaussian, Inc.),
 the Gaussian(R) 98 system (copyright 1998, Gaussian, Inc.),
 the Gaussian(R) 94 system (copyright 1995, Gaussian, Inc.),
 the Gaussian 92(TM) system (copyright 1992, Gaussian, Inc.),
 the Gaussian 90(TM) system (copyright 1990, Gaussian, Inc.),
 the Gaussian 88(TM) system (copyright 1988, Gaussian, Inc.),
 the Gaussian 86(TM) system (copyright 1986, Carnegie Mellon
 University), and the Gaussian 82(TM) system (copyright 1983,
 Carnegie Mellon University). Gaussian is a federally registered
 trademark of Gaussian, Inc.
  
 This software contains proprietary and confidential information,
 including trade secrets, belonging to Gaussian, Inc.
  
 This software is provided under written license and may be
 used, copied, transmitted, or stored only in accord with that
 written license.
  
 The following legend is applicable only to US Government
 contracts under FAR:
  
                    RESTRICTED RIGHTS LEGEND
  
 Use, reproduction and disclosure by the US Government is
 subject to restrictions as set forth in subparagraphs (a)
 and (c) of the Commercial Computer Software - Restricted
 Rights clause in FAR 52.227-19.
  
 Gaussian, Inc.
 340 Quinnipiac St., Bldg. 40, Wallingford CT 06492
  
  
 ---------------------------------------------------------------
 Warning -- This program may not be used in any manner that
 competes with the business of Gaussian, Inc. or will provide
 assistance to any competitor of Gaussian, Inc.  The licensee
 of this program is prohibited from giving any competitor of
 Gaussian, Inc. access to this program.  By using this program,
 the user acknowledges that Gaussian, Inc. is engaged in the
 business of creating and licensing software in the field of
 computational chemistry and represents and warrants to the
 licensee that it is not a competitor of Gaussian, Inc. and that
 it will not use this program in any manner prohibited above.
 ---------------------------------------------------------------
  

 Cite this work as:
 Gaussian 16, Revision C.01,
 M. J. Frisch, G. W. Trucks, H. B. Schlegel, G. E. Scuseria, 
 M. A. Robb, J. R. Cheeseman, G. Scalmani, V. Barone, 
 G. A. Petersson, H. Nakatsuji, X. Li, M. Caricato, A. V. Marenich, 
 J. Bloino, B. G. Janesko, R. Gomperts, B. Mennucci, H. P. Hratchian, 
 J. V. Ortiz, A. F. Izmaylov, J. L. Sonnenberg, D. Williams-Young, 
 F. Ding, F. Lipparini, F. Egidi, J. Goings, B. Peng, A. Petrone, 
 T. Henderson, D. Ranasinghe, V. G. Zakrzewski, J. Gao, N. Rega, 
 G. Zheng, W. Liang, M. Hada, M. Ehara, K. Toyota, R. Fukuda, 
 J. Hasegawa, M. Ishida, T. Nakajima, Y. Honda, O. Kitao, H. Nakai, 
 T. Vreven, K. Throssell, J. A. Montgomery, Jr., J. E. Peralta, 
 F. Ogliaro, M. J. Bearpark, J. J. Heyd, E. N. Brothers, K. N. Kudin, 
 V. N. Staroverov, T. A. Keith, R. Kobayashi, J. Normand, 
 K. Raghavachari, A. P. Rendell, J. C. Burant, S. S. Iyengar, 
 J. Tomasi, M. Cossi, J. M. Millam, M. Klene, C. Adamo, R. Cammi, 
 J. W. Ochterski, R. L. Martin, K. Morokuma, O. Farkas, 
 J. B. Foresman, and D. J. Fox, Gaussian, Inc., Wallingford CT, 2019.
 
 ******************************************
 Gaussian 16:  ES64L-G16RevC.01  3-Jul-2019
                28-Jul-2022 
 ******************************************
 %NProcShared=48
 Will use up to   48 processors via shared memory.
 %mem = 190GB
 ---------------------------------------------------------------
 #n M062X/6-311++G(d,p) TD(NStates=1) EmpiricalDispersion=GD3 SP
 ---------------------------------------------------------------
 1/38=1,172=1/1;
 2/12=2,17=6,18=5,40=1/2;
 3/5=4,6=6,7=1111,11=9,25=1,30=1,74=-55,124=31/1,2,3,8;
 4//1;
 5/5=2,38=5/2;
 8/6=1,10=2,108=1/1;
 9/41=1,42=1,70=2/14;
 6/7=2,8=2,9=2,10=2/1;
 99/5=1,9=1/99;
 ------
 SP_-25
 ------
 Symbolic Z-matrix:
 Charge =  1 Multiplicity = 1
 C                     0.02245   2.49116   1.36043 
 C                     0.02563   3.71173   0.67199 
 C                     0.0075    3.70146  -0.71383 
 C                    -0.0233    2.47661  -1.40754 
 C                    -0.0235   -2.47701  -1.40754 
 C                     0.0063   -3.70346  -0.71383 
 C                     0.02372  -3.71243   0.67199 
 C                     0.01865  -2.49236   1.36043 
 C                     0.01308   0.0044    1.45337 
 C                    -0.0366   -0.0002   -1.42919 
 C                    -0.00533   1.25063   0.67707 
 C                    -0.0154    1.23957  -0.7308 
 C                    -0.00563  -1.25053   0.67707 
 C                    -0.0146   -1.23897  -0.7308 
 H                     0.0085    2.48675   2.44365 
 H                     0.02613   4.64463   1.21169 
 H                    -0.00405   4.60734  -1.27235 
 H                    -0.01125   2.48068  -2.49006 
 H                    -0.03375  -0.0001   -2.51027 
 H                    -0.01065  -2.48098  -2.49006 
 H                    -0.00465  -4.60984  -1.27235 
 H                     0.02383  -4.64613   1.21169 
 H                     0.0041   -2.48805   2.44365 
 H                    -0.81159   0.001     2.14469 
 H                     0.90759   0.001     2.14689 
 
                          Input orientation:                          
 ---------------------------------------------------------------------
 Center     Atomic      Atomic             Coordinates (Angstroms)
 Number     Number       Type             X           Y           Z
 ---------------------------------------------------------------------
      1          6           0        0.022450    2.491155    1.360431
      2          6           0        0.025625    3.711733    0.671989
      3          6           0        0.007500    3.701461   -0.713830
      4          6           0       -0.023300    2.476606   -1.407538
      5          6           0       -0.023500   -2.477006   -1.407538
      6          6           0        0.006300   -3.703461   -0.713830
      7          6           0        0.023725   -3.712433    0.671989
      8          6           0        0.018650   -2.492355    1.360431
      9          6           0        0.013075    0.004400    1.453369
     10          6           0       -0.036600   -0.000200   -1.429189
     11          6           0       -0.005325    1.250630    0.677065
     12          6           0       -0.015400    1.239571   -0.730804
     13          6           0       -0.005625   -1.250530    0.677065
     14          6           0       -0.014600   -1.238971   -0.730804
     15          1           0        0.008500    2.486746    2.443647
     16          1           0        0.026125    4.644628    1.211689
     17          1           0       -0.004050    4.607337   -1.272349
     18          1           0       -0.011250    2.480675   -2.490059
     19          1           0       -0.033750   -0.000100   -2.510266
     20          1           0       -0.010650   -2.480975   -2.490059
     21          1           0       -0.004650   -4.609837   -1.272349
     22          1           0        0.023825   -4.646128    1.211689
     23          1           0        0.004100   -2.488046    2.443647
     24          1           0       -0.811585    0.001000    2.144687
     25          1           0        0.907585    0.001000    2.146887
 ---------------------------------------------------------------------
                    Distance matrix (angstroms):
                    1          2          3          4          5
     1  C    0.000000
     2  C    1.401347   0.000000
     3  C    2.401588   1.385976   0.000000
     4  C    2.768385   2.419166   1.407995   0.000000
     5  C    5.687388   6.528961   6.217367   4.953612   0.000000
     6  C    6.532694   7.543605   7.404922   6.218950   1.409365
     7  C    6.241671   7.424166   7.542319   6.529230   2.419286
     8  C    4.983511   6.242172   6.531925   5.688056   2.768332
     9  C    2.488509   3.788803   4.285445   3.781258   3.787282
    10  C    3.740630   4.265826   3.770408   2.476936   2.476935
    11  C    1.416567   2.461303   2.818036   2.418452   4.270968
    12  C    2.437449   2.842727   2.462055   1.410066   3.777695
    13  C    3.803680   4.962364   5.143635   4.270530   2.418705
    14  C    4.276503   5.145767   4.940511   3.776712   1.410950
    15  H    1.083315   2.153987   3.383075   3.851330   6.282634
    16  H    2.158607   1.077761   2.144186   3.400458   7.588181
    17  H    3.377937   2.140896   1.064278   2.135102   7.085659
    18  H    3.850652   3.393436   2.155379   1.082596   5.074505
    19  H    4.603456   4.889578   4.114661   2.711124   2.711305
    20  H    6.288835   6.953380   6.432560   5.074408   1.082605
    21  H    7.573398   8.545753   8.330052   7.087757   2.137194
    22  H    7.138833   8.375268   8.566804   7.589197   3.401129
    23  H    5.095698   6.447984   6.948357   6.283323   3.851300
    24  H    2.740720   4.079130   4.747150   4.400945   4.402260
    25  H    2.757326   4.089342   4.763115   4.430475   4.431859
                    6          7          8          9         10
     6  C    0.000000
     7  C    1.385958   0.000000
     8  C    2.401976   1.400917   0.000000
     9  C    4.294768   3.798094   2.498490   0.000000
    10  C    3.771965   4.266059   3.741105   2.882990   0.000000
    11  C    5.145653   4.963151   3.804931   1.468358   2.449869
    12  C    4.943109   5.147009   4.278048   2.509396   1.423103
    13  C    2.819858   2.462083   1.417642   1.475753   2.449610
    14  C    2.464637   2.843820   2.438307   2.513434   1.422244
    15  H    6.948980   6.447389   5.095577   2.672585   4.602803
    16  H    8.567299   8.374470   7.138537   4.646536   5.343463
    17  H    8.329551   8.543992   7.572164   5.349473   4.610321
    18  H    6.434193   6.953730   6.289531   4.656517   2.698301
    19  H    4.116269   4.889935   4.603952   3.963914   1.081081
    20  H    2.156328   3.393555   3.850618   4.661360   2.698215
    21  H    1.064698   2.141632   3.378728   5.359201   4.612415
    22  H    2.143957   1.078454   2.158909   4.656816   5.344393
    23  H    3.383327   2.153667   1.083322   2.681980   4.603248
    24  H    4.750062   4.081197   2.742475   1.076102   3.656938
    25  H    4.766450   4.092202   2.761438   1.131869   3.698622
                   11         12         13         14         15
    11  C    0.000000
    12  C    1.407948   0.000000
    13  C    2.501160   2.860558   0.000000
    14  C    2.860121   2.478542   1.407945   0.000000
    15  H    2.156151   3.410741   4.133793   4.894756   0.000000
    16  H    3.435991   3.920385   5.919436   6.196102   2.484851
    17  H    3.881713   3.411048   6.173720   5.871346   4.278515
    18  H    3.397605   2.152983   4.894139   4.114700   4.933749
    19  H    3.424064   2.168780   3.423952   2.168330   5.543234
    20  H    4.894444   4.115515   3.397748   2.153501   7.001434
    21  H    6.176187   5.874433   3.883962   3.414104   8.010636
    22  H    5.921016   6.198086   3.437554   3.922177   7.238498
    23  H    4.135045   4.896187   2.156931   3.411404   4.974794
    24  H    2.089389   3.230544   2.090410   3.231279   2.634549
    25  H    2.134328   3.266047   2.135569   3.266353   2.659954
                   16         17         18         19         20
    16  H    0.000000
    17  H    2.484501   0.000000
    18  H    4.288010   2.450625   0.000000
    19  H    5.952313   4.770932   2.480959   0.000000
    20  H    8.029851   7.192150   4.961650   2.481065   0.000000
    21  H    9.582093   9.217174   7.194319   4.773150   2.452531
    22  H    9.290756   9.581119   8.030908   5.953305   4.288591
    23  H    7.238318   8.009566   7.002134   5.543696   4.933733
    24  H    4.809940   5.791942   5.316972   4.719493   5.318136
    25  H    4.818179   5.808665   5.338007   4.751335   5.338972
                   21         22         23         24         25
    21  H    0.000000
    22  H    2.484466   0.000000
    23  H    4.279100   2.485041   0.000000
    24  H    5.795438   4.812919   2.636298   0.000000
    25  H    5.812329   4.821973   2.664527   1.719171   0.000000
 Stoichiometry    C14H11(1+)
 Framework group  C1[X(C14H11)]
 Deg. of freedom    69
 Full point group                 C1      NOp   1
 Largest Abelian subgroup         C1      NOp   1
 Largest concise Abelian subgroup C1      NOp   1
                         Standard orientation:                         
 ---------------------------------------------------------------------
 Center     Atomic      Atomic             Coordinates (Angstroms)
 Number     Number       Type             X           Y           Z
 ---------------------------------------------------------------------
      1          6           0       -2.491276   -1.360383    0.003339
      2          6           0       -3.711797   -0.671936    0.015320
      3          6           0       -3.701403    0.714001    0.015507
      4          6           0       -2.476482    1.407948   -0.005837
      5          6           0        2.477130    1.407515   -0.004865
      6          6           0        3.703519    0.713366    0.016058
      7          6           0        3.712369   -0.672563    0.015175
      8          6           0        2.492234   -1.360770    0.000717
      9          6           0       -0.004527   -1.453407   -0.006675
     10          6           0        0.000329    1.429555   -0.018264
     11          6           0       -1.250687   -0.676818   -0.015113
     12          6           0       -1.239506    0.731060   -0.006585
     13          6           0        1.250473   -0.677034   -0.014821
     14          6           0        1.239035    0.730831   -0.005199
     15          1           0       -2.486956   -2.443320   -0.024919
     16          1           0       -4.644738   -1.211513    0.008469
     17          1           0       -4.607229    1.272703    0.011122
     18          1           0       -2.480462    2.490215    0.020512
     19          1           0        0.000320    2.510500   -0.001132
     20          1           0        2.481187    2.489772    0.022285
     21          1           0        4.609945    1.271902    0.012701
     22          1           0        4.646019   -1.212299    0.008366
     23          1           0        2.487837   -2.443699   -0.028143
     24          1           0       -0.000990   -2.133771   -0.840395
     25          1           0       -0.001398   -2.158682    0.878595
 ---------------------------------------------------------------------
 Rotational constants (GHZ):           2.1355883           0.4421351           0.3671059
 Standard basis: 6-311++G(d,p) (5D, 7F)
 There are   399 symmetry adapted cartesian basis functions of A   symmetry.
 There are   385 symmetry adapted basis functions of A   symmetry.
   385 basis functions,   603 primitive gaussians,   399 cartesian basis functions
    47 alpha electrons       47 beta electrons
       nuclear repulsion energy       779.7817414960 Hartrees.
 NAtoms=   25 NActive=   25 NUniq=   25 SFac= 1.00D+00 NAtFMM=   60 NAOKFM=F Big=F
 Integral buffers will be    131072 words long.
 Regular integral format.
 Two-electron integral symmetry is turned on.
 Nuclear repulsion after empirical dispersion term =      779.7807614905 Hartrees.
 One-electron integrals computed using PRISM.
 NBasis=   385 RedAO= T EigKep=  1.29D-06  NBF=   385
 NBsUse=   379 1.00D-06 EigRej=  8.86D-07 NBFU=   379
 ExpMin= 3.60D-02 ExpMax= 4.56D+03 ExpMxC= 6.82D+02 IAcc=3 IRadAn=         5 AccDes= 0.00D+00
 Harris functional with IExCor= 1009 and IRadAn=       5 diagonalized for initial guess.
 HarFok:  IExCor= 1009 AccDes= 0.00D+00 IRadAn=         5 IDoV= 1 UseB2=F ITyADJ=14
 ICtDFT=  3500011 ScaDFX=  1.000000  1.000000  1.000000  1.000000
 FoFCou: FMM=F IPFlag=           0 FMFlag=      100000 FMFlg1=           0
         NFxFlg=           0 DoJE=T BraDBF=F KetDBF=T FulRan=T
         wScrn=  0.000000 ICntrl=       500 IOpCl=  0 I1Cent=   200000004 NGrid=           0
         NMat0=    1 NMatS0=      1 NMatT0=    0 NMatD0=    1 NMtDS0=    0 NMtDT0=    0
 Petite list used in FoFCou.
 Requested convergence on RMS density matrix=1.00D-08 within 128 cycles.
 Requested convergence on MAX density matrix=1.00D-06.
 Requested convergence on             energy=1.00D-06.
 No special actions if energy rises.
 SCF Done:  E(RM062X) =  -539.757062379     A.U. after   15 cycles
            NFock= 15  Conv=0.47D-08     -V/T= 2.0043
 DoSCS=F DFT=T ScalE2(SS,OS)=  1.000000  1.000000
 ExpMin= 3.60D-02 ExpMax= 4.56D+03 ExpMxC= 6.82D+02 IAcc=3 IRadAn=         5 AccDes= 0.00D+00
 HarFok:  IExCor=  205 AccDes= 0.00D+00 IRadAn=         5 IDoV=-2 UseB2=F ITyADJ=14
 ICtDFT= 12500011 ScaDFX=  1.000000  1.000000  1.000000  1.000000
 Range of M.O.s used for correlation:    15   379
 NBasis=   385 NAE=    47 NBE=    47 NFC=    14 NFV=     0
 NROrb=    365 NOA=    33 NOB=    33 NVA=   332 NVB=   332

 **** Warning!!: The largest alpha MO coefficient is  0.14960284D+03

 Orbital symmetries:
       Occupied  (A) (A) (A) (A) (A) (A) (A) (A) (A) (A) (A) (A)
                 (A) (A) (A) (A) (A) (A) (A) (A) (A) (A) (A) (A)
                 (A) (A) (A) (A) (A) (A) (A) (A) (A) (A) (A) (A)
                 (A) (A) (A) (A) (A) (A) (A) (A) (A) (A) (A)
       Virtual   (A) (A) (A) (A) (A) (A) (A) (A) (A) (A) (A) (A)
                 (A) (A) (A) (A) (A) (A) (A) (A) (A) (A) (A) (A)
                 (A) (A) (A) (A) (A) (A) (A) (A) (A) (A) (A) (A)
                 (A) (A) (A) (A) (A) (A) (A) (A) (A) (A) (A) (A)
                 (A) (A) (A) (A) (A) (A) (A) (A) (A) (A) (A) (A)
                 (A) (A) (A) (A) (A) (A) (A) (A) (A) (A) (A) (A)
                 (A) (A) (A) (A) (A) (A) (A) (A) (A) (A) (A) (A)
                 (A) (A) (A) (A) (A) (A) (A) (A) (A) (A) (A) (A)
                 (A) (A) (A) (A) (A) (A) (A) (A) (A) (A) (A) (A)
                 (A) (A) (A) (A) (A) (A) (A) (A) (A) (A) (A) (A)
                 (A) (A) (A) (A) (A) (A) (A) (A) (A) (A) (A) (A)
                 (A) (A) (A) (A) (A) (A) (A) (A) (A) (A) (A) (A)
                 (A) (A) (A) (A) (A) (A) (A) (A) (A) (A) (A) (A)
                 (A) (A) (A) (A) (A) (A) (A) (A) (A) (A) (A) (A)
                 (A) (A) (A) (A) (A) (A) (A) (A) (A) (A) (A) (A)
                 (A) (A) (A) (A) (A) (A) (A) (A) (A) (A) (A) (A)
                 (A) (A) (A) (A) (A) (A) (A) (A) (A) (A) (A) (A)
                 (A) (A) (A) (A) (A) (A) (A) (A) (A) (A) (A) (A)
                 (A) (A) (A) (A) (A) (A) (A) (A) (A) (A) (A) (A)
                 (A) (A) (A) (A) (A) (A) (A) (A) (A) (A) (A) (A)
                 (A) (A) (A) (A) (A) (A) (A) (A) (A) (A) (A) (A)
                 (A) (A) (A) (A) (A) (A) (A) (A) (A) (A) (A) (A)
                 (A) (A) (A) (A) (A) (A) (A) (A) (A) (A) (A) (A)
                 (A) (A) (A) (A) (A) (A) (A) (A) (A) (A) (A) (A)
                 (A) (A) (A) (A) (A) (A) (A) (A) (A) (A) (A) (A)
                 (A) (A) (A) (A) (A) (A) (A) (A) (A) (A) (A) (A)
                 (A) (A) (A) (A) (A) (A) (A) (A) (A) (A) (A) (A)
                 (A) (A) (A) (A) (A) (A) (A) (A)
     4 initial guesses have been made.
 Convergence on wavefunction:    0.001000000000000
 Iteration     1 Dimension     4 NMult     0 NNew      4
 CISAX will form     4 AO SS matrices at one time.
 Iteration     2 Dimension     6 NMult     4 NNew      2
 Iteration     3 Dimension     8 NMult     6 NNew      2
 Iteration     4 Dimension    10 NMult     8 NNew      2
 Iteration     5 Dimension    12 NMult    10 NNew      2
 Iteration     6 Dimension    14 NMult    12 NNew      2
 ***********************************************************************
 Excited states from <AA,BB:AA,BB> singles matrix:
 ***********************************************************************
 
 Ground to excited state transition densities written to RWF  633
 Ground to excited state transition electric dipole moments (Au):
       state          X           Y           Z        Dip. S.      Osc.
         1        -0.0060     -0.6339      0.0060      0.4019      0.0275
 Ground to excited state transition velocity dipole moments (Au):
       state          X           Y           Z        Dip. S.      Osc.
         1         0.0006      0.0727     -0.0007      0.0053      0.0343
 Ground to excited state transition magnetic dipole moments (Au):
       state          X           Y           Z
         1        -0.0077     -0.0004      0.0000
 Ground to excited state transition velocity quadrupole moments (Au):
       state          XX          YY          ZZ          XY          XZ          YZ
         1         0.3129      0.0310     -0.0095      0.0008      0.0001      0.0013
 <0|del|b> * <b|rxdel|0> + <0|del|b> * <b|delr+rdel|0>
 Rotatory Strengths (R) in cgs (10**-40 erg-esu-cm/Gauss)
       state          XX          YY          ZZ    R(velocity)    E-M Angle
         1        -0.1164     -0.0118     -0.1080     -0.0787       90.00
 1/2[<0|r|b>*<b|rxdel|0> + (<0|rxdel|b>*<b|r|0>)*]
 Rotatory Strengths (R) in cgs (10**-40 erg-esu-cm/Gauss)
       state          XX          YY          ZZ     R(length)
         1        -0.0326     -0.1816     -0.0001     -0.0714
  1/2[<0|del|b>*<b|r|0> + (<0|r|b>*<b|del|0>)*] (Au)
       state          X           Y           Z        Dip. S.   Osc.(frdel)
         1        -0.0000     -0.0461     -0.0000      0.0461      0.0307

 Excitation energies and oscillator strengths:
 
 Excited State   1:      Singlet-A      2.7949 eV  443.61 nm  f=0.0275  <S**2>=0.000
      47 -> 48         0.70427
 This state for optimization and/or second-order correction.
 Total Energy, E(TD-HF/TD-DFT) =  -539.654352921    
 Copying the excited state density for this state as the 1-particle RhoCI density.
 SavETr:  write IOETrn=   770 NScale= 10 NData=  16 NLR=1 NState=    1 LETran=      28.

 **********************************************************************

            Population analysis using the SCF Density.

 **********************************************************************

 Orbital symmetries:
       Occupied  (A) (A) (A) (A) (A) (A) (A) (A) (A) (A) (A) (A)
                 (A) (A) (A) (A) (A) (A) (A) (A) (A) (A) (A) (A)
                 (A) (A) (A) (A) (A) (A) (A) (A) (A) (A) (A) (A)
                 (A) (A) (A) (A) (A) (A) (A) (A) (A) (A) (A)
       Virtual   (A) (A) (A) (A) (A) (A) (A) (A) (A) (A) (A) (A)
                 (A) (A) (A) (A) (A) (A) (A) (A) (A) (A) (A) (A)
                 (A) (A) (A) (A) (A) (A) (A) (A) (A) (A) (A) (A)
                 (A) (A) (A) (A) (A) (A) (A) (A) (A) (A) (A) (A)
                 (A) (A) (A) (A) (A) (A) (A) (A) (A) (A) (A) (A)
                 (A) (A) (A) (A) (A) (A) (A) (A) (A) (A) (A) (A)
                 (A) (A) (A) (A) (A) (A) (A) (A) (A) (A) (A) (A)
                 (A) (A) (A) (A) (A) (A) (A) (A) (A) (A) (A) (A)
                 (A) (A) (A) (A) (A) (A) (A) (A) (A) (A) (A) (A)
                 (A) (A) (A) (A) (A) (A) (A) (A) (A) (A) (A) (A)
                 (A) (A) (A) (A) (A) (A) (A) (A) (A) (A) (A) (A)
                 (A) (A) (A) (A) (A) (A) (A) (A) (A) (A) (A) (A)
                 (A) (A) (A) (A) (A) (A) (A) (A) (A) (A) (A) (A)
                 (A) (A) (A) (A) (A) (A) (A) (A) (A) (A) (A) (A)
                 (A) (A) (A) (A) (A) (A) (A) (A) (A) (A) (A) (A)
                 (A) (A) (A) (A) (A) (A) (A) (A) (A) (A) (A) (A)
                 (A) (A) (A) (A) (A) (A) (A) (A) (A) (A) (A) (A)
                 (A) (A) (A) (A) (A) (A) (A) (A) (A) (A) (A) (A)
                 (A) (A) (A) (A) (A) (A) (A) (A) (A) (A) (A) (A)
                 (A) (A) (A) (A) (A) (A) (A) (A) (A) (A) (A) (A)
                 (A) (A) (A) (A) (A) (A) (A) (A) (A) (A) (A) (A)
                 (A) (A) (A) (A) (A) (A) (A) (A) (A) (A) (A) (A)
                 (A) (A) (A) (A) (A) (A) (A) (A) (A) (A) (A) (A)
                 (A) (A) (A) (A) (A) (A) (A) (A) (A) (A) (A) (A)
                 (A) (A) (A) (A) (A) (A) (A) (A) (A) (A) (A) (A)
                 (A) (A) (A) (A) (A) (A) (A) (A) (A) (A) (A) (A)
                 (A) (A) (A) (A) (A) (A) (A) (A) (A) (A) (A) (A)
                 (A) (A) (A) (A) (A) (A) (A) (A)
 The electronic state is 1-A.
 Alpha  occ. eigenvalues --  -10.77656 -10.73319 -10.73264 -10.72566 -10.72563
 Alpha  occ. eigenvalues --  -10.71541 -10.71512 -10.71105 -10.71095 -10.70980
 Alpha  occ. eigenvalues --  -10.70154 -10.70133 -10.69596 -10.69569  -1.16348
 Alpha  occ. eigenvalues --   -1.12147  -1.06786  -1.05827  -1.01035  -1.00191
 Alpha  occ. eigenvalues --   -0.95667  -0.91083  -0.86407  -0.85849  -0.83801
 Alpha  occ. eigenvalues --   -0.78390  -0.75998  -0.74354  -0.69592  -0.69352
 Alpha  occ. eigenvalues --   -0.68667  -0.68263  -0.68114  -0.64508  -0.64085
 Alpha  occ. eigenvalues --   -0.63205  -0.62064  -0.59873  -0.59441  -0.59168
 Alpha  occ. eigenvalues --   -0.56942  -0.55286  -0.54922  -0.52315  -0.46441
 Alpha  occ. eigenvalues --   -0.46024  -0.44355
 Alpha virt. eigenvalues --   -0.26065  -0.14856  -0.14142  -0.12970  -0.11177
 Alpha virt. eigenvalues --   -0.10079  -0.09207  -0.08021  -0.07910  -0.07465
 Alpha virt. eigenvalues --   -0.07230  -0.07142  -0.05647  -0.05583  -0.05365
 Alpha virt. eigenvalues --   -0.03778  -0.03658  -0.03285  -0.03133  -0.02152
 Alpha virt. eigenvalues --   -0.01357  -0.00907   0.00191   0.00662   0.00728
 Alpha virt. eigenvalues --    0.01037   0.01511   0.01872   0.02197   0.02299
 Alpha virt. eigenvalues --    0.02413   0.02573   0.02755   0.03246   0.03402
 Alpha virt. eigenvalues --    0.04254   0.04498   0.04682   0.04949   0.05354
 Alpha virt. eigenvalues --    0.05994   0.06283   0.06603   0.07030   0.07201
 Alpha virt. eigenvalues --    0.07847   0.08014   0.08339   0.08476   0.08937
 Alpha virt. eigenvalues --    0.09564   0.09586   0.10021   0.10753   0.11001
 Alpha virt. eigenvalues --    0.11125   0.12244   0.12285   0.12867   0.13057
 Alpha virt. eigenvalues --    0.13405   0.13528   0.14034   0.14211   0.15927
 Alpha virt. eigenvalues --    0.16401   0.16648   0.17397   0.17414   0.17658
 Alpha virt. eigenvalues --    0.18077   0.18876   0.19153   0.19572   0.19715
 Alpha virt. eigenvalues --    0.21423   0.21460   0.22646   0.23133   0.23369
 Alpha virt. eigenvalues --    0.23577   0.24537   0.24758   0.26803   0.27439
 Alpha virt. eigenvalues --    0.28823   0.29270   0.29795   0.31163   0.35791
 Alpha virt. eigenvalues --    0.36170   0.37876   0.39112   0.41156   0.41499
 Alpha virt. eigenvalues --    0.41925   0.42401   0.43044   0.43526   0.44198
 Alpha virt. eigenvalues --    0.44682   0.44707   0.45128   0.46046   0.47892
 Alpha virt. eigenvalues --    0.48626   0.48926   0.49056   0.50470   0.51164
 Alpha virt. eigenvalues --    0.51324   0.51352   0.52133   0.52451   0.54005
 Alpha virt. eigenvalues --    0.54120   0.54461   0.55764   0.55791   0.57377
 Alpha virt. eigenvalues --    0.58166   0.58748   0.61356   0.62031   0.62293
 Alpha virt. eigenvalues --    0.62885   0.63644   0.64211   0.65129   0.66963
 Alpha virt. eigenvalues --    0.70456   0.70575   0.70933   0.72065   0.72706
 Alpha virt. eigenvalues --    0.75344   0.75642   0.76130   0.76455   0.76889
 Alpha virt. eigenvalues --    0.77378   0.77644   0.78086   0.80400   0.80600
 Alpha virt. eigenvalues --    0.81138   0.81539   0.82022   0.82795   0.84715
 Alpha virt. eigenvalues --    0.86688   0.86988   0.87950   0.89564   0.90481
 Alpha virt. eigenvalues --    0.90724   0.91462   0.93074   0.94737   0.96330
 Alpha virt. eigenvalues --    0.96735   1.00449   1.01260   1.01539   1.02651
 Alpha virt. eigenvalues --    1.02945   1.03953   1.04368   1.06080   1.08841
 Alpha virt. eigenvalues --    1.19836   1.23335   1.24091   1.25443   1.27971
 Alpha virt. eigenvalues --    1.29146   1.32144   1.33577   1.35309   1.35904
 Alpha virt. eigenvalues --    1.38974   1.40203   1.40414   1.42788   1.43047
 Alpha virt. eigenvalues --    1.43315   1.44939   1.45008   1.46551   1.46803
 Alpha virt. eigenvalues --    1.47498   1.47556   1.51552   1.53595   1.55481
 Alpha virt. eigenvalues --    1.55894   1.56234   1.56287   1.57571   1.61197
 Alpha virt. eigenvalues --    1.63498   1.64082   1.64138   1.65938   1.67919
 Alpha virt. eigenvalues --    1.68483   1.68612   1.69667   1.73884   1.75885
 Alpha virt. eigenvalues --    1.76983   1.77807   1.79431   1.79889   1.80073
 Alpha virt. eigenvalues --    1.83045   1.83135   1.83276   1.83489   1.83971
 Alpha virt. eigenvalues --    1.84339   1.85745   1.85800   1.88074   1.91521
 Alpha virt. eigenvalues --    1.91646   1.94116   1.95267   1.97368   1.97582
 Alpha virt. eigenvalues --    1.99215   2.02346   2.03972   2.07566   2.11574
 Alpha virt. eigenvalues --    2.11840   2.13485   2.15074   2.18408   2.20819
 Alpha virt. eigenvalues --    2.22057   2.28335   2.29503   2.34298   2.35462
 Alpha virt. eigenvalues --    2.35918   2.39170   2.40398   2.41389   2.42148
 Alpha virt. eigenvalues --    2.45894   2.48460   2.48984   2.52603   2.53714
 Alpha virt. eigenvalues --    2.54075   2.56855   2.57764   2.58324   2.59609
 Alpha virt. eigenvalues --    2.59679   2.61473   2.61736   2.63173   2.63755
 Alpha virt. eigenvalues --    2.64166   2.64412   2.64869   2.65266   2.67734
 Alpha virt. eigenvalues --    2.68887   2.70842   2.71312   2.73384   2.74800
 Alpha virt. eigenvalues --    2.76245   2.78202   2.79513   2.82257   2.82830
 Alpha virt. eigenvalues --    2.84200   2.86292   2.92025   2.96367   2.99327
 Alpha virt. eigenvalues --    2.99588   3.05778   3.09962   3.10476   3.11490
 Alpha virt. eigenvalues --    3.20837   3.23494   3.25824   3.27607   3.30160
 Alpha virt. eigenvalues --    3.31274   3.32702   3.43305   3.44629   3.45579
 Alpha virt. eigenvalues --    3.47280   3.49229   3.56148   3.64959   3.67162
 Alpha virt. eigenvalues --    3.68058   3.94363   3.95761   3.95801   3.97164
 Alpha virt. eigenvalues --    4.04581   4.06763   4.07231   4.12418   4.35651
 Alpha virt. eigenvalues --    4.61509   4.68723   4.70408  23.45631  23.61614
 Alpha virt. eigenvalues --   23.81404  23.86060  23.87075  23.89049  23.90425
 Alpha virt. eigenvalues --   23.92268  23.96509  23.97199  23.97409  23.98985
 Alpha virt. eigenvalues --   24.09184  24.09367
          Condensed to atoms (all electrons):
               1          2          3          4          5          6
     1  C    8.334330   0.519564  -0.578952   1.643531   0.013413  -0.085392
     2  C    0.519564   6.905493   0.364425  -0.833173  -0.040649  -0.014219
     3  C   -0.578952   0.364425   6.570185   0.600345  -0.112317   0.016285
     4  C    1.643531  -0.833173   0.600345  10.352811  -0.076145  -0.111746
     5  C    0.013413  -0.040649  -0.112317  -0.076145  10.333779   0.586948
     6  C   -0.085392  -0.014219   0.016285  -0.111746   0.586948   6.567498
     7  C   -0.031421   0.006620  -0.014335  -0.041265  -0.816679   0.361311
     8  C    0.381538  -0.030422  -0.085479   0.009162   1.653389  -0.586139
     9  C   -1.351220  -0.640499   0.278465  -0.399882  -0.402619   0.279907
    10  C   -1.107157   0.173096  -0.333472  -2.335990  -2.331846  -0.329482
    11  C    0.199237  -0.948509   1.088562  -0.649222  -1.594058  -0.137611
    12  C   -1.463761   1.052116  -1.314802  -0.793721  -0.145109  -0.211258
    13  C    0.087219  -0.192459  -0.141029  -1.603067  -0.666269   1.093530
    14  C   -1.020086  -0.208638  -0.211672  -0.152630  -0.793148  -1.303702
    15  H    0.358150  -0.101341  -0.000213   0.024713   0.005400   0.001135
    16  H   -0.022574   0.380632  -0.018394   0.013210  -0.001447  -0.000313
    17  H   -0.019355  -0.022428   0.382230  -0.060233  -0.000081   0.000372
    18  H    0.044683   0.007674  -0.092913   0.443532   0.011229  -0.004662
    19  H   -0.045231  -0.008638   0.052250  -0.077259  -0.077247   0.052337
    20  H    0.007326   0.001656  -0.004672   0.011101   0.442153  -0.093387
    21  H   -0.001266  -0.000366   0.000374  -0.000063  -0.060039   0.382141
    22  H    0.000664   0.000347  -0.000315  -0.001472   0.013424  -0.018578
    23  H    0.005664  -0.002626   0.001136   0.005442   0.024457  -0.000252
    24  H    0.016350   0.014813  -0.001825  -0.013009  -0.013781  -0.001565
    25  H    0.047631   0.013321  -0.000692  -0.012763  -0.011970  -0.001034
               7          8          9         10         11         12
     1  C   -0.031421   0.381538  -1.351220  -1.107157   0.199237  -1.463761
     2  C    0.006620  -0.030422  -0.640499   0.173096  -0.948509   1.052116
     3  C   -0.014335  -0.085479   0.278465  -0.333472   1.088562  -1.314802
     4  C   -0.041265   0.009162  -0.399882  -2.335990  -0.649222  -0.793721
     5  C   -0.816679   1.653389  -0.402619  -2.331846  -1.594058  -0.145109
     6  C    0.361311  -0.586139   0.279907  -0.329482  -0.137611  -0.211258
     7  C    6.881250   0.523977  -0.628115   0.167962  -0.185148  -0.207629
     8  C    0.523977   8.321960  -1.340291  -1.105709   0.092354  -1.004878
     9  C   -0.628115  -1.340291   8.986928   0.366789   1.610479  -1.494875
    10  C    0.167962  -1.105709   0.366789   9.003666  -0.340992   1.975676
    11  C   -0.185148   0.092354   1.610479  -0.340992  14.218079  -3.514761
    12  C   -0.207629  -1.004878  -1.494875   1.975676  -3.514761  14.840668
    13  C   -0.941231   0.173772   1.606377  -0.352554   1.364493  -4.667026
    14  C    1.032990  -1.464983  -1.494106   1.972863  -4.644396   2.534659
    15  H   -0.002557   0.005606   0.085812  -0.009531  -0.020012  -0.021407
    16  H    0.000340   0.000604   0.003551  -0.009863   0.026194  -0.029704
    17  H   -0.000362  -0.001248  -0.003668   0.018440  -0.022700   0.076815
    18  H    0.001648   0.007245  -0.026961   0.025125  -0.023351  -0.037238
    19  H   -0.008747  -0.045179   0.072372   0.423672   0.085893  -0.068416
    20  H    0.008249   0.044553  -0.026930   0.025831  -0.011918  -0.006858
    21  H   -0.022689  -0.018913  -0.003665   0.018403  -0.005600   0.004208
    22  H    0.380384  -0.021921   0.003905  -0.010094   0.002605  -0.008597
    23  H   -0.100350   0.358750   0.085644  -0.009445  -0.000205   0.006220
    24  H    0.015629   0.018566   0.371741   0.006871   0.004227  -0.041720
    25  H    0.012243   0.044662   0.344683   0.005033   0.021650  -0.076296
              13         14         15         16         17         18
     1  C    0.087219  -1.020086   0.358150  -0.022574  -0.019355   0.044683
     2  C   -0.192459  -0.208638  -0.101341   0.380632  -0.022428   0.007674
     3  C   -0.141029  -0.211672  -0.000213  -0.018394   0.382230  -0.092913
     4  C   -1.603067  -0.152630   0.024713   0.013210  -0.060233   0.443532
     5  C   -0.666269  -0.793148   0.005400  -0.001447  -0.000081   0.011229
     6  C    1.093530  -1.303702   0.001135  -0.000313   0.000372  -0.004662
     7  C   -0.941231   1.032990  -0.002557   0.000340  -0.000362   0.001648
     8  C    0.173772  -1.464983   0.005606   0.000604  -0.001248   0.007245
     9  C    1.606377  -1.494106   0.085812   0.003551  -0.003668  -0.026961
    10  C   -0.352554   1.972863  -0.009531  -0.009863   0.018440   0.025125
    11  C    1.364493  -4.644396  -0.020012   0.026194  -0.022700  -0.023351
    12  C   -4.667026   2.534659  -0.021407  -0.029704   0.076815  -0.037238
    13  C   14.300237  -3.503535  -0.000007   0.002525  -0.005646  -0.012344
    14  C   -3.503535  14.847366   0.006324  -0.008479   0.004228  -0.007393
    15  H   -0.000007   0.006324   0.440660  -0.008989   0.001570   0.000117
    16  H    0.002525  -0.008479  -0.008989   0.420225  -0.007025   0.001962
    17  H   -0.005646   0.004228   0.001570  -0.007025   0.425314  -0.010606
    18  H   -0.012344  -0.007393   0.000117   0.001962  -0.010606   0.454590
    19  H    0.086339  -0.067582   0.000345  -0.000581   0.001482  -0.006386
    20  H   -0.023608  -0.037414  -0.000133   0.000016  -0.000149   0.001308
    21  H   -0.022486   0.076169   0.000019  -0.000007   0.000011  -0.000148
    22  H    0.026754  -0.030934  -0.000127   0.000007  -0.000007   0.000016
    23  H   -0.020626  -0.021432   0.000578  -0.000127   0.000019  -0.000130
    24  H    0.004072  -0.040342  -0.001618   0.000779  -0.000202   0.000150
    25  H    0.021200  -0.078006  -0.000263   0.000451  -0.000091   0.000219
              19         20         21         22         23         24
     1  C   -0.045231   0.007326  -0.001266   0.000664   0.005664   0.016350
     2  C   -0.008638   0.001656  -0.000366   0.000347  -0.002626   0.014813
     3  C    0.052250  -0.004672   0.000374  -0.000315   0.001136  -0.001825
     4  C   -0.077259   0.011101  -0.000063  -0.001472   0.005442  -0.013009
     5  C   -0.077247   0.442153  -0.060039   0.013424   0.024457  -0.013781
     6  C    0.052337  -0.093387   0.382141  -0.018578  -0.000252  -0.001565
     7  C   -0.008747   0.008249  -0.022689   0.380384  -0.100350   0.015629
     8  C   -0.045179   0.044553  -0.018913  -0.021921   0.358750   0.018566
     9  C    0.072372  -0.026930  -0.003665   0.003905   0.085644   0.371741
    10  C    0.423672   0.025831   0.018403  -0.010094  -0.009445   0.006871
    11  C    0.085893  -0.011918  -0.005600   0.002605  -0.000205   0.004227
    12  C   -0.068416  -0.006858   0.004208  -0.008597   0.006220  -0.041720
    13  C    0.086339  -0.023608  -0.022486   0.026754  -0.020626   0.004072
    14  C   -0.067582  -0.037414   0.076169  -0.030934  -0.021432  -0.040342
    15  H    0.000345  -0.000133   0.000019  -0.000127   0.000578  -0.001618
    16  H   -0.000581   0.000016  -0.000007   0.000007  -0.000127   0.000779
    17  H    0.001482  -0.000149   0.000011  -0.000007   0.000019  -0.000202
    18  H   -0.006386   0.001308  -0.000148   0.000016  -0.000130   0.000150
    19  H    0.446857  -0.006371   0.001470  -0.000577   0.000351   0.000657
    20  H   -0.006371   0.454684  -0.010522   0.001975   0.000103   0.000134
    21  H    0.001470  -0.010522   0.425018  -0.007005   0.001573  -0.000196
    22  H   -0.000577   0.001975  -0.007005   0.420242  -0.008996   0.000747
    23  H    0.000351   0.000103   0.001573  -0.008996   0.440307  -0.001471
    24  H    0.000657   0.000134  -0.000196   0.000747  -0.001471   0.491440
    25  H    0.000547   0.000242  -0.000100   0.000483  -0.000397  -0.078401
              25
     1  C    0.047631
     2  C    0.013321
     3  C   -0.000692
     4  C   -0.012763
     5  C   -0.011970
     6  C   -0.001034
     7  C    0.012243
     8  C    0.044662
     9  C    0.344683
    10  C    0.005033
    11  C    0.021650
    12  C   -0.076296
    13  C    0.021200
    14  C   -0.078006
    15  H   -0.000263
    16  H    0.000451
    17  H   -0.000091
    18  H    0.000219
    19  H    0.000547
    20  H    0.000242
    21  H   -0.000100
    22  H    0.000483
    23  H   -0.000397
    24  H   -0.078401
    25  H    0.491688
 Mulliken charges:
               1
     1  C    0.067117
     2  C   -0.395790
     3  C   -0.443175
     4  C    0.057791
     5  C    0.059211
     6  C   -0.442124
     7  C   -0.392075
     8  C    0.069023
     9  C   -0.283821
    10  C    0.092704
    11  C   -0.615288
    12  C    0.617694
    13  C   -0.614630
    14  C    0.613878
    15  H    0.235769
    16  H    0.257004
    17  H    0.243320
    18  H    0.222637
    19  H    0.187643
    20  H    0.222631
    21  H    0.243680
    22  H    0.257070
    23  H    0.235814
    24  H    0.247953
    25  H    0.255962
 Sum of Mulliken charges =   1.00000
 Mulliken charges with hydrogens summed into heavy atoms:
               1
     1  C    0.302886
     2  C   -0.138785
     3  C   -0.199854
     4  C    0.280428
     5  C    0.281842
     6  C   -0.198443
     7  C   -0.135005
     8  C    0.304837
     9  C    0.220094
    10  C    0.280347
    11  C   -0.615288
    12  C    0.617694
    13  C   -0.614630
    14  C    0.613878
 Electronic spatial extent (au):  <R**2>=           2867.8048
 Charge=              1.0000 electrons
 Dipole moment (field-independent basis, Debye):
    X=              0.0055    Y=              0.1920    Z=              0.0017  Tot=              0.1921
 Quadrupole moment (field-independent basis, Debye-Ang):
   XX=            -30.8555   YY=            -56.2588   ZZ=            -84.2390
   XY=              0.0031   XZ=              0.0049   YZ=              0.1437
 Traceless Quadrupole moment (field-independent basis, Debye-Ang):
   XX=             26.2622   YY=              0.8590   ZZ=            -27.1212
   XY=              0.0031   XZ=              0.0049   YZ=              0.1437
 Octapole moment (field-independent basis, Debye-Ang**2):
  XXX=              0.2224  YYY=              5.1963  ZZZ=             -0.0384  XYY=             -0.0029
  XXY=             -4.2233  XXZ=              0.2755  XZZ=             -0.0255  YZZ=             -3.0878
  YYZ=              0.1805  XYZ=              0.0249
 Hexadecapole moment (field-independent basis, Debye-Ang**3):
 XXXX=          -2127.2264 YYYY=           -609.4234 ZZZZ=            -99.7257 XXXY=              0.1240
 XXXZ=              0.1422 YYYX=             -0.0506 YYYZ=              1.5709 ZZZX=              0.0070
 ZZZY=              0.0657 XXYY=           -509.8228 XXZZ=           -594.0586 YYZZ=           -145.8337
 XXYZ=              1.5798 YYXZ=             -0.0002 ZZXY=              0.0027
 N-N= 7.797807614905D+02 E-N=-2.795822695753D+03  KE= 5.374194402018D+02
 Unable to Open any file for archive entry.
 1\1\GINC-GADI-CPU-CLX-0113\SP\RM062X TD-FC\6-311++G(d,p)\C14H11(1+)\TS
 1578\28-Jul-2022\0\\#n M062X/6-311++G(d,p) TD(NStates=1) EmpiricalDisp
 ersion=GD3 SP\\SP_-25\\1,1\C,0,0.02245,2.491155,1.360431\C,0,0.025625,
 3.711733,0.671989\C,0,0.0075,3.701461,-0.71383\C,0,-0.0233,2.476606,-1
 .407538\C,0,-0.0235,-2.477006,-1.407538\C,0,0.0063,-3.703461,-0.71383\
 C,0,0.023725,-3.712433,0.671989\C,0,0.01865,-2.492355,1.360431\C,0,0.0
 13075,0.0044,1.453369\C,0,-0.0366,-0.0002,-1.429189\C,0,-0.005325,1.25
 063,0.677065\C,0,-0.0154,1.239571,-0.730804\C,0,-0.005625,-1.25053,0.6
 77065\C,0,-0.0146,-1.238971,-0.730804\H,0,0.0085,2.486746,2.443647\H,0
 ,0.026125,4.644628,1.211689\H,0,-0.00405,4.607337,-1.272349\H,0,-0.011
 25,2.480675,-2.490059\H,0,-0.03375,-0.0001,-2.510266\H,0,-0.01065,-2.4
 80975,-2.490059\H,0,-0.00465,-4.609837,-1.272349\H,0,0.023825,-4.64612
 8,1.211689\H,0,0.0041,-2.488046,2.443647\H,0,-0.811585,0.001,2.144687\
 H,0,0.907585,0.001,2.146887\\Version=ES64L-G16RevC.01\State=1-A\HF=-53
 9.7570624\RMSD=4.724e-09\PG=C01 [X(C14H11)]\\@
 The archive entry for this job was punched.


 THE RARE EARTHS PERPLEX US IN OUR RESEARCHES,
 BAFFLE US IN OUR SPECULATIONS, AND HAUNT US IN OUR
 VERY DREAMS.  THEY STRETCH LIKE AN UNKNOWN BEFORE US,
 MOCKING, MYSTIFYING, AND MURMURING STRANGE REVELATIONS
 AND POSSIBILITIES.  -- SIR WILLIAM CROOKE, 1832-1919
 Job cpu time:       0 days  1 hours 19 minutes 55.2 seconds.
 Elapsed time:       0 days  0 hours  1 minutes 40.1 seconds.
 File lengths (MBytes):  RWF=    460 Int=      0 D2E=      0 Chk=     15 Scr=      1
 Normal termination of Gaussian 16 at Thu Jul 28 14:54:58 2022.
