 Entering Gaussian System, Link 0=g16
 Initial command:
 /apps/gaussian/g16c01/g16/l1.exe "/jobfs/53002009.gadi-pbs/Gau-715317.inp" -scrdir="/jobfs/53002009.gadi-pbs/"
 Entering Link 1 = /apps/gaussian/g16c01/g16/l1.exe PID=    715318.
  
 Copyright (c) 1988-2019, Gaussian, Inc.  All Rights Reserved.
  
 This is part of the Gaussian(R) 16 program.  It is based on
 the Gaussian(R) 09 system (copyright 2009, Gaussian, Inc.),
 the Gaussian(R) 03 system (copyright 2003, Gaussian, Inc.),
 the Gaussian(R) 98 system (copyright 1998, Gaussian, Inc.),
 the Gaussian(R) 94 system (copyright 1995, Gaussian, Inc.),
 the Gaussian 92(TM) system (copyright 1992, Gaussian, Inc.),
 the Gaussian 90(TM) system (copyright 1990, Gaussian, Inc.),
 the Gaussian 88(TM) system (copyright 1988, Gaussian, Inc.),
 the Gaussian 86(TM) system (copyright 1986, Carnegie Mellon
 University), and the Gaussian 82(TM) system (copyright 1983,
 Carnegie Mellon University). Gaussian is a federally registered
 trademark of Gaussian, Inc.
  
 This software contains proprietary and confidential information,
 including trade secrets, belonging to Gaussian, Inc.
  
 This software is provided under written license and may be
 used, copied, transmitted, or stored only in accord with that
 written license.
  
 The following legend is applicable only to US Government
 contracts under FAR:
  
                    RESTRICTED RIGHTS LEGEND
  
 Use, reproduction and disclosure by the US Government is
 subject to restrictions as set forth in subparagraphs (a)
 and (c) of the Commercial Computer Software - Restricted
 Rights clause in FAR 52.227-19.
  
 Gaussian, Inc.
 340 Quinnipiac St., Bldg. 40, Wallingford CT 06492
  
  
 ---------------------------------------------------------------
 Warning -- This program may not be used in any manner that
 competes with the business of Gaussian, Inc. or will provide
 assistance to any competitor of Gaussian, Inc.  The licensee
 of this program is prohibited from giving any competitor of
 Gaussian, Inc. access to this program.  By using this program,
 the user acknowledges that Gaussian, Inc. is engaged in the
 business of creating and licensing software in the field of
 computational chemistry and represents and warrants to the
 licensee that it is not a competitor of Gaussian, Inc. and that
 it will not use this program in any manner prohibited above.
 ---------------------------------------------------------------
  

 Cite this work as:
 Gaussian 16, Revision C.01,
 M. J. Frisch, G. W. Trucks, H. B. Schlegel, G. E. Scuseria, 
 M. A. Robb, J. R. Cheeseman, G. Scalmani, V. Barone, 
 G. A. Petersson, H. Nakatsuji, X. Li, M. Caricato, A. V. Marenich, 
 J. Bloino, B. G. Janesko, R. Gomperts, B. Mennucci, H. P. Hratchian, 
 J. V. Ortiz, A. F. Izmaylov, J. L. Sonnenberg, D. Williams-Young, 
 F. Ding, F. Lipparini, F. Egidi, J. Goings, B. Peng, A. Petrone, 
 T. Henderson, D. Ranasinghe, V. G. Zakrzewski, J. Gao, N. Rega, 
 G. Zheng, W. Liang, M. Hada, M. Ehara, K. Toyota, R. Fukuda, 
 J. Hasegawa, M. Ishida, T. Nakajima, Y. Honda, O. Kitao, H. Nakai, 
 T. Vreven, K. Throssell, J. A. Montgomery, Jr., J. E. Peralta, 
 F. Ogliaro, M. J. Bearpark, J. J. Heyd, E. N. Brothers, K. N. Kudin, 
 V. N. Staroverov, T. A. Keith, R. Kobayashi, J. Normand, 
 K. Raghavachari, A. P. Rendell, J. C. Burant, S. S. Iyengar, 
 J. Tomasi, M. Cossi, J. M. Millam, M. Klene, C. Adamo, R. Cammi, 
 J. W. Ochterski, R. L. Martin, K. Morokuma, O. Farkas, 
 J. B. Foresman, and D. J. Fox, Gaussian, Inc., Wallingford CT, 2019.
 
 ******************************************
 Gaussian 16:  ES64L-G16RevC.01  3-Jul-2019
                28-Jul-2022 
 ******************************************
 %NProcShared=48
 Will use up to   48 processors via shared memory.
 %mem = 190GB
 ---------------------------------------------------------------
 #n M062X/6-311++G(d,p) TD(NStates=1) EmpiricalDispersion=GD3 SP
 ---------------------------------------------------------------
 1/38=1,172=1/1;
 2/12=2,17=6,18=5,40=1/2;
 3/5=4,6=6,7=1111,11=9,25=1,30=1,74=-55,124=31/1,2,3,8;
 4//1;
 5/5=2,38=5/2;
 8/6=1,10=2,108=1/1;
 9/41=1,42=1,70=2/14;
 6/7=2,8=2,9=2,10=2/1;
 99/5=1,9=1/99;
 -------
 SP_-150
 -------
 Symbolic Z-matrix:
 Charge =  1 Multiplicity = 1
 C                     0.0333    2.49146   1.36043 
 C                     0.04065   3.71931   0.67199 
 C                     0.0112    3.71536  -0.71383 
 C                    -0.03905   2.48601  -1.40754 
 C                    -0.03895  -2.48581  -1.40754 
 C                     0.0118   -3.71436  -0.71383 
 C                     0.0416   -3.71896   0.67199 
 C                     0.0352   -2.49086   1.36043 
 C                     0.0219   -0.0022    1.45337 
 C                    -0.061     0.0001   -1.42919 
 C                    -0.0092    1.24291   0.67707 
 C                    -0.0248    1.24032  -0.7308 
 C                    -0.00905  -1.24296   0.67707 
 C                    -0.0252   -1.24062  -0.7308 
 H                     0.0094    2.48727   2.44365 
 H                     0.04105   4.6515    1.21169 
 H                    -0.0074    4.60876  -1.27235 
 H                    -0.0181    2.48975  -2.49006 
 H                    -0.05625   0.00005  -2.51027 
 H                    -0.0184   -2.4896   -2.49006 
 H                    -0.0071   -4.60751  -1.27235 
 H                     0.0422   -4.65075   1.21169 
 H                     0.0116   -2.48662   2.44365 
 H                    -0.77959  -0.0005    2.14634 
 H                     0.93959  -0.0005    2.14524 
 
                          Input orientation:                          
 ---------------------------------------------------------------------
 Center     Atomic      Atomic             Coordinates (Angstroms)
 Number     Number       Type             X           Y           Z
 ---------------------------------------------------------------------
      1          6           0        0.033300    2.491455    1.360431
      2          6           0        0.040650    3.719308    0.671989
      3          6           0        0.011200    3.715361   -0.713830
      4          6           0       -0.039050    2.486006   -1.407538
      5          6           0       -0.038950   -2.485806   -1.407538
      6          6           0        0.011800   -3.714361   -0.713830
      7          6           0        0.041600   -3.718958    0.671989
      8          6           0        0.035200   -2.490855    1.360431
      9          6           0        0.021900   -0.002200    1.453369
     10          6           0       -0.061000    0.000100   -1.429189
     11          6           0       -0.009200    1.242905    0.677065
     12          6           0       -0.024800    1.240321   -0.730804
     13          6           0       -0.009050   -1.242955    0.677065
     14          6           0       -0.025200   -1.240621   -0.730804
     15          1           0        0.009400    2.487271    2.443647
     16          1           0        0.041050    4.651503    1.211689
     17          1           0       -0.007400    4.608762   -1.272349
     18          1           0       -0.018100    2.489750   -2.490059
     19          1           0       -0.056250    0.000050   -2.510266
     20          1           0       -0.018400   -2.489600   -2.490059
     21          1           0       -0.007100   -4.607512   -1.272349
     22          1           0        0.042200   -4.650753    1.211689
     23          1           0        0.011600   -2.486621    2.443647
     24          1           0       -0.779585   -0.000500    2.146337
     25          1           0        0.939585   -0.000500    2.145237
 ---------------------------------------------------------------------
                    Distance matrix (angstroms):
                    1          2          3          4          5
     1  C    0.000000
     2  C    1.407704   0.000000
     3  C    2.408525   1.386138   0.000000
     4  C    2.768920   2.419053   1.412469   0.000000
     5  C    5.695612   6.544785   6.240050   4.971812   0.000000
     6  C    6.543330   7.561796   7.429722   6.239260   1.411791
     7  C    6.248460   7.438266   7.562441   6.544655   2.419005
     8  C    4.982310   6.248208   6.543718   5.695288   2.768967
     9  C    2.495412   3.802700   4.303153   3.792054   3.789036
    10  C    3.741353   4.272914   3.784193   2.486097   2.486098
    11  C    1.423964   2.476910   2.836907   2.427295   4.271971
    12  C    2.437617   2.849121   2.475360   1.417711   3.787109
    13  C    3.796657   4.962514   5.149747   4.272191   2.427168
    14  C    4.278443   5.154906   4.956145   3.787599   1.417266
    15  H    1.083488   2.158162   3.387900   3.851490   6.290108
    16  H    2.165177   1.077155   2.141232   3.399433   7.603153
    17  H    3.378783   2.138665   1.053781   2.127292   7.095926
    18  H    3.850833   3.393201   2.158233   1.082730   5.091998
    19  H    4.604065   4.895816   4.127380   2.719611   2.719520
    20  H    6.296019   6.967968   6.454255   5.092046   1.082723
    21  H    7.571558   8.550945   8.341612   7.094878   2.126247
    22  H    7.143762   8.387443   8.584896   7.602650   3.399107
    23  H    5.094612   6.453927   6.959471   6.289770   3.851517
    24  H    2.736470   4.084539   4.755367   4.400129   4.399467
    25  H    2.765341   4.100673   4.779517   4.445520   4.444827
                    6          7          8          9         10
     6  C    0.000000
     7  C    1.386147   0.000000
     8  C    2.408334   1.407917   0.000000
     9  C    4.298487   3.798056   2.490425   0.000000
    10  C    3.783419   4.272806   3.741135   2.883751   0.000000
    11  C    5.148739   4.962126   3.796041   1.467618   2.446130
    12  C    4.954846   5.154288   4.277679   2.513295   1.423798
    13  C    2.835996   2.476526   1.423447   1.463926   2.446261
    14  C    2.474075   2.848586   2.437211   2.511278   1.424223
    15  H    6.959160   6.454230   5.094680   2.679230   4.603242
    16  H    8.584647   8.387842   7.143909   4.660014   5.349785
    17  H    8.341864   8.551829   7.572180   5.356432   4.611641
    18  H    6.453439   6.967795   6.295676   4.664980   2.706592
    19  H    4.126580   4.895645   4.603832   3.964406   1.081087
    20  H    2.157763   3.393150   3.850863   4.662554   2.706634
    21  H    1.053575   2.138305   3.378396   5.351568   4.610596
    22  H    2.141349   1.076809   2.165025   4.654876   5.349329
    23  H    3.387773   2.158316   1.083481   2.674529   4.603033
    24  H    4.753905   4.083501   2.735579   1.059521   3.647019
    25  H    4.777846   4.099240   2.763277   1.149274   3.711831
                   11         12         13         14         15
    11  C    0.000000
    12  C    1.407958   0.000000
    13  C    2.485860   2.854646   0.000000
    14  C    2.854865   2.480942   1.407964   0.000000
    15  H    2.160927   3.410747   4.127437   4.896480   0.000000
    16  H    3.450636   3.926038   5.918865   6.204417   2.490506
    17  H    3.889629   3.411740   6.167885   5.874425   4.278976
    18  H    3.403730   2.157799   4.895288   4.124403   4.933783
    19  H    3.421400   2.169273   3.421457   2.169496   5.543630
    20  H    4.895136   4.123994   3.403658   2.157539   7.007958
    21  H    6.166652   5.872881   3.888504   3.410213   8.009048
    22  H    5.918080   6.203428   3.449860   3.925152   7.243631
    23  H    4.126816   4.895770   2.160542   3.410427   4.973892
    24  H    2.073236   3.222930   2.072723   3.222567   2.626765
    25  H    2.145176   3.277390   2.144559   3.277243   2.672695
                   16         17         18         19         20
    16  H    0.000000
    17  H    2.484878   0.000000
    18  H    4.287145   2.444002   0.000000
    19  H    5.958056   4.772321   2.490074   0.000000
    20  H    8.043744   7.202061   4.979350   2.490020   0.000000
    21  H    9.586559   9.216274   7.200977   4.771214   2.443051
    22  H    9.302256   9.587050   8.043218   5.957567   4.286863
    23  H    7.243715   8.009585   7.007611   5.543410   4.933798
    24  H    4.815407   5.790421   5.317647   4.712448   5.317066
    25  H    4.829080   5.815666   5.348315   4.760819   5.347833
                   21         22         23         24         25
    21  H    0.000000
    22  H    2.484903   0.000000
    23  H    4.278686   2.490406   0.000000
    24  H    5.788671   4.813912   2.625865   0.000000
    25  H    5.813834   4.827180   2.670394   1.719170   0.000000
 Stoichiometry    C14H11(1+)
 Framework group  C1[X(C14H11)]
 Deg. of freedom    69
 Full point group                 C1      NOp   1
 Largest Abelian subgroup         C1      NOp   1
 Largest concise Abelian subgroup C1      NOp   1
                         Standard orientation:                         
 ---------------------------------------------------------------------
 Center     Atomic      Atomic             Coordinates (Angstroms)
 Number     Number       Type             X           Y           Z
 ---------------------------------------------------------------------
      1          6           0       -2.491393   -1.360926    0.002741
      2          6           0       -3.719274   -0.672868    0.025377
      3          6           0       -3.715390    0.713264    0.026416
      4          6           0       -2.486070    1.407965   -0.008707
      5          6           0        2.485742    1.408186   -0.009192
      6          6           0        3.714332    0.713585    0.026142
      7          6           0        3.718992   -0.672554    0.025451
      8          6           0        2.490917   -1.360744    0.004054
      9          6           0        0.002265   -1.453479   -0.010994
     10          6           0       -0.000168    1.430205   -0.030468
     11          6           0       -1.242877   -0.676735   -0.024864
     12          6           0       -1.240355    0.731137   -0.009493
     13          6           0        1.242983   -0.676626   -0.025007
     14          6           0        1.240587    0.731258   -0.010185
     15          1           0       -2.487166   -2.443354   -0.044980
     16          1           0       -4.651446   -1.212488    0.014015
     17          1           0       -4.608816    1.272016    0.020211
     18          1           0       -2.489857    2.489763    0.036050
     19          1           0       -0.000163    2.510916   -0.001940
     20          1           0        2.489492    2.489994    0.035164
     21          1           0        4.607458    1.272425    0.019427
     22          1           0        4.650810   -1.212094    0.014070
     23          1           0        2.486727   -2.443179   -0.043366
     24          1           0        0.000499   -2.128649   -0.827528
     25          1           0        0.000703   -2.165365    0.891251
 ---------------------------------------------------------------------
 Rotational constants (GHZ):           2.1344548           0.4404703           0.3659489
 Standard basis: 6-311++G(d,p) (5D, 7F)
 There are   399 symmetry adapted cartesian basis functions of A   symmetry.
 There are   385 symmetry adapted basis functions of A   symmetry.
   385 basis functions,   603 primitive gaussians,   399 cartesian basis functions
    47 alpha electrons       47 beta electrons
       nuclear repulsion energy       778.8008391529 Hartrees.
 NAtoms=   25 NActive=   25 NUniq=   25 SFac= 1.00D+00 NAtFMM=   60 NAOKFM=F Big=F
 Integral buffers will be    131072 words long.
 Regular integral format.
 Two-electron integral symmetry is turned on.
 Nuclear repulsion after empirical dispersion term =      778.7998587467 Hartrees.
 One-electron integrals computed using PRISM.
 NBasis=   385 RedAO= T EigKep=  1.57D-06  NBF=   385
 NBsUse=   379 1.00D-06 EigRej=  9.24D-07 NBFU=   379
 ExpMin= 3.60D-02 ExpMax= 4.56D+03 ExpMxC= 6.82D+02 IAcc=3 IRadAn=         5 AccDes= 0.00D+00
 Harris functional with IExCor= 1009 and IRadAn=       5 diagonalized for initial guess.
 HarFok:  IExCor= 1009 AccDes= 0.00D+00 IRadAn=         5 IDoV= 1 UseB2=F ITyADJ=14
 ICtDFT=  3500011 ScaDFX=  1.000000  1.000000  1.000000  1.000000
 FoFCou: FMM=F IPFlag=           0 FMFlag=      100000 FMFlg1=           0
         NFxFlg=           0 DoJE=T BraDBF=F KetDBF=T FulRan=T
         wScrn=  0.000000 ICntrl=       500 IOpCl=  0 I1Cent=   200000004 NGrid=           0
         NMat0=    1 NMatS0=      1 NMatT0=    0 NMatD0=    1 NMtDS0=    0 NMtDT0=    0
 Petite list used in FoFCou.
 Requested convergence on RMS density matrix=1.00D-08 within 128 cycles.
 Requested convergence on MAX density matrix=1.00D-06.
 Requested convergence on             energy=1.00D-06.
 No special actions if energy rises.
 SCF Done:  E(RM062X) =  -539.752328416     A.U. after   15 cycles
            NFock= 15  Conv=0.52D-08     -V/T= 2.0044
 DoSCS=F DFT=T ScalE2(SS,OS)=  1.000000  1.000000
 ExpMin= 3.60D-02 ExpMax= 4.56D+03 ExpMxC= 6.82D+02 IAcc=3 IRadAn=         5 AccDes= 0.00D+00
 HarFok:  IExCor=  205 AccDes= 0.00D+00 IRadAn=         5 IDoV=-2 UseB2=F ITyADJ=14
 ICtDFT= 12500011 ScaDFX=  1.000000  1.000000  1.000000  1.000000
 Range of M.O.s used for correlation:    15   379
 NBasis=   385 NAE=    47 NBE=    47 NFC=    14 NFV=     0
 NROrb=    365 NOA=    33 NOB=    33 NVA=   332 NVB=   332

 **** Warning!!: The largest alpha MO coefficient is  0.14826373D+03

 Orbital symmetries:
       Occupied  (A) (A) (A) (A) (A) (A) (A) (A) (A) (A) (A) (A)
                 (A) (A) (A) (A) (A) (A) (A) (A) (A) (A) (A) (A)
                 (A) (A) (A) (A) (A) (A) (A) (A) (A) (A) (A) (A)
                 (A) (A) (A) (A) (A) (A) (A) (A) (A) (A) (A)
       Virtual   (A) (A) (A) (A) (A) (A) (A) (A) (A) (A) (A) (A)
                 (A) (A) (A) (A) (A) (A) (A) (A) (A) (A) (A) (A)
                 (A) (A) (A) (A) (A) (A) (A) (A) (A) (A) (A) (A)
                 (A) (A) (A) (A) (A) (A) (A) (A) (A) (A) (A) (A)
                 (A) (A) (A) (A) (A) (A) (A) (A) (A) (A) (A) (A)
                 (A) (A) (A) (A) (A) (A) (A) (A) (A) (A) (A) (A)
                 (A) (A) (A) (A) (A) (A) (A) (A) (A) (A) (A) (A)
                 (A) (A) (A) (A) (A) (A) (A) (A) (A) (A) (A) (A)
                 (A) (A) (A) (A) (A) (A) (A) (A) (A) (A) (A) (A)
                 (A) (A) (A) (A) (A) (A) (A) (A) (A) (A) (A) (A)
                 (A) (A) (A) (A) (A) (A) (A) (A) (A) (A) (A) (A)
                 (A) (A) (A) (A) (A) (A) (A) (A) (A) (A) (A) (A)
                 (A) (A) (A) (A) (A) (A) (A) (A) (A) (A) (A) (A)
                 (A) (A) (A) (A) (A) (A) (A) (A) (A) (A) (A) (A)
                 (A) (A) (A) (A) (A) (A) (A) (A) (A) (A) (A) (A)
                 (A) (A) (A) (A) (A) (A) (A) (A) (A) (A) (A) (A)
                 (A) (A) (A) (A) (A) (A) (A) (A) (A) (A) (A) (A)
                 (A) (A) (A) (A) (A) (A) (A) (A) (A) (A) (A) (A)
                 (A) (A) (A) (A) (A) (A) (A) (A) (A) (A) (A) (A)
                 (A) (A) (A) (A) (A) (A) (A) (A) (A) (A) (A) (A)
                 (A) (A) (A) (A) (A) (A) (A) (A) (A) (A) (A) (A)
                 (A) (A) (A) (A) (A) (A) (A) (A) (A) (A) (A) (A)
                 (A) (A) (A) (A) (A) (A) (A) (A) (A) (A) (A) (A)
                 (A) (A) (A) (A) (A) (A) (A) (A) (A) (A) (A) (A)
                 (A) (A) (A) (A) (A) (A) (A) (A) (A) (A) (A) (A)
                 (A) (A) (A) (A) (A) (A) (A) (A) (A) (A) (A) (A)
                 (A) (A) (A) (A) (A) (A) (A) (A) (A) (A) (A) (A)
                 (A) (A) (A) (A) (A) (A) (A) (A)
     4 initial guesses have been made.
 Convergence on wavefunction:    0.001000000000000
 Iteration     1 Dimension     4 NMult     0 NNew      4
 CISAX will form     4 AO SS matrices at one time.
 Iteration     2 Dimension     6 NMult     4 NNew      2
 Iteration     3 Dimension     8 NMult     6 NNew      2
 Iteration     4 Dimension    10 NMult     8 NNew      2
 Iteration     5 Dimension    12 NMult    10 NNew      2
 Iteration     6 Dimension    14 NMult    12 NNew      2
 ***********************************************************************
 Excited states from <AA,BB:AA,BB> singles matrix:
 ***********************************************************************
 
 Ground to excited state transition densities written to RWF  633
 Ground to excited state transition electric dipole moments (Au):
       state          X           Y           Z        Dip. S.      Osc.
         1         0.0030     -0.6267      0.0096      0.3928      0.0267
 Ground to excited state transition velocity dipole moments (Au):
       state          X           Y           Z        Dip. S.      Osc.
         1        -0.0003      0.0712     -0.0012      0.0051      0.0332
 Ground to excited state transition magnetic dipole moments (Au):
       state          X           Y           Z
         1        -0.0127      0.0002      0.0001
 Ground to excited state transition velocity quadrupole moments (Au):
       state          XX          YY          ZZ          XY          XZ          YZ
         1         0.3217      0.0279     -0.0092     -0.0004     -0.0000      0.0020
 <0|del|b> * <b|rxdel|0> + <0|del|b> * <b|delr+rdel|0>
 Rotatory Strengths (R) in cgs (10**-40 erg-esu-cm/Gauss)
       state          XX          YY          ZZ    R(velocity)    E-M Angle
         1         0.0648      0.0093      0.0573      0.0438       90.00
 1/2[<0|r|b>*<b|rxdel|0> + (<0|rxdel|b>*<b|r|0>)*]
 Rotatory Strengths (R) in cgs (10**-40 erg-esu-cm/Gauss)
       state          XX          YY          ZZ     R(length)
         1         0.0271      0.0944     -0.0006      0.0403
  1/2[<0|del|b>*<b|r|0> + (<0|r|b>*<b|del|0>)*] (Au)
       state          X           Y           Z        Dip. S.   Osc.(frdel)
         1        -0.0000     -0.0446     -0.0000      0.0446      0.0298

 Excitation energies and oscillator strengths:
 
 Excited State   1:      Singlet-A      2.7718 eV  447.30 nm  f=0.0267  <S**2>=0.000
      47 -> 48         0.70427
 This state for optimization and/or second-order correction.
 Total Energy, E(TD-HF/TD-DFT) =  -539.650465510    
 Copying the excited state density for this state as the 1-particle RhoCI density.
 SavETr:  write IOETrn=   770 NScale= 10 NData=  16 NLR=1 NState=    1 LETran=      28.

 **********************************************************************

            Population analysis using the SCF Density.

 **********************************************************************

 Orbital symmetries:
       Occupied  (A) (A) (A) (A) (A) (A) (A) (A) (A) (A) (A) (A)
                 (A) (A) (A) (A) (A) (A) (A) (A) (A) (A) (A) (A)
                 (A) (A) (A) (A) (A) (A) (A) (A) (A) (A) (A) (A)
                 (A) (A) (A) (A) (A) (A) (A) (A) (A) (A) (A)
       Virtual   (A) (A) (A) (A) (A) (A) (A) (A) (A) (A) (A) (A)
                 (A) (A) (A) (A) (A) (A) (A) (A) (A) (A) (A) (A)
                 (A) (A) (A) (A) (A) (A) (A) (A) (A) (A) (A) (A)
                 (A) (A) (A) (A) (A) (A) (A) (A) (A) (A) (A) (A)
                 (A) (A) (A) (A) (A) (A) (A) (A) (A) (A) (A) (A)
                 (A) (A) (A) (A) (A) (A) (A) (A) (A) (A) (A) (A)
                 (A) (A) (A) (A) (A) (A) (A) (A) (A) (A) (A) (A)
                 (A) (A) (A) (A) (A) (A) (A) (A) (A) (A) (A) (A)
                 (A) (A) (A) (A) (A) (A) (A) (A) (A) (A) (A) (A)
                 (A) (A) (A) (A) (A) (A) (A) (A) (A) (A) (A) (A)
                 (A) (A) (A) (A) (A) (A) (A) (A) (A) (A) (A) (A)
                 (A) (A) (A) (A) (A) (A) (A) (A) (A) (A) (A) (A)
                 (A) (A) (A) (A) (A) (A) (A) (A) (A) (A) (A) (A)
                 (A) (A) (A) (A) (A) (A) (A) (A) (A) (A) (A) (A)
                 (A) (A) (A) (A) (A) (A) (A) (A) (A) (A) (A) (A)
                 (A) (A) (A) (A) (A) (A) (A) (A) (A) (A) (A) (A)
                 (A) (A) (A) (A) (A) (A) (A) (A) (A) (A) (A) (A)
                 (A) (A) (A) (A) (A) (A) (A) (A) (A) (A) (A) (A)
                 (A) (A) (A) (A) (A) (A) (A) (A) (A) (A) (A) (A)
                 (A) (A) (A) (A) (A) (A) (A) (A) (A) (A) (A) (A)
                 (A) (A) (A) (A) (A) (A) (A) (A) (A) (A) (A) (A)
                 (A) (A) (A) (A) (A) (A) (A) (A) (A) (A) (A) (A)
                 (A) (A) (A) (A) (A) (A) (A) (A) (A) (A) (A) (A)
                 (A) (A) (A) (A) (A) (A) (A) (A) (A) (A) (A) (A)
                 (A) (A) (A) (A) (A) (A) (A) (A) (A) (A) (A) (A)
                 (A) (A) (A) (A) (A) (A) (A) (A) (A) (A) (A) (A)
                 (A) (A) (A) (A) (A) (A) (A) (A) (A) (A) (A) (A)
                 (A) (A) (A) (A) (A) (A) (A) (A)
 The electronic state is 1-A.
 Alpha  occ. eigenvalues --  -10.77653 -10.73345 -10.73317 -10.72656 -10.72654
 Alpha  occ. eigenvalues --  -10.71641 -10.71627 -10.71168 -10.71163 -10.70979
 Alpha  occ. eigenvalues --  -10.70267 -10.70257 -10.69565 -10.69551  -1.16291
 Alpha  occ. eigenvalues --   -1.11932  -1.06694  -1.05879  -1.00897  -1.00142
 Alpha  occ. eigenvalues --   -0.95592  -0.91095  -0.86404  -0.85817  -0.83788
 Alpha  occ. eigenvalues --   -0.78397  -0.75968  -0.74310  -0.69633  -0.69472
 Alpha  occ. eigenvalues --   -0.68825  -0.68281  -0.68048  -0.64364  -0.63956
 Alpha  occ. eigenvalues --   -0.63246  -0.62187  -0.59767  -0.59277  -0.59208
 Alpha  occ. eigenvalues --   -0.56983  -0.55325  -0.54954  -0.52235  -0.46378
 Alpha  occ. eigenvalues --   -0.45938  -0.44248
 Alpha virt. eigenvalues --   -0.26057  -0.15005  -0.14177  -0.13113  -0.11178
 Alpha virt. eigenvalues --   -0.10077  -0.09192  -0.08057  -0.07869  -0.07457
 Alpha virt. eigenvalues --   -0.07262  -0.07126  -0.05651  -0.05585  -0.05389
 Alpha virt. eigenvalues --   -0.03753  -0.03703  -0.03293  -0.03131  -0.02133
 Alpha virt. eigenvalues --   -0.01354  -0.00903   0.00193   0.00707   0.00774
 Alpha virt. eigenvalues --    0.01021   0.01506   0.01803   0.02191   0.02311
 Alpha virt. eigenvalues --    0.02367   0.02468   0.02850   0.03208   0.03417
 Alpha virt. eigenvalues --    0.04263   0.04495   0.04659   0.04915   0.05350
 Alpha virt. eigenvalues --    0.05908   0.06275   0.06618   0.07009   0.07140
 Alpha virt. eigenvalues --    0.07807   0.07909   0.08274   0.08471   0.08942
 Alpha virt. eigenvalues --    0.09572   0.09612   0.09998   0.10636   0.10975
 Alpha virt. eigenvalues --    0.11137   0.12294   0.12304   0.12837   0.13106
 Alpha virt. eigenvalues --    0.13416   0.13497   0.14042   0.14068   0.15671
 Alpha virt. eigenvalues --    0.16425   0.16778   0.16927   0.17454   0.17636
 Alpha virt. eigenvalues --    0.18028   0.18688   0.19113   0.19521   0.19691
 Alpha virt. eigenvalues --    0.21325   0.21359   0.22381   0.23096   0.23131
 Alpha virt. eigenvalues --    0.23595   0.24354   0.24499   0.26678   0.27303
 Alpha virt. eigenvalues --    0.28795   0.29226   0.29696   0.31036   0.35750
 Alpha virt. eigenvalues --    0.35970   0.37471   0.38995   0.41137   0.41543
 Alpha virt. eigenvalues --    0.41888   0.42539   0.43015   0.43411   0.43699
 Alpha virt. eigenvalues --    0.43927   0.44588   0.44659   0.46008   0.47795
 Alpha virt. eigenvalues --    0.48691   0.48937   0.48982   0.50493   0.50928
 Alpha virt. eigenvalues --    0.51151   0.51239   0.52128   0.52146   0.53966
 Alpha virt. eigenvalues --    0.54105   0.54358   0.55767   0.55902   0.57178
 Alpha virt. eigenvalues --    0.58087   0.58651   0.61248   0.61969   0.62192
 Alpha virt. eigenvalues --    0.62609   0.62991   0.63730   0.65100   0.66763
 Alpha virt. eigenvalues --    0.70488   0.70540   0.70762   0.71513   0.72598
 Alpha virt. eigenvalues --    0.74594   0.75232   0.75922   0.75982   0.76620
 Alpha virt. eigenvalues --    0.76995   0.77465   0.77955   0.80371   0.80589
 Alpha virt. eigenvalues --    0.80863   0.81852   0.81907   0.82591   0.84077
 Alpha virt. eigenvalues --    0.85813   0.86171   0.87584   0.89243   0.90520
 Alpha virt. eigenvalues --    0.90914   0.91440   0.93130   0.94799   0.96113
 Alpha virt. eigenvalues --    0.96875   1.00307   1.01103   1.01653   1.02427
 Alpha virt. eigenvalues --    1.03126   1.04039   1.04256   1.06903   1.09100
 Alpha virt. eigenvalues --    1.19881   1.23252   1.24121   1.25800   1.28011
 Alpha virt. eigenvalues --    1.28738   1.32258   1.33197   1.34878   1.35873
 Alpha virt. eigenvalues --    1.38549   1.40004   1.40202   1.42712   1.42732
 Alpha virt. eigenvalues --    1.43126   1.44735   1.44782   1.46793   1.46895
 Alpha virt. eigenvalues --    1.47166   1.47547   1.51397   1.53613   1.55260
 Alpha virt. eigenvalues --    1.55568   1.55994   1.56768   1.57452   1.61047
 Alpha virt. eigenvalues --    1.63654   1.64368   1.64445   1.65825   1.67609
 Alpha virt. eigenvalues --    1.68387   1.68717   1.69584   1.73509   1.75694
 Alpha virt. eigenvalues --    1.76830   1.77482   1.78910   1.79608   1.79677
 Alpha virt. eigenvalues --    1.82845   1.82888   1.83017   1.83212   1.83780
 Alpha virt. eigenvalues --    1.84344   1.85670   1.85922   1.87996   1.91264
 Alpha virt. eigenvalues --    1.91592   1.94042   1.95319   1.97184   1.97228
 Alpha virt. eigenvalues --    1.98901   2.02170   2.03644   2.07500   2.11419
 Alpha virt. eigenvalues --    2.11648   2.13020   2.14958   2.17994   2.20141
 Alpha virt. eigenvalues --    2.21598   2.28147   2.28920   2.33986   2.35588
 Alpha virt. eigenvalues --    2.35987   2.38586   2.40177   2.40686   2.41480
 Alpha virt. eigenvalues --    2.45404   2.47526   2.49798   2.53021   2.53588
 Alpha virt. eigenvalues --    2.54049   2.56779   2.57763   2.58420   2.59519
 Alpha virt. eigenvalues --    2.59819   2.60870   2.61755   2.62676   2.63023
 Alpha virt. eigenvalues --    2.63381   2.64487   2.64621   2.65402   2.67548
 Alpha virt. eigenvalues --    2.69151   2.70776   2.71206   2.73457   2.74718
 Alpha virt. eigenvalues --    2.76276   2.77862   2.79418   2.81962   2.82522
 Alpha virt. eigenvalues --    2.83892   2.86379   2.91973   2.95438   2.99268
 Alpha virt. eigenvalues --    2.99297   3.06141   3.09103   3.09742   3.10369
 Alpha virt. eigenvalues --    3.20497   3.22902   3.25191   3.27100   3.29730
 Alpha virt. eigenvalues --    3.30186   3.31852   3.43187   3.43260   3.45107
 Alpha virt. eigenvalues --    3.46317   3.48623   3.55879   3.64063   3.67000
 Alpha virt. eigenvalues --    3.69102   3.94154   3.95702   3.96731   3.98141
 Alpha virt. eigenvalues --    4.04630   4.06140   4.07783   4.12326   4.35617
 Alpha virt. eigenvalues --    4.61360   4.67786   4.69377  23.45824  23.62321
 Alpha virt. eigenvalues --   23.80723  23.86146  23.86343  23.88928  23.90196
 Alpha virt. eigenvalues --   23.92621  23.95382  23.95699  23.95869  23.98155
 Alpha virt. eigenvalues --   24.08414  24.08619
          Condensed to atoms (all electrons):
               1          2          3          4          5          6
     1  C    8.204585   0.621077  -0.594596   1.446252   0.013767  -0.077385
     2  C    0.621077   6.692878   0.359996  -0.609263  -0.055331  -0.014677
     3  C   -0.594596   0.359996   6.560853   0.430567  -0.102920   0.016123
     4  C    1.446252  -0.609263   0.430567   9.904637   0.130009  -0.102941
     5  C    0.013767  -0.055331  -0.102920   0.130009   9.916193   0.438053
     6  C   -0.077385  -0.014677   0.016123  -0.102941   0.438053   6.561810
     7  C   -0.035509   0.010485  -0.014621  -0.055062  -0.617517   0.361047
     8  C    0.358865  -0.035488  -0.077371   0.014279   1.442128  -0.590520
     9  C   -1.420505  -0.460552   0.249060  -0.554681  -0.549665   0.248808
    10  C   -0.978477   0.082862  -0.288709  -2.109789  -2.115149  -0.289905
    11  C    0.119922  -0.913053   1.111097  -1.063411  -1.650419  -0.108695
    12  C   -1.166993   0.755049  -1.204920  -0.231584   0.014586  -0.213473
    13  C    0.056918  -0.138517  -0.106904  -1.643957  -1.046687   1.107244
    14  C   -0.976839  -0.204232  -0.213172   0.023089  -0.238323  -1.210536
    15  H    0.352482  -0.096434   0.000694   0.021538   0.004794   0.001220
    16  H   -0.026319   0.383379  -0.019529   0.012345  -0.001347  -0.000306
    17  H   -0.014770  -0.028529   0.388860  -0.052778  -0.000315   0.000341
    18  H    0.041583   0.012550  -0.100015   0.432586   0.013508  -0.004261
    19  H   -0.042308  -0.009831   0.052478  -0.079173  -0.079343   0.052398
    20  H    0.006822   0.001366  -0.004262   0.013593   0.433390  -0.099852
    21  H   -0.001147  -0.000331   0.000340  -0.000326  -0.052924   0.388903
    22  H    0.000522   0.000322  -0.000305  -0.001331   0.012290  -0.019482
    23  H    0.005667  -0.002371   0.001220   0.004768   0.021698   0.000694
    24  H    0.007617   0.015329  -0.001152  -0.014960  -0.014638  -0.001263
    25  H    0.055088   0.011343  -0.001158  -0.011161  -0.011506  -0.001005
               7          8          9         10         11         12
     1  C   -0.035509   0.358865  -1.420505  -0.978477   0.119922  -1.166993
     2  C    0.010485  -0.035488  -0.460552   0.082862  -0.913053   0.755049
     3  C   -0.014621  -0.077371   0.249060  -0.288709   1.111097  -1.204920
     4  C   -0.055062   0.014279  -0.554681  -2.109789  -1.063411  -0.231584
     5  C   -0.617517   1.442128  -0.549665  -2.115149  -1.650419   0.014586
     6  C    0.361047  -0.590520   0.248808  -0.289905  -0.108695  -0.213473
     7  C    6.703999   0.619027  -0.467221   0.085871  -0.141697  -0.203865
     8  C    0.619027   8.212063  -1.424097  -0.979703   0.057518  -0.984695
     9  C   -0.467221  -1.424097   8.298309   0.551816   1.379025  -0.926351
    10  C    0.085871  -0.979703   0.551816   8.670541  -0.085346   1.479891
    11  C   -0.141697   0.057518   1.379025  -0.085346  13.544676  -2.963972
    12  C   -0.203865  -0.984695  -0.926351   1.479891  -2.963972  13.468000
    13  C   -0.918889   0.132416   1.379685  -0.078400   1.489186  -4.246484
    14  C    0.767740  -1.172067  -0.929711   1.485292  -4.261570   2.072609
    15  H   -0.002404   0.005698   0.077729  -0.009006  -0.011318  -0.017443
    16  H    0.000326   0.000553   0.002908  -0.009935   0.024014  -0.024744
    17  H   -0.000334  -0.001157  -0.001275   0.014718  -0.014509   0.060031
    18  H    0.001375   0.006848  -0.027949   0.032128  -0.031973  -0.028753
    19  H   -0.009786  -0.042308   0.067445   0.425739   0.085844  -0.066198
    20  H    0.012266   0.041690  -0.027996   0.031695  -0.010636  -0.003847
    21  H   -0.028426  -0.015031  -0.001249   0.014729  -0.005000   0.002951
    22  H    0.383428  -0.026524   0.002749  -0.009798   0.001739  -0.007727
    23  H   -0.096996   0.352214   0.077962  -0.009061  -0.001589   0.005442
    24  H    0.014953   0.006457   0.382512   0.008950  -0.001494  -0.028222
    25  H    0.011827   0.056659   0.335141   0.003403   0.022804  -0.084643
              13         14         15         16         17         18
     1  C    0.056918  -0.976839   0.352482  -0.026319  -0.014770   0.041583
     2  C   -0.138517  -0.204232  -0.096434   0.383379  -0.028529   0.012550
     3  C   -0.106904  -0.213172   0.000694  -0.019529   0.388860  -0.100015
     4  C   -1.643957   0.023089   0.021538   0.012345  -0.052778   0.432586
     5  C   -1.046687  -0.238323   0.004794  -0.001347  -0.000315   0.013508
     6  C    1.107244  -1.210536   0.001220  -0.000306   0.000341  -0.004261
     7  C   -0.918889   0.767740  -0.002404   0.000326  -0.000334   0.001375
     8  C    0.132416  -1.172067   0.005698   0.000553  -0.001157   0.006848
     9  C    1.379685  -0.929711   0.077729   0.002908  -0.001275  -0.027949
    10  C   -0.078400   1.485292  -0.009006  -0.009935   0.014718   0.032128
    11  C    1.489186  -4.261570  -0.011318   0.024014  -0.014509  -0.031973
    12  C   -4.246484   2.072609  -0.017443  -0.024744   0.060031  -0.028753
    13  C   13.497269  -2.970304  -0.001684   0.001796  -0.004994  -0.010360
    14  C   -2.970304  13.472970   0.005377  -0.007801   0.002947  -0.003555
    15  H   -0.001684   0.005377   0.442818  -0.008909   0.001608   0.000027
    16  H    0.001796  -0.007801  -0.008909   0.420966  -0.007292   0.001981
    17  H   -0.004994   0.002947   0.001608  -0.007292   0.427531  -0.010963
    18  H   -0.010360  -0.003555   0.000027   0.001981  -0.010963   0.457788
    19  H    0.085242  -0.066909   0.000427  -0.000606   0.001440  -0.005974
    20  H   -0.031865  -0.028525  -0.000156   0.000018  -0.000146   0.001173
    21  H   -0.014522   0.060347   0.000027  -0.000007   0.000011  -0.000147
    22  H    0.023690  -0.024186  -0.000130   0.000007  -0.000007   0.000018
    23  H   -0.010968  -0.017582   0.000543  -0.000130   0.000028  -0.000157
    24  H   -0.001639  -0.028993  -0.001917   0.000811  -0.000217   0.000073
    25  H    0.023028  -0.083669  -0.000009   0.000401  -0.000095   0.000336
              19         20         21         22         23         24
     1  C   -0.042308   0.006822  -0.001147   0.000522   0.005667   0.007617
     2  C   -0.009831   0.001366  -0.000331   0.000322  -0.002371   0.015329
     3  C    0.052478  -0.004262   0.000340  -0.000305   0.001220  -0.001152
     4  C   -0.079173   0.013593  -0.000326  -0.001331   0.004768  -0.014960
     5  C   -0.079343   0.433390  -0.052924   0.012290   0.021698  -0.014638
     6  C    0.052398  -0.099852   0.388903  -0.019482   0.000694  -0.001263
     7  C   -0.009786   0.012266  -0.028426   0.383428  -0.096996   0.014953
     8  C   -0.042308   0.041690  -0.015031  -0.026524   0.352214   0.006457
     9  C    0.067445  -0.027996  -0.001249   0.002749   0.077962   0.382512
    10  C    0.425739   0.031695   0.014729  -0.009798  -0.009061   0.008950
    11  C    0.085844  -0.010636  -0.005000   0.001739  -0.001589  -0.001494
    12  C   -0.066198  -0.003847   0.002951  -0.007727   0.005442  -0.028222
    13  C    0.085242  -0.031865  -0.014522   0.023690  -0.010968  -0.001639
    14  C   -0.066909  -0.028525   0.060347  -0.024186  -0.017582  -0.028993
    15  H    0.000427  -0.000156   0.000027  -0.000130   0.000543  -0.001917
    16  H   -0.000606   0.000018  -0.000007   0.000007  -0.000130   0.000811
    17  H    0.001440  -0.000146   0.000011  -0.000007   0.000028  -0.000217
    18  H   -0.005974   0.001173  -0.000147   0.000018  -0.000157   0.000073
    19  H    0.449951  -0.005999   0.001447  -0.000609   0.000425   0.000783
    20  H   -0.005999   0.457717  -0.011010   0.001978   0.000037   0.000079
    21  H    0.001447  -0.011010   0.427704  -0.007301   0.001604  -0.000218
    22  H   -0.000609   0.001978  -0.007301   0.420940  -0.008910   0.000826
    23  H    0.000425   0.000037   0.001604  -0.008910   0.443057  -0.002012
    24  H    0.000783   0.000079  -0.000218   0.000826  -0.002012   0.489697
    25  H    0.000320   0.000325  -0.000091   0.000385   0.000068  -0.077120
              25
     1  C    0.055088
     2  C    0.011343
     3  C   -0.001158
     4  C   -0.011161
     5  C   -0.011506
     6  C   -0.001005
     7  C    0.011827
     8  C    0.056659
     9  C    0.335141
    10  C    0.003403
    11  C    0.022804
    12  C   -0.084643
    13  C    0.023028
    14  C   -0.083669
    15  H   -0.000009
    16  H    0.000401
    17  H   -0.000095
    18  H    0.000336
    19  H    0.000320
    20  H    0.000325
    21  H   -0.000091
    22  H    0.000385
    23  H    0.000068
    24  H   -0.077120
    25  H    0.489482
 Mulliken charges:
               1
     1  C    0.043681
     2  C   -0.378025
     3  C   -0.441654
     4  C    0.096751
     5  C    0.095667
     6  C   -0.442338
     7  C   -0.380016
     8  C    0.042546
     9  C   -0.261897
    10  C    0.075642
    11  C   -0.571143
    12  C    0.545356
    13  C   -0.570301
    14  C    0.547604
    15  H    0.234425
    16  H    0.257418
    17  H    0.239867
    18  H    0.222131
    19  H    0.185105
    20  H    0.222143
    21  H    0.239667
    22  H    0.257416
    23  H    0.234349
    24  H    0.245760
    25  H    0.259845
 Sum of Mulliken charges =   1.00000
 Mulliken charges with hydrogens summed into heavy atoms:
               1
     1  C    0.278107
     2  C   -0.120607
     3  C   -0.201788
     4  C    0.318883
     5  C    0.317810
     6  C   -0.202672
     7  C   -0.122600
     8  C    0.276896
     9  C    0.243708
    10  C    0.260747
    11  C   -0.571143
    12  C    0.545356
    13  C   -0.570301
    14  C    0.547604
 Electronic spatial extent (au):  <R**2>=           2875.9242
 Charge=              1.0000 electrons
 Dipole moment (field-independent basis, Debye):
    X=             -0.0028    Y=              0.1930    Z=              0.0051  Tot=              0.1931
 Quadrupole moment (field-independent basis, Debye-Ang):
   XX=            -30.6863   YY=            -56.2541   ZZ=            -84.3034
   XY=             -0.0016   XZ=             -0.0025   YZ=              0.2404
 Traceless Quadrupole moment (field-independent basis, Debye-Ang):
   XX=             26.3950   YY=              0.8272   ZZ=            -27.2221
   XY=             -0.0016   XZ=             -0.0025   YZ=              0.2404
 Octapole moment (field-independent basis, Debye-Ang**2):
  XXX=             -0.1126  YYY=              5.1677  ZZZ=             -0.0523  XYY=              0.0018
  XXY=             -3.6146  XXZ=              0.4890  XZZ=              0.0124  YZZ=             -3.0937
  YYZ=              0.2936  XYZ=             -0.0125
 Hexadecapole moment (field-independent basis, Debye-Ang**3):
 XXXX=          -2130.5783 YYYY=           -609.7114 ZZZZ=           -100.0920 XXXY=             -0.0618
 XXXZ=             -0.0727 YYYX=              0.0248 YYYZ=              2.6508 ZZZX=             -0.0037
 ZZZY=              0.1034 XXYY=           -511.3175 XXZZ=           -596.2921 YYZZ=           -145.9277
 XXYZ=              2.6461 YYXZ=              0.0003 ZZXY=             -0.0014
 N-N= 7.787998587467D+02 E-N=-2.793803956352D+03  KE= 5.373627808482D+02
 Unable to Open any file for archive entry.
 1\1\GINC-GADI-CPU-CLX-0113\SP\RM062X TD-FC\6-311++G(d,p)\C14H11(1+)\TS
 1578\28-Jul-2022\0\\#n M062X/6-311++G(d,p) TD(NStates=1) EmpiricalDisp
 ersion=GD3 SP\\SP_-150\\1,1\C,0,0.0333,2.491455,1.360431\C,0,0.04065,3
 .719308,0.671989\C,0,0.0112,3.715361,-0.71383\C,0,-0.03905,2.486006,-1
 .407538\C,0,-0.03895,-2.485806,-1.407538\C,0,0.0118,-3.714361,-0.71383
 \C,0,0.0416,-3.718958,0.671989\C,0,0.0352,-2.490855,1.360431\C,0,0.021
 9,-0.0022,1.453369\C,0,-0.061,0.0001,-1.429189\C,0,-0.0092,1.242905,0.
 677065\C,0,-0.0248,1.240321,-0.730804\C,0,-0.00905,-1.242955,0.677065\
 C,0,-0.0252,-1.240621,-0.730804\H,0,0.0094,2.487271,2.443647\H,0,0.041
 05,4.651503,1.211689\H,0,-0.0074,4.608762,-1.272349\H,0,-0.0181,2.4897
 5,-2.490059\H,0,-0.05625,0.00005,-2.510266\H,0,-0.0184,-2.4896,-2.4900
 59\H,0,-0.0071,-4.607512,-1.272349\H,0,0.0422,-4.650753,1.211689\H,0,0
 .0116,-2.486621,2.443647\H,0,-0.779585,-0.0005,2.146337\H,0,0.939585,-
 0.0005,2.145237\\Version=ES64L-G16RevC.01\State=1-A\HF=-539.7523284\RM
 SD=5.237e-09\PG=C01 [X(C14H11)]\\@
 The archive entry for this job was punched.


 IF I AM NOT FOR MYSELF, WHO WILL BE?
 BUT IF I AM ONLY FOR MYSELF, WHAT AM I?
 THOUGH A SEEKER SINCE MY BIRTH,
 HERE IS ALL I'VE LEARNED ON EARTH,
 THIS IS THE GIST OF WHAT I KNOW:
 GIVE ADVICE AND BUY A FOE.

 PRESSED FOR RULES AND VERITIES,
 ALL I RECOLLECT ARE THESE:
 FEED A COLD TO STARVE A FEVER,
 ARGUE WITH NO TRUE-BELIEVER.
 THINK-TOO-LONG IS NEVER-ACT,
 SCRATCH A MYTH AND FIND A FACT.

 STITCH IN TIME SAVES TWENTY STITCHES,
 GIVE THE RICH TO PLEASE THEM, RICHES.
 GIVE TO LOVE YOU HEARTH AND HALL,
 BUT DO NOT GIVE ADVICE AT ALL.

                                  -- HILLEL
 Job cpu time:       0 days  1 hours 20 minutes 39.4 seconds.
 Elapsed time:       0 days  0 hours  1 minutes 42.1 seconds.
 File lengths (MBytes):  RWF=    460 Int=      0 D2E=      0 Chk=     15 Scr=      1
 Normal termination of Gaussian 16 at Thu Jul 28 13:08:44 2022.
