 Entering Gaussian System, Link 0=g16
 Initial command:
 /apps/gaussian/g16c01/g16/l1.exe "/jobfs/53002009.gadi-pbs/Gau-709711.inp" -scrdir="/jobfs/53002009.gadi-pbs/"
 Entering Link 1 = /apps/gaussian/g16c01/g16/l1.exe PID=    709712.
  
 Copyright (c) 1988-2019, Gaussian, Inc.  All Rights Reserved.
  
 This is part of the Gaussian(R) 16 program.  It is based on
 the Gaussian(R) 09 system (copyright 2009, Gaussian, Inc.),
 the Gaussian(R) 03 system (copyright 2003, Gaussian, Inc.),
 the Gaussian(R) 98 system (copyright 1998, Gaussian, Inc.),
 the Gaussian(R) 94 system (copyright 1995, Gaussian, Inc.),
 the Gaussian 92(TM) system (copyright 1992, Gaussian, Inc.),
 the Gaussian 90(TM) system (copyright 1990, Gaussian, Inc.),
 the Gaussian 88(TM) system (copyright 1988, Gaussian, Inc.),
 the Gaussian 86(TM) system (copyright 1986, Carnegie Mellon
 University), and the Gaussian 82(TM) system (copyright 1983,
 Carnegie Mellon University). Gaussian is a federally registered
 trademark of Gaussian, Inc.
  
 This software contains proprietary and confidential information,
 including trade secrets, belonging to Gaussian, Inc.
  
 This software is provided under written license and may be
 used, copied, transmitted, or stored only in accord with that
 written license.
  
 The following legend is applicable only to US Government
 contracts under FAR:
  
                    RESTRICTED RIGHTS LEGEND
  
 Use, reproduction and disclosure by the US Government is
 subject to restrictions as set forth in subparagraphs (a)
 and (c) of the Commercial Computer Software - Restricted
 Rights clause in FAR 52.227-19.
  
 Gaussian, Inc.
 340 Quinnipiac St., Bldg. 40, Wallingford CT 06492
  
  
 ---------------------------------------------------------------
 Warning -- This program may not be used in any manner that
 competes with the business of Gaussian, Inc. or will provide
 assistance to any competitor of Gaussian, Inc.  The licensee
 of this program is prohibited from giving any competitor of
 Gaussian, Inc. access to this program.  By using this program,
 the user acknowledges that Gaussian, Inc. is engaged in the
 business of creating and licensing software in the field of
 computational chemistry and represents and warrants to the
 licensee that it is not a competitor of Gaussian, Inc. and that
 it will not use this program in any manner prohibited above.
 ---------------------------------------------------------------
  

 Cite this work as:
 Gaussian 16, Revision C.01,
 M. J. Frisch, G. W. Trucks, H. B. Schlegel, G. E. Scuseria, 
 M. A. Robb, J. R. Cheeseman, G. Scalmani, V. Barone, 
 G. A. Petersson, H. Nakatsuji, X. Li, M. Caricato, A. V. Marenich, 
 J. Bloino, B. G. Janesko, R. Gomperts, B. Mennucci, H. P. Hratchian, 
 J. V. Ortiz, A. F. Izmaylov, J. L. Sonnenberg, D. Williams-Young, 
 F. Ding, F. Lipparini, F. Egidi, J. Goings, B. Peng, A. Petrone, 
 T. Henderson, D. Ranasinghe, V. G. Zakrzewski, J. Gao, N. Rega, 
 G. Zheng, W. Liang, M. Hada, M. Ehara, K. Toyota, R. Fukuda, 
 J. Hasegawa, M. Ishida, T. Nakajima, Y. Honda, O. Kitao, H. Nakai, 
 T. Vreven, K. Throssell, J. A. Montgomery, Jr., J. E. Peralta, 
 F. Ogliaro, M. J. Bearpark, J. J. Heyd, E. N. Brothers, K. N. Kudin, 
 V. N. Staroverov, T. A. Keith, R. Kobayashi, J. Normand, 
 K. Raghavachari, A. P. Rendell, J. C. Burant, S. S. Iyengar, 
 J. Tomasi, M. Cossi, J. M. Millam, M. Klene, C. Adamo, R. Cammi, 
 J. W. Ochterski, R. L. Martin, K. Morokuma, O. Farkas, 
 J. B. Foresman, and D. J. Fox, Gaussian, Inc., Wallingford CT, 2019.
 
 ******************************************
 Gaussian 16:  ES64L-G16RevC.01  3-Jul-2019
                28-Jul-2022 
 ******************************************
 %NProcShared=48
 Will use up to   48 processors via shared memory.
 %mem = 190GB
 ---------------------------------------------------------------
 #n M062X/6-311++G(d,p) TD(NStates=1) EmpiricalDispersion=GD3 SP
 ---------------------------------------------------------------
 1/38=1,172=1/1;
 2/12=2,17=6,18=5,40=1/2;
 3/5=4,6=6,7=1111,11=9,25=1,30=1,74=-55,124=31/1,2,3,8;
 4//1;
 5/5=2,38=5/2;
 8/6=1,10=2,108=1/1;
 9/41=1,42=1,70=2/14;
 6/7=2,8=2,9=2,10=2/1;
 99/5=1,9=1/99;
 -------
 SP_-150
 -------
 Symbolic Z-matrix:
 Charge =  1 Multiplicity = 1
 C                    -0.0018    2.49416   1.36043 
 C                     0.0015    3.70423   0.67199 
 C                    -0.0005    3.68971  -0.71383 
 C                    -0.00417   2.46598  -1.40754 
 C                    -0.00362  -2.46488  -1.40754 
 C                     0.0028   -3.68421  -0.71383 
 C                     0.00673  -3.70231   0.67199 
 C                     0.00865  -2.49086   1.36043 
 C                     0.00233  -0.0121    1.45337 
 C                    -0.0061    0.00055  -1.42919 
 C                    -0.00132   1.26001   0.67707 
 C                    -0.0014    1.23695  -0.7308 
 C                    -0.0005   -1.26028   0.67707 
 C                    -0.0036   -1.2386   -0.7308 
 H                    -0.005     2.48975   2.44365 
 H                     0.001     4.64025   1.21169 
 H                    -0.00155   4.61259  -1.27235 
 H                    -0.001     2.47018  -2.49006 
 H                    -0.00563   0.00028  -2.51027 
 H                    -0.00265  -2.46935  -2.49006 
 H                     0.0001   -4.60571  -1.27235 
 H                     0.00733  -4.63613   1.21169 
 H                     0.0071   -2.48617   2.44365 
 H                    -0.85159  -0.00275   2.14881 
 H                     0.86759  -0.00275   2.14276 
 
                          Input orientation:                          
 ---------------------------------------------------------------------
 Center     Atomic      Atomic             Coordinates (Angstroms)
 Number     Number       Type             X           Y           Z
 ---------------------------------------------------------------------
      1          6           0       -0.001800    2.494155    1.360431
      2          6           0        0.001500    3.704233    0.671989
      3          6           0       -0.000500    3.689711   -0.713830
      4          6           0       -0.004175    2.465981   -1.407538
      5          6           0       -0.003625   -2.464881   -1.407538
      6          6           0        0.002800   -3.684211   -0.713830
      7          6           0        0.006725   -3.702308    0.671989
      8          6           0        0.008650   -2.490855    1.360431
      9          6           0        0.002325   -0.012100    1.453369
     10          6           0       -0.006100    0.000550   -1.429189
     11          6           0       -0.001325    1.260005    0.677065
     12          6           0       -0.001400    1.236946   -0.730804
     13          6           0       -0.000500   -1.260280    0.677065
     14          6           0       -0.003600   -1.238596   -0.730804
     15          1           0       -0.005000    2.489746    2.443647
     16          1           0        0.001000    4.640253    1.211689
     17          1           0       -0.001550    4.612587   -1.272349
     18          1           0       -0.001000    2.470175   -2.490059
     19          1           0       -0.005625    0.000275   -2.510266
     20          1           0       -0.002650   -2.469350   -2.490059
     21          1           0        0.000100   -4.605712   -1.272349
     22          1           0        0.007325   -4.636128    1.211689
     23          1           0        0.007100   -2.486171    2.443647
     24          1           0       -0.851585   -0.002750    2.148812
     25          1           0        0.867585   -0.002750    2.142762
 ---------------------------------------------------------------------
                    Distance matrix (angstroms):
                    1          2          3          4          5
     1  C    0.000000
     2  C    1.392211   0.000000
     3  C    2.394142   1.385897   0.000000
     4  C    2.768113   2.420275   1.406684   0.000000
     5  C    5.679234   6.510179   6.193565   4.930862   0.000000
     6  C    6.517268   7.517287   7.373923   6.189196   1.402868
     7  C    6.234595   7.406543   7.520804   6.509404   2.419869
     8  C    4.985021   6.233227   6.519359   5.677327   2.768118
     9  C    2.507981   3.797590   4.289541   3.784933   3.768416
    10  C    3.741666   4.258201   3.757882   2.465527   2.465527
    11  C    1.410715   2.444235   2.799654   2.408310   4.268530
    12  C    2.440049   2.838193   2.452824   1.403034   3.763176
    13  C    3.816120   4.964516   5.141692   4.269731   2.407622
    14  C    4.278633   5.138036   4.928337   3.765881   1.400623
    15  H    1.083230   2.147974   3.377810   3.851258   6.275345
    16  H    2.151248   1.080467   2.147360   3.404091   7.572536
    17  H    3.379243   2.146058   1.078724   2.150860   7.078759
    18  H    3.850565   3.394327   2.154590   1.082534   5.052389
    19  H    4.604536   4.883247   4.103553   2.701059   2.700557
    20  H    6.281931   6.936259   6.410072   5.052657   1.082531
    21  H    7.572295   8.534380   8.314204   7.072986   2.145098
    22  H    7.131840   8.357807   8.545600   7.569705   3.402173
    23  H    5.096772   6.438937   6.936226   6.273401   3.851259
    24  H    2.752856   4.080500   4.749035   4.411390   4.407806
    25  H    2.757246   4.081054   4.748469   4.411262   4.407463
                    6          7          8          9         10
     6  C    0.000000
     7  C    1.385943   0.000000
     8  C    2.393051   1.393404   0.000000
     9  C    4.263936   3.772030   2.480505   0.000000
    10  C    3.753569   4.257496   3.740227   2.882598   0.000000
    11  C    5.136135   4.962322   3.812616   1.490273   2.454090
    12  C    4.921188   5.134601   4.274326   2.516096   1.420014
    13  C    2.794645   2.442044   1.407618   1.469901   2.454797
    14  C    2.445682   2.835103   2.437533   2.504983   1.422403
    15  H    6.934513   6.440531   5.097051   2.690713   4.603798
    16  H    8.544257   8.360002   7.132663   4.658626   5.338645
    17  H    8.315577   8.539204   7.575653   5.368173   4.614705
    18  H    6.405581   6.935283   6.279983   4.659649   2.687846
    19  H    4.099108   4.882215   4.603067   3.963662   1.081077
    20  H    2.151954   3.393939   3.850567   4.646367   2.688097
    21  H    1.077550   2.143976   3.377014   5.341424   4.608936
    22  H    2.147973   1.078562   2.150424   4.630342   5.336028
    23  H    3.377126   2.148898   1.083227   2.664902   4.602479
    24  H    4.741081   4.074854   2.748129   1.101313   3.676540
    25  H    4.739317   4.073203   2.745993   1.106357   3.677250
                   11         12         13         14         15
    11  C    0.000000
    12  C    1.408058   0.000000
    13  C    2.520285   2.866746   0.000000
    14  C    2.867945   2.475543   1.408039   0.000000
    15  H    2.152461   3.412720   4.145302   4.896700   0.000000
    16  H    3.422266   3.918646   5.924704   6.191459   2.478394
    17  H    3.878147   3.418804   6.187955   5.876191   4.279614
    18  H    3.390455   2.148449   4.893564   4.104871   4.933746
    19  H    3.427246   2.166993   3.427551   2.168246   5.544251
    20  H    4.892726   4.102634   3.390063   2.147029   6.995291
    21  H    6.181169   5.867702   3.871967   3.410389   8.009630
    22  H    5.920328   6.185980   3.417928   3.913646   7.231594
    23  H    4.141825   4.892730   2.150274   3.410821   4.975932
    24  H    2.117435   3.248361   2.114655   3.246318   2.648805
    25  H    2.120807   3.247978   2.117362   3.247100   2.657908
                   16         17         18         19         20
    16  H    0.000000
    17  H    2.484193   0.000000
    18  H    4.290942   2.464294   0.000000
    19  H    5.948310   4.775550   2.469987   0.000000
    20  H    8.015573   7.185865   4.939525   2.469709   0.000000
    21  H    9.573835   9.218299   7.179902   4.769443   2.459038
    22  H    9.276383   9.576495   8.012649   5.945532   4.289285
    23  H    7.232128   8.012557   6.993346   5.542908   4.933744
    24  H    4.812752   5.807602   5.325221   4.735258   5.322023
    25  H    4.814078   5.806868   5.322859   4.734255   5.320193
                   21         22         23         24         25
    21  H    0.000000
    22  H    2.484235   0.000000
    23  H    4.277982   2.477910   0.000000
    24  H    5.798014   4.804593   2.644172   0.000000
    25  H    5.796790   4.803659   2.645439   1.719181   0.000000
 Stoichiometry    C14H11(1+)
 Framework group  C1[X(C14H11)]
 Deg. of freedom    69
 Full point group                 C1      NOp   1
 Largest Abelian subgroup         C1      NOp   1
 Largest concise Abelian subgroup C1      NOp   1
                         Standard orientation:                         
 ---------------------------------------------------------------------
 Center     Atomic      Atomic             Coordinates (Angstroms)
 Number     Number       Type             X           Y           Z
 ---------------------------------------------------------------------
      1          6           0       -2.493837   -1.361006   -0.003223
      2          6           0       -3.704072   -0.672856    0.002363
      3          6           0       -3.689873    0.712967    0.003362
      4          6           0       -2.466307    1.406968    0.000392
      5          6           0        2.464554    1.408119   -0.002282
      6          6           0        3.684049    0.714683    0.001840
      7          6           0        3.702470   -0.671137    0.002745
      8          6           0        2.491179   -1.359864    0.003968
      9          6           0        0.012442   -1.453368   -0.000938
     10          6           0       -0.000883    1.429199   -0.003098
     11          6           0       -1.259845   -0.677355   -0.002071
     12          6           0       -1.237114    0.730516    0.000895
     13          6           0        1.260439   -0.676768   -0.002894
     14          6           0        1.238426    0.731100   -0.002924
     15          1           0       -2.489178   -2.444212   -0.008777
     16          1           0       -4.639967   -1.212772    0.001303
     17          1           0       -4.612880    1.271272    0.004127
     18          1           0       -2.470751    2.489478    0.005920
     19          1           0       -0.000859    2.510272   -0.000276
     20          1           0        2.468772    2.490636    0.001040
     21          1           0        4.605418    1.273422   -0.000250
     22          1           0        4.636416   -1.210619    0.001563
     23          1           0        2.486745   -2.443075    0.000069
     24          1           0        0.002695   -2.146958   -0.856350
     25          1           0        0.003818   -2.144639    0.862829
 ---------------------------------------------------------------------
 Rotational constants (GHZ):           2.1362047           0.4442108           0.3685407
 Standard basis: 6-311++G(d,p) (5D, 7F)
 There are   399 symmetry adapted cartesian basis functions of A   symmetry.
 There are   385 symmetry adapted basis functions of A   symmetry.
   385 basis functions,   603 primitive gaussians,   399 cartesian basis functions
    47 alpha electrons       47 beta electrons
       nuclear repulsion energy       780.9668266799 Hartrees.
 NAtoms=   25 NActive=   25 NUniq=   25 SFac= 1.00D+00 NAtFMM=   60 NAOKFM=F Big=F
 Integral buffers will be    131072 words long.
 Regular integral format.
 Two-electron integral symmetry is turned on.
 Nuclear repulsion after empirical dispersion term =      780.9658471133 Hartrees.
 One-electron integrals computed using PRISM.
 NBasis=   385 RedAO= T EigKep=  1.13D-06  NBF=   385
 NBsUse=   379 1.00D-06 EigRej=  8.45D-07 NBFU=   379
 ExpMin= 3.60D-02 ExpMax= 4.56D+03 ExpMxC= 6.82D+02 IAcc=3 IRadAn=         5 AccDes= 0.00D+00
 Harris functional with IExCor= 1009 and IRadAn=       5 diagonalized for initial guess.
 HarFok:  IExCor= 1009 AccDes= 0.00D+00 IRadAn=         5 IDoV= 1 UseB2=F ITyADJ=14
 ICtDFT=  3500011 ScaDFX=  1.000000  1.000000  1.000000  1.000000
 FoFCou: FMM=F IPFlag=           0 FMFlag=      100000 FMFlg1=           0
         NFxFlg=           0 DoJE=T BraDBF=F KetDBF=T FulRan=T
         wScrn=  0.000000 ICntrl=       500 IOpCl=  0 I1Cent=   200000004 NGrid=           0
         NMat0=    1 NMatS0=      1 NMatT0=    0 NMatD0=    1 NMtDS0=    0 NMtDT0=    0
 Petite list used in FoFCou.
 Requested convergence on RMS density matrix=1.00D-08 within 128 cycles.
 Requested convergence on MAX density matrix=1.00D-06.
 Requested convergence on             energy=1.00D-06.
 No special actions if energy rises.
 SCF Done:  E(RM062X) =  -539.759913802     A.U. after   15 cycles
            NFock= 15  Conv=0.50D-08     -V/T= 2.0042
 DoSCS=F DFT=T ScalE2(SS,OS)=  1.000000  1.000000
 ExpMin= 3.60D-02 ExpMax= 4.56D+03 ExpMxC= 6.82D+02 IAcc=3 IRadAn=         5 AccDes= 0.00D+00
 HarFok:  IExCor=  205 AccDes= 0.00D+00 IRadAn=         5 IDoV=-2 UseB2=F ITyADJ=14
 ICtDFT= 12500011 ScaDFX=  1.000000  1.000000  1.000000  1.000000
 Range of M.O.s used for correlation:    15   379
 NBasis=   385 NAE=    47 NBE=    47 NFC=    14 NFV=     0
 NROrb=    365 NOA=    33 NOB=    33 NVA=   332 NVB=   332

 **** Warning!!: The largest alpha MO coefficient is  0.15125719D+03

 Orbital symmetries:
       Occupied  (A) (A) (A) (A) (A) (A) (A) (A) (A) (A) (A) (A)
                 (A) (A) (A) (A) (A) (A) (A) (A) (A) (A) (A) (A)
                 (A) (A) (A) (A) (A) (A) (A) (A) (A) (A) (A) (A)
                 (A) (A) (A) (A) (A) (A) (A) (A) (A) (A) (A)
       Virtual   (A) (A) (A) (A) (A) (A) (A) (A) (A) (A) (A) (A)
                 (A) (A) (A) (A) (A) (A) (A) (A) (A) (A) (A) (A)
                 (A) (A) (A) (A) (A) (A) (A) (A) (A) (A) (A) (A)
                 (A) (A) (A) (A) (A) (A) (A) (A) (A) (A) (A) (A)
                 (A) (A) (A) (A) (A) (A) (A) (A) (A) (A) (A) (A)
                 (A) (A) (A) (A) (A) (A) (A) (A) (A) (A) (A) (A)
                 (A) (A) (A) (A) (A) (A) (A) (A) (A) (A) (A) (A)
                 (A) (A) (A) (A) (A) (A) (A) (A) (A) (A) (A) (A)
                 (A) (A) (A) (A) (A) (A) (A) (A) (A) (A) (A) (A)
                 (A) (A) (A) (A) (A) (A) (A) (A) (A) (A) (A) (A)
                 (A) (A) (A) (A) (A) (A) (A) (A) (A) (A) (A) (A)
                 (A) (A) (A) (A) (A) (A) (A) (A) (A) (A) (A) (A)
                 (A) (A) (A) (A) (A) (A) (A) (A) (A) (A) (A) (A)
                 (A) (A) (A) (A) (A) (A) (A) (A) (A) (A) (A) (A)
                 (A) (A) (A) (A) (A) (A) (A) (A) (A) (A) (A) (A)
                 (A) (A) (A) (A) (A) (A) (A) (A) (A) (A) (A) (A)
                 (A) (A) (A) (A) (A) (A) (A) (A) (A) (A) (A) (A)
                 (A) (A) (A) (A) (A) (A) (A) (A) (A) (A) (A) (A)
                 (A) (A) (A) (A) (A) (A) (A) (A) (A) (A) (A) (A)
                 (A) (A) (A) (A) (A) (A) (A) (A) (A) (A) (A) (A)
                 (A) (A) (A) (A) (A) (A) (A) (A) (A) (A) (A) (A)
                 (A) (A) (A) (A) (A) (A) (A) (A) (A) (A) (A) (A)
                 (A) (A) (A) (A) (A) (A) (A) (A) (A) (A) (A) (A)
                 (A) (A) (A) (A) (A) (A) (A) (A) (A) (A) (A) (A)
                 (A) (A) (A) (A) (A) (A) (A) (A) (A) (A) (A) (A)
                 (A) (A) (A) (A) (A) (A) (A) (A) (A) (A) (A) (A)
                 (A) (A) (A) (A) (A) (A) (A) (A) (A) (A) (A) (A)
                 (A) (A) (A) (A) (A) (A) (A) (A)
     4 initial guesses have been made.
 Convergence on wavefunction:    0.001000000000000
 Iteration     1 Dimension     4 NMult     0 NNew      4
 CISAX will form     4 AO SS matrices at one time.
 Iteration     2 Dimension     6 NMult     4 NNew      2
 Iteration     3 Dimension     8 NMult     6 NNew      2
 Iteration     4 Dimension    10 NMult     8 NNew      2
 Iteration     5 Dimension    12 NMult    10 NNew      2
 Iteration     6 Dimension    14 NMult    12 NNew      2
 ***********************************************************************
 Excited states from <AA,BB:AA,BB> singles matrix:
 ***********************************************************************
 
 Ground to excited state transition densities written to RWF  633
 Ground to excited state transition electric dipole moments (Au):
       state          X           Y           Z        Dip. S.      Osc.
         1         0.0160     -0.6426      0.0007      0.4132      0.0285
 Ground to excited state transition velocity dipole moments (Au):
       state          X           Y           Z        Dip. S.      Osc.
         1        -0.0017      0.0743     -0.0001      0.0055      0.0355
 Ground to excited state transition magnetic dipole moments (Au):
       state          X           Y           Z
         1        -0.0015      0.0012     -0.0005
 Ground to excited state transition velocity quadrupole moments (Au):
       state          XX          YY          ZZ          XY          XZ          YZ
         1         0.3003      0.0345     -0.0098     -0.0023     -0.0001     -0.0001
 <0|del|b> * <b|rxdel|0> + <0|del|b> * <b|delr+rdel|0>
 Rotatory Strengths (R) in cgs (10**-40 erg-esu-cm/Gauss)
       state          XX          YY          ZZ    R(velocity)    E-M Angle
         1         0.3376      0.0086      0.2712      0.2058       90.00
 1/2[<0|r|b>*<b|rxdel|0> + (<0|rxdel|b>*<b|r|0>)*]
 Rotatory Strengths (R) in cgs (10**-40 erg-esu-cm/Gauss)
       state          XX          YY          ZZ     R(length)
         1         0.0170      0.5370      0.0003      0.1847
  1/2[<0|del|b>*<b|r|0> + (<0|r|b>*<b|del|0>)*] (Au)
       state          X           Y           Z        Dip. S.   Osc.(frdel)
         1        -0.0000     -0.0477     -0.0000      0.0478      0.0318

 Excitation energies and oscillator strengths:
 
 Excited State   1:      Singlet-A      2.8187 eV  439.87 nm  f=0.0285  <S**2>=0.000
      47 -> 48         0.70426
 This state for optimization and/or second-order correction.
 Total Energy, E(TD-HF/TD-DFT) =  -539.656330015    
 Copying the excited state density for this state as the 1-particle RhoCI density.
 SavETr:  write IOETrn=   770 NScale= 10 NData=  16 NLR=1 NState=    1 LETran=      28.

 **********************************************************************

            Population analysis using the SCF Density.

 **********************************************************************

 Orbital symmetries:
       Occupied  (A) (A) (A) (A) (A) (A) (A) (A) (A) (A) (A) (A)
                 (A) (A) (A) (A) (A) (A) (A) (A) (A) (A) (A) (A)
                 (A) (A) (A) (A) (A) (A) (A) (A) (A) (A) (A) (A)
                 (A) (A) (A) (A) (A) (A) (A) (A) (A) (A) (A)
       Virtual   (A) (A) (A) (A) (A) (A) (A) (A) (A) (A) (A) (A)
                 (A) (A) (A) (A) (A) (A) (A) (A) (A) (A) (A) (A)
                 (A) (A) (A) (A) (A) (A) (A) (A) (A) (A) (A) (A)
                 (A) (A) (A) (A) (A) (A) (A) (A) (A) (A) (A) (A)
                 (A) (A) (A) (A) (A) (A) (A) (A) (A) (A) (A) (A)
                 (A) (A) (A) (A) (A) (A) (A) (A) (A) (A) (A) (A)
                 (A) (A) (A) (A) (A) (A) (A) (A) (A) (A) (A) (A)
                 (A) (A) (A) (A) (A) (A) (A) (A) (A) (A) (A) (A)
                 (A) (A) (A) (A) (A) (A) (A) (A) (A) (A) (A) (A)
                 (A) (A) (A) (A) (A) (A) (A) (A) (A) (A) (A) (A)
                 (A) (A) (A) (A) (A) (A) (A) (A) (A) (A) (A) (A)
                 (A) (A) (A) (A) (A) (A) (A) (A) (A) (A) (A) (A)
                 (A) (A) (A) (A) (A) (A) (A) (A) (A) (A) (A) (A)
                 (A) (A) (A) (A) (A) (A) (A) (A) (A) (A) (A) (A)
                 (A) (A) (A) (A) (A) (A) (A) (A) (A) (A) (A) (A)
                 (A) (A) (A) (A) (A) (A) (A) (A) (A) (A) (A) (A)
                 (A) (A) (A) (A) (A) (A) (A) (A) (A) (A) (A) (A)
                 (A) (A) (A) (A) (A) (A) (A) (A) (A) (A) (A) (A)
                 (A) (A) (A) (A) (A) (A) (A) (A) (A) (A) (A) (A)
                 (A) (A) (A) (A) (A) (A) (A) (A) (A) (A) (A) (A)
                 (A) (A) (A) (A) (A) (A) (A) (A) (A) (A) (A) (A)
                 (A) (A) (A) (A) (A) (A) (A) (A) (A) (A) (A) (A)
                 (A) (A) (A) (A) (A) (A) (A) (A) (A) (A) (A) (A)
                 (A) (A) (A) (A) (A) (A) (A) (A) (A) (A) (A) (A)
                 (A) (A) (A) (A) (A) (A) (A) (A) (A) (A) (A) (A)
                 (A) (A) (A) (A) (A) (A) (A) (A) (A) (A) (A) (A)
                 (A) (A) (A) (A) (A) (A) (A) (A) (A) (A) (A) (A)
                 (A) (A) (A) (A) (A) (A) (A) (A)
 The electronic state is 1-A.
 Alpha  occ. eigenvalues --  -10.77663 -10.73324 -10.73172 -10.72460 -10.72453
 Alpha  occ. eigenvalues --  -10.71435 -10.71354 -10.71033 -10.71007 -10.70981
 Alpha  occ. eigenvalues --  -10.70029 -10.69971 -10.69658 -10.69584  -1.16427
 Alpha  occ. eigenvalues --   -1.12413  -1.06917  -1.05753  -1.01263  -1.00188
 Alpha  occ. eigenvalues --   -0.95762  -0.91061  -0.86418  -0.85890  -0.83814
 Alpha  occ. eigenvalues --   -0.78396  -0.76025  -0.74407  -0.69567  -0.69256
 Alpha  occ. eigenvalues --   -0.68516  -0.68210  -0.68122  -0.64699  -0.64253
 Alpha  occ. eigenvalues --   -0.63101  -0.61892  -0.59986  -0.59638  -0.59107
 Alpha  occ. eigenvalues --   -0.56903  -0.55242  -0.54836  -0.52417  -0.46589
 Alpha  occ. eigenvalues --   -0.46057  -0.44478
 Alpha virt. eigenvalues --   -0.26083  -0.14697  -0.14105  -0.12805  -0.11178
 Alpha virt. eigenvalues --   -0.10085  -0.09226  -0.07983  -0.07965  -0.07474
 Alpha virt. eigenvalues --   -0.07205  -0.07147  -0.05644  -0.05582  -0.05337
 Alpha virt. eigenvalues --   -0.03818  -0.03642  -0.03280  -0.03133  -0.02164
 Alpha virt. eigenvalues --   -0.01366  -0.00925   0.00191   0.00601   0.00669
 Alpha virt. eigenvalues --    0.01053   0.01513   0.01932   0.02216   0.02288
 Alpha virt. eigenvalues --    0.02445   0.02676   0.02719   0.03322   0.03380
 Alpha virt. eigenvalues --    0.04243   0.04504   0.04693   0.05017   0.05362
 Alpha virt. eigenvalues --    0.06037   0.06294   0.06595   0.07043   0.07248
 Alpha virt. eigenvalues --    0.07885   0.08140   0.08363   0.08524   0.08930
 Alpha virt. eigenvalues --    0.09549   0.09560   0.10032   0.10796   0.11075
 Alpha virt. eigenvalues --    0.11116   0.12168   0.12260   0.12908   0.12982
 Alpha virt. eigenvalues --    0.13414   0.13529   0.14020   0.14360   0.16218
 Alpha virt. eigenvalues --    0.16264   0.16408   0.17355   0.17621   0.17786
 Alpha virt. eigenvalues --    0.18118   0.19050   0.19220   0.19626   0.19722
 Alpha virt. eigenvalues --    0.21533   0.21581   0.22731   0.23113   0.23555
 Alpha virt. eigenvalues --    0.23773   0.24569   0.25302   0.26913   0.27578
 Alpha virt. eigenvalues --    0.28844   0.29289   0.29858   0.31336   0.35808
 Alpha virt. eigenvalues --    0.36399   0.38160   0.39250   0.41162   0.41422
 Alpha virt. eigenvalues --    0.41963   0.42230   0.42993   0.43650   0.44298
 Alpha virt. eigenvalues --    0.44904   0.44988   0.46079   0.46103   0.47948
 Alpha virt. eigenvalues --    0.48544   0.48873   0.49038   0.50431   0.51140
 Alpha virt. eigenvalues --    0.51554   0.51635   0.52113   0.52847   0.53978
 Alpha virt. eigenvalues --    0.54098   0.54618   0.55688   0.55760   0.57477
 Alpha virt. eigenvalues --    0.58232   0.58805   0.61432   0.62169   0.62350
 Alpha virt. eigenvalues --    0.63174   0.63511   0.64942   0.65145   0.67247
 Alpha virt. eigenvalues --    0.70393   0.70625   0.71009   0.72380   0.72847
 Alpha virt. eigenvalues --    0.75764   0.75993   0.76256   0.76884   0.77080
 Alpha virt. eigenvalues --    0.77806   0.77833   0.78221   0.79943   0.80397
 Alpha virt. eigenvalues --    0.81223   0.81648   0.82119   0.82991   0.85158
 Alpha virt. eigenvalues --    0.87125   0.88167   0.88466   0.89177   0.90401
 Alpha virt. eigenvalues --    0.91038   0.91274   0.93157   0.94633   0.96451
 Alpha virt. eigenvalues --    0.96628   1.00428   1.01272   1.01651   1.02672
 Alpha virt. eigenvalues --    1.03175   1.03848   1.04704   1.05454   1.08753
 Alpha virt. eigenvalues --    1.19608   1.23291   1.24050   1.25270   1.27980
 Alpha virt. eigenvalues --    1.29618   1.31831   1.34216   1.35709   1.35979
 Alpha virt. eigenvalues --    1.39307   1.40178   1.40890   1.42959   1.43396
 Alpha virt. eigenvalues --    1.43502   1.45114   1.45330   1.46372   1.46699
 Alpha virt. eigenvalues --    1.47615   1.47935   1.51706   1.53616   1.55745
 Alpha virt. eigenvalues --    1.55831   1.56276   1.56548   1.57738   1.61399
 Alpha virt. eigenvalues --    1.63274   1.63627   1.63813   1.66082   1.68246
 Alpha virt. eigenvalues --    1.68391   1.68676   1.69731   1.74309   1.75977
 Alpha virt. eigenvalues --    1.77139   1.78026   1.80003   1.80024   1.80592
 Alpha virt. eigenvalues --    1.83156   1.83195   1.83611   1.83761   1.84174
 Alpha virt. eigenvalues --    1.84257   1.85848   1.86008   1.88191   1.91411
 Alpha virt. eigenvalues --    1.92011   1.94131   1.95207   1.97628   1.98057
 Alpha virt. eigenvalues --    1.99649   2.02428   2.04344   2.07336   2.11716
 Alpha virt. eigenvalues --    2.12094   2.14049   2.15197   2.18968   2.21231
 Alpha virt. eigenvalues --    2.22683   2.28567   2.30070   2.34626   2.34960
 Alpha virt. eigenvalues --    2.36187   2.38793   2.39766   2.42326   2.44545
 Alpha virt. eigenvalues --    2.46268   2.46412   2.49249   2.52837   2.53796
 Alpha virt. eigenvalues --    2.54243   2.56826   2.57827   2.58279   2.59632
 Alpha virt. eigenvalues --    2.59776   2.61619   2.62056   2.63487   2.63776
 Alpha virt. eigenvalues --    2.64745   2.65085   2.65181   2.65249   2.67926
 Alpha virt. eigenvalues --    2.68614   2.70930   2.71404   2.73333   2.74820
 Alpha virt. eigenvalues --    2.76284   2.78640   2.79683   2.82778   2.83027
 Alpha virt. eigenvalues --    2.84770   2.86282   2.92097   2.96977   2.99453
 Alpha virt. eigenvalues --    2.99987   3.05174   3.10911   3.11281   3.12847
 Alpha virt. eigenvalues --    3.20837   3.23954   3.26564   3.28128   3.30659
 Alpha virt. eigenvalues --    3.32607   3.33498   3.43383   3.45810   3.46317
 Alpha virt. eigenvalues --    3.48342   3.49978   3.56445   3.65886   3.66705
 Alpha virt. eigenvalues --    3.67545   3.94435   3.94567   3.95406   3.96273
 Alpha virt. eigenvalues --    4.04117   4.06866   4.07429   4.12536   4.35547
 Alpha virt. eigenvalues --    4.61395   4.69652   4.71464  23.45387  23.60696
 Alpha virt. eigenvalues --   23.82115  23.85505  23.88002  23.89220  23.90521
 Alpha virt. eigenvalues --   23.92286  23.97589  23.99044  23.99612  23.99957
 Alpha virt. eigenvalues --   24.10183  24.10544
          Condensed to atoms (all electrons):
               1          2          3          4          5          6
     1  C    8.576149   0.320370  -0.554095   2.002340  -0.038579  -0.095025
     2  C    0.320370   7.095433   0.349573  -1.057972  -0.019227  -0.014379
     3  C   -0.554095   0.349573   6.577663   0.735004  -0.121304   0.016807
     4  C    2.002340  -1.057972   0.735004  11.020746  -0.349404  -0.125676
     5  C   -0.038579  -0.019227  -0.121304  -0.349404  10.964514   0.766462
     6  C   -0.095025  -0.014379   0.016807  -0.125676   0.766462   6.586499
     7  C   -0.015628   0.001526  -0.014189  -0.016545  -1.080552   0.357218
     8  C    0.403449  -0.021894  -0.094616  -0.017270   1.943894  -0.534661
     9  C   -1.132088  -0.796163   0.297337  -0.193765  -0.244518   0.292178
    10  C   -1.278543   0.242493  -0.339021  -2.565330  -2.565525  -0.360161
    11  C    0.247118  -0.898276   1.014914  -0.322006  -1.498974  -0.171828
    12  C   -2.090862   1.342766  -1.375571  -1.625755  -0.307734  -0.199910
    13  C    0.213601  -0.232779  -0.166753  -1.510773  -0.300652   1.017066
    14  C   -1.056662  -0.191015  -0.201524  -0.334430  -1.510735  -1.412454
    15  H    0.368197  -0.105494  -0.001302   0.027518   0.005653   0.001105
    16  H   -0.018091   0.378496  -0.017546   0.013900  -0.001532  -0.000327
    17  H   -0.024484  -0.017108   0.375755  -0.067885   0.000288   0.000400
    18  H    0.050084   0.003890  -0.086236   0.456919   0.006474  -0.005101
    19  H   -0.046793  -0.007811   0.051288  -0.072880  -0.069476   0.051539
    20  H    0.007043   0.002032  -0.005009   0.006733   0.457415  -0.084532
    21  H   -0.001290  -0.000395   0.000394   0.000265  -0.067672   0.376053
    22  H    0.000623   0.000356  -0.000322  -0.001517   0.013194  -0.016601
    23  H    0.005648  -0.002585   0.001088   0.005739   0.027420  -0.001048
    24  H    0.032137   0.015885  -0.001198  -0.013727  -0.011045  -0.001988
    25  H    0.031955   0.012734  -0.001907  -0.011250  -0.013297  -0.000885
               7          8          9         10         11         12
     1  C   -0.015628   0.403449  -1.132088  -1.278543   0.247118  -2.090862
     2  C    0.001526  -0.021894  -0.796163   0.242493  -0.898276   1.342766
     3  C   -0.014189  -0.094616   0.297337  -0.339021   1.014914  -1.375571
     4  C   -0.016545  -0.017270  -0.193765  -2.565330  -0.322006  -1.625755
     5  C   -1.080552   1.943894  -0.244518  -2.565525  -1.498974  -0.307734
     6  C    0.357218  -0.534661   0.292178  -0.360161  -0.171828  -0.199910
     7  C    7.150326   0.320425  -0.808191   0.253443  -0.257524  -0.199038
     8  C    0.320425   8.579970  -1.189859  -1.276883   0.186720  -1.092974
     9  C   -0.808191  -1.189859   9.579936   0.254027   1.598691  -1.964080
    10  C    0.253443  -1.276883   0.254027   9.143695  -0.434379   2.423254
    11  C   -0.257524   0.186720   1.598691  -0.434379  14.587015  -3.727923
    12  C   -0.199038  -1.092974  -1.964080   2.423254  -3.727923  16.075001
    13  C   -0.917165   0.328864   1.642534  -0.442728   1.096524  -4.785741
    14  C    1.354247  -2.024938  -1.924154   2.390895  -4.839309   3.065833
    15  H   -0.002719   0.005759   0.092340  -0.009664  -0.031220  -0.025654
    16  H    0.000368   0.000785   0.003935  -0.009510   0.026912  -0.034302
    17  H   -0.000399  -0.001330  -0.005673   0.020405  -0.026579   0.090879
    18  H    0.002029   0.007357  -0.024577   0.013785  -0.008537  -0.053812
    19  H   -0.007747  -0.046775   0.075467   0.421994   0.078234  -0.065624
    20  H    0.002717   0.049641  -0.025005   0.013099  -0.012116  -0.013787
    21  H   -0.016227  -0.025167  -0.005714   0.020508  -0.006399   0.005291
    22  H    0.379800  -0.020880   0.002919  -0.009182   0.002981  -0.008921
    23  H   -0.106804   0.365748   0.090966  -0.009643   0.001682   0.006626
    24  H    0.013455   0.026816   0.359724   0.005682   0.010209  -0.054358
    25  H    0.015625   0.039438   0.353667   0.005199   0.016096  -0.065753
              13         14         15         16         17         18
     1  C    0.213601  -1.056662   0.368197  -0.018091  -0.024484   0.050084
     2  C   -0.232779  -0.191015  -0.105494   0.378496  -0.017108   0.003890
     3  C   -0.166753  -0.201524  -0.001302  -0.017546   0.375755  -0.086236
     4  C   -1.510773  -0.334430   0.027518   0.013900  -0.067885   0.456919
     5  C   -0.300652  -1.510735   0.005653  -0.001532   0.000288   0.006474
     6  C    1.017066  -1.412454   0.001105  -0.000327   0.000400  -0.005101
     7  C   -0.917165   1.354247  -0.002719   0.000368  -0.000399   0.002029
     8  C    0.328864  -2.024938   0.005759   0.000785  -0.001330   0.007357
     9  C    1.642534  -1.924154   0.092340   0.003935  -0.005673  -0.024577
    10  C   -0.442728   2.390895  -0.009664  -0.009510   0.020405   0.013785
    11  C    1.096524  -4.839309  -0.031220   0.026912  -0.026579  -0.008537
    12  C   -4.785741   3.065833  -0.025654  -0.034302   0.090879  -0.053812
    13  C   14.416051  -3.768007   0.001475   0.003028  -0.006108  -0.011961
    14  C   -3.768007  15.975198   0.006444  -0.009102   0.005253  -0.013161
    15  H    0.001475   0.006444   0.439059  -0.009047   0.001474   0.000157
    16  H    0.003028  -0.009102  -0.009047   0.419502  -0.006645   0.001954
    17  H   -0.006108   0.005253   0.001474  -0.006645   0.422530  -0.010231
    18  H   -0.011961  -0.013161   0.000157   0.001954  -0.010231   0.453684
    19  H    0.080499  -0.066346   0.000317  -0.000543   0.001428  -0.006352
    20  H   -0.008101  -0.052666  -0.000112   0.000015  -0.000143   0.001271
    21  H   -0.027878   0.092098   0.000014  -0.000007   0.000011  -0.000145
    22  H    0.025827  -0.030888  -0.000128   0.000007  -0.000007   0.000015
    23  H   -0.029500  -0.023591   0.000575  -0.000127   0.000014  -0.000115
    24  H    0.012557  -0.057673  -0.000941   0.000609  -0.000139   0.000142
    25  H    0.015327  -0.062631  -0.000909   0.000643  -0.000145   0.000221
              19         20         21         22         23         24
     1  C   -0.046793   0.007043  -0.001290   0.000623   0.005648   0.032137
     2  C   -0.007811   0.002032  -0.000395   0.000356  -0.002585   0.015885
     3  C    0.051288  -0.005009   0.000394  -0.000322   0.001088  -0.001198
     4  C   -0.072880   0.006733   0.000265  -0.001517   0.005739  -0.013727
     5  C   -0.069476   0.457415  -0.067672   0.013194   0.027420  -0.011045
     6  C    0.051539  -0.084532   0.376053  -0.016601  -0.001048  -0.001988
     7  C   -0.007747   0.002717  -0.016227   0.379800  -0.106804   0.013455
     8  C   -0.046775   0.049641  -0.025167  -0.020880   0.365748   0.026816
     9  C    0.075467  -0.025005  -0.005714   0.002919   0.090966   0.359724
    10  C    0.421994   0.013099   0.020508  -0.009182  -0.009643   0.005682
    11  C    0.078234  -0.012116  -0.006399   0.002981   0.001682   0.010209
    12  C   -0.065624  -0.013787   0.005291  -0.008921   0.006626  -0.054358
    13  C    0.080499  -0.008101  -0.027878   0.025827  -0.029500   0.012557
    14  C   -0.066346  -0.052666   0.092098  -0.030888  -0.023591  -0.057673
    15  H    0.000317  -0.000112   0.000014  -0.000128   0.000575  -0.000941
    16  H   -0.000543   0.000015  -0.000007   0.000007  -0.000127   0.000609
    17  H    0.001428  -0.000143   0.000011  -0.000007   0.000014  -0.000139
    18  H   -0.006352   0.001271  -0.000145   0.000015  -0.000115   0.000142
    19  H    0.443277  -0.006203   0.001437  -0.000546   0.000298   0.000606
    20  H   -0.006203   0.453529  -0.010399   0.001900   0.000174   0.000198
    21  H    0.001437  -0.010399   0.423122  -0.006710   0.001495  -0.000165
    22  H   -0.000546   0.001900  -0.006710   0.419588  -0.008992   0.000704
    23  H    0.000298   0.000174   0.001495  -0.008992   0.439395  -0.001172
    24  H    0.000606   0.000198  -0.000165   0.000704  -0.001172   0.493716
    25  H    0.000598   0.000161  -0.000121   0.000558  -0.000627  -0.079514
              25
     1  C    0.031955
     2  C    0.012734
     3  C   -0.001907
     4  C   -0.011250
     5  C   -0.013297
     6  C   -0.000885
     7  C    0.015625
     8  C    0.039438
     9  C    0.353667
    10  C    0.005199
    11  C    0.016096
    12  C   -0.065753
    13  C    0.015327
    14  C   -0.062631
    15  H   -0.000909
    16  H    0.000643
    17  H   -0.000145
    18  H    0.000221
    19  H    0.000598
    20  H    0.000161
    21  H   -0.000121
    22  H    0.000558
    23  H   -0.000627
    24  H   -0.079514
    25  H    0.493370
 Mulliken charges:
               1
     1  C    0.093426
     2  C   -0.400455
     3  C   -0.439231
     4  C    0.017021
     5  C    0.014913
     6  C   -0.440752
     7  C   -0.408450
     8  C    0.088381
     9  C   -0.329933
    10  C    0.092089
    11  C   -0.632028
    12  C    0.682149
    13  C   -0.645207
    14  C    0.689320
    15  H    0.237102
    16  H    0.256624
    17  H    0.248439
    18  H    0.222246
    19  H    0.190115
    20  H    0.222146
    21  H    0.247601
    22  H    0.256221
    23  H    0.237336
    24  H    0.249478
    25  H    0.251448
 Sum of Mulliken charges =   1.00000
 Mulliken charges with hydrogens summed into heavy atoms:
               1
     1  C    0.330528
     2  C   -0.143831
     3  C   -0.190792
     4  C    0.239267
     5  C    0.237059
     6  C   -0.193151
     7  C   -0.152228
     8  C    0.325717
     9  C    0.170993
    10  C    0.282203
    11  C   -0.632028
    12  C    0.682149
    13  C   -0.645207
    14  C    0.689320
 Electronic spatial extent (au):  <R**2>=           2857.8801
 Charge=              1.0000 electrons
 Dipole moment (field-independent basis, Debye):
    X=             -0.0145    Y=              0.1884    Z=              0.0008  Tot=              0.1889
 Quadrupole moment (field-independent basis, Debye-Ang):
   XX=            -31.0728   YY=            -56.2621   ZZ=            -84.1580
   XY=             -0.0081   XZ=             -0.0135   YZ=              0.0261
 Traceless Quadrupole moment (field-independent basis, Debye-Ang):
   XX=             26.0915   YY=              0.9022   ZZ=            -26.9937
   XY=             -0.0081   XZ=             -0.0135   YZ=              0.0261
 Octapole moment (field-independent basis, Debye-Ang**2):
  XXX=             -0.6035  YYY=              5.2097  ZZZ=              0.0019  XYY=              0.0057
  XXY=             -5.0125  XXZ=              0.0430  XZZ=              0.0730  YZZ=             -3.0875
  YYZ=              0.0105  XYZ=             -0.0678
 Hexadecapole moment (field-independent basis, Debye-Ang**3):
 XXXX=          -2123.2359 YYYY=           -609.2540 ZZZZ=            -99.3845 XXXY=             -0.3422
 XXXZ=             -0.3816 YYYX=              0.1422 YYYZ=              0.3183 ZZZX=             -0.0176
 ZZZY=             -0.0012 XXYY=           -508.0557 XXZZ=           -591.3010 YYZZ=           -145.7250
 XXYZ=              0.2491 YYXZ=             -0.0008 ZZXY=             -0.0069
 N-N= 7.809658471133D+02 E-N=-2.798260465957D+03  KE= 5.374914995828D+02
 Unable to Open any file for archive entry.
 1\1\GINC-GADI-CPU-CLX-0113\SP\RM062X TD-FC\6-311++G(d,p)\C14H11(1+)\TS
 1578\28-Jul-2022\0\\#n M062X/6-311++G(d,p) TD(NStates=1) EmpiricalDisp
 ersion=GD3 SP\\SP_-150\\1,1\C,0,-0.0018,2.494155,1.360431\C,0,0.0015,3
 .704233,0.671989\C,0,-0.0005,3.689711,-0.71383\C,0,-0.004175,2.465981,
 -1.407538\C,0,-0.003625,-2.464881,-1.407538\C,0,0.0028,-3.684211,-0.71
 383\C,0,0.006725,-3.702308,0.671989\C,0,0.00865,-2.490855,1.360431\C,0
 ,0.002325,-0.0121,1.453369\C,0,-0.0061,0.00055,-1.429189\C,0,-0.001325
 ,1.260005,0.677065\C,0,-0.0014,1.236946,-0.730804\C,0,-0.0005,-1.26028
 ,0.677065\C,0,-0.0036,-1.238596,-0.730804\H,0,-0.005,2.489746,2.443647
 \H,0,0.001,4.640253,1.211689\H,0,-0.00155,4.612587,-1.272349\H,0,-0.00
 1,2.470175,-2.490059\H,0,-0.005625,0.000275,-2.510266\H,0,-0.00265,-2.
 46935,-2.490059\H,0,0.0001,-4.605712,-1.272349\H,0,0.007325,-4.636128,
 1.211689\H,0,0.0071,-2.486171,2.443647\H,0,-0.851585,-0.00275,2.148812
 \H,0,0.867585,-0.00275,2.142762\\Version=ES64L-G16RevC.01\State=1-A\HF
 =-539.7599138\RMSD=4.953e-09\PG=C01 [X(C14H11)]\\@
 The archive entry for this job was punched.


 GOD DOES NOT PLAY WITH DICE.
               -- A. EINSTEIN
 Job cpu time:       0 days  1 hours 20 minutes  6.3 seconds.
 Elapsed time:       0 days  0 hours  1 minutes 41.5 seconds.
 File lengths (MBytes):  RWF=    460 Int=      0 D2E=      0 Chk=     15 Scr=      1
 Normal termination of Gaussian 16 at Thu Jul 28 12:53:37 2022.
