 Entering Gaussian System, Link 0=g16
 Initial command:
 /apps/gaussian/g16c01/g16/l1.exe "/jobfs/53002009.gadi-pbs/Gau-709092.inp" -scrdir="/jobfs/53002009.gadi-pbs/"
 Entering Link 1 = /apps/gaussian/g16c01/g16/l1.exe PID=    709093.
  
 Copyright (c) 1988-2019, Gaussian, Inc.  All Rights Reserved.
  
 This is part of the Gaussian(R) 16 program.  It is based on
 the Gaussian(R) 09 system (copyright 2009, Gaussian, Inc.),
 the Gaussian(R) 03 system (copyright 2003, Gaussian, Inc.),
 the Gaussian(R) 98 system (copyright 1998, Gaussian, Inc.),
 the Gaussian(R) 94 system (copyright 1995, Gaussian, Inc.),
 the Gaussian 92(TM) system (copyright 1992, Gaussian, Inc.),
 the Gaussian 90(TM) system (copyright 1990, Gaussian, Inc.),
 the Gaussian 88(TM) system (copyright 1988, Gaussian, Inc.),
 the Gaussian 86(TM) system (copyright 1986, Carnegie Mellon
 University), and the Gaussian 82(TM) system (copyright 1983,
 Carnegie Mellon University). Gaussian is a federally registered
 trademark of Gaussian, Inc.
  
 This software contains proprietary and confidential information,
 including trade secrets, belonging to Gaussian, Inc.
  
 This software is provided under written license and may be
 used, copied, transmitted, or stored only in accord with that
 written license.
  
 The following legend is applicable only to US Government
 contracts under FAR:
  
                    RESTRICTED RIGHTS LEGEND
  
 Use, reproduction and disclosure by the US Government is
 subject to restrictions as set forth in subparagraphs (a)
 and (c) of the Commercial Computer Software - Restricted
 Rights clause in FAR 52.227-19.
  
 Gaussian, Inc.
 340 Quinnipiac St., Bldg. 40, Wallingford CT 06492
  
  
 ---------------------------------------------------------------
 Warning -- This program may not be used in any manner that
 competes with the business of Gaussian, Inc. or will provide
 assistance to any competitor of Gaussian, Inc.  The licensee
 of this program is prohibited from giving any competitor of
 Gaussian, Inc. access to this program.  By using this program,
 the user acknowledges that Gaussian, Inc. is engaged in the
 business of creating and licensing software in the field of
 computational chemistry and represents and warrants to the
 licensee that it is not a competitor of Gaussian, Inc. and that
 it will not use this program in any manner prohibited above.
 ---------------------------------------------------------------
  

 Cite this work as:
 Gaussian 16, Revision C.01,
 M. J. Frisch, G. W. Trucks, H. B. Schlegel, G. E. Scuseria, 
 M. A. Robb, J. R. Cheeseman, G. Scalmani, V. Barone, 
 G. A. Petersson, H. Nakatsuji, X. Li, M. Caricato, A. V. Marenich, 
 J. Bloino, B. G. Janesko, R. Gomperts, B. Mennucci, H. P. Hratchian, 
 J. V. Ortiz, A. F. Izmaylov, J. L. Sonnenberg, D. Williams-Young, 
 F. Ding, F. Lipparini, F. Egidi, J. Goings, B. Peng, A. Petrone, 
 T. Henderson, D. Ranasinghe, V. G. Zakrzewski, J. Gao, N. Rega, 
 G. Zheng, W. Liang, M. Hada, M. Ehara, K. Toyota, R. Fukuda, 
 J. Hasegawa, M. Ishida, T. Nakajima, Y. Honda, O. Kitao, H. Nakai, 
 T. Vreven, K. Throssell, J. A. Montgomery, Jr., J. E. Peralta, 
 F. Ogliaro, M. J. Bearpark, J. J. Heyd, E. N. Brothers, K. N. Kudin, 
 V. N. Staroverov, T. A. Keith, R. Kobayashi, J. Normand, 
 K. Raghavachari, A. P. Rendell, J. C. Burant, S. S. Iyengar, 
 J. Tomasi, M. Cossi, J. M. Millam, M. Klene, C. Adamo, R. Cammi, 
 J. W. Ochterski, R. L. Martin, K. Morokuma, O. Farkas, 
 J. B. Foresman, and D. J. Fox, Gaussian, Inc., Wallingford CT, 2019.
 
 ******************************************
 Gaussian 16:  ES64L-G16RevC.01  3-Jul-2019
                28-Jul-2022 
 ******************************************
 %NProcShared=48
 Will use up to   48 processors via shared memory.
 %mem = 190GB
 ---------------------------------------------------------------
 #n M062X/6-311++G(d,p) TD(NStates=1) EmpiricalDispersion=GD3 SP
 ---------------------------------------------------------------
 1/38=1,172=1/1;
 2/12=2,17=6,18=5,40=1/2;
 3/5=4,6=6,7=1111,11=9,25=1,30=1,74=-55,124=31/1,2,3,8;
 4//1;
 5/5=2,38=5/2;
 8/6=1,10=2,108=1/1;
 9/41=1,42=1,70=2/14;
 6/7=2,8=2,9=2,10=2/1;
 99/5=1,9=1/99;
 -------
 SP_-150
 -------
 Symbolic Z-matrix:
 Charge =  1 Multiplicity = 1
 C                    -0.0057    2.49446   1.36043 
 C                    -0.00285   3.70256   0.67199 
 C                    -0.0018    3.68686  -0.71383 
 C                    -0.0003    2.46376  -1.40754 
 C                     0.0003   -2.46256  -1.40754 
 C                     0.0018   -3.68086  -0.71383 
 C                     0.00285  -3.70046   0.67199 
 C                     0.0057   -2.49086   1.36043 
 C                     0.00015  -0.0132    1.45337 
 C                     0.        0.0006   -1.42919 
 C                    -0.00045   1.26191   0.67707 
 C                     0.0012    1.23657  -0.7308 
 C                     0.00045  -1.26221   0.67707 
 C                    -0.0012   -1.23837  -0.7308 
 H                    -0.0066    2.49002   2.44365 
 H                    -0.00345   4.639     1.21169 
 H                    -0.0009    4.61301  -1.27235 
 H                     0.0009    2.468    -2.49006 
 H                     0.        0.0003   -2.51027 
 H                    -0.0009   -2.4671   -2.49006 
 H                     0.0009   -4.60551  -1.27235 
 H                     0.00345  -4.6345    1.21169 
 H                     0.0066   -2.48612   2.44365 
 H                    -0.85959  -0.003     2.14909 
 H                     0.85959  -0.003     2.14249 
 
                          Input orientation:                          
 ---------------------------------------------------------------------
 Center     Atomic      Atomic             Coordinates (Angstroms)
 Number     Number       Type             X           Y           Z
 ---------------------------------------------------------------------
      1          6           0       -0.005700    2.494455    1.360431
      2          6           0       -0.002850    3.702558    0.671989
      3          6           0       -0.001800    3.686861   -0.713830
      4          6           0       -0.000300    2.463756   -1.407538
      5          6           0        0.000300   -2.462556   -1.407538
      6          6           0        0.001800   -3.680861   -0.713830
      7          6           0        0.002850   -3.700458    0.671989
      8          6           0        0.005700   -2.490855    1.360431
      9          6           0        0.000150   -0.013200    1.453369
     10          6           0        0.000000    0.000600   -1.429189
     11          6           0       -0.000450    1.261905    0.677065
     12          6           0        0.001200    1.236571   -0.730804
     13          6           0        0.000450   -1.262205    0.677065
     14          6           0       -0.001200   -1.238371   -0.730804
     15          1           0       -0.006600    2.490021    2.443647
     16          1           0       -0.003450    4.639003    1.211689
     17          1           0       -0.000900    4.613012   -1.272349
     18          1           0        0.000900    2.468000   -2.490059
     19          1           0        0.000000    0.000300   -2.510266
     20          1           0       -0.000900   -2.467100   -2.490059
     21          1           0        0.000900   -4.605512   -1.272349
     22          1           0        0.003450   -4.634503    1.211689
     23          1           0        0.006600   -2.486121    2.443647
     24          1           0       -0.859585   -0.003000    2.149087
     25          1           0        0.859585   -0.003000    2.142487
 ---------------------------------------------------------------------
                    Distance matrix (angstroms):
                    1          2          3          4          5
     1  C    0.000000
     2  C    1.390494   0.000000
     3  C    2.392573   1.385908   0.000000
     4  C    2.768145   2.420551   1.406136   0.000000
     5  C    5.677468   6.506387   6.188422   4.926312   0.000000
     6  C    6.514380   7.512349   7.367723   6.183652   1.401963
     7  C    6.233055   7.403018   7.516182   6.505534   2.420091
     8  C    4.985323   6.231564   6.516655   5.675373   2.768119
     9  C    2.509383   3.797028   4.288031   3.784191   3.766183
    10  C    3.741834   4.256695   3.755032   2.463251   2.463251
    11  C    1.409325   2.440659   2.795533   2.406245   4.268159
    12  C    2.440406   2.837065   2.450351   1.401411   3.760520
    13  C    3.818314   4.964767   5.140802   4.269468   2.405496
    14  C    4.278700   5.136206   4.925261   3.763471   1.398785
    15  H    1.083225   2.146866   3.376701   3.851280   6.273730
    16  H    2.149701   1.080836   2.148069   3.404711   7.569181
    17  H    3.379325   2.146947   1.081527   2.153504   7.076859
    18  H    3.850587   3.394510   2.154210   1.082530   5.047993
    19  H    4.604686   4.881953   4.100965   2.699004   2.698457
    20  H    6.280392   6.932765   6.405172   5.048286   1.082531
    21  H    7.572391   8.532555   8.311161   7.070561   2.147216
    22  H    7.130515   8.354514   8.541238   7.566085   3.402604
    23  H    5.097023   6.437283   6.933645   6.271599   3.851262
    24  H    2.754701   4.080070   4.748385   4.412804   4.408900
    25  H    2.756376   4.078887   4.745061   4.407603   4.403460
                    6          7          8          9         10
     6  C    0.000000
     7  C    1.385958   0.000000
     8  C    2.391378   1.391797   0.000000
     9  C    4.260105   3.769142   2.479404   0.000000
    10  C    3.750320   4.255912   3.740235   2.882591   0.000000
    11  C    5.134738   4.962367   3.814477   1.492830   2.455035
    12  C    4.917461   5.132454   4.273990   2.516454   1.419636
    13  C    2.790069   2.438259   1.405915   1.470599   2.455806
    14  C    2.442551   2.833676   2.437627   2.504328   1.422249
    15  H    6.931776   6.439013   5.097316   2.691990   4.603924
    16  H    8.539777   8.356909   7.131415   4.658478   5.337512
    17  H    8.312658   8.537813   7.576048   5.369486   4.615078
    18  H    6.400272   6.931697   6.278259   4.659075   2.685798
    19  H    4.096112   4.880816   4.603062   3.963658   1.081077
    20  H    2.151328   3.394073   3.850569   4.644594   2.686073
    21  H    1.080242   2.144662   3.376881   5.340306   4.608782
    22  H    2.148734   1.078757   2.148803   4.627619   5.334644
    23  H    3.375957   2.147883   1.083227   2.663838   4.602465
    24  H    4.739719   4.073918   2.749567   1.106016   3.680076
    25  H    4.735082   4.070326   2.744113   1.101642   3.673659
                   11         12         13         14         15
    11  C    0.000000
    12  C    1.408098   0.000000
    13  C    2.524110   2.868096   0.000000
    14  C    2.869403   2.474943   1.408072   0.000000
    15  H    2.151539   3.412966   4.147296   4.896741   0.000000
    16  H    3.419155   3.917888   5.925377   6.190057   2.477066
    17  H    3.876872   3.419595   6.190185   5.876390   4.279690
    18  H    3.389003   2.147416   4.893373   4.102703   4.933761
    19  H    3.427933   2.166761   3.428265   2.168131   5.544367
    20  H    4.892459   4.100264   3.388576   2.145869   6.993893
    21  H    6.182782   5.867129   3.870131   3.410413   8.009699
    22  H    5.920597   6.184076   3.414414   3.912418   7.230260
    23  H    4.143496   4.892403   2.149144   3.410877   4.976160
    24  H    2.122486   3.251347   2.119459   3.249113   2.651321
    25  H    2.118279   3.244867   2.114515   3.243901   2.656337
                   16         17         18         19         20
    16  H    0.000000
    17  H    2.484175   0.000000
    18  H    4.291411   2.466556   0.000000
    19  H    5.947313   4.775935   2.467783   0.000000
    20  H    8.012468   7.184066   4.935100   2.467483   0.000000
    21  H    9.572435   9.218524   7.177562   4.769271   2.460818
    22  H    9.273509   9.575333   8.009275   5.944271   4.289591
    23  H    7.230852   8.012888   6.991767   5.542886   4.933748
    24  H    4.812471   5.809572   5.326157   4.737981   5.322669
    25  H    4.812422   5.805954   5.320119   4.731491   5.317208
                   21         22         23         24         25
    21  H    0.000000
    22  H    2.484208   0.000000
    23  H    4.277906   2.476545   0.000000
    24  H    5.799119   4.803578   2.646305   0.000000
    25  H    5.794960   4.801059   2.642758   1.719183   0.000000
 Stoichiometry    C14H11(1+)
 Framework group  C1[X(C14H11)]
 Deg. of freedom    69
 Full point group                 C1      NOp   1
 Largest Abelian subgroup         C1      NOp   1
 Largest concise Abelian subgroup C1      NOp   1
                         Standard orientation:                         
 ---------------------------------------------------------------------
 Center     Atomic      Atomic             Coordinates (Angstroms)
 Number     Number       Type             X           Y           Z
 ---------------------------------------------------------------------
      1          6           0       -2.494111   -1.361063   -0.003885
      2          6           0       -3.702386   -0.672926   -0.000194
      3          6           0       -3.687039    0.712897    0.000800
      4          6           0       -2.464109    1.406914    0.001405
      5          6           0        2.462202    1.408161   -0.001513
      6          6           0        3.680684    0.714762   -0.000861
      7          6           0        3.700632   -0.671052    0.000220
      8          6           0        2.491206   -1.359800    0.003955
      9          6           0        0.013571   -1.453366    0.000178
     10          6           0       -0.000959    1.429189   -0.000055
     11          6           0       -1.261730   -0.677384    0.000463
     12          6           0       -1.236752    0.730491    0.002050
     13          6           0        1.262380   -0.676745   -0.000439
     14          6           0        1.238188    0.731117   -0.002117
     15          1           0       -2.489403   -2.444278   -0.004753
     16          1           0       -4.638694   -1.212864   -0.000108
     17          1           0       -4.613330    1.271181    0.002344
     18          1           0       -2.468626    2.489434    0.002573
     19          1           0       -0.000932    2.510266   -0.000090
     20          1           0        2.466471    2.490683   -0.002751
     21          1           0        4.605192    1.273515   -0.002439
     22          1           0        4.634814   -1.210516    0.000170
     23          1           0        2.486747   -2.443017    0.004894
     24          1           0        0.002933   -2.149114   -0.859528
     25          1           0        0.004159   -2.142458    0.859642
 ---------------------------------------------------------------------
 Rotational constants (GHZ):           2.1362217           0.4446253           0.3688261
 Standard basis: 6-311++G(d,p) (5D, 7F)
 There are   399 symmetry adapted cartesian basis functions of A   symmetry.
 There are   385 symmetry adapted basis functions of A   symmetry.
   385 basis functions,   603 primitive gaussians,   399 cartesian basis functions
    47 alpha electrons       47 beta electrons
       nuclear repulsion energy       781.1987288879 Hartrees.
 NAtoms=   25 NActive=   25 NUniq=   25 SFac= 1.00D+00 NAtFMM=   60 NAOKFM=F Big=F
 Integral buffers will be    131072 words long.
 Regular integral format.
 Two-electron integral symmetry is turned on.
 Nuclear repulsion after empirical dispersion term =      781.1977494005 Hartrees.
 One-electron integrals computed using PRISM.
 NBasis=   385 RedAO= T EigKep=  1.12D-06  NBF=   385
 NBsUse=   379 1.00D-06 EigRej=  8.40D-07 NBFU=   379
 ExpMin= 3.60D-02 ExpMax= 4.56D+03 ExpMxC= 6.82D+02 IAcc=3 IRadAn=         5 AccDes= 0.00D+00
 Harris functional with IExCor= 1009 and IRadAn=       5 diagonalized for initial guess.
 HarFok:  IExCor= 1009 AccDes= 0.00D+00 IRadAn=         5 IDoV= 1 UseB2=F ITyADJ=14
 ICtDFT=  3500011 ScaDFX=  1.000000  1.000000  1.000000  1.000000
 FoFCou: FMM=F IPFlag=           0 FMFlag=      100000 FMFlg1=           0
         NFxFlg=           0 DoJE=T BraDBF=F KetDBF=T FulRan=T
         wScrn=  0.000000 ICntrl=       500 IOpCl=  0 I1Cent=   200000004 NGrid=           0
         NMat0=    1 NMatS0=      1 NMatT0=    0 NMatD0=    1 NMtDS0=    0 NMtDT0=    0
 Petite list used in FoFCou.
 Requested convergence on RMS density matrix=1.00D-08 within 128 cycles.
 Requested convergence on MAX density matrix=1.00D-06.
 Requested convergence on             energy=1.00D-06.
 No special actions if energy rises.
 SCF Done:  E(RM062X) =  -539.760032589     A.U. after   15 cycles
            NFock= 15  Conv=0.50D-08     -V/T= 2.0042
 DoSCS=F DFT=T ScalE2(SS,OS)=  1.000000  1.000000
 ExpMin= 3.60D-02 ExpMax= 4.56D+03 ExpMxC= 6.82D+02 IAcc=3 IRadAn=         5 AccDes= 0.00D+00
 HarFok:  IExCor=  205 AccDes= 0.00D+00 IRadAn=         5 IDoV=-2 UseB2=F ITyADJ=14
 ICtDFT= 12500011 ScaDFX=  1.000000  1.000000  1.000000  1.000000
 Range of M.O.s used for correlation:    15   379
 NBasis=   385 NAE=    47 NBE=    47 NFC=    14 NFV=     0
 NROrb=    365 NOA=    33 NOB=    33 NVA=   332 NVB=   332

 **** Warning!!: The largest alpha MO coefficient is  0.15248381D+03

 Orbital symmetries:
       Occupied  (A) (A) (A) (A) (A) (A) (A) (A) (A) (A) (A) (A)
                 (A) (A) (A) (A) (A) (A) (A) (A) (A) (A) (A) (A)
                 (A) (A) (A) (A) (A) (A) (A) (A) (A) (A) (A) (A)
                 (A) (A) (A) (A) (A) (A) (A) (A) (A) (A) (A)
       Virtual   (A) (A) (A) (A) (A) (A) (A) (A) (A) (A) (A) (A)
                 (A) (A) (A) (A) (A) (A) (A) (A) (A) (A) (A) (A)
                 (A) (A) (A) (A) (A) (A) (A) (A) (A) (A) (A) (A)
                 (A) (A) (A) (A) (A) (A) (A) (A) (A) (A) (A) (A)
                 (A) (A) (A) (A) (A) (A) (A) (A) (A) (A) (A) (A)
                 (A) (A) (A) (A) (A) (A) (A) (A) (A) (A) (A) (A)
                 (A) (A) (A) (A) (A) (A) (A) (A) (A) (A) (A) (A)
                 (A) (A) (A) (A) (A) (A) (A) (A) (A) (A) (A) (A)
                 (A) (A) (A) (A) (A) (A) (A) (A) (A) (A) (A) (A)
                 (A) (A) (A) (A) (A) (A) (A) (A) (A) (A) (A) (A)
                 (A) (A) (A) (A) (A) (A) (A) (A) (A) (A) (A) (A)
                 (A) (A) (A) (A) (A) (A) (A) (A) (A) (A) (A) (A)
                 (A) (A) (A) (A) (A) (A) (A) (A) (A) (A) (A) (A)
                 (A) (A) (A) (A) (A) (A) (A) (A) (A) (A) (A) (A)
                 (A) (A) (A) (A) (A) (A) (A) (A) (A) (A) (A) (A)
                 (A) (A) (A) (A) (A) (A) (A) (A) (A) (A) (A) (A)
                 (A) (A) (A) (A) (A) (A) (A) (A) (A) (A) (A) (A)
                 (A) (A) (A) (A) (A) (A) (A) (A) (A) (A) (A) (A)
                 (A) (A) (A) (A) (A) (A) (A) (A) (A) (A) (A) (A)
                 (A) (A) (A) (A) (A) (A) (A) (A) (A) (A) (A) (A)
                 (A) (A) (A) (A) (A) (A) (A) (A) (A) (A) (A) (A)
                 (A) (A) (A) (A) (A) (A) (A) (A) (A) (A) (A) (A)
                 (A) (A) (A) (A) (A) (A) (A) (A) (A) (A) (A) (A)
                 (A) (A) (A) (A) (A) (A) (A) (A) (A) (A) (A) (A)
                 (A) (A) (A) (A) (A) (A) (A) (A) (A) (A) (A) (A)
                 (A) (A) (A) (A) (A) (A) (A) (A) (A) (A) (A) (A)
                 (A) (A) (A) (A) (A) (A) (A) (A) (A) (A) (A) (A)
                 (A) (A) (A) (A) (A) (A) (A) (A)
     4 initial guesses have been made.
 Convergence on wavefunction:    0.001000000000000
 Iteration     1 Dimension     4 NMult     0 NNew      4
 CISAX will form     4 AO SS matrices at one time.
 Iteration     2 Dimension     6 NMult     4 NNew      2
 Iteration     3 Dimension     8 NMult     6 NNew      2
 Iteration     4 Dimension    10 NMult     8 NNew      2
 Iteration     5 Dimension    12 NMult    10 NNew      2
 Iteration     6 Dimension    14 NMult    12 NNew      2
 ***********************************************************************
 Excited states from <AA,BB:AA,BB> singles matrix:
 ***********************************************************************
 
 Ground to excited state transition densities written to RWF  633
 Ground to excited state transition electric dipole moments (Au):
       state          X           Y           Z        Dip. S.      Osc.
         1         0.0173     -0.6443     -0.0003      0.4154      0.0287
 Ground to excited state transition velocity dipole moments (Au):
       state          X           Y           Z        Dip. S.      Osc.
         1        -0.0019      0.0746      0.0000      0.0056      0.0357
 Ground to excited state transition magnetic dipole moments (Au):
       state          X           Y           Z
         1        -0.0002      0.0013     -0.0007
 Ground to excited state transition velocity quadrupole moments (Au):
       state          XX          YY          ZZ          XY          XZ          YZ
         1         0.2975      0.0351     -0.0098     -0.0026     -0.0001     -0.0003
 <0|del|b> * <b|rxdel|0> + <0|del|b> * <b|delr+rdel|0>
 Rotatory Strengths (R) in cgs (10**-40 erg-esu-cm/Gauss)
       state          XX          YY          ZZ    R(velocity)    E-M Angle
         1         0.3502      0.0032      0.2915      0.2150       90.00
 1/2[<0|r|b>*<b|rxdel|0> + (<0|rxdel|b>*<b|r|0>)*]
 Rotatory Strengths (R) in cgs (10**-40 erg-esu-cm/Gauss)
       state          XX          YY          ZZ     R(length)
         1         0.0024      0.5761     -0.0002      0.1928
  1/2[<0|del|b>*<b|r|0> + (<0|r|b>*<b|del|0>)*] (Au)
       state          X           Y           Z        Dip. S.   Osc.(frdel)
         1        -0.0000     -0.0480     -0.0000      0.0481      0.0320

 Excitation energies and oscillator strengths:
 
 Excited State   1:      Singlet-A      2.8227 eV  439.24 nm  f=0.0287  <S**2>=0.000
      47 -> 48         0.70425
 This state for optimization and/or second-order correction.
 Total Energy, E(TD-HF/TD-DFT) =  -539.656299987    
 Copying the excited state density for this state as the 1-particle RhoCI density.
 SavETr:  write IOETrn=   770 NScale= 10 NData=  16 NLR=1 NState=    1 LETran=      28.

 **********************************************************************

            Population analysis using the SCF Density.

 **********************************************************************

 Orbital symmetries:
       Occupied  (A) (A) (A) (A) (A) (A) (A) (A) (A) (A) (A) (A)
                 (A) (A) (A) (A) (A) (A) (A) (A) (A) (A) (A) (A)
                 (A) (A) (A) (A) (A) (A) (A) (A) (A) (A) (A) (A)
                 (A) (A) (A) (A) (A) (A) (A) (A) (A) (A) (A)
       Virtual   (A) (A) (A) (A) (A) (A) (A) (A) (A) (A) (A) (A)
                 (A) (A) (A) (A) (A) (A) (A) (A) (A) (A) (A) (A)
                 (A) (A) (A) (A) (A) (A) (A) (A) (A) (A) (A) (A)
                 (A) (A) (A) (A) (A) (A) (A) (A) (A) (A) (A) (A)
                 (A) (A) (A) (A) (A) (A) (A) (A) (A) (A) (A) (A)
                 (A) (A) (A) (A) (A) (A) (A) (A) (A) (A) (A) (A)
                 (A) (A) (A) (A) (A) (A) (A) (A) (A) (A) (A) (A)
                 (A) (A) (A) (A) (A) (A) (A) (A) (A) (A) (A) (A)
                 (A) (A) (A) (A) (A) (A) (A) (A) (A) (A) (A) (A)
                 (A) (A) (A) (A) (A) (A) (A) (A) (A) (A) (A) (A)
                 (A) (A) (A) (A) (A) (A) (A) (A) (A) (A) (A) (A)
                 (A) (A) (A) (A) (A) (A) (A) (A) (A) (A) (A) (A)
                 (A) (A) (A) (A) (A) (A) (A) (A) (A) (A) (A) (A)
                 (A) (A) (A) (A) (A) (A) (A) (A) (A) (A) (A) (A)
                 (A) (A) (A) (A) (A) (A) (A) (A) (A) (A) (A) (A)
                 (A) (A) (A) (A) (A) (A) (A) (A) (A) (A) (A) (A)
                 (A) (A) (A) (A) (A) (A) (A) (A) (A) (A) (A) (A)
                 (A) (A) (A) (A) (A) (A) (A) (A) (A) (A) (A) (A)
                 (A) (A) (A) (A) (A) (A) (A) (A) (A) (A) (A) (A)
                 (A) (A) (A) (A) (A) (A) (A) (A) (A) (A) (A) (A)
                 (A) (A) (A) (A) (A) (A) (A) (A) (A) (A) (A) (A)
                 (A) (A) (A) (A) (A) (A) (A) (A) (A) (A) (A) (A)
                 (A) (A) (A) (A) (A) (A) (A) (A) (A) (A) (A) (A)
                 (A) (A) (A) (A) (A) (A) (A) (A) (A) (A) (A) (A)
                 (A) (A) (A) (A) (A) (A) (A) (A) (A) (A) (A) (A)
                 (A) (A) (A) (A) (A) (A) (A) (A) (A) (A) (A) (A)
                 (A) (A) (A) (A) (A) (A) (A) (A) (A) (A) (A) (A)
                 (A) (A) (A) (A) (A) (A) (A) (A)
 The electronic state is 1-A.
 Alpha  occ. eigenvalues --  -10.77665 -10.73323 -10.73156 -10.72440 -10.72431
 Alpha  occ. eigenvalues --  -10.71413 -10.71324 -10.71019 -10.70990 -10.70980
 Alpha  occ. eigenvalues --  -10.70004 -10.69940 -10.69670 -10.69589  -1.16444
 Alpha  occ. eigenvalues --   -1.12466  -1.06945  -1.05737  -1.01313  -1.00182
 Alpha  occ. eigenvalues --   -0.95782  -0.91056  -0.86421  -0.85899  -0.83816
 Alpha  occ. eigenvalues --   -0.78399  -0.76029  -0.74418  -0.69565  -0.69245
 Alpha  occ. eigenvalues --   -0.68504  -0.68194  -0.68103  -0.64739  -0.64286
 Alpha  occ. eigenvalues --   -0.63074  -0.61856  -0.60005  -0.59677  -0.59093
 Alpha  occ. eigenvalues --   -0.56896  -0.55231  -0.54815  -0.52438  -0.46625
 Alpha  occ. eigenvalues --   -0.46056  -0.44501
 Alpha virt. eigenvalues --   -0.26088  -0.14670  -0.14099  -0.12774  -0.11179
 Alpha virt. eigenvalues --   -0.10086  -0.09230  -0.07983  -0.07970  -0.07476
 Alpha virt. eigenvalues --   -0.07204  -0.07146  -0.05643  -0.05581  -0.05332
 Alpha virt. eigenvalues --   -0.03826  -0.03646  -0.03280  -0.03133  -0.02165
 Alpha virt. eigenvalues --   -0.01368  -0.00930   0.00191   0.00589   0.00664
 Alpha virt. eigenvalues --    0.01055   0.01513   0.01940   0.02219   0.02286
 Alpha virt. eigenvalues --    0.02450   0.02670   0.02745   0.03315   0.03375
 Alpha virt. eigenvalues --    0.04240   0.04505   0.04695   0.05031   0.05364
 Alpha virt. eigenvalues --    0.06034   0.06296   0.06596   0.07043   0.07254
 Alpha virt. eigenvalues --    0.07891   0.08164   0.08362   0.08537   0.08929
 Alpha virt. eigenvalues --    0.09546   0.09558   0.10032   0.10794   0.11092
 Alpha virt. eigenvalues --    0.11116   0.12160   0.12256   0.12917   0.12969
 Alpha virt. eigenvalues --    0.13417   0.13524   0.14019   0.14386   0.16206
 Alpha virt. eigenvalues --    0.16284   0.16380   0.17346   0.17627   0.17798
 Alpha virt. eigenvalues --    0.18122   0.19072   0.19236   0.19637   0.19732
 Alpha virt. eigenvalues --    0.21553   0.21601   0.22726   0.23106   0.23553
 Alpha virt. eigenvalues --    0.23807   0.24575   0.25332   0.26920   0.27603
 Alpha virt. eigenvalues --    0.28846   0.29288   0.29861   0.31360   0.35808
 Alpha virt. eigenvalues --    0.36440   0.38185   0.39273   0.41159   0.41405
 Alpha virt. eigenvalues --    0.41968   0.42201   0.42984   0.43678   0.44293
 Alpha virt. eigenvalues --    0.44958   0.45017   0.46116   0.46141   0.47947
 Alpha virt. eigenvalues --    0.48530   0.48866   0.49026   0.50422   0.51155
 Alpha virt. eigenvalues --    0.51583   0.51677   0.52115   0.52913   0.53969
 Alpha virt. eigenvalues --    0.54089   0.54649   0.55685   0.55761   0.57470
 Alpha virt. eigenvalues --    0.58240   0.58811   0.61441   0.62184   0.62356
 Alpha virt. eigenvalues --    0.63213   0.63488   0.64968   0.65151   0.67250
 Alpha virt. eigenvalues --    0.70403   0.70618   0.71019   0.72409   0.72860
 Alpha virt. eigenvalues --    0.75770   0.76018   0.76282   0.76897   0.77091
 Alpha virt. eigenvalues --    0.77816   0.77885   0.78237   0.79897   0.80390
 Alpha virt. eigenvalues --    0.81244   0.81657   0.82133   0.83015   0.85181
 Alpha virt. eigenvalues --    0.87160   0.88171   0.88602   0.89126   0.90397
 Alpha virt. eigenvalues --    0.91088   0.91256   0.93200   0.94637   0.96444
 Alpha virt. eigenvalues --    0.96628   1.00398   1.01273   1.01682   1.02718
 Alpha virt. eigenvalues --    1.03195   1.03861   1.04738   1.05404   1.08776
 Alpha virt. eigenvalues --    1.19553   1.23273   1.24048   1.25274   1.27993
 Alpha virt. eigenvalues --    1.29701   1.31758   1.34303   1.35768   1.36004
 Alpha virt. eigenvalues --    1.39348   1.40166   1.40946   1.43021   1.43449
 Alpha virt. eigenvalues --    1.43533   1.45142   1.45384   1.46359   1.46683
 Alpha virt. eigenvalues --    1.47637   1.48024   1.51726   1.53631   1.55772
 Alpha virt. eigenvalues --    1.55822   1.56348   1.56574   1.57774   1.61444
 Alpha virt. eigenvalues --    1.63227   1.63548   1.63745   1.66110   1.68303
 Alpha virt. eigenvalues --    1.68359   1.68694   1.69735   1.74386   1.75985
 Alpha virt. eigenvalues --    1.77159   1.78050   1.80005   1.80126   1.80696
 Alpha virt. eigenvalues --    1.83147   1.83227   1.83628   1.83817   1.84153
 Alpha virt. eigenvalues --    1.84292   1.85881   1.86059   1.88218   1.91386
 Alpha virt. eigenvalues --    1.92062   1.94128   1.95198   1.97688   1.98154
 Alpha virt. eigenvalues --    1.99744   2.02423   2.04415   2.07258   2.11744
 Alpha virt. eigenvalues --    2.12131   2.14104   2.15218   2.19098   2.21253
 Alpha virt. eigenvalues --    2.22791   2.28621   2.30157   2.34640   2.34943
 Alpha virt. eigenvalues --    2.36222   2.38673   2.39605   2.42372   2.44634
 Alpha virt. eigenvalues --    2.46208   2.46502   2.49354   2.52903   2.53801
 Alpha virt. eigenvalues --    2.54246   2.56789   2.57847   2.58309   2.59644
 Alpha virt. eigenvalues --    2.59815   2.61599   2.62116   2.63522   2.63803
 Alpha virt. eigenvalues --    2.64778   2.65117   2.65229   2.65308   2.67946
 Alpha virt. eigenvalues --    2.68562   2.70957   2.71408   2.73341   2.74823
 Alpha virt. eigenvalues --    2.76305   2.78721   2.79724   2.82895   2.83061
 Alpha virt. eigenvalues --    2.84891   2.86298   2.92114   2.97004   2.99498
 Alpha virt. eigenvalues --    3.00068   3.05040   3.11084   3.11427   3.13076
 Alpha virt. eigenvalues --    3.20800   3.23985   3.26705   3.28217   3.30756
 Alpha virt. eigenvalues --    3.32841   3.33582   3.43402   3.45906   3.46560
 Alpha virt. eigenvalues --    3.48529   3.50137   3.56495   3.65838   3.66701
 Alpha virt. eigenvalues --    3.67592   3.94174   3.94578   3.95174   3.96229
 Alpha virt. eigenvalues --    4.03980   4.06851   4.07517   4.12549   4.35507
 Alpha virt. eigenvalues --    4.61337   4.69805   4.71641  23.45339  23.60511
 Alpha virt. eigenvalues --   23.82234  23.85394  23.88122  23.89302  23.90547
 Alpha virt. eigenvalues --   23.92320  23.97766  23.99420  24.00042  24.00158
 Alpha virt. eigenvalues --   24.10399  24.10791
          Condensed to atoms (all electrons):
               1          2          3          4          5          6
     1  C    8.594961   0.315134  -0.555629   2.015338  -0.041072  -0.095918
     2  C    0.315134   7.109414   0.350673  -1.068044  -0.019755  -0.014626
     3  C   -0.555629   0.350673   6.583472   0.746101  -0.121425   0.016953
     4  C    2.015338  -1.068044   0.746101  11.051140  -0.365334  -0.126694
     5  C   -0.041072  -0.019755  -0.121425  -0.365334  10.959974   0.778949
     6  C   -0.095918  -0.014626   0.016953  -0.126694   0.778949   6.593551
     7  C   -0.014760   0.001612  -0.014438  -0.016693  -1.085554   0.358377
     8  C    0.406196  -0.021734  -0.095498  -0.017294   1.944393  -0.534174
     9  C   -1.132348  -0.799387   0.296835  -0.186037  -0.252375   0.291459
    10  C   -1.284033   0.243109  -0.340590  -2.574776  -2.573714  -0.366072
    11  C    0.252197  -0.901724   1.006197  -0.280368  -1.489950  -0.176796
    12  C   -2.124803   1.349081  -1.375018  -1.674967  -0.314049  -0.197907
    13  C    0.223236  -0.229751  -0.172248  -1.511165  -0.259110   1.012481
    14  C   -1.060749  -0.191417  -0.200322  -0.351734  -1.523610  -1.417270
    15  H    0.368648  -0.105573  -0.001560   0.027498   0.005666   0.001116
    16  H   -0.017707   0.378243  -0.017250   0.013995  -0.001545  -0.000331
    17  H   -0.024626  -0.016903   0.374764  -0.068149   0.000330   0.000403
    18  H    0.050500   0.003533  -0.085732   0.457858   0.006206  -0.005137
    19  H   -0.046847  -0.007706   0.051033  -0.072068  -0.067488   0.051427
    20  H    0.007069   0.002049  -0.005023   0.006488   0.457461  -0.083853
    21  H   -0.001296  -0.000399   0.000396   0.000310  -0.067701   0.375084
    22  H    0.000630   0.000359  -0.000326  -0.001541   0.013239  -0.016148
    23  H    0.005687  -0.002595   0.001093   0.005815   0.027170  -0.001246
    24  H    0.034919   0.015809  -0.001075  -0.013758  -0.010765  -0.001948
    25  H    0.029545   0.012911  -0.002128  -0.011091  -0.013202  -0.001001
               7          8          9         10         11         12
     1  C   -0.014760   0.406196  -1.132348  -1.284033   0.252197  -2.124803
     2  C    0.001612  -0.021734  -0.799387   0.243109  -0.901724   1.349081
     3  C   -0.014438  -0.095498   0.296835  -0.340590   1.006197  -1.375018
     4  C   -0.016693  -0.017294  -0.186037  -2.574776  -0.280368  -1.674967
     5  C   -1.085554   1.944393  -0.252375  -2.573714  -1.489950  -0.314049
     6  C    0.358377  -0.534174   0.291459  -0.366072  -0.176796  -0.197907
     7  C    7.163217   0.320125  -0.806775   0.254277  -0.256524  -0.200732
     8  C    0.320125   8.593597  -1.200572  -1.281165   0.194213  -1.099566
     9  C   -0.806775  -1.200572   9.598523   0.259663   1.588790  -1.965890
    10  C    0.254277  -1.281165   0.259663   9.159595  -0.444975   2.451016
    11  C   -0.256524   0.194213   1.588790  -0.444975  14.569554  -3.745992
    12  C   -0.200732  -1.099566  -1.965890   2.451016  -3.745992  16.122343
    13  C   -0.923881   0.340099   1.641779  -0.463959   1.092674  -4.772195
    14  C    1.352056  -2.041220  -1.916134   2.407635  -4.830344   3.086728
    15  H   -0.002724   0.005776   0.092417  -0.009629  -0.031282  -0.025772
    16  H    0.000372   0.000807   0.004045  -0.009559   0.027381  -0.035215
    17  H   -0.000402  -0.001337  -0.005726   0.020464  -0.026661   0.091496
    18  H    0.002040   0.007411  -0.024588   0.013095  -0.007164  -0.055241
    19  H   -0.007702  -0.046752   0.075659   0.421844   0.075824  -0.065047
    20  H    0.002385   0.049784  -0.025141   0.012664  -0.011773  -0.014168
    21  H   -0.015934  -0.025195  -0.005766   0.020557  -0.006477   0.005340
    22  H    0.379710  -0.020844   0.002958  -0.009261   0.003067  -0.009014
    23  H   -0.106604   0.365823   0.090584  -0.009542   0.001581   0.006666
    24  H    0.013150   0.029189   0.357238   0.005522   0.011452  -0.057413
    25  H    0.015985   0.037703   0.355395   0.005112   0.014716  -0.062455
              13         14         15         16         17         18
     1  C    0.223236  -1.060749   0.368648  -0.017707  -0.024626   0.050500
     2  C   -0.229751  -0.191417  -0.105573   0.378243  -0.016903   0.003533
     3  C   -0.172248  -0.200322  -0.001560  -0.017250   0.374764  -0.085732
     4  C   -1.511165  -0.351734   0.027498   0.013995  -0.068149   0.457858
     5  C   -0.259110  -1.523610   0.005666  -0.001545   0.000330   0.006206
     6  C    1.012481  -1.417270   0.001116  -0.000331   0.000403  -0.005137
     7  C   -0.923881   1.352056  -0.002724   0.000372  -0.000402   0.002040
     8  C    0.340099  -2.041220   0.005776   0.000807  -0.001337   0.007411
     9  C    1.641779  -1.916134   0.092417   0.004045  -0.005726  -0.024588
    10  C   -0.463959   2.407635  -0.009629  -0.009559   0.020464   0.013095
    11  C    1.092674  -4.830344  -0.031282   0.027381  -0.026661  -0.007164
    12  C   -4.772195   3.086728  -0.025772  -0.035215   0.091496  -0.055241
    13  C   14.401545  -3.790445   0.001462   0.003081  -0.006126  -0.011859
    14  C   -3.790445  15.999656   0.006512  -0.009181   0.005308  -0.013707
    15  H    0.001462   0.006512   0.438951  -0.009053   0.001454   0.000168
    16  H    0.003081  -0.009181  -0.009053   0.419407  -0.006602   0.001954
    17  H   -0.006126   0.005308   0.001454  -0.006602   0.422165  -0.010185
    18  H   -0.011859  -0.013707   0.000168   0.001954  -0.010185   0.453694
    19  H    0.079063  -0.065545   0.000318  -0.000539   0.001416  -0.006306
    20  H   -0.006770  -0.053655  -0.000112   0.000015  -0.000142   0.001266
    21  H   -0.028212   0.092620   0.000014  -0.000007   0.000010  -0.000144
    22  H    0.026273  -0.031538  -0.000128   0.000008  -0.000007   0.000015
    23  H   -0.029443  -0.023137   0.000579  -0.000126   0.000014  -0.000113
    24  H    0.014443  -0.060967  -0.000842   0.000579  -0.000126   0.000142
    25  H    0.013234  -0.059377  -0.001012   0.000677  -0.000156   0.000220
              19         20         21         22         23         24
     1  C   -0.046847   0.007069  -0.001296   0.000630   0.005687   0.034919
     2  C   -0.007706   0.002049  -0.000399   0.000359  -0.002595   0.015809
     3  C    0.051033  -0.005023   0.000396  -0.000326   0.001093  -0.001075
     4  C   -0.072068   0.006488   0.000310  -0.001541   0.005815  -0.013758
     5  C   -0.067488   0.457461  -0.067701   0.013239   0.027170  -0.010765
     6  C    0.051427  -0.083853   0.375084  -0.016148  -0.001246  -0.001948
     7  C   -0.007702   0.002385  -0.015934   0.379710  -0.106604   0.013150
     8  C   -0.046752   0.049784  -0.025195  -0.020844   0.365823   0.029189
     9  C    0.075659  -0.025141  -0.005766   0.002958   0.090584   0.357238
    10  C    0.421844   0.012664   0.020557  -0.009261  -0.009542   0.005522
    11  C    0.075824  -0.011773  -0.006477   0.003067   0.001581   0.011452
    12  C   -0.065047  -0.014168   0.005340  -0.009014   0.006666  -0.057413
    13  C    0.079063  -0.006770  -0.028212   0.026273  -0.029443   0.014443
    14  C   -0.065545  -0.053655   0.092620  -0.031538  -0.023137  -0.060967
    15  H    0.000318  -0.000112   0.000014  -0.000128   0.000579  -0.000842
    16  H   -0.000539   0.000015  -0.000007   0.000008  -0.000126   0.000579
    17  H    0.001416  -0.000142   0.000010  -0.000007   0.000014  -0.000126
    18  H   -0.006306   0.001266  -0.000144   0.000015  -0.000113   0.000142
    19  H    0.442728  -0.006103   0.001419  -0.000540   0.000297   0.000602
    20  H   -0.006103   0.453537  -0.010350   0.001891   0.000181   0.000205
    21  H    0.001419  -0.010350   0.422762  -0.006674   0.001483  -0.000156
    22  H   -0.000540   0.001891  -0.006674   0.419525  -0.008986   0.000683
    23  H    0.000297   0.000181   0.001483  -0.008986   0.439162  -0.001064
    24  H    0.000602   0.000205  -0.000156   0.000683  -0.001064   0.494093
    25  H    0.000587   0.000157  -0.000130   0.000585  -0.000718  -0.079640
              25
     1  C    0.029545
     2  C    0.012911
     3  C   -0.002128
     4  C   -0.011091
     5  C   -0.013202
     6  C   -0.001001
     7  C    0.015985
     8  C    0.037703
     9  C    0.355395
    10  C    0.005112
    11  C    0.014716
    12  C   -0.062455
    13  C    0.013234
    14  C   -0.059377
    15  H   -0.001012
    16  H    0.000677
    17  H   -0.000156
    18  H    0.000220
    19  H    0.000587
    20  H    0.000157
    21  H   -0.000130
    22  H    0.000585
    23  H   -0.000718
    24  H   -0.079640
    25  H    0.493652
 Mulliken charges:
               1
     1  C    0.095732
     2  C   -0.402315
     3  C   -0.439254
     4  C    0.015171
     5  C    0.013263
     6  C   -0.440679
     7  C   -0.410582
     8  C    0.090233
     9  C   -0.334606
    10  C    0.092722
    11  C   -0.627617
    12  C    0.682773
    13  C   -0.644208
    14  C    0.689834
    15  H    0.237108
    16  H    0.256555
    17  H    0.249324
    18  H    0.222075
    19  H    0.190426
    20  H    0.221938
    21  H    0.248446
    22  H    0.256065
    23  H    0.237440
    24  H    0.249727
    25  H    0.250429
 Sum of Mulliken charges =   1.00000
 Mulliken charges with hydrogens summed into heavy atoms:
               1
     1  C    0.332840
     2  C   -0.145761
     3  C   -0.189930
     4  C    0.237246
     5  C    0.235201
     6  C   -0.192233
     7  C   -0.154518
     8  C    0.327673
     9  C    0.165550
    10  C    0.283149
    11  C   -0.627617
    12  C    0.682773
    13  C   -0.644208
    14  C    0.689834
 Electronic spatial extent (au):  <R**2>=           2855.9239
 Charge=              1.0000 electrons
 Dipole moment (field-independent basis, Debye):
    X=             -0.0158    Y=              0.1874    Z=              0.0008  Tot=              0.1881
 Quadrupole moment (field-independent basis, Debye-Ang):
   XX=            -31.1162   YY=            -56.2624   ZZ=            -84.1418
   XY=             -0.0088   XZ=             -0.0147   YZ=              0.0022
 Traceless Quadrupole moment (field-independent basis, Debye-Ang):
   XX=             26.0572   YY=              0.9111   ZZ=            -26.9683
   XY=             -0.0088   XZ=             -0.0147   YZ=              0.0022
 Octapole moment (field-independent basis, Debye-Ang**2):
  XXX=             -0.6569  YYY=              5.2092  ZZZ=              0.0092  XYY=              0.0057
  XXY=             -5.1737  XXZ=              0.0005  XZZ=              0.0802  YZZ=             -3.0883
  YYZ=             -0.0192  XYZ=             -0.0737
 Hexadecapole moment (field-independent basis, Debye-Ang**3):
 XXXX=          -2122.4435 YYYY=           -609.2449 ZZZZ=            -99.3318 XXXY=             -0.3734
 XXXZ=             -0.4146 YYYX=              0.1558 YYYZ=              0.0575 ZZZX=             -0.0188
 ZZZY=             -0.0122 XXYY=           -507.7150 XXZZ=           -590.7536 YYZZ=           -145.7038
 XXYZ=             -0.0113 YYXZ=             -0.0011 ZZXY=             -0.0075
 N-N= 7.811977494005D+02 E-N=-2.798737334417D+03  KE= 5.375062352939D+02
 Unable to Open any file for archive entry.
 1\1\GINC-GADI-CPU-CLX-0113\SP\RM062X TD-FC\6-311++G(d,p)\C14H11(1+)\TS
 1578\28-Jul-2022\0\\#n M062X/6-311++G(d,p) TD(NStates=1) EmpiricalDisp
 ersion=GD3 SP\\SP_-150\\1,1\C,0,-0.0057,2.494455,1.360431\C,0,-0.00285
 ,3.702558,0.671989\C,0,-0.0018,3.686861,-0.71383\C,0,-0.0003,2.463756,
 -1.407538\C,0,0.0003,-2.462556,-1.407538\C,0,0.0018,-3.680861,-0.71383
 \C,0,0.00285,-3.700458,0.671989\C,0,0.0057,-2.490855,1.360431\C,0,0.00
 015,-0.0132,1.453369\C,0,0.,0.0006,-1.429189\C,0,-0.00045,1.261905,0.6
 77065\C,0,0.0012,1.236571,-0.730804\C,0,0.00045,-1.262205,0.677065\C,0
 ,-0.0012,-1.238371,-0.730804\H,0,-0.0066,2.490021,2.443647\H,0,-0.0034
 5,4.639003,1.211689\H,0,-0.0009,4.613012,-1.272349\H,0,0.0009,2.468,-2
 .490059\H,0,0.,0.0003,-2.510266\H,0,-0.0009,-2.4671,-2.490059\H,0,0.00
 09,-4.605512,-1.272349\H,0,0.00345,-4.634503,1.211689\H,0,0.0066,-2.48
 6121,2.443647\H,0,-0.859585,-0.003,2.149087\H,0,0.859585,-0.003,2.1424
 87\\Version=ES64L-G16RevC.01\State=1-A\HF=-539.7600326\RMSD=4.963e-09\
 PG=C01 [X(C14H11)]\\@
 The archive entry for this job was punched.


 HE WHO LAUGHS LAST PROBABLY DIDN'T GET THE JOKE.
 Job cpu time:       0 days  1 hours 19 minutes 54.7 seconds.
 Elapsed time:       0 days  0 hours  1 minutes 40.3 seconds.
 File lengths (MBytes):  RWF=    460 Int=      0 D2E=      0 Chk=     15 Scr=      1
 Normal termination of Gaussian 16 at Thu Jul 28 12:51:55 2022.
