 Entering Gaussian System, Link 0=g16
 Initial command:
 /apps/gaussian/g16c01/g16/l1.exe "/jobfs/53002009.gadi-pbs/Gau-787579.inp" -scrdir="/jobfs/53002009.gadi-pbs/"
 Entering Link 1 = /apps/gaussian/g16c01/g16/l1.exe PID=    787580.
  
 Copyright (c) 1988-2019, Gaussian, Inc.  All Rights Reserved.
  
 This is part of the Gaussian(R) 16 program.  It is based on
 the Gaussian(R) 09 system (copyright 2009, Gaussian, Inc.),
 the Gaussian(R) 03 system (copyright 2003, Gaussian, Inc.),
 the Gaussian(R) 98 system (copyright 1998, Gaussian, Inc.),
 the Gaussian(R) 94 system (copyright 1995, Gaussian, Inc.),
 the Gaussian 92(TM) system (copyright 1992, Gaussian, Inc.),
 the Gaussian 90(TM) system (copyright 1990, Gaussian, Inc.),
 the Gaussian 88(TM) system (copyright 1988, Gaussian, Inc.),
 the Gaussian 86(TM) system (copyright 1986, Carnegie Mellon
 University), and the Gaussian 82(TM) system (copyright 1983,
 Carnegie Mellon University). Gaussian is a federally registered
 trademark of Gaussian, Inc.
  
 This software contains proprietary and confidential information,
 including trade secrets, belonging to Gaussian, Inc.
  
 This software is provided under written license and may be
 used, copied, transmitted, or stored only in accord with that
 written license.
  
 The following legend is applicable only to US Government
 contracts under FAR:
  
                    RESTRICTED RIGHTS LEGEND
  
 Use, reproduction and disclosure by the US Government is
 subject to restrictions as set forth in subparagraphs (a)
 and (c) of the Commercial Computer Software - Restricted
 Rights clause in FAR 52.227-19.
  
 Gaussian, Inc.
 340 Quinnipiac St., Bldg. 40, Wallingford CT 06492
  
  
 ---------------------------------------------------------------
 Warning -- This program may not be used in any manner that
 competes with the business of Gaussian, Inc. or will provide
 assistance to any competitor of Gaussian, Inc.  The licensee
 of this program is prohibited from giving any competitor of
 Gaussian, Inc. access to this program.  By using this program,
 the user acknowledges that Gaussian, Inc. is engaged in the
 business of creating and licensing software in the field of
 computational chemistry and represents and warrants to the
 licensee that it is not a competitor of Gaussian, Inc. and that
 it will not use this program in any manner prohibited above.
 ---------------------------------------------------------------
  

 Cite this work as:
 Gaussian 16, Revision C.01,
 M. J. Frisch, G. W. Trucks, H. B. Schlegel, G. E. Scuseria, 
 M. A. Robb, J. R. Cheeseman, G. Scalmani, V. Barone, 
 G. A. Petersson, H. Nakatsuji, X. Li, M. Caricato, A. V. Marenich, 
 J. Bloino, B. G. Janesko, R. Gomperts, B. Mennucci, H. P. Hratchian, 
 J. V. Ortiz, A. F. Izmaylov, J. L. Sonnenberg, D. Williams-Young, 
 F. Ding, F. Lipparini, F. Egidi, J. Goings, B. Peng, A. Petrone, 
 T. Henderson, D. Ranasinghe, V. G. Zakrzewski, J. Gao, N. Rega, 
 G. Zheng, W. Liang, M. Hada, M. Ehara, K. Toyota, R. Fukuda, 
 J. Hasegawa, M. Ishida, T. Nakajima, Y. Honda, O. Kitao, H. Nakai, 
 T. Vreven, K. Throssell, J. A. Montgomery, Jr., J. E. Peralta, 
 F. Ogliaro, M. J. Bearpark, J. J. Heyd, E. N. Brothers, K. N. Kudin, 
 V. N. Staroverov, T. A. Keith, R. Kobayashi, J. Normand, 
 K. Raghavachari, A. P. Rendell, J. C. Burant, S. S. Iyengar, 
 J. Tomasi, M. Cossi, J. M. Millam, M. Klene, C. Adamo, R. Cammi, 
 J. W. Ochterski, R. L. Martin, K. Morokuma, O. Farkas, 
 J. B. Foresman, and D. J. Fox, Gaussian, Inc., Wallingford CT, 2019.
 
 ******************************************
 Gaussian 16:  ES64L-G16RevC.01  3-Jul-2019
                28-Jul-2022 
 ******************************************
 %NProcShared=48
 Will use up to   48 processors via shared memory.
 %mem = 190GB
 ---------------------------------------------------------------
 #n M062X/6-311++G(d,p) TD(NStates=1) EmpiricalDispersion=GD3 SP
 ---------------------------------------------------------------
 1/38=1,172=1/1;
 2/12=2,17=6,18=5,40=1/2;
 3/5=4,6=6,7=1111,11=9,25=1,30=1,74=-55,124=31/1,2,3,8;
 4//1;
 5/5=2,38=5/2;
 8/6=1,10=2,108=1/1;
 9/41=1,42=1,70=2/14;
 6/7=2,8=2,9=2,10=2/1;
 99/5=1,9=1/99;
 -----
 SP_75
 -----
 Symbolic Z-matrix:
 Charge =  1 Multiplicity = 1
 C                     0.00285   2.49176   1.36043 
 C                     0.00143   3.70098   0.67199 
 C                     0.0009    3.68236  -0.71383 
 C                     0.00015   2.46286  -1.40754 
 C                    -0.00015  -2.46346  -1.40754 
 C                    -0.0009   -3.68536  -0.71383 
 C                    -0.00143  -3.70203   0.67199 
 C                    -0.00285  -2.49356   1.36043 
 C                    -0.00008   0.0066    1.45337 
 C                     0.       -0.0003   -1.42919 
 C                     0.00022   1.26213   0.67707 
 C                    -0.0006    1.23792  -0.7308 
 C                    -0.00022  -1.26198   0.67707 
 C                     0.0006   -1.23702  -0.7308 
 H                     0.0033    2.4871    2.44365 
 H                     0.00172   4.63563   1.21169 
 H                     0.00045   4.60739  -1.27235 
 H                    -0.00045   2.46733  -2.49006 
 H                     0.       -0.00015  -2.51027 
 H                     0.00045  -2.46778  -2.49006 
 H                    -0.00045  -4.61114  -1.27235 
 H                    -0.00172  -4.63788   1.21169 
 H                    -0.0033   -2.48905   2.44365 
 H                    -0.85959   0.0015    2.14414 
 H                     0.85959   0.0015    2.14744 
 
                          Input orientation:                          
 ---------------------------------------------------------------------
 Center     Atomic      Atomic             Coordinates (Angstroms)
 Number     Number       Type             X           Y           Z
 ---------------------------------------------------------------------
      1          6           0        0.002850    2.491755    1.360431
      2          6           0        0.001425    3.700983    0.671989
      3          6           0        0.000900    3.682361   -0.713830
      4          6           0        0.000150    2.462856   -1.407538
      5          6           0       -0.000150   -2.463456   -1.407538
      6          6           0       -0.000900   -3.685361   -0.713830
      7          6           0       -0.001425   -3.702033    0.671989
      8          6           0       -0.002850   -2.493555    1.360431
      9          6           0       -0.000075    0.006600    1.453369
     10          6           0        0.000000   -0.000300   -1.429189
     11          6           0        0.000225    1.262130    0.677065
     12          6           0       -0.000600    1.237921   -0.730804
     13          6           0       -0.000225   -1.261980    0.677065
     14          6           0        0.000600   -1.237021   -0.730804
     15          1           0        0.003300    2.487096    2.443647
     16          1           0        0.001725    4.635628    1.211689
     17          1           0        0.000450    4.607387   -1.272349
     18          1           0       -0.000450    2.467325   -2.490059
     19          1           0        0.000000   -0.000150   -2.510266
     20          1           0        0.000450   -2.467775   -2.490059
     21          1           0       -0.000450   -4.611137   -1.272349
     22          1           0       -0.001725   -4.637878    1.211689
     23          1           0       -0.003300   -2.489046    2.443647
     24          1           0       -0.859585    0.001500    2.144137
     25          1           0        0.859585    0.001500    2.147437
 ---------------------------------------------------------------------
                    Distance matrix (angstroms):
                    1          2          3          4          5
     1  C    0.000000
     2  C    1.391469   0.000000
     3  C    2.391674   1.385944   0.000000
     4  C    2.768121   2.420205   1.403005   0.000000
     5  C    5.675894   6.505747   6.184844   4.926312   0.000000
     6  C    6.516083   7.515223   7.367722   6.187229   1.405092
     7  C    6.231932   7.403017   7.513306   6.506173   2.420435
     8  C    4.985313   6.232678   6.514945   5.676942   2.768134
     9  C    2.486894   3.776112   4.267080   3.770674   3.779678
    10  C    3.740632   4.256107   3.751497   2.463251   2.463251
    11  C    1.406760   2.438859   2.791435   2.405683   4.269141
    12  C    2.438314   2.834521   2.444499   1.399441   3.762733
    13  C    3.815432   4.962966   5.136253   4.268486   2.406058
    14  C    4.275165   5.133392   4.919411   3.761258   1.400754
    15  H    1.083226   2.147626   3.376141   3.851263   6.272129
    16  H    2.149027   1.079276   2.148567   3.403130   7.566858
    17  H    3.377489   2.145232   1.080563   2.148788   7.072135
    18  H    3.850569   3.394181   2.152046   1.082530   5.048213
    19  H    4.603465   4.881100   4.097325   2.698594   2.698867
    20  H    6.278791   6.931964   6.401497   5.048066   1.082530
    21  H    7.575131   8.536498   8.312283   7.075285   2.151932
    22  H    7.131186   8.356308   8.540141   7.568406   3.404183
    23  H    5.097232   6.438575   6.932239   6.273195   3.851271
    24  H    2.749429   4.073663   4.738897   4.405884   4.407838
    25  H    2.748589   4.074256   4.740562   4.408486   4.410555
                    6          7          8          9         10
     6  C    0.000000
     7  C    1.385919   0.000000
     8  C    2.392272   1.390818   0.000000
     9  C    4.281043   3.790055   2.501883   0.000000
    10  C    3.753853   4.256498   3.741431   2.882566   0.000000
    11  C    5.139286   4.964166   3.817351   1.476145   2.455613
    12  C    4.923311   5.135268   4.277521   2.507342   1.421595
    13  C    2.794166   2.440059   1.408465   1.487260   2.455228
    14  C    2.448399   2.836215   2.439704   2.513405   1.420289
    15  H    6.933174   6.437710   5.097085   2.670865   4.602826
    16  H    8.540872   8.355111   7.130736   4.635333   5.335360
    17  H    8.311535   8.533869   7.573303   5.347596   4.610356
    18  H    6.403947   6.932498   6.279857   4.648203   2.686004
    19  H    4.099752   4.881668   4.604278   3.963641   1.081077
    20  H    2.153487   3.394399   3.850578   4.655444   2.685866
    21  H    1.081205   2.146374   3.378711   5.362186   4.613504
    22  H    2.148235   1.080316   2.149476   4.650762   5.336794
    23  H    3.376512   2.147117   1.083225   2.684941   4.603556
    24  H    4.743233   4.076741   2.751997   1.102698   3.675262
    25  H    4.745548   4.078534   2.754718   1.104885   3.678470
                   11         12         13         14         15
    11  C    0.000000
    12  C    1.408077   0.000000
    13  C    2.524110   2.869077   0.000000
    14  C    2.868423   2.474942   1.408090   0.000000
    15  H    2.149736   3.411392   4.144441   4.893485   0.000000
    16  H    3.415599   3.913783   5.921791   6.185571   2.476674
    17  H    3.871816   3.412708   6.184633   5.869444   4.278349
    18  H    3.388683   2.146255   4.892687   4.100873   4.933747
    19  H    3.428182   2.167788   3.428016   2.167103   5.543253
    20  H    4.893145   4.102092   3.388896   2.147029   6.992296
    21  H    6.188334   5.874074   3.875186   3.417299   8.012088
    22  H    5.924181   6.188562   3.417969   3.916518   7.230698
    23  H    4.146341   4.895654   2.150933   3.412436   4.976146
    24  H    2.116781   3.245285   2.118297   3.246404   2.648106
    25  H    2.118887   3.248527   2.120766   3.249009   2.645591
                   16         17         18         19         20
    16  H    0.000000
    17  H    2.484199   0.000000
    18  H    4.290044   2.462252   0.000000
    19  H    5.945031   4.770937   2.467558   0.000000
    20  H    8.010073   7.179188   4.935100   2.467708   0.000000
    21  H    9.574608   9.218524   7.182440   4.774269   2.465121
    22  H    9.273507   9.573159   8.011670   5.946551   4.290954
    23  H    7.230403   8.010493   6.993359   5.543994   4.933753
    24  H    4.804837   5.798813   5.319227   4.733113   5.320973
    25  H    4.804861   5.800624   5.322248   4.736358   5.323702
                   21         22         23         24         25
    21  H    0.000000
    22  H    2.484182   0.000000
    23  H    4.279241   2.476934   0.000000
    24  H    5.804043   4.809284   2.650613   0.000000
    25  H    5.806119   4.810541   2.652382   1.719173   0.000000
 Stoichiometry    C14H11(1+)
 Framework group  C1[X(C14H11)]
 Deg. of freedom    69
 Full point group                 C1      NOp   1
 Largest Abelian subgroup         C1      NOp   1
 Largest concise Abelian subgroup C1      NOp   1
                         Standard orientation:                         
 ---------------------------------------------------------------------
 Center     Atomic      Atomic             Coordinates (Angstroms)
 Number     Number       Type             X           Y           Z
 ---------------------------------------------------------------------
      1          6           0        2.491930   -1.360116   -0.001944
      2          6           0        3.701070   -0.671520   -0.000098
      3          6           0        3.682272    0.714296    0.000399
      4          6           0        2.462679    1.407850    0.000703
      5          6           0       -2.463632    1.407226   -0.000756
      6          6           0       -3.685450    0.713363   -0.000432
      7          6           0       -3.701947   -0.672458    0.000109
      8          6           0       -2.493382   -1.360747    0.001976
      9          6           0        0.006786   -1.453368    0.000095
     10          6           0       -0.000479    1.429189   -0.000027
     11          6           0        1.262217   -0.676905    0.000231
     12          6           0        1.237830    0.730961    0.001026
     13          6           0       -1.261893   -0.677225   -0.000220
     14          6           0       -1.237112    0.730647   -0.001058
     15          1           0        2.487408   -2.443332   -0.002379
     16          1           0        4.635783   -1.211102   -0.000056
     17          1           0        4.607227    1.272932    0.001170
     18          1           0        2.467011    2.490371    0.001287
     19          1           0       -0.000466    2.510266   -0.000044
     20          1           0       -2.468088    2.489747   -0.001375
     21          1           0       -4.611296    1.271765   -0.001221
     22          1           0       -4.637723   -1.212276    0.000083
     23          1           0       -2.488736   -2.443962    0.002445
     24          1           0        0.001466   -2.144123    0.859614
     25          1           0        0.002080   -2.147450   -0.859556
 ---------------------------------------------------------------------
 Rotational constants (GHZ):           2.1362256           0.4446264           0.3688268
 Standard basis: 6-311++G(d,p) (5D, 7F)
 There are   399 symmetry adapted cartesian basis functions of A   symmetry.
 There are   385 symmetry adapted basis functions of A   symmetry.
   385 basis functions,   603 primitive gaussians,   399 cartesian basis functions
    47 alpha electrons       47 beta electrons
       nuclear repulsion energy       781.1978152733 Hartrees.
 NAtoms=   25 NActive=   25 NUniq=   25 SFac= 1.00D+00 NAtFMM=   60 NAOKFM=F Big=F
 Integral buffers will be    131072 words long.
 Regular integral format.
 Two-electron integral symmetry is turned on.
 Nuclear repulsion after empirical dispersion term =      781.1968357825 Hartrees.
 One-electron integrals computed using PRISM.
 NBasis=   385 RedAO= T EigKep=  1.12D-06  NBF=   385
 NBsUse=   379 1.00D-06 EigRej=  8.39D-07 NBFU=   379
 ExpMin= 3.60D-02 ExpMax= 4.56D+03 ExpMxC= 6.82D+02 IAcc=3 IRadAn=         5 AccDes= 0.00D+00
 Harris functional with IExCor= 1009 and IRadAn=       5 diagonalized for initial guess.
 HarFok:  IExCor= 1009 AccDes= 0.00D+00 IRadAn=         5 IDoV= 1 UseB2=F ITyADJ=14
 ICtDFT=  3500011 ScaDFX=  1.000000  1.000000  1.000000  1.000000
 FoFCou: FMM=F IPFlag=           0 FMFlag=      100000 FMFlg1=           0
         NFxFlg=           0 DoJE=T BraDBF=F KetDBF=T FulRan=T
         wScrn=  0.000000 ICntrl=       500 IOpCl=  0 I1Cent=   200000004 NGrid=           0
         NMat0=    1 NMatS0=      1 NMatT0=    0 NMatD0=    1 NMtDS0=    0 NMtDT0=    0
 Petite list used in FoFCou.
 Requested convergence on RMS density matrix=1.00D-08 within 128 cycles.
 Requested convergence on MAX density matrix=1.00D-06.
 Requested convergence on             energy=1.00D-06.
 No special actions if energy rises.
 SCF Done:  E(RM062X) =  -539.760183350     A.U. after   15 cycles
            NFock= 15  Conv=0.44D-08     -V/T= 2.0042
 DoSCS=F DFT=T ScalE2(SS,OS)=  1.000000  1.000000
 ExpMin= 3.60D-02 ExpMax= 4.56D+03 ExpMxC= 6.82D+02 IAcc=3 IRadAn=         5 AccDes= 0.00D+00
 HarFok:  IExCor=  205 AccDes= 0.00D+00 IRadAn=         5 IDoV=-2 UseB2=F ITyADJ=14
 ICtDFT= 12500011 ScaDFX=  1.000000  1.000000  1.000000  1.000000
 Range of M.O.s used for correlation:    15   379
 NBasis=   385 NAE=    47 NBE=    47 NFC=    14 NFV=     0
 NROrb=    365 NOA=    33 NOB=    33 NVA=   332 NVB=   332

 **** Warning!!: The largest alpha MO coefficient is  0.14978493D+03

 Orbital symmetries:
       Occupied  (A) (A) (A) (A) (A) (A) (A) (A) (A) (A) (A) (A)
                 (A) (A) (A) (A) (A) (A) (A) (A) (A) (A) (A) (A)
                 (A) (A) (A) (A) (A) (A) (A) (A) (A) (A) (A) (A)
                 (A) (A) (A) (A) (A) (A) (A) (A) (A) (A) (A)
       Virtual   (A) (A) (A) (A) (A) (A) (A) (A) (A) (A) (A) (A)
                 (A) (A) (A) (A) (A) (A) (A) (A) (A) (A) (A) (A)
                 (A) (A) (A) (A) (A) (A) (A) (A) (A) (A) (A) (A)
                 (A) (A) (A) (A) (A) (A) (A) (A) (A) (A) (A) (A)
                 (A) (A) (A) (A) (A) (A) (A) (A) (A) (A) (A) (A)
                 (A) (A) (A) (A) (A) (A) (A) (A) (A) (A) (A) (A)
                 (A) (A) (A) (A) (A) (A) (A) (A) (A) (A) (A) (A)
                 (A) (A) (A) (A) (A) (A) (A) (A) (A) (A) (A) (A)
                 (A) (A) (A) (A) (A) (A) (A) (A) (A) (A) (A) (A)
                 (A) (A) (A) (A) (A) (A) (A) (A) (A) (A) (A) (A)
                 (A) (A) (A) (A) (A) (A) (A) (A) (A) (A) (A) (A)
                 (A) (A) (A) (A) (A) (A) (A) (A) (A) (A) (A) (A)
                 (A) (A) (A) (A) (A) (A) (A) (A) (A) (A) (A) (A)
                 (A) (A) (A) (A) (A) (A) (A) (A) (A) (A) (A) (A)
                 (A) (A) (A) (A) (A) (A) (A) (A) (A) (A) (A) (A)
                 (A) (A) (A) (A) (A) (A) (A) (A) (A) (A) (A) (A)
                 (A) (A) (A) (A) (A) (A) (A) (A) (A) (A) (A) (A)
                 (A) (A) (A) (A) (A) (A) (A) (A) (A) (A) (A) (A)
                 (A) (A) (A) (A) (A) (A) (A) (A) (A) (A) (A) (A)
                 (A) (A) (A) (A) (A) (A) (A) (A) (A) (A) (A) (A)
                 (A) (A) (A) (A) (A) (A) (A) (A) (A) (A) (A) (A)
                 (A) (A) (A) (A) (A) (A) (A) (A) (A) (A) (A) (A)
                 (A) (A) (A) (A) (A) (A) (A) (A) (A) (A) (A) (A)
                 (A) (A) (A) (A) (A) (A) (A) (A) (A) (A) (A) (A)
                 (A) (A) (A) (A) (A) (A) (A) (A) (A) (A) (A) (A)
                 (A) (A) (A) (A) (A) (A) (A) (A) (A) (A) (A) (A)
                 (A) (A) (A) (A) (A) (A) (A) (A) (A) (A) (A) (A)
                 (A) (A) (A) (A) (A) (A) (A) (A)
     4 initial guesses have been made.
 Convergence on wavefunction:    0.001000000000000
 Iteration     1 Dimension     4 NMult     0 NNew      4
 CISAX will form     4 AO SS matrices at one time.
 Iteration     2 Dimension     6 NMult     4 NNew      2
 Iteration     3 Dimension     8 NMult     6 NNew      2
 Iteration     4 Dimension    10 NMult     8 NNew      2
 Iteration     5 Dimension    12 NMult    10 NNew      2
 Iteration     6 Dimension    14 NMult    12 NNew      2
 ***********************************************************************
 Excited states from <AA,BB:AA,BB> singles matrix:
 ***********************************************************************
 
 Ground to excited state transition densities written to RWF  633
 Ground to excited state transition electric dipole moments (Au):
       state          X           Y           Z        Dip. S.      Osc.
         1         0.0086     -0.6443     -0.0002      0.4152      0.0287
 Ground to excited state transition velocity dipole moments (Au):
       state          X           Y           Z        Dip. S.      Osc.
         1        -0.0009      0.0746      0.0000      0.0056      0.0357
 Ground to excited state transition magnetic dipole moments (Au):
       state          X           Y           Z
         1        -0.0001     -0.0006     -0.0004
 Ground to excited state transition velocity quadrupole moments (Au):
       state          XX          YY          ZZ          XY          XZ          YZ
         1         0.2975      0.0351     -0.0098     -0.0013      0.0001     -0.0001
 <0|del|b> * <b|rxdel|0> + <0|del|b> * <b|delr+rdel|0>
 Rotatory Strengths (R) in cgs (10**-40 erg-esu-cm/Gauss)
       state          XX          YY          ZZ    R(velocity)    E-M Angle
         1        -0.1733      0.0007     -0.1454     -0.1060       90.00
 1/2[<0|r|b>*<b|rxdel|0> + (<0|rxdel|b>*<b|r|0>)*]
 Rotatory Strengths (R) in cgs (10**-40 erg-esu-cm/Gauss)
       state          XX          YY          ZZ     R(length)
         1         0.0005     -0.2855     -0.0000     -0.0950
  1/2[<0|del|b>*<b|r|0> + (<0|r|b>*<b|del|0>)*] (Au)
       state          X           Y           Z        Dip. S.   Osc.(frdel)
         1        -0.0000     -0.0480     -0.0000      0.0480      0.0320

 Excitation energies and oscillator strengths:
 
 Excited State   1:      Singlet-A      2.8228 eV  439.22 nm  f=0.0287  <S**2>=0.000
      47 -> 48         0.70426
 This state for optimization and/or second-order correction.
 Total Energy, E(TD-HF/TD-DFT) =  -539.656447425    
 Copying the excited state density for this state as the 1-particle RhoCI density.
 SavETr:  write IOETrn=   770 NScale= 10 NData=  16 NLR=1 NState=    1 LETran=      28.

 **********************************************************************

            Population analysis using the SCF Density.

 **********************************************************************

 Orbital symmetries:
       Occupied  (A) (A) (A) (A) (A) (A) (A) (A) (A) (A) (A) (A)
                 (A) (A) (A) (A) (A) (A) (A) (A) (A) (A) (A) (A)
                 (A) (A) (A) (A) (A) (A) (A) (A) (A) (A) (A) (A)
                 (A) (A) (A) (A) (A) (A) (A) (A) (A) (A) (A)
       Virtual   (A) (A) (A) (A) (A) (A) (A) (A) (A) (A) (A) (A)
                 (A) (A) (A) (A) (A) (A) (A) (A) (A) (A) (A) (A)
                 (A) (A) (A) (A) (A) (A) (A) (A) (A) (A) (A) (A)
                 (A) (A) (A) (A) (A) (A) (A) (A) (A) (A) (A) (A)
                 (A) (A) (A) (A) (A) (A) (A) (A) (A) (A) (A) (A)
                 (A) (A) (A) (A) (A) (A) (A) (A) (A) (A) (A) (A)
                 (A) (A) (A) (A) (A) (A) (A) (A) (A) (A) (A) (A)
                 (A) (A) (A) (A) (A) (A) (A) (A) (A) (A) (A) (A)
                 (A) (A) (A) (A) (A) (A) (A) (A) (A) (A) (A) (A)
                 (A) (A) (A) (A) (A) (A) (A) (A) (A) (A) (A) (A)
                 (A) (A) (A) (A) (A) (A) (A) (A) (A) (A) (A) (A)
                 (A) (A) (A) (A) (A) (A) (A) (A) (A) (A) (A) (A)
                 (A) (A) (A) (A) (A) (A) (A) (A) (A) (A) (A) (A)
                 (A) (A) (A) (A) (A) (A) (A) (A) (A) (A) (A) (A)
                 (A) (A) (A) (A) (A) (A) (A) (A) (A) (A) (A) (A)
                 (A) (A) (A) (A) (A) (A) (A) (A) (A) (A) (A) (A)
                 (A) (A) (A) (A) (A) (A) (A) (A) (A) (A) (A) (A)
                 (A) (A) (A) (A) (A) (A) (A) (A) (A) (A) (A) (A)
                 (A) (A) (A) (A) (A) (A) (A) (A) (A) (A) (A) (A)
                 (A) (A) (A) (A) (A) (A) (A) (A) (A) (A) (A) (A)
                 (A) (A) (A) (A) (A) (A) (A) (A) (A) (A) (A) (A)
                 (A) (A) (A) (A) (A) (A) (A) (A) (A) (A) (A) (A)
                 (A) (A) (A) (A) (A) (A) (A) (A) (A) (A) (A) (A)
                 (A) (A) (A) (A) (A) (A) (A) (A) (A) (A) (A) (A)
                 (A) (A) (A) (A) (A) (A) (A) (A) (A) (A) (A) (A)
                 (A) (A) (A) (A) (A) (A) (A) (A) (A) (A) (A) (A)
                 (A) (A) (A) (A) (A) (A) (A) (A) (A) (A) (A) (A)
                 (A) (A) (A) (A) (A) (A) (A) (A)
 The electronic state is 1-A.
 Alpha  occ. eigenvalues --  -10.77665 -10.73282 -10.73199 -10.72438 -10.72433
 Alpha  occ. eigenvalues --  -10.71391 -10.71346 -10.71012 -10.70998 -10.70979
 Alpha  occ. eigenvalues --  -10.69988 -10.69956 -10.69650 -10.69609  -1.16443
 Alpha  occ. eigenvalues --   -1.12466  -1.06945  -1.05732  -1.01313  -1.00184
 Alpha  occ. eigenvalues --   -0.95782  -0.91056  -0.86419  -0.85901  -0.83816
 Alpha  occ. eigenvalues --   -0.78400  -0.76028  -0.74418  -0.69562  -0.69245
 Alpha  occ. eigenvalues --   -0.68505  -0.68193  -0.68102  -0.64739  -0.64285
 Alpha  occ. eigenvalues --   -0.63067  -0.61864  -0.60004  -0.59679  -0.59093
 Alpha  occ. eigenvalues --   -0.56897  -0.55219  -0.54833  -0.52438  -0.46625
 Alpha  occ. eigenvalues --   -0.46056  -0.44501
 Alpha virt. eigenvalues --   -0.26088  -0.14669  -0.14098  -0.12774  -0.11179
 Alpha virt. eigenvalues --   -0.10086  -0.09230  -0.07983  -0.07970  -0.07476
 Alpha virt. eigenvalues --   -0.07203  -0.07146  -0.05643  -0.05581  -0.05332
 Alpha virt. eigenvalues --   -0.03826  -0.03646  -0.03279  -0.03133  -0.02165
 Alpha virt. eigenvalues --   -0.01368  -0.00930   0.00192   0.00591   0.00663
 Alpha virt. eigenvalues --    0.01055   0.01513   0.01941   0.02220   0.02285
 Alpha virt. eigenvalues --    0.02450   0.02670   0.02746   0.03319   0.03370
 Alpha virt. eigenvalues --    0.04240   0.04505   0.04695   0.05031   0.05365
 Alpha virt. eigenvalues --    0.06034   0.06296   0.06596   0.07044   0.07254
 Alpha virt. eigenvalues --    0.07892   0.08164   0.08362   0.08537   0.08929
 Alpha virt. eigenvalues --    0.09548   0.09558   0.10037   0.10847   0.11049
 Alpha virt. eigenvalues --    0.11116   0.12171   0.12246   0.12918   0.12972
 Alpha virt. eigenvalues --    0.13410   0.13523   0.14017   0.14384   0.16227
 Alpha virt. eigenvalues --    0.16287   0.16363   0.17347   0.17626   0.17797
 Alpha virt. eigenvalues --    0.18122   0.19073   0.19235   0.19637   0.19732
 Alpha virt. eigenvalues --    0.21559   0.21591   0.22725   0.23109   0.23559
 Alpha virt. eigenvalues --    0.23804   0.24575   0.25330   0.26920   0.27604
 Alpha virt. eigenvalues --    0.28846   0.29293   0.29860   0.31359   0.35816
 Alpha virt. eigenvalues --    0.36431   0.38182   0.39275   0.41158   0.41405
 Alpha virt. eigenvalues --    0.41967   0.42201   0.42984   0.43679   0.44293
 Alpha virt. eigenvalues --    0.44963   0.45012   0.46116   0.46143   0.47948
 Alpha virt. eigenvalues --    0.48530   0.48867   0.49026   0.50423   0.51157
 Alpha virt. eigenvalues --    0.51587   0.51676   0.52115   0.52908   0.53969
 Alpha virt. eigenvalues --    0.54089   0.54651   0.55685   0.55760   0.57470
 Alpha virt. eigenvalues --    0.58240   0.58812   0.61441   0.62191   0.62347
 Alpha virt. eigenvalues --    0.63213   0.63490   0.64968   0.65153   0.67255
 Alpha virt. eigenvalues --    0.70413   0.70609   0.71019   0.72410   0.72866
 Alpha virt. eigenvalues --    0.75777   0.76015   0.76285   0.76903   0.77091
 Alpha virt. eigenvalues --    0.77834   0.77878   0.78237   0.79885   0.80393
 Alpha virt. eigenvalues --    0.81244   0.81658   0.82132   0.83014   0.85183
 Alpha virt. eigenvalues --    0.87163   0.88175   0.88605   0.89122   0.90404
 Alpha virt. eigenvalues --    0.91085   0.91255   0.93192   0.94632   0.96454
 Alpha virt. eigenvalues --    0.96634   1.00397   1.01284   1.01689   1.02710
 Alpha virt. eigenvalues --    1.03196   1.03858   1.04735   1.05399   1.08769
 Alpha virt. eigenvalues --    1.19553   1.23275   1.24051   1.25275   1.27997
 Alpha virt. eigenvalues --    1.29706   1.31754   1.34306   1.35766   1.36003
 Alpha virt. eigenvalues --    1.39350   1.40167   1.40947   1.43020   1.43453
 Alpha virt. eigenvalues --    1.43530   1.45187   1.45335   1.46364   1.46679
 Alpha virt. eigenvalues --    1.47638   1.48015   1.51727   1.53626   1.55772
 Alpha virt. eigenvalues --    1.55823   1.56349   1.56575   1.57775   1.61442
 Alpha virt. eigenvalues --    1.63234   1.63542   1.63745   1.66110   1.68303
 Alpha virt. eigenvalues --    1.68359   1.68691   1.69733   1.74388   1.75987
 Alpha virt. eigenvalues --    1.77166   1.78049   1.80014   1.80134   1.80703
 Alpha virt. eigenvalues --    1.83161   1.83214   1.83616   1.83818   1.84162
 Alpha virt. eigenvalues --    1.84276   1.85883   1.86053   1.88219   1.91384
 Alpha virt. eigenvalues --    1.92067   1.94128   1.95194   1.97689   1.98153
 Alpha virt. eigenvalues --    1.99741   2.02425   2.04407   2.07259   2.11794
 Alpha virt. eigenvalues --    2.12077   2.14105   2.15219   2.19101   2.21250
 Alpha virt. eigenvalues --    2.22793   2.28623   2.30157   2.34645   2.34948
 Alpha virt. eigenvalues --    2.36220   2.38685   2.39595   2.42373   2.44663
 Alpha virt. eigenvalues --    2.46176   2.46508   2.49361   2.52904   2.53804
 Alpha virt. eigenvalues --    2.54239   2.56788   2.57842   2.58301   2.59644
 Alpha virt. eigenvalues --    2.59814   2.61602   2.62129   2.63534   2.63798
 Alpha virt. eigenvalues --    2.64779   2.65115   2.65237   2.65309   2.67951
 Alpha virt. eigenvalues --    2.68544   2.70956   2.71413   2.73343   2.74820
 Alpha virt. eigenvalues --    2.76304   2.78768   2.79723   2.82866   2.83057
 Alpha virt. eigenvalues --    2.84885   2.86293   2.92112   2.97003   2.99507
 Alpha virt. eigenvalues --    3.00059   3.05094   3.11089   3.11436   3.13054
 Alpha virt. eigenvalues --    3.20949   3.23780   3.26712   3.28212   3.30768
 Alpha virt. eigenvalues --    3.32815   3.33579   3.43407   3.45905   3.46573
 Alpha virt. eigenvalues --    3.48528   3.50137   3.56488   3.65873   3.66793
 Alpha virt. eigenvalues --    3.67471   3.94190   3.94597   3.95160   3.96219
 Alpha virt. eigenvalues --    4.04004   4.06891   4.07494   4.12549   4.35525
 Alpha virt. eigenvalues --    4.61361   4.69822   4.71635  23.45342  23.60527
 Alpha virt. eigenvalues --   23.82249  23.85535  23.87962  23.89293  23.90511
 Alpha virt. eigenvalues --   23.92285  23.97774  23.99571  23.99919  24.00111
 Alpha virt. eigenvalues --   24.10485  24.10698
          Condensed to atoms (all electrons):
               1          2          3          4          5          6
     1  C    8.590318   0.320817  -0.540009   1.959320  -0.022829  -0.095519
     2  C    0.320817   7.148340   0.357048  -1.080068  -0.017733  -0.014494
     3  C   -0.540009   0.357048   6.590850   0.770611  -0.125318   0.016948
     4  C    1.959320  -1.080068   0.770611  10.981472  -0.363717  -0.122677
     5  C   -0.022829  -0.017733  -0.125318  -0.363717  11.027442   0.754145
     6  C   -0.095519  -0.014494   0.016948  -0.122677   0.754145   6.585724
     7  C   -0.020232   0.001667  -0.014591  -0.019279  -1.071335   0.353243
     8  C    0.405480  -0.016756  -0.095742  -0.034717   1.994816  -0.550713
     9  C   -1.186677  -0.804107   0.292865  -0.236541  -0.203165   0.295528
    10  C   -1.280786   0.251204  -0.360118  -2.575510  -2.576024  -0.347299
    11  C    0.319292  -0.919881   1.012339  -0.260836  -1.507740  -0.173495
    12  C   -2.056539   1.350465  -1.406983  -1.559563  -0.342732  -0.200135
    13  C    0.201180  -0.249292  -0.175817  -1.497144  -0.271288   1.009173
    14  C   -1.088979  -0.198608  -0.198914  -0.323805  -1.635917  -1.385893
    15  H    0.366480  -0.106270  -0.001341   0.027229   0.005785   0.001098
    16  H   -0.020047   0.379292  -0.016398   0.013436  -0.001543  -0.000328
    17  H   -0.024980  -0.016185   0.374960  -0.067777   0.000314   0.000398
    18  H    0.049934   0.002670  -0.084344   0.457515   0.006443  -0.005051
    19  H   -0.046771  -0.007702   0.051332  -0.068675  -0.070973   0.051132
    20  H    0.007328   0.002039  -0.005108   0.006302   0.457722  -0.085279
    21  H   -0.001326  -0.000401   0.000401   0.000324  -0.068004   0.374799
    22  H    0.000760   0.000368  -0.000330  -0.001545   0.013816  -0.016947
    23  H    0.005763  -0.002695   0.001110   0.005711   0.027390  -0.001500
    24  H    0.031776   0.013790  -0.001777  -0.011433  -0.012938  -0.001337
    25  H    0.034523   0.015244  -0.001236  -0.012769  -0.011712  -0.001800
               7          8          9         10         11         12
     1  C   -0.020232   0.405480  -1.186677  -1.280786   0.319292  -2.056539
     2  C    0.001667  -0.016756  -0.804107   0.251204  -0.919881   1.350465
     3  C   -0.014591  -0.095742   0.292865  -0.360118   1.012339  -1.406983
     4  C   -0.019279  -0.034717  -0.236541  -2.575510  -0.260836  -1.559563
     5  C   -1.071335   1.994816  -0.203165  -2.576024  -1.507740  -0.342732
     6  C    0.353243  -0.550713   0.295528  -0.347299  -0.173495  -0.200135
     7  C    7.121542   0.318402  -0.800544   0.245574  -0.235914  -0.194001
     8  C    0.318402   8.590969  -1.152760  -1.282236   0.215637  -1.069612
     9  C   -0.800544  -1.152760   9.596583   0.258789   1.631253  -1.926993
    10  C    0.245574  -1.282236   0.258789   9.164838  -0.462926   2.420675
    11  C   -0.235914   0.215637   1.631253  -0.462926  14.449389  -3.783808
    12  C   -0.194001  -1.069612  -1.926993   2.420675  -3.783808  16.033276
    13  C   -0.908754   0.275416   1.604870  -0.453381   1.092973  -4.819463
    14  C    1.348968  -2.098258  -1.952097   2.442540  -4.789898   3.082375
    15  H   -0.002630   0.005718   0.091065  -0.009565  -0.029803  -0.023875
    16  H    0.000362   0.000672   0.003246  -0.009356   0.026601  -0.032500
    17  H   -0.000399  -0.001306  -0.005752   0.020547  -0.027868   0.092317
    18  H    0.002044   0.007158  -0.025027   0.012858  -0.006946  -0.053956
    19  H   -0.007704  -0.046821   0.075695   0.421917   0.078261  -0.065432
    20  H    0.003243   0.050291  -0.024749   0.013073  -0.011869  -0.013792
    21  H   -0.016670  -0.024693  -0.005732   0.020500  -0.006213   0.005309
    22  H    0.378563  -0.018485   0.003791  -0.009506   0.003082  -0.009139
    23  H   -0.105763   0.367886   0.091979  -0.009607   0.001501   0.006532
    24  H    0.015126   0.034650   0.355779   0.005199   0.014568  -0.061393
    25  H    0.013700   0.030427   0.356799   0.005440   0.012778  -0.058863
              13         14         15         16         17         18
     1  C    0.201180  -1.088979   0.366480  -0.020047  -0.024980   0.049934
     2  C   -0.249292  -0.198608  -0.106270   0.379292  -0.016185   0.002670
     3  C   -0.175817  -0.198914  -0.001341  -0.016398   0.374960  -0.084344
     4  C   -1.497144  -0.323805   0.027229   0.013436  -0.067777   0.457515
     5  C   -0.271288  -1.635917   0.005785  -0.001543   0.000314   0.006443
     6  C    1.009173  -1.385893   0.001098  -0.000328   0.000398  -0.005051
     7  C   -0.908754   1.348968  -0.002630   0.000362  -0.000399   0.002044
     8  C    0.275416  -2.098258   0.005718   0.000672  -0.001306   0.007158
     9  C    1.604870  -1.952097   0.091065   0.003246  -0.005752  -0.025027
    10  C   -0.453381   2.442540  -0.009565  -0.009356   0.020547   0.012858
    11  C    1.092973  -4.789898  -0.029803   0.026601  -0.027868  -0.006946
    12  C   -4.819463   3.082375  -0.023875  -0.032500   0.092317  -0.053956
    13  C   14.533581  -3.761745   0.001560   0.003075  -0.006390  -0.011824
    14  C   -3.761745  16.094813   0.006604  -0.009054   0.005325  -0.014021
    15  H    0.001560   0.006604   0.439067  -0.008998   0.001475   0.000179
    16  H    0.003075  -0.009054  -0.008998   0.419489  -0.006653   0.001907
    17  H   -0.006390   0.005325   0.001475  -0.006653   0.422606  -0.010307
    18  H   -0.011824  -0.014021   0.000179   0.001907  -0.010307   0.453557
    19  H    0.076634  -0.065185   0.000303  -0.000540   0.001418  -0.006155
    20  H   -0.007144  -0.054753  -0.000113   0.000015  -0.000144   0.001267
    21  H   -0.027091   0.091755   0.000014  -0.000007   0.000010  -0.000143
    22  H    0.027161  -0.034344  -0.000127   0.000007  -0.000007   0.000015
    23  H   -0.030724  -0.025181   0.000579  -0.000127   0.000014  -0.000112
    24  H    0.013050  -0.059612  -0.000942   0.000658  -0.000150   0.000201
    25  H    0.013563  -0.060390  -0.000854   0.000607  -0.000135   0.000161
              19         20         21         22         23         24
     1  C   -0.046771   0.007328  -0.001326   0.000760   0.005763   0.031776
     2  C   -0.007702   0.002039  -0.000401   0.000368  -0.002695   0.013790
     3  C    0.051332  -0.005108   0.000401  -0.000330   0.001110  -0.001777
     4  C   -0.068675   0.006302   0.000324  -0.001545   0.005711  -0.011433
     5  C   -0.070973   0.457722  -0.068004   0.013816   0.027390  -0.012938
     6  C    0.051132  -0.085279   0.374799  -0.016947  -0.001500  -0.001337
     7  C   -0.007704   0.003243  -0.016670   0.378563  -0.105763   0.015126
     8  C   -0.046821   0.050291  -0.024693  -0.018485   0.367886   0.034650
     9  C    0.075695  -0.024749  -0.005732   0.003791   0.091979   0.355779
    10  C    0.421917   0.013073   0.020500  -0.009506  -0.009607   0.005199
    11  C    0.078261  -0.011869  -0.006213   0.003082   0.001501   0.014568
    12  C   -0.065432  -0.013792   0.005309  -0.009139   0.006532  -0.061393
    13  C    0.076634  -0.007144  -0.027091   0.027161  -0.030724   0.013050
    14  C   -0.065185  -0.054753   0.091755  -0.034344  -0.025181  -0.059612
    15  H    0.000303  -0.000113   0.000014  -0.000127   0.000579  -0.000942
    16  H   -0.000540   0.000015  -0.000007   0.000007  -0.000127   0.000658
    17  H    0.001418  -0.000144   0.000010  -0.000007   0.000014  -0.000150
    18  H   -0.006155   0.001267  -0.000143   0.000015  -0.000112   0.000201
    19  H    0.442736  -0.006257   0.001417  -0.000540   0.000313   0.000590
    20  H   -0.006257   0.453635  -0.010224   0.001938   0.000172   0.000170
    21  H    0.001417  -0.010224   0.422307  -0.006617   0.001461  -0.000135
    22  H   -0.000540   0.001938  -0.006617   0.419430  -0.009032   0.000605
    23  H    0.000313   0.000172   0.001461  -0.009032   0.438965  -0.000832
    24  H    0.000590   0.000170  -0.000135   0.000605  -0.000832   0.493806
    25  H    0.000599   0.000193  -0.000148   0.000653  -0.001001  -0.079653
              25
     1  C    0.034523
     2  C    0.015244
     3  C   -0.001236
     4  C   -0.012769
     5  C   -0.011712
     6  C   -0.001800
     7  C    0.013700
     8  C    0.030427
     9  C    0.356799
    10  C    0.005440
    11  C    0.012778
    12  C   -0.058863
    13  C    0.013563
    14  C   -0.060390
    15  H   -0.000854
    16  H    0.000607
    17  H   -0.000135
    18  H    0.000161
    19  H    0.000599
    20  H    0.000193
    21  H   -0.000148
    22  H    0.000653
    23  H   -0.001001
    24  H   -0.079653
    25  H    0.493991
 Mulliken charges:
               1
     1  C    0.091723
     2  C   -0.408755
     3  C   -0.440437
     4  C    0.014134
     5  C    0.015094
     6  C   -0.439721
     7  C   -0.404620
     8  C    0.094575
     9  C   -0.334098
    10  C    0.093158
    11  C   -0.640477
    12  C    0.687831
    13  C   -0.632180
    14  C    0.684277
    15  H    0.237363
    16  H    0.256183
    17  H    0.248668
    18  H    0.221976
    19  H    0.190408
    20  H    0.222044
    21  H    0.249107
    22  H    0.256428
    23  H    0.237199
    24  H    0.250235
    25  H    0.249884
 Sum of Mulliken charges =   1.00000
 Mulliken charges with hydrogens summed into heavy atoms:
               1
     1  C    0.329086
     2  C   -0.152571
     3  C   -0.191769
     4  C    0.236110
     5  C    0.237139
     6  C   -0.190613
     7  C   -0.148192
     8  C    0.331774
     9  C    0.166020
    10  C    0.283566
    11  C   -0.640477
    12  C    0.687831
    13  C   -0.632180
    14  C    0.684277
 Electronic spatial extent (au):  <R**2>=           2855.9187
 Charge=              1.0000 electrons
 Dipole moment (field-independent basis, Debye):
    X=             -0.0079    Y=              0.1876    Z=              0.0004  Tot=              0.1877
 Quadrupole moment (field-independent basis, Debye-Ang):
   XX=            -31.1161   YY=            -56.2626   ZZ=            -84.1419
   XY=             -0.0044   XZ=              0.0074   YZ=              0.0011
 Traceless Quadrupole moment (field-independent basis, Debye-Ang):
   XX=             26.0575   YY=              0.9109   ZZ=            -26.9683
   XY=             -0.0044   XZ=              0.0074   YZ=              0.0011
 Octapole moment (field-independent basis, Debye-Ang**2):
  XXX=             -0.3285  YYY=              5.2101  ZZZ=              0.0046  XYY=              0.0028
  XXY=             -5.1741  XXZ=              0.0000  XZZ=              0.0401  YZZ=             -3.0883
  YYZ=             -0.0095  XYZ=              0.0369
 Hexadecapole moment (field-independent basis, Debye-Ang**3):
 XXXX=          -2122.4378 YYYY=           -609.2455 ZZZZ=            -99.3302 XXXY=             -0.1866
 XXXZ=              0.2074 YYYX=              0.0779 YYYZ=              0.0287 ZZZX=              0.0094
 ZZZY=             -0.0060 XXYY=           -507.7128 XXZZ=           -590.7521 YYZZ=           -145.7036
 XXYZ=             -0.0060 YYXZ=              0.0006 ZZXY=             -0.0037
 N-N= 7.811968357825D+02 E-N=-2.798735367695D+03  KE= 5.375057648062D+02
 Unable to Open any file for archive entry.
 1\1\GINC-GADI-CPU-CLX-0113\SP\RM062X TD-FC\6-311++G(d,p)\C14H11(1+)\TS
 1578\28-Jul-2022\0\\#n M062X/6-311++G(d,p) TD(NStates=1) EmpiricalDisp
 ersion=GD3 SP\\SP_75\\1,1\C,0,0.00285,2.491755,1.360431\C,0,0.001425,3
 .700983,0.671989\C,0,0.0009,3.682361,-0.71383\C,0,0.00015,2.462856,-1.
 407538\C,0,-0.00015,-2.463456,-1.407538\C,0,-0.0009,-3.685361,-0.71383
 \C,0,-0.001425,-3.702033,0.671989\C,0,-0.00285,-2.493555,1.360431\C,0,
 -0.000075,0.0066,1.453369\C,0,0.,-0.0003,-1.429189\C,0,0.000225,1.2621
 3,0.677065\C,0,-0.0006,1.237921,-0.730804\C,0,-0.000225,-1.26198,0.677
 065\C,0,0.0006,-1.237021,-0.730804\H,0,0.0033,2.487096,2.443647\H,0,0.
 001725,4.635628,1.211689\H,0,0.00045,4.607387,-1.272349\H,0,-0.00045,2
 .467325,-2.490059\H,0,0.,-0.00015,-2.510266\H,0,0.00045,-2.467775,-2.4
 90059\H,0,-0.00045,-4.611137,-1.272349\H,0,-0.001725,-4.637878,1.21168
 9\H,0,-0.0033,-2.489046,2.443647\H,0,-0.859585,0.0015,2.144137\H,0,0.8
 59585,0.0015,2.147437\\Version=ES64L-G16RevC.01\State=1-A\HF=-539.7601
 833\RMSD=4.438e-09\PG=C01 [X(C14H11)]\\@
 The archive entry for this job was punched.


 BRING ME INTO THE COMPANY OF THOSE WHO SEEK TRUTH,
 AND DELIVER ME FROM THOSE WHO HAVE FOUND IT.
 Job cpu time:       0 days  1 hours 18 minutes 59.8 seconds.
 Elapsed time:       0 days  0 hours  1 minutes 38.9 seconds.
 File lengths (MBytes):  RWF=    460 Int=      0 D2E=      0 Chk=     15 Scr=      1
 Normal termination of Gaussian 16 at Thu Jul 28 16:15:45 2022.
