 Entering Gaussian System, Link 0=g16
 Initial command:
 /apps/gaussian/g16c01/g16/l1.exe "/jobfs/53002009.gadi-pbs/Gau-801254.inp" -scrdir="/jobfs/53002009.gadi-pbs/"
 Entering Link 1 = /apps/gaussian/g16c01/g16/l1.exe PID=    801255.
  
 Copyright (c) 1988-2019, Gaussian, Inc.  All Rights Reserved.
  
 This is part of the Gaussian(R) 16 program.  It is based on
 the Gaussian(R) 09 system (copyright 2009, Gaussian, Inc.),
 the Gaussian(R) 03 system (copyright 2003, Gaussian, Inc.),
 the Gaussian(R) 98 system (copyright 1998, Gaussian, Inc.),
 the Gaussian(R) 94 system (copyright 1995, Gaussian, Inc.),
 the Gaussian 92(TM) system (copyright 1992, Gaussian, Inc.),
 the Gaussian 90(TM) system (copyright 1990, Gaussian, Inc.),
 the Gaussian 88(TM) system (copyright 1988, Gaussian, Inc.),
 the Gaussian 86(TM) system (copyright 1986, Carnegie Mellon
 University), and the Gaussian 82(TM) system (copyright 1983,
 Carnegie Mellon University). Gaussian is a federally registered
 trademark of Gaussian, Inc.
  
 This software contains proprietary and confidential information,
 including trade secrets, belonging to Gaussian, Inc.
  
 This software is provided under written license and may be
 used, copied, transmitted, or stored only in accord with that
 written license.
  
 The following legend is applicable only to US Government
 contracts under FAR:
  
                    RESTRICTED RIGHTS LEGEND
  
 Use, reproduction and disclosure by the US Government is
 subject to restrictions as set forth in subparagraphs (a)
 and (c) of the Commercial Computer Software - Restricted
 Rights clause in FAR 52.227-19.
  
 Gaussian, Inc.
 340 Quinnipiac St., Bldg. 40, Wallingford CT 06492
  
  
 ---------------------------------------------------------------
 Warning -- This program may not be used in any manner that
 competes with the business of Gaussian, Inc. or will provide
 assistance to any competitor of Gaussian, Inc.  The licensee
 of this program is prohibited from giving any competitor of
 Gaussian, Inc. access to this program.  By using this program,
 the user acknowledges that Gaussian, Inc. is engaged in the
 business of creating and licensing software in the field of
 computational chemistry and represents and warrants to the
 licensee that it is not a competitor of Gaussian, Inc. and that
 it will not use this program in any manner prohibited above.
 ---------------------------------------------------------------
  

 Cite this work as:
 Gaussian 16, Revision C.01,
 M. J. Frisch, G. W. Trucks, H. B. Schlegel, G. E. Scuseria, 
 M. A. Robb, J. R. Cheeseman, G. Scalmani, V. Barone, 
 G. A. Petersson, H. Nakatsuji, X. Li, M. Caricato, A. V. Marenich, 
 J. Bloino, B. G. Janesko, R. Gomperts, B. Mennucci, H. P. Hratchian, 
 J. V. Ortiz, A. F. Izmaylov, J. L. Sonnenberg, D. Williams-Young, 
 F. Ding, F. Lipparini, F. Egidi, J. Goings, B. Peng, A. Petrone, 
 T. Henderson, D. Ranasinghe, V. G. Zakrzewski, J. Gao, N. Rega, 
 G. Zheng, W. Liang, M. Hada, M. Ehara, K. Toyota, R. Fukuda, 
 J. Hasegawa, M. Ishida, T. Nakajima, Y. Honda, O. Kitao, H. Nakai, 
 T. Vreven, K. Throssell, J. A. Montgomery, Jr., J. E. Peralta, 
 F. Ogliaro, M. J. Bearpark, J. J. Heyd, E. N. Brothers, K. N. Kudin, 
 V. N. Staroverov, T. A. Keith, R. Kobayashi, J. Normand, 
 K. Raghavachari, A. P. Rendell, J. C. Burant, S. S. Iyengar, 
 J. Tomasi, M. Cossi, J. M. Millam, M. Klene, C. Adamo, R. Cammi, 
 J. W. Ochterski, R. L. Martin, K. Morokuma, O. Farkas, 
 J. B. Foresman, and D. J. Fox, Gaussian, Inc., Wallingford CT, 2019.
 
 ******************************************
 Gaussian 16:  ES64L-G16RevC.01  3-Jul-2019
                28-Jul-2022 
 ******************************************
 %NProcShared=48
 Will use up to   48 processors via shared memory.
 %mem = 190GB
 ---------------------------------------------------------------
 #n M062X/6-311++G(d,p) TD(NStates=1) EmpiricalDispersion=GD3 SP
 ---------------------------------------------------------------
 1/38=1,172=1/1;
 2/12=2,17=6,18=5,40=1/2;
 3/5=4,6=6,7=1111,11=9,25=1,30=1,74=-55,124=31/1,2,3,8;
 4//1;
 5/5=2,38=5/2;
 8/6=1,10=2,108=1/1;
 9/41=1,42=1,70=2/14;
 6/7=2,8=2,9=2,10=2/1;
 99/5=1,9=1/99;
 ------
 SP_125
 ------
 Symbolic Z-matrix:
 Charge =  1 Multiplicity = 1
 C                    -0.01865   2.49296   1.36043 
 C                    -0.02372   3.69058   0.67199 
 C                    -0.0063    3.66426  -0.71383 
 C                     0.0235    2.44931  -1.40754 
 C                     0.0233   -2.44971  -1.40754 
 C                    -0.0075   -3.66626  -0.71383 
 C                    -0.02563  -3.69128   0.67199 
 C                    -0.02245  -2.49416   1.36043 
 C                    -0.01318   0.0044    1.45337 
 C                     0.0366   -0.0002   -1.42919 
 C                     0.00563   1.27358   0.67707 
 C                     0.0146    1.23597  -0.7308 
 C                     0.00533  -1.27348   0.67707 
 C                     0.0154   -1.23537  -0.7308 
 H                    -0.0041    2.4881    2.44365 
 H                    -0.02383   4.62738   1.21169 
 H                     0.00465   4.60869  -1.27235 
 H                     0.01065   2.45413  -2.49006 
 H                     0.03375  -0.0001   -2.51027 
 H                     0.01125  -2.45443  -2.49006 
 H                     0.00405  -4.61119  -1.27235 
 H                    -0.02613  -4.62888   1.21169 
 H                    -0.0085   -2.4894    2.44365 
 H                    -0.90759   0.001     2.14469 
 H                     0.81159   0.001     2.14689 
 
                          Input orientation:                          
 ---------------------------------------------------------------------
 Center     Atomic      Atomic             Coordinates (Angstroms)
 Number     Number       Type             X           Y           Z
 ---------------------------------------------------------------------
      1          6           0       -0.018650    2.492955    1.360431
      2          6           0       -0.023725    3.690583    0.671989
      3          6           0       -0.006300    3.664261   -0.713830
      4          6           0        0.023500    2.449306   -1.407538
      5          6           0        0.023300   -2.449706   -1.407538
      6          6           0       -0.007500   -3.666261   -0.713830
      7          6           0       -0.025625   -3.691283    0.671989
      8          6           0       -0.022450   -2.494155    1.360431
      9          6           0       -0.013175    0.004400    1.453369
     10          6           0        0.036600   -0.000200   -1.429189
     11          6           0        0.005625    1.273580    0.677065
     12          6           0        0.014600    1.235971   -0.730804
     13          6           0        0.005325   -1.273480    0.677065
     14          6           0        0.015400   -1.235371   -0.730804
     15          1           0       -0.004100    2.488096    2.443647
     16          1           0       -0.023825    4.627378    1.211689
     17          1           0        0.004650    4.608687   -1.272349
     18          1           0        0.010650    2.454125   -2.490059
     19          1           0        0.033750   -0.000100   -2.510266
     20          1           0        0.011250   -2.454425   -2.490059
     21          1           0        0.004050   -4.611187   -1.272349
     22          1           0       -0.026125   -4.628878    1.211689
     23          1           0       -0.008500   -2.489396    2.443647
     24          1           0       -0.907585    0.001000    2.144687
     25          1           0        0.811585    0.001000    2.146887
 ---------------------------------------------------------------------
                    Distance matrix (angstroms):
                    1          2          3          4          5
     1  C    0.000000
     2  C    1.381409   0.000000
     3  C    2.382156   1.386178   0.000000
     4  C    2.768634   2.422278   1.399369   0.000000
     5  C    5.665096   6.483039   6.153267   4.899012   0.000000
     6  C    6.499125   7.486248   7.330522   6.154864   1.400780
     7  C    6.222443   7.381866   7.484978   6.483339   2.422466
     8  C    4.987111   6.222936   6.498377   5.665825   2.768704
     9  C    2.490296   3.768104   4.253396   3.763469   3.769450
    10  C    3.741772   4.247407   3.733879   2.449637   2.449638
    11  C    1.398018   2.417187   2.765879   2.393370   4.267170
    12  C    2.440159   2.827440   2.428439   1.389327   3.747300
    13  C    3.828002   4.964151   5.129913   4.266736   2.393617
    14  C    4.274908   5.121951   4.899709   3.746315   1.390195
    15  H    1.083325   2.141292   3.369426   3.851479   6.262129
    16  H    2.139606   1.081139   2.153027   3.406844   7.546369
    17  H    3.377632   2.150388   1.097271   2.163691   7.059712
    18  H    3.850797   3.395373   2.149350   1.082608   5.021909
    19  H    4.604385   4.873519   4.081216   2.686206   2.686389
    20  H    6.269269   6.910926   6.371312   5.021810   1.082598
    21  H    7.576337   8.526465   8.294281   7.061814   2.165790
    22  H    7.123390   8.336949   8.513764   7.547417   3.407577
    23  H    5.098753   6.428930   6.916441   6.262861   3.851521
    24  H    2.759548   4.069775   4.733172   4.413550   4.414840
    25  H    2.741832   4.060307   4.719335   4.387393   4.388769
                    6          7          8          9         10
     6  C    0.000000
     7  C    1.386163   0.000000
     8  C    2.382565   1.380970   0.000000
     9  C    4.262691   3.777404   2.500300   0.000000
    10  C    3.735463   4.247695   3.742363   2.882991   0.000000
    11  C    5.131938   4.964964   3.829309   1.487891   2.461662
    12  C    4.902311   5.123210   4.276503   2.507618   1.419980
    13  C    2.767698   2.418006   1.399217   1.495315   2.461407
    14  C    2.431057   2.828607   2.441154   2.511665   1.419098
    15  H    6.917065   6.428372   5.098678   2.673851   4.603491
    16  H    8.514243   8.336150   7.123086   4.629303   5.328449
    17  H    8.293784   8.524721   7.575132   5.350637   4.611666
    18  H    6.372946   6.911288   6.269996   4.642450   2.673917
    19  H    4.082845   4.873921   4.604972   3.963915   1.081081
    20  H    2.150323   3.395545   3.850842   4.647262   2.673819
    21  H    1.097708   2.151175   3.378470   5.360362   4.613768
    22  H    2.152813   1.081832   2.139902   4.639595   5.329431
    23  H    3.369670   2.140934   1.083316   2.683224   4.604019
    24  H    4.736040   4.071811   2.761217   1.130443   3.696495
    25  H    4.722648   4.063151   2.745893   1.077594   3.659088
                   11         12         13         14         15
    11  C    0.000000
    12  C    1.408400   0.000000
    13  C    2.547060   2.877416   0.000000
    14  C    2.876982   2.471342   1.408421   0.000000
    15  H    2.143818   3.412522   4.155762   4.893028   0.000000
    16  H    3.396270   3.908503   5.925099   6.176297   2.468732
    17  H    3.863050   3.415931   6.196782   5.869106   4.278505
    18  H    3.379998   2.139835   4.891395   4.087466   4.933845
    19  H    3.432511   2.166731   3.432402   2.166268   5.543808
    20  H    4.891700   4.088277   3.380139   2.140348   6.983567
    21  H    6.199250   5.872192   3.865295   3.418996   8.013021
    22  H    5.926706   6.178300   3.397868   3.910357   7.222847
    23  H    4.157042   4.894490   2.144634   3.413252   4.977494
    24  H    2.146468   3.262519   2.147468   3.263275   2.662951
    25  H    2.104616   3.231322   2.105880   3.231660   2.634209
                   16         17         18         19         20
    16  H    0.000000
    17  H    2.484272   0.000000
    18  H    4.292686   2.474872   0.000000
    19  H    5.938840   4.772232   2.454417   0.000000
    20  H    7.991001   7.167316   4.908550   2.454511   0.000000
    21  H    9.566729   9.219874   7.169484   4.774457   2.476791
    22  H    9.256256   9.565772   7.992072   5.939875   4.293318
    23  H    7.222633   8.011965   6.984284   5.544333   4.933869
    24  H    4.801551   5.808536   5.323706   4.749179   5.324870
    25  H    4.793316   5.794230   5.306655   4.721663   5.307628
                   21         22         23         24         25
    21  H    0.000000
    22  H    2.484284   0.000000
    23  H    4.279110   2.468889   0.000000
    24  H    5.812012   4.804501   2.664546   0.000000
    25  H    5.797892   4.797095   2.638689   1.719171   0.000000
 Stoichiometry    C14H11(1+)
 Framework group  C1[X(C14H11)]
 Deg. of freedom    69
 Full point group                 C1      NOp   1
 Largest Abelian subgroup         C1      NOp   1
 Largest concise Abelian subgroup C1      NOp   1
                         Standard orientation:                         
 ---------------------------------------------------------------------
 Center     Atomic      Atomic             Coordinates (Angstroms)
 Number     Number       Type             X           Y           Z
 ---------------------------------------------------------------------
      1          6           0        2.493066   -1.360350    0.000747
      2          6           0        3.690635   -0.671938    0.015189
      3          6           0        3.664201    0.713989    0.016039
      4          6           0        2.449194    1.407931   -0.004900
      5          6           0       -2.449818    1.407532   -0.005874
      6          6           0       -3.666321    0.713380    0.015482
      7          6           0       -3.691231   -0.672560    0.015321
      8          6           0       -2.494045   -1.360803    0.003352
      9          6           0        0.004520   -1.453409   -0.006549
     10          6           0       -0.000310    1.429555   -0.018300
     11          6           0        1.273639   -0.676822   -0.014804
     12          6           0        1.235914    0.731040   -0.005217
     13          6           0       -1.273421   -0.677032   -0.015114
     14          6           0       -1.235428    0.730851   -0.006609
     15          1           0        2.488302   -2.443280   -0.028090
     16          1           0        4.627475   -1.211516    0.008395
     17          1           0        4.608582    1.272680    0.012683
     18          1           0        2.453919    2.490189    0.022229
     19          1           0       -0.000302    2.510500   -0.001191
     20          1           0       -2.454630    2.489799    0.020453
     21          1           0       -4.611292    1.271926    0.011074
     22          1           0       -4.628781   -1.212295    0.008477
     23          1           0       -2.489191   -2.443741   -0.024883
     24          1           0        0.000965   -2.156464    0.878664
     25          1           0        0.001375   -2.135988   -0.840386
 ---------------------------------------------------------------------
 Rotational constants (GHZ):           2.1355880           0.4471104           0.3705294
 Standard basis: 6-311++G(d,p) (5D, 7F)
 There are   399 symmetry adapted cartesian basis functions of A   symmetry.
 There are   385 symmetry adapted basis functions of A   symmetry.
   385 basis functions,   603 primitive gaussians,   399 cartesian basis functions
    47 alpha electrons       47 beta electrons
       nuclear repulsion energy       782.5479878566 Hartrees.
 NAtoms=   25 NActive=   25 NUniq=   25 SFac= 1.00D+00 NAtFMM=   60 NAOKFM=F Big=F
 Integral buffers will be    131072 words long.
 Regular integral format.
 Two-electron integral symmetry is turned on.
 Nuclear repulsion after empirical dispersion term =      782.5470087770 Hartrees.
 One-electron integrals computed using PRISM.
 NBasis=   385 RedAO= T EigKep=  1.25D-06  NBF=   385
 NBsUse=   379 1.00D-06 EigRej=  8.26D-07 NBFU=   379
 ExpMin= 3.60D-02 ExpMax= 4.56D+03 ExpMxC= 6.82D+02 IAcc=3 IRadAn=         5 AccDes= 0.00D+00
 Harris functional with IExCor= 1009 and IRadAn=       5 diagonalized for initial guess.
 HarFok:  IExCor= 1009 AccDes= 0.00D+00 IRadAn=         5 IDoV= 1 UseB2=F ITyADJ=14
 ICtDFT=  3500011 ScaDFX=  1.000000  1.000000  1.000000  1.000000
 FoFCou: FMM=F IPFlag=           0 FMFlag=      100000 FMFlg1=           0
         NFxFlg=           0 DoJE=T BraDBF=F KetDBF=T FulRan=T
         wScrn=  0.000000 ICntrl=       500 IOpCl=  0 I1Cent=   200000004 NGrid=           0
         NMat0=    1 NMatS0=      1 NMatT0=    0 NMatD0=    1 NMtDS0=    0 NMtDT0=    0
 Petite list used in FoFCou.
 Requested convergence on RMS density matrix=1.00D-08 within 128 cycles.
 Requested convergence on MAX density matrix=1.00D-06.
 Requested convergence on             energy=1.00D-06.
 No special actions if energy rises.
 SCF Done:  E(RM062X) =  -539.758403518     A.U. after   15 cycles
            NFock= 15  Conv=0.50D-08     -V/T= 2.0040
 DoSCS=F DFT=T ScalE2(SS,OS)=  1.000000  1.000000
 ExpMin= 3.60D-02 ExpMax= 4.56D+03 ExpMxC= 6.82D+02 IAcc=3 IRadAn=         5 AccDes= 0.00D+00
 HarFok:  IExCor=  205 AccDes= 0.00D+00 IRadAn=         5 IDoV=-2 UseB2=F ITyADJ=14
 ICtDFT= 12500011 ScaDFX=  1.000000  1.000000  1.000000  1.000000
 Range of M.O.s used for correlation:    15   379
 NBasis=   385 NAE=    47 NBE=    47 NFC=    14 NFV=     0
 NROrb=    365 NOA=    33 NOB=    33 NVA=   332 NVB=   332

 **** Warning!!: The largest alpha MO coefficient is  0.14626234D+03

 Orbital symmetries:
       Occupied  (A) (A) (A) (A) (A) (A) (A) (A) (A) (A) (A) (A)
                 (A) (A) (A) (A) (A) (A) (A) (A) (A) (A) (A) (A)
                 (A) (A) (A) (A) (A) (A) (A) (A) (A) (A) (A) (A)
                 (A) (A) (A) (A) (A) (A) (A) (A) (A) (A) (A)
       Virtual   (A) (A) (A) (A) (A) (A) (A) (A) (A) (A) (A) (A)
                 (A) (A) (A) (A) (A) (A) (A) (A) (A) (A) (A) (A)
                 (A) (A) (A) (A) (A) (A) (A) (A) (A) (A) (A) (A)
                 (A) (A) (A) (A) (A) (A) (A) (A) (A) (A) (A) (A)
                 (A) (A) (A) (A) (A) (A) (A) (A) (A) (A) (A) (A)
                 (A) (A) (A) (A) (A) (A) (A) (A) (A) (A) (A) (A)
                 (A) (A) (A) (A) (A) (A) (A) (A) (A) (A) (A) (A)
                 (A) (A) (A) (A) (A) (A) (A) (A) (A) (A) (A) (A)
                 (A) (A) (A) (A) (A) (A) (A) (A) (A) (A) (A) (A)
                 (A) (A) (A) (A) (A) (A) (A) (A) (A) (A) (A) (A)
                 (A) (A) (A) (A) (A) (A) (A) (A) (A) (A) (A) (A)
                 (A) (A) (A) (A) (A) (A) (A) (A) (A) (A) (A) (A)
                 (A) (A) (A) (A) (A) (A) (A) (A) (A) (A) (A) (A)
                 (A) (A) (A) (A) (A) (A) (A) (A) (A) (A) (A) (A)
                 (A) (A) (A) (A) (A) (A) (A) (A) (A) (A) (A) (A)
                 (A) (A) (A) (A) (A) (A) (A) (A) (A) (A) (A) (A)
                 (A) (A) (A) (A) (A) (A) (A) (A) (A) (A) (A) (A)
                 (A) (A) (A) (A) (A) (A) (A) (A) (A) (A) (A) (A)
                 (A) (A) (A) (A) (A) (A) (A) (A) (A) (A) (A) (A)
                 (A) (A) (A) (A) (A) (A) (A) (A) (A) (A) (A) (A)
                 (A) (A) (A) (A) (A) (A) (A) (A) (A) (A) (A) (A)
                 (A) (A) (A) (A) (A) (A) (A) (A) (A) (A) (A) (A)
                 (A) (A) (A) (A) (A) (A) (A) (A) (A) (A) (A) (A)
                 (A) (A) (A) (A) (A) (A) (A) (A) (A) (A) (A) (A)
                 (A) (A) (A) (A) (A) (A) (A) (A) (A) (A) (A) (A)
                 (A) (A) (A) (A) (A) (A) (A) (A) (A) (A) (A) (A)
                 (A) (A) (A) (A) (A) (A) (A) (A) (A) (A) (A) (A)
                 (A) (A) (A) (A) (A) (A) (A) (A)
     4 initial guesses have been made.
 Convergence on wavefunction:    0.001000000000000
 Iteration     1 Dimension     4 NMult     0 NNew      4
 CISAX will form     4 AO SS matrices at one time.
 Iteration     2 Dimension     6 NMult     4 NNew      2
 Iteration     3 Dimension     8 NMult     6 NNew      2
 Iteration     4 Dimension    10 NMult     8 NNew      2
 Iteration     5 Dimension    12 NMult    10 NNew      2
 Iteration     6 Dimension    14 NMult    12 NNew      2
 ***********************************************************************
 Excited states from <AA,BB:AA,BB> singles matrix:
 ***********************************************************************
 
 Ground to excited state transition densities written to RWF  633
 Ground to excited state transition electric dipole moments (Au):
       state          X           Y           Z        Dip. S.      Osc.
         1         0.0054     -0.6538      0.0061      0.4275      0.0298
 Ground to excited state transition velocity dipole moments (Au):
       state          X           Y           Z        Dip. S.      Osc.
         1        -0.0006      0.0757     -0.0008      0.0057      0.0366
 Ground to excited state transition magnetic dipole moments (Au):
       state          X           Y           Z
         1        -0.0084     -0.0005     -0.0004
 Ground to excited state transition velocity quadrupole moments (Au):
       state          XX          YY          ZZ          XY          XZ          YZ
         1         0.2788      0.0384     -0.0101     -0.0009      0.0001      0.0009
 <0|del|b> * <b|rxdel|0> + <0|del|b> * <b|delr+rdel|0>
 Rotatory Strengths (R) in cgs (10**-40 erg-esu-cm/Gauss)
       state          XX          YY          ZZ    R(velocity)    E-M Angle
         1        -0.1398      0.0134     -0.0853     -0.0705       90.00
 1/2[<0|r|b>*<b|rxdel|0> + (<0|rxdel|b>*<b|r|0>)*]
 Rotatory Strengths (R) in cgs (10**-40 erg-esu-cm/Gauss)
       state          XX          YY          ZZ     R(length)
         1         0.0324     -0.2226      0.0018     -0.0628
  1/2[<0|del|b>*<b|r|0> + (<0|r|b>*<b|del|0>)*] (Au)
       state          X           Y           Z        Dip. S.   Osc.(frdel)
         1        -0.0000     -0.0495     -0.0000      0.0495      0.0330

 Excitation energies and oscillator strengths:
 
 Excited State   1:      Singlet-A      2.8423 eV  436.21 nm  f=0.0298  <S**2>=0.000
      47 -> 48         0.70423
 This state for optimization and/or second-order correction.
 Total Energy, E(TD-HF/TD-DFT) =  -539.653951728    
 Copying the excited state density for this state as the 1-particle RhoCI density.
 SavETr:  write IOETrn=   770 NScale= 10 NData=  16 NLR=1 NState=    1 LETran=      28.

 **********************************************************************

            Population analysis using the SCF Density.

 **********************************************************************

 Orbital symmetries:
       Occupied  (A) (A) (A) (A) (A) (A) (A) (A) (A) (A) (A) (A)
                 (A) (A) (A) (A) (A) (A) (A) (A) (A) (A) (A) (A)
                 (A) (A) (A) (A) (A) (A) (A) (A) (A) (A) (A) (A)
                 (A) (A) (A) (A) (A) (A) (A) (A) (A) (A) (A)
       Virtual   (A) (A) (A) (A) (A) (A) (A) (A) (A) (A) (A) (A)
                 (A) (A) (A) (A) (A) (A) (A) (A) (A) (A) (A) (A)
                 (A) (A) (A) (A) (A) (A) (A) (A) (A) (A) (A) (A)
                 (A) (A) (A) (A) (A) (A) (A) (A) (A) (A) (A) (A)
                 (A) (A) (A) (A) (A) (A) (A) (A) (A) (A) (A) (A)
                 (A) (A) (A) (A) (A) (A) (A) (A) (A) (A) (A) (A)
                 (A) (A) (A) (A) (A) (A) (A) (A) (A) (A) (A) (A)
                 (A) (A) (A) (A) (A) (A) (A) (A) (A) (A) (A) (A)
                 (A) (A) (A) (A) (A) (A) (A) (A) (A) (A) (A) (A)
                 (A) (A) (A) (A) (A) (A) (A) (A) (A) (A) (A) (A)
                 (A) (A) (A) (A) (A) (A) (A) (A) (A) (A) (A) (A)
                 (A) (A) (A) (A) (A) (A) (A) (A) (A) (A) (A) (A)
                 (A) (A) (A) (A) (A) (A) (A) (A) (A) (A) (A) (A)
                 (A) (A) (A) (A) (A) (A) (A) (A) (A) (A) (A) (A)
                 (A) (A) (A) (A) (A) (A) (A) (A) (A) (A) (A) (A)
                 (A) (A) (A) (A) (A) (A) (A) (A) (A) (A) (A) (A)
                 (A) (A) (A) (A) (A) (A) (A) (A) (A) (A) (A) (A)
                 (A) (A) (A) (A) (A) (A) (A) (A) (A) (A) (A) (A)
                 (A) (A) (A) (A) (A) (A) (A) (A) (A) (A) (A) (A)
                 (A) (A) (A) (A) (A) (A) (A) (A) (A) (A) (A) (A)
                 (A) (A) (A) (A) (A) (A) (A) (A) (A) (A) (A) (A)
                 (A) (A) (A) (A) (A) (A) (A) (A) (A) (A) (A) (A)
                 (A) (A) (A) (A) (A) (A) (A) (A) (A) (A) (A) (A)
                 (A) (A) (A) (A) (A) (A) (A) (A) (A) (A) (A) (A)
                 (A) (A) (A) (A) (A) (A) (A) (A) (A) (A) (A) (A)
                 (A) (A) (A) (A) (A) (A) (A) (A) (A) (A) (A) (A)
                 (A) (A) (A) (A) (A) (A) (A) (A) (A) (A) (A) (A)
                 (A) (A) (A) (A) (A) (A) (A) (A)
 The electronic state is 1-A.
 Alpha  occ. eigenvalues --  -10.77681 -10.73226 -10.73170 -10.72317 -10.72314
 Alpha  occ. eigenvalues --  -10.71229 -10.71199 -10.70973 -10.70918 -10.70909
 Alpha  occ. eigenvalues --  -10.69821 -10.69800 -10.69701 -10.69674  -1.16548
 Alpha  occ. eigenvalues --   -1.12780  -1.07119  -1.05624  -1.01638  -1.00122
 Alpha  occ. eigenvalues --   -0.95901  -0.91022  -0.86440  -0.85959  -0.83828
 Alpha  occ. eigenvalues --   -0.78434  -0.76040  -0.74480  -0.69562  -0.69226
 Alpha  occ. eigenvalues --   -0.68510  -0.68071  -0.67893  -0.64976  -0.64488
 Alpha  occ. eigenvalues --   -0.62847  -0.61657  -0.60087  -0.59905  -0.59002
 Alpha  occ. eigenvalues --   -0.56868  -0.55134  -0.54711  -0.52562  -0.46865
 Alpha  occ. eigenvalues --   -0.46022  -0.44627
 Alpha virt. eigenvalues --   -0.26124  -0.14528  -0.14062  -0.12599  -0.11183
 Alpha virt. eigenvalues --   -0.10098  -0.09253  -0.08053  -0.07941  -0.07485
 Alpha virt. eigenvalues --   -0.07221  -0.07110  -0.05638  -0.05581  -0.05306
 Alpha virt. eigenvalues --   -0.03871  -0.03730  -0.03278  -0.03128  -0.02164
 Alpha virt. eigenvalues --   -0.01388  -0.00973   0.00197   0.00522   0.00681
 Alpha virt. eigenvalues --    0.01068   0.01512   0.01959   0.02229   0.02280
 Alpha virt. eigenvalues --    0.02458   0.02682   0.02898   0.03162   0.03323
 Alpha virt. eigenvalues --    0.04228   0.04511   0.04709   0.05118   0.05387
 Alpha virt. eigenvalues --    0.05943   0.06313   0.06622   0.07034   0.07268
 Alpha virt. eigenvalues --    0.07913   0.08290   0.08336   0.08606   0.08922
 Alpha virt. eigenvalues --    0.09529   0.09563   0.10031   0.10859   0.11058
 Alpha virt. eigenvalues --    0.11152   0.12183   0.12211   0.12910   0.12971
 Alpha virt. eigenvalues --    0.13430   0.13453   0.14014   0.14525   0.15906
 Alpha virt. eigenvalues --    0.16228   0.16629   0.17307   0.17412   0.17728
 Alpha virt. eigenvalues --    0.18128   0.19184   0.19326   0.19699   0.19743
 Alpha virt. eigenvalues --    0.21591   0.21679   0.22666   0.23048   0.23562
 Alpha virt. eigenvalues --    0.23785   0.24596   0.24927   0.26853   0.27734
 Alpha virt. eigenvalues --    0.28834   0.29262   0.29814   0.31410   0.35794
 Alpha virt. eigenvalues --    0.36635   0.38105   0.39402   0.41096   0.41325
 Alpha virt. eigenvalues --    0.41975   0.42061   0.42951   0.43875   0.44199
 Alpha virt. eigenvalues --    0.44746   0.45265   0.45744   0.46209   0.47875
 Alpha virt. eigenvalues --    0.48464   0.48863   0.48997   0.50371   0.51268
 Alpha virt. eigenvalues --    0.51641   0.51750   0.52182   0.53265   0.53899
 Alpha virt. eigenvalues --    0.53997   0.54804   0.55754   0.55809   0.57298
 Alpha virt. eigenvalues --    0.58267   0.58808   0.61469   0.62214   0.62251
 Alpha virt. eigenvalues --    0.63125   0.63609   0.64375   0.65207   0.66667
 Alpha virt. eigenvalues --    0.70396   0.70589   0.71014   0.72413   0.72769
 Alpha virt. eigenvalues --    0.75690   0.75713   0.76293   0.76475   0.76867
 Alpha virt. eigenvalues --    0.77598   0.77795   0.78271   0.80310   0.80604
 Alpha virt. eigenvalues --    0.81302   0.81672   0.82183   0.83062   0.84858
 Alpha virt. eigenvalues --    0.86952   0.87479   0.87946   0.89711   0.90452
 Alpha virt. eigenvalues --    0.91015   0.91541   0.93606   0.94880   0.96218
 Alpha virt. eigenvalues --    0.96768   1.00218   1.01341   1.01889   1.02922
 Alpha virt. eigenvalues --    1.03297   1.04211   1.04537   1.05709   1.09143
 Alpha virt. eigenvalues --    1.19230   1.23229   1.24082   1.25461   1.28176
 Alpha virt. eigenvalues --    1.30149   1.31266   1.34543   1.35881   1.36301
 Alpha virt. eigenvalues --    1.39473   1.40077   1.40964   1.43479   1.43599
 Alpha virt. eigenvalues --    1.43767   1.45216   1.45518   1.46488   1.46644
 Alpha virt. eigenvalues --    1.47887   1.48553   1.51764   1.53778   1.55839
 Alpha virt. eigenvalues --    1.56284   1.56387   1.56885   1.58013   1.61737
 Alpha virt. eigenvalues --    1.62971   1.63161   1.63312   1.66252   1.68092
 Alpha virt. eigenvalues --    1.68618   1.68760   1.69716   1.74784   1.76005
 Alpha virt. eigenvalues --    1.77229   1.78081   1.79858   1.80651   1.81325
 Alpha virt. eigenvalues --    1.83030   1.83264   1.83426   1.84038   1.84228
 Alpha virt. eigenvalues --    1.84521   1.86154   1.86296   1.88411   1.91249
 Alpha virt. eigenvalues --    1.92175   1.94059   1.95175   1.98089   1.98739
 Alpha virt. eigenvalues --    2.00314   2.02253   2.04762   2.06725   2.12020
 Alpha virt. eigenvalues --    2.12143   2.13883   2.15330   2.19983   2.21118
 Alpha virt. eigenvalues --    2.23271   2.28995   2.30505   2.34287   2.35475
 Alpha virt. eigenvalues --    2.36250   2.37882   2.38421   2.41635   2.42524
 Alpha virt. eigenvalues --    2.46935   2.49110   2.49639   2.53148   2.53751
 Alpha virt. eigenvalues --    2.54058   2.56557   2.58052   2.58571   2.59842
 Alpha virt. eigenvalues --    2.60073   2.61452   2.62220   2.63438   2.64084
 Alpha virt. eigenvalues --    2.64712   2.64942   2.65370   2.65410   2.67916
 Alpha virt. eigenvalues --    2.68167   2.71204   2.71321   2.73554   2.74858
 Alpha virt. eigenvalues --    2.76509   2.79214   2.80021   2.83261   2.83617
 Alpha virt. eigenvalues --    2.85575   2.86518   2.92236   2.96481   2.99947
 Alpha virt. eigenvalues --    3.00552   3.04273   3.11967   3.12272   3.14140
 Alpha virt. eigenvalues --    3.20688   3.23274   3.27533   3.28628   3.31321
 Alpha virt. eigenvalues --    3.33513   3.33877   3.43546   3.46136   3.48093
 Alpha virt. eigenvalues --    3.49479   3.51081   3.56684   3.64729   3.67566
 Alpha virt. eigenvalues --    3.67746   3.92481   3.93376   3.94698   3.96160
 Alpha virt. eigenvalues --    4.03127   4.06954   4.07693   4.12491   4.35162
 Alpha virt. eigenvalues --    4.60776   4.70535   4.72440  23.45039  23.59420
 Alpha virt. eigenvalues --   23.82724  23.84980  23.88118  23.90081  23.90711
 Alpha virt. eigenvalues --   23.92521  23.98653  24.00945  24.02169  24.02407
 Alpha virt. eigenvalues --   24.11995  24.12139
          Condensed to atoms (all electrons):
               1          2          3          4          5          6
     1  C    8.451216   0.550763  -0.597946   1.610416   0.013679  -0.094307
     2  C    0.550763   6.995332   0.384469  -0.831477  -0.058048  -0.017876
     3  C   -0.597946   0.384469   6.648434   0.691264  -0.112978   0.018366
     4  C    1.610416  -0.831477   0.691264  10.176360  -0.159214  -0.110520
     5  C    0.013679  -0.058048  -0.112978  -0.159214  10.241065   0.683776
     6  C   -0.094307  -0.017876   0.018366  -0.110520   0.683776   6.642449
     7  C   -0.028982   0.010137  -0.017964  -0.058917  -0.833308   0.382955
     8  C    0.412474  -0.027550  -0.094153   0.007230   1.630710  -0.605196
     9  C   -1.489103  -0.580390   0.262175  -0.491474  -0.464323   0.262661
    10  C   -1.112116   0.142275  -0.371194  -2.330913  -2.346130  -0.358722
    11  C    0.245198  -0.992200   1.020253  -0.281693  -1.571372  -0.200610
    12  C   -1.580919   0.939426  -1.309389  -0.863478  -0.226337  -0.188771
    13  C    0.181842  -0.147275  -0.201541  -1.556002  -0.261701   1.009031
    14  C   -1.055880  -0.235397  -0.187847  -0.205357  -0.937116  -1.289861
    15  H    0.359543  -0.097940  -0.002960   0.021790   0.005970   0.001240
    16  H   -0.021885   0.379975  -0.013680   0.013480  -0.001690  -0.000362
    17  H   -0.018066  -0.021413   0.371474  -0.058946   0.000346   0.000402
    18  H    0.046067   0.005052  -0.088195   0.442531   0.010167  -0.004792
    19  H   -0.045171  -0.007953   0.050352  -0.059486  -0.061846   0.050031
    20  H    0.008005   0.001627  -0.004850   0.010076   0.443801  -0.088794
    21  H   -0.001325  -0.000386   0.000405   0.000337  -0.059533   0.371459
    22  H    0.000825   0.000380  -0.000365  -0.001679   0.013794  -0.014120
    23  H    0.005933  -0.002662   0.001261   0.005852   0.022060  -0.003167
    24  H    0.047721   0.012346  -0.001130  -0.011135  -0.011994  -0.000820
    25  H    0.022064   0.016274  -0.002316  -0.011461  -0.011026  -0.002699
               7          8          9         10         11         12
     1  C   -0.028982   0.412474  -1.489103  -1.112116   0.245198  -1.580919
     2  C    0.010137  -0.027550  -0.580390   0.142275  -0.992200   0.939426
     3  C   -0.017964  -0.094153   0.262175  -0.371194   1.020253  -1.309389
     4  C   -0.058917   0.007230  -0.491474  -2.330913  -0.281693  -0.863478
     5  C   -0.833308   1.630710  -0.464323  -2.346130  -1.571372  -0.226337
     6  C    0.382955  -0.605196   0.262661  -0.358722  -0.200610  -0.188771
     7  C    6.988312   0.545658  -0.583852   0.141530  -0.142750  -0.232430
     8  C    0.545658   8.448528  -1.466400  -1.114251   0.188287  -1.044087
     9  C   -0.583852  -1.466400   9.030339   0.510285   1.506306  -1.261959
    10  C    0.141530  -1.114251   0.510285   9.115503  -0.498315   2.052488
    11  C   -0.142750   0.188287   1.506306  -0.498315  14.015593  -3.644538
    12  C   -0.232430  -1.044087  -1.261959   2.052488  -3.644538  14.811220
    13  C   -0.990252   0.236950   1.494230  -0.484151   1.317823  -4.447444
    14  C    0.950719  -1.614144  -1.276521   2.081563  -4.437912   2.602844
    15  H   -0.002638   0.005955   0.080808  -0.008429  -0.018588  -0.016904
    16  H    0.000377   0.000766   0.004148  -0.010955   0.032406  -0.038239
    17  H   -0.000389  -0.001322  -0.003414   0.017823  -0.022535   0.077542
    18  H    0.001647   0.007921  -0.029055   0.022816  -0.011717  -0.046595
    19  H   -0.007961  -0.045162   0.074413   0.422513   0.064766  -0.060012
    20  H    0.005269   0.046523  -0.028923   0.022275  -0.009264  -0.010630
    21  H   -0.021697  -0.018213  -0.003372   0.017901  -0.005964   0.004270
    22  H    0.379576  -0.020888   0.004436  -0.011022   0.003107  -0.009470
    23  H   -0.098157   0.360213   0.081588  -0.008523  -0.001390   0.007106
    24  H    0.013095   0.049776   0.341611   0.004545   0.022959  -0.078380
    25  H    0.015414   0.019280   0.365641   0.004453   0.000753  -0.038018
              13         14         15         16         17         18
     1  C    0.181842  -1.055880   0.359543  -0.021885  -0.018066   0.046067
     2  C   -0.147275  -0.235397  -0.097940   0.379975  -0.021413   0.005052
     3  C   -0.201541  -0.187847  -0.002960  -0.013680   0.371474  -0.088195
     4  C   -1.556002  -0.205357   0.021790   0.013480  -0.058946   0.442531
     5  C   -0.261701  -0.937116   0.005970  -0.001690   0.000346   0.010167
     6  C    1.009031  -1.289861   0.001240  -0.000362   0.000402  -0.004792
     7  C   -0.990252   0.950719  -0.002638   0.000377  -0.000389   0.001647
     8  C    0.236950  -1.614144   0.005955   0.000766  -0.001322   0.007921
     9  C    1.494230  -1.276521   0.080808   0.004148  -0.003414  -0.029055
    10  C   -0.484151   2.081563  -0.008429  -0.010955   0.017823   0.022816
    11  C    1.317823  -4.437912  -0.018588   0.032406  -0.022535  -0.011717
    12  C   -4.447444   2.602844  -0.016904  -0.038239   0.077542  -0.046595
    13  C   14.010668  -3.644364  -0.001414   0.003141  -0.006124  -0.008840
    14  C   -3.644364  14.858817   0.007058  -0.009461   0.004275  -0.010500
    15  H   -0.001414   0.007058   0.438667  -0.008968   0.001377   0.000215
    16  H    0.003141  -0.009461  -0.008968   0.419447  -0.006607   0.001904
    17  H   -0.006124   0.004275   0.001377  -0.006607   0.421094  -0.009994
    18  H   -0.008840  -0.010500   0.000215   0.001904  -0.009994   0.455208
    19  H    0.062218  -0.060681   0.000349  -0.000519   0.001302  -0.005477
    20  H   -0.011476  -0.047156  -0.000120   0.000015  -0.000144   0.001280
    21  H   -0.021926   0.077576   0.000016  -0.000007   0.000009  -0.000143
    22  H    0.032625  -0.039389  -0.000125   0.000007  -0.000007   0.000015
    23  H   -0.018538  -0.017964   0.000626  -0.000126   0.000016  -0.000122
    24  H    0.020979  -0.077440  -0.000331   0.000490  -0.000092   0.000227
    25  H    0.002248  -0.038546  -0.001433   0.000801  -0.000193   0.000164
              19         20         21         22         23         24
     1  C   -0.045171   0.008005  -0.001325   0.000825   0.005933   0.047721
     2  C   -0.007953   0.001627  -0.000386   0.000380  -0.002662   0.012346
     3  C    0.050352  -0.004850   0.000405  -0.000365   0.001261  -0.001130
     4  C   -0.059486   0.010076   0.000337  -0.001679   0.005852  -0.011135
     5  C   -0.061846   0.443801  -0.059533   0.013794   0.022060  -0.011994
     6  C    0.050031  -0.088794   0.371459  -0.014120  -0.003167  -0.000820
     7  C   -0.007961   0.005269  -0.021697   0.379576  -0.098157   0.013095
     8  C   -0.045162   0.046523  -0.018213  -0.020888   0.360213   0.049776
     9  C    0.074413  -0.028923  -0.003372   0.004436   0.081588   0.341611
    10  C    0.422513   0.022275   0.017901  -0.011022  -0.008523   0.004545
    11  C    0.064766  -0.009264  -0.005964   0.003107  -0.001390   0.022959
    12  C   -0.060012  -0.010630   0.004270  -0.009470   0.007106  -0.078380
    13  C    0.062218  -0.011476  -0.021926   0.032625  -0.018538   0.020979
    14  C   -0.060681  -0.047156   0.077576  -0.039389  -0.017964  -0.077440
    15  H    0.000349  -0.000120   0.000016  -0.000125   0.000626  -0.000331
    16  H   -0.000519   0.000015  -0.000007   0.000007  -0.000126   0.000490
    17  H    0.001302  -0.000144   0.000009  -0.000007   0.000016  -0.000092
    18  H   -0.005477   0.001280  -0.000143   0.000015  -0.000122   0.000227
    19  H    0.441118  -0.005588   0.001311  -0.000524   0.000358   0.000530
    20  H   -0.005588   0.455206  -0.009975   0.001932   0.000217   0.000204
    21  H    0.001311  -0.009975   0.420970  -0.006585   0.001359  -0.000081
    22  H   -0.000524   0.001932  -0.006585   0.419380  -0.008997   0.000455
    23  H    0.000358   0.000217   0.001359  -0.008997   0.438900  -0.000299
    24  H    0.000530   0.000204  -0.000081   0.000455  -0.000299   0.495080
    25  H    0.000492   0.000181  -0.000199   0.000827  -0.001509  -0.079565
              25
     1  C    0.022064
     2  C    0.016274
     3  C   -0.002316
     4  C   -0.011461
     5  C   -0.011026
     6  C   -0.002699
     7  C    0.015414
     8  C    0.019280
     9  C    0.365641
    10  C    0.004453
    11  C    0.000753
    12  C   -0.038018
    13  C    0.002248
    14  C   -0.038546
    15  H   -0.001433
    16  H    0.000801
    17  H   -0.000193
    18  H    0.000164
    19  H    0.000492
    20  H    0.000181
    21  H   -0.000199
    22  H    0.000827
    23  H   -0.001509
    24  H   -0.079565
    25  H    0.494801
 Mulliken charges:
               1
     1  C    0.089954
     2  C   -0.417489
     3  C   -0.441946
     4  C    0.052415
     5  C    0.051250
     6  C   -0.441750
     7  C   -0.415392
     8  C    0.091095
     9  C   -0.339857
    10  C    0.098750
    11  C   -0.578603
    12  C    0.602705
    13  C   -0.570710
    14  C    0.602683
    15  H    0.236235
    16  H    0.255540
    17  H    0.253584
    18  H    0.220218
    19  H    0.190627
    20  H    0.220307
    21  H    0.253793
    22  H    0.255809
    23  H    0.235961
    24  H    0.251248
    25  H    0.243571
 Sum of Mulliken charges =   1.00000
 Mulliken charges with hydrogens summed into heavy atoms:
               1
     1  C    0.326189
     2  C   -0.161949
     3  C   -0.188362
     4  C    0.272633
     5  C    0.271557
     6  C   -0.187956
     7  C   -0.159583
     8  C    0.327056
     9  C    0.154962
    10  C    0.289377
    11  C   -0.578603
    12  C    0.602705
    13  C   -0.570710
    14  C    0.602683
 Electronic spatial extent (au):  <R**2>=           2844.3771
 Charge=              1.0000 electrons
 Dipole moment (field-independent basis, Debye):
    X=             -0.0051    Y=              0.1802    Z=             -0.0007  Tot=              0.1802
 Quadrupole moment (field-independent basis, Debye-Ang):
   XX=            -31.3770   YY=            -56.2624   ZZ=            -84.0454
   XY=             -0.0028   XZ=              0.0049   YZ=              0.1445
 Traceless Quadrupole moment (field-independent basis, Debye-Ang):
   XX=             25.8513   YY=              0.9658   ZZ=            -26.8171
   XY=             -0.0028   XZ=              0.0049   YZ=              0.1445
 Octapole moment (field-independent basis, Debye-Ang**2):
  XXX=             -0.2166  YYY=              5.1912  ZZZ=             -0.0405  XYY=              0.0010
  XXY=             -6.1618  XXZ=              0.2329  XZZ=              0.0280  YZZ=             -3.0988
  YYZ=              0.1552  XYZ=              0.0242
 Hexadecapole moment (field-independent basis, Debye-Ang**3):
 XXXX=          -2117.7135 YYYY=           -609.3729 ZZZZ=            -99.1235 XXXY=             -0.1243
 XXXZ=              0.1347 YYYX=              0.0533 YYYZ=              1.6092 ZZZX=              0.0055
 ZZZY=              0.0526 XXYY=           -505.7561 XXZZ=           -587.4974 YYZZ=           -145.5836
 XXYZ=              1.5202 YYXZ=              0.0007 ZZXY=             -0.0024
 N-N= 7.825470087770D+02 E-N=-2.801510288762D+03  KE= 5.375939850309D+02
 Unable to Open any file for archive entry.
 1\1\GINC-GADI-CPU-CLX-0113\SP\RM062X TD-FC\6-311++G(d,p)\C14H11(1+)\TS
 1578\28-Jul-2022\0\\#n M062X/6-311++G(d,p) TD(NStates=1) EmpiricalDisp
 ersion=GD3 SP\\SP_125\\1,1\C,0,-0.01865,2.492955,1.360431\C,0,-0.02372
 5,3.690583,0.671989\C,0,-0.0063,3.664261,-0.71383\C,0,0.0235,2.449306,
 -1.407538\C,0,0.0233,-2.449706,-1.407538\C,0,-0.0075,-3.666261,-0.7138
 3\C,0,-0.025625,-3.691283,0.671989\C,0,-0.02245,-2.494155,1.360431\C,0
 ,-0.013175,0.0044,1.453369\C,0,0.0366,-0.0002,-1.429189\C,0,0.005625,1
 .27358,0.677065\C,0,0.0146,1.235971,-0.730804\C,0,0.005325,-1.27348,0.
 677065\C,0,0.0154,-1.235371,-0.730804\H,0,-0.0041,2.488096,2.443647\H,
 0,-0.023825,4.627378,1.211689\H,0,0.00465,4.608687,-1.272349\H,0,0.010
 65,2.454125,-2.490059\H,0,0.03375,-0.0001,-2.510266\H,0,0.01125,-2.454
 425,-2.490059\H,0,0.00405,-4.611187,-1.272349\H,0,-0.026125,-4.628878,
 1.211689\H,0,-0.0085,-2.489396,2.443647\H,0,-0.907585,0.001,2.144687\H
 ,0,0.811585,0.001,2.146887\\Version=ES64L-G16RevC.01\State=1-A\HF=-539
 .7584035\RMSD=5.033e-09\PG=C01 [X(C14H11)]\\@
 The archive entry for this job was punched.


 IT IS UNWORTHY OF EXCELLENT MEN TO LOSE HOURS LIKE SLAVES IN THE LABOR
 OF CALCULATION WHICH COULD BE SAFELY RELEGATED TO ANYONE ELSE
 IF A MACHINE WERE USED.
    -- G.W. VON LEIBNIZ
 Job cpu time:       0 days  1 hours 20 minutes  2.9 seconds.
 Elapsed time:       0 days  0 hours  1 minutes 40.3 seconds.
 File lengths (MBytes):  RWF=    460 Int=      0 D2E=      0 Chk=     15 Scr=      1
 Normal termination of Gaussian 16 at Thu Jul 28 16:51:37 2022.
