 Entering Gaussian System, Link 0=g16
 Initial command:
 /apps/gaussian/g16c01/g16/l1.exe "/jobfs/53002009.gadi-pbs/Gau-755707.inp" -scrdir="/jobfs/53002009.gadi-pbs/"
 Entering Link 1 = /apps/gaussian/g16c01/g16/l1.exe PID=    755708.
  
 Copyright (c) 1988-2019, Gaussian, Inc.  All Rights Reserved.
  
 This is part of the Gaussian(R) 16 program.  It is based on
 the Gaussian(R) 09 system (copyright 2009, Gaussian, Inc.),
 the Gaussian(R) 03 system (copyright 2003, Gaussian, Inc.),
 the Gaussian(R) 98 system (copyright 1998, Gaussian, Inc.),
 the Gaussian(R) 94 system (copyright 1995, Gaussian, Inc.),
 the Gaussian 92(TM) system (copyright 1992, Gaussian, Inc.),
 the Gaussian 90(TM) system (copyright 1990, Gaussian, Inc.),
 the Gaussian 88(TM) system (copyright 1988, Gaussian, Inc.),
 the Gaussian 86(TM) system (copyright 1986, Carnegie Mellon
 University), and the Gaussian 82(TM) system (copyright 1983,
 Carnegie Mellon University). Gaussian is a federally registered
 trademark of Gaussian, Inc.
  
 This software contains proprietary and confidential information,
 including trade secrets, belonging to Gaussian, Inc.
  
 This software is provided under written license and may be
 used, copied, transmitted, or stored only in accord with that
 written license.
  
 The following legend is applicable only to US Government
 contracts under FAR:
  
                    RESTRICTED RIGHTS LEGEND
  
 Use, reproduction and disclosure by the US Government is
 subject to restrictions as set forth in subparagraphs (a)
 and (c) of the Commercial Computer Software - Restricted
 Rights clause in FAR 52.227-19.
  
 Gaussian, Inc.
 340 Quinnipiac St., Bldg. 40, Wallingford CT 06492
  
  
 ---------------------------------------------------------------
 Warning -- This program may not be used in any manner that
 competes with the business of Gaussian, Inc. or will provide
 assistance to any competitor of Gaussian, Inc.  The licensee
 of this program is prohibited from giving any competitor of
 Gaussian, Inc. access to this program.  By using this program,
 the user acknowledges that Gaussian, Inc. is engaged in the
 business of creating and licensing software in the field of
 computational chemistry and represents and warrants to the
 licensee that it is not a competitor of Gaussian, Inc. and that
 it will not use this program in any manner prohibited above.
 ---------------------------------------------------------------
  

 Cite this work as:
 Gaussian 16, Revision C.01,
 M. J. Frisch, G. W. Trucks, H. B. Schlegel, G. E. Scuseria, 
 M. A. Robb, J. R. Cheeseman, G. Scalmani, V. Barone, 
 G. A. Petersson, H. Nakatsuji, X. Li, M. Caricato, A. V. Marenich, 
 J. Bloino, B. G. Janesko, R. Gomperts, B. Mennucci, H. P. Hratchian, 
 J. V. Ortiz, A. F. Izmaylov, J. L. Sonnenberg, D. Williams-Young, 
 F. Ding, F. Lipparini, F. Egidi, J. Goings, B. Peng, A. Petrone, 
 T. Henderson, D. Ranasinghe, V. G. Zakrzewski, J. Gao, N. Rega, 
 G. Zheng, W. Liang, M. Hada, M. Ehara, K. Toyota, R. Fukuda, 
 J. Hasegawa, M. Ishida, T. Nakajima, Y. Honda, O. Kitao, H. Nakai, 
 T. Vreven, K. Throssell, J. A. Montgomery, Jr., J. E. Peralta, 
 F. Ogliaro, M. J. Bearpark, J. J. Heyd, E. N. Brothers, K. N. Kudin, 
 V. N. Staroverov, T. A. Keith, R. Kobayashi, J. Normand, 
 K. Raghavachari, A. P. Rendell, J. C. Burant, S. S. Iyengar, 
 J. Tomasi, M. Cossi, J. M. Millam, M. Klene, C. Adamo, R. Cammi, 
 J. W. Ochterski, R. L. Martin, K. Morokuma, O. Farkas, 
 J. B. Foresman, and D. J. Fox, Gaussian, Inc., Wallingford CT, 2019.
 
 ******************************************
 Gaussian 16:  ES64L-G16RevC.01  3-Jul-2019
                28-Jul-2022 
 ******************************************
 %NProcShared=48
 Will use up to   48 processors via shared memory.
 %mem = 190GB
 ---------------------------------------------------------------
 #n M062X/6-311++G(d,p) TD(NStates=1) EmpiricalDispersion=GD3 SP
 ---------------------------------------------------------------
 1/38=1,172=1/1;
 2/12=2,17=6,18=5,40=1/2;
 3/5=4,6=6,7=1111,11=9,25=1,30=1,74=-55,124=31/1,2,3,8;
 4//1;
 5/5=2,38=5/2;
 8/6=1,10=2,108=1/1;
 9/41=1,42=1,70=2/14;
 6/7=2,8=2,9=2,10=2/1;
 99/5=1,9=1/99;
 ------
 SP_-25
 ------
 Symbolic Z-matrix:
 Charge =  1 Multiplicity = 1
 C                     0.01855   2.49146   1.36043 
 C                     0.02128   3.71006   0.67199 
 C                     0.0062    3.69861  -0.71383 
 C                    -0.01942   2.47438  -1.40754 
 C                    -0.01957  -2.47468  -1.40754 
 C                     0.0053   -3.70011  -0.71383 
 C                     0.01985  -3.71058   0.67199 
 C                     0.0157   -2.49236   1.36043 
 C                     0.0109    0.0033    1.45337 
 C                    -0.0305   -0.00015  -1.42919 
 C                    -0.00445   1.25253   0.67707 
 C                    -0.0128    1.2392   -0.7308 
 C                    -0.00468  -1.25246   0.67707 
 C                    -0.0122   -1.23875  -0.7308 
 H                     0.0069    2.48702   2.44365 
 H                     0.02168   4.64338   1.21169 
 H                    -0.0034    4.60776  -1.27235 
 H                    -0.00935   2.4785   -2.49006 
 H                    -0.02813  -0.00008  -2.51027 
 H                    -0.0089   -2.47873  -2.49006 
 H                    -0.00385  -4.60964  -1.27235 
 H                     0.01995  -4.6445    1.21169 
 H                     0.0036   -2.488     2.44365 
 H                    -0.81959   0.00075   2.14496 
 H                     0.89959   0.00075   2.14661 
 
                          Input orientation:                          
 ---------------------------------------------------------------------
 Center     Atomic      Atomic             Coordinates (Angstroms)
 Number     Number       Type             X           Y           Z
 ---------------------------------------------------------------------
      1          6           0        0.018550    2.491455    1.360431
      2          6           0        0.021275    3.710058    0.671989
      3          6           0        0.006200    3.698611   -0.713830
      4          6           0       -0.019425    2.474381   -1.407538
      5          6           0       -0.019575   -2.474681   -1.407538
      6          6           0        0.005300   -3.700111   -0.713830
      7          6           0        0.019850   -3.710583    0.671989
      8          6           0        0.015700   -2.492355    1.360431
      9          6           0        0.010900    0.003300    1.453369
     10          6           0       -0.030500   -0.000150   -1.429189
     11          6           0       -0.004450    1.252530    0.677065
     12          6           0       -0.012800    1.239196   -0.730804
     13          6           0       -0.004675   -1.252455    0.677065
     14          6           0       -0.012200   -1.238746   -0.730804
     15          1           0        0.006900    2.487021    2.443647
     16          1           0        0.021675    4.643378    1.211689
     17          1           0       -0.003400    4.607762   -1.272349
     18          1           0       -0.009350    2.478500   -2.490059
     19          1           0       -0.028125   -0.000075   -2.510266
     20          1           0       -0.008900   -2.478725   -2.490059
     21          1           0       -0.003850   -4.609637   -1.272349
     22          1           0        0.019950   -4.644503    1.211689
     23          1           0        0.003600   -2.487996    2.443647
     24          1           0       -0.819585    0.000750    2.144962
     25          1           0        0.899585    0.000750    2.146612
 ---------------------------------------------------------------------
                    Distance matrix (angstroms):
                    1          2          3          4          5
     1  C    0.000000
     2  C    1.399626   0.000000
     3  C    2.399987   1.385948   0.000000
     4  C    2.768282   2.419295   1.407347   0.000000
     5  C    5.685562   6.525113   6.212200   4.949062   0.000000
     6  C    6.529795   7.538657   7.398722   6.213388   1.408378
     7  C    6.240131   7.420641   7.537694   6.525316   2.419388
     8  C    4.983811   6.240506   6.529220   5.686067   2.768250
     9  C    2.489902   3.788234   4.283935   3.780470   3.784984
    10  C    3.740652   4.264185   3.767482   2.474650   2.474650
    11  C    1.415081   2.457668   2.813897   2.416343   4.270585
    12  C    2.437704   2.841505   2.459547   1.408437   3.775036
    13  C    3.805836   4.962583   5.142739   4.270257   2.416532
    14  C    4.276518   5.143891   4.937420   3.774299   1.409099
    15  H    1.083288   2.152858   3.381954   3.851296   6.280988
    16  H    2.157060   1.078129   2.144865   3.400969   7.584775
    17  H    3.377983   2.141712   1.067048   2.137720   7.083752
    18  H    3.850613   3.393556   2.154971   1.082576   5.070104
    19  H    4.603498   4.888177   4.112012   2.709062   2.709199
    20  H    6.287266   6.949856   6.427651   5.070032   1.082581
    21  H    7.573476   8.543910   8.327006   7.085325   2.139290
    22  H    7.137508   8.371975   8.562439   7.585540   3.401476
    23  H    5.095931   6.446314   6.945774   6.281508   3.851278
    24  H    2.742548   4.078684   4.746450   4.402200   4.403184
    25  H    2.756432   4.087164   4.759668   4.426671   4.427708
                    6          7          8          9         10
     6  C    0.000000
     7  C    1.385935   0.000000
     8  C    2.400279   1.399303   0.000000
     9  C    4.290925   3.795202   2.497390   0.000000
    10  C    3.768651   4.264364   3.741016   2.882857   0.000000
    11  C    5.144253   4.963175   3.806778   1.470870   2.450753
    12  C    4.939369   5.144823   4.277680   2.509704   1.422685
    13  C    2.815263   2.458256   1.415894   1.476418   2.450559
    14  C    2.461486   2.842329   2.438356   2.512732   1.422040
    15  H    6.946241   6.445870   5.095843   2.673862   4.602855
    16  H    8.562809   8.371376   7.137286   4.646380   5.342220
    17  H    8.326630   8.542591   7.572553   5.350777   4.610660
    18  H    6.428875   6.950119   6.287790   4.655926   2.696219
    19  H    4.113218   4.888447   4.603876   3.963829   1.081080
    20  H    2.155684   3.393648   3.850593   4.659556   2.696154
    21  H    1.067363   2.142268   3.378579   5.358073   4.612232
    22  H    2.144694   1.078649   2.157286   4.654091   5.342920
    23  H    3.382142   2.152616   1.083292   2.680906   4.603194
    24  H    4.748631   4.080232   2.743859   1.080746   3.660220
    25  H    4.762168   4.089308   2.759512   1.127100   3.694782
                   11         12         13         14         15
    11  C    0.000000
    12  C    1.407957   0.000000
    13  C    2.504985   2.861902   0.000000
    14  C    2.861575   2.477942   1.407956   0.000000
    15  H    2.155205   3.410952   4.135774   4.894777   0.000000
    16  H    3.432835   3.919556   5.920081   6.194660   2.483508
    17  H    3.880438   3.411832   6.175950   5.871542   4.278583
    18  H    3.396130   2.151944   4.893947   4.112530   4.933740
    19  H    3.424713   2.168528   3.424629   2.168189   5.543296
    20  H    4.894176   4.113141   3.396238   2.152333   7.000024
    21  H    6.177800   5.873857   3.882124   3.414125   8.010699
    22  H    5.921268   6.196149   3.434009   3.920905   7.237163
    23  H    4.136715   4.895852   2.155793   3.411453   4.975018
    24  H    2.094307   3.233370   2.095071   3.233922   2.637012
    25  H    2.131619   3.262778   2.132552   3.263009   2.658319
                   16         17         18         19         20
    16  H    0.000000
    17  H    2.484420   0.000000
    18  H    4.288426   2.452878   0.000000
    19  H    5.951225   4.771290   2.478728   0.000000
    20  H    8.026719   7.190351   4.957225   2.478807   0.000000
    21  H    9.580678   9.217399   7.191977   4.772954   2.454308
    22  H    9.287881   9.579948   8.027513   5.951972   4.288865
    23  H    7.237026   8.009897   7.000550   5.543646   4.933731
    24  H    4.809648   5.793853   5.317814   4.722029   5.318687
    25  H    4.816513   5.807688   5.335178   4.748385   5.335903
                   21         22         23         24         25
    21  H    0.000000
    22  H    2.484397   0.000000
    23  H    4.279024   2.483649   0.000000
    24  H    5.796474   4.811880   2.638314   0.000000
    25  H    5.810435   4.819358   2.661743   1.719171   0.000000
 Stoichiometry    C14H11(1+)
 Framework group  C1[X(C14H11)]
 Deg. of freedom    69
 Full point group                 C1      NOp   1
 Largest Abelian subgroup         C1      NOp   1
 Largest concise Abelian subgroup C1      NOp   1
                         Standard orientation:                         
 ---------------------------------------------------------------------
 Center     Atomic      Atomic             Coordinates (Angstroms)
 Number     Number       Type             X           Y           Z
 ---------------------------------------------------------------------
      1          6           0       -2.491545   -1.360385    0.002674
      2          6           0       -3.710105   -0.671935    0.012761
      3          6           0       -3.698567    0.713966    0.012944
      4          6           0       -2.474289    1.407834   -0.004826
      5          6           0        2.474773    1.407511   -0.004097
      6          6           0        3.700155    0.713491    0.013358
      7          6           0        3.710536   -0.672405    0.012653
      8          6           0        2.492265   -1.360680    0.000709
      9          6           0       -0.003395   -1.453396   -0.005557
     10          6           0        0.000245    1.429443   -0.015222
     11          6           0       -1.252573   -0.676888   -0.012582
     12          6           0       -1.239148    0.730987   -0.005431
     13          6           0        1.252412   -0.677049   -0.012362
     14          6           0        1.238794    0.730818   -0.004391
     15          1           0       -2.487178   -2.443407   -0.020899
     16          1           0       -4.643459   -1.211545    0.007054
     17          1           0       -4.607681    1.272616    0.009332
     18          1           0       -2.478341    2.490178    0.017165
     19          1           0        0.000239    2.510429   -0.000947
     20          1           0        2.478884    2.489849    0.018495
     21          1           0        4.609718    1.272018    0.010518
     22          1           0        4.644422   -1.212134    0.006978
     23          1           0        2.487839   -2.443696   -0.023315
     24          1           0       -0.000741   -2.135805   -0.843604
     25          1           0       -0.001047   -2.156380    0.875443
 ---------------------------------------------------------------------
 Rotational constants (GHZ):           2.1357835           0.4425509           0.3673940
 Standard basis: 6-311++G(d,p) (5D, 7F)
 There are   399 symmetry adapted cartesian basis functions of A   symmetry.
 There are   385 symmetry adapted basis functions of A   symmetry.
   385 basis functions,   603 primitive gaussians,   399 cartesian basis functions
    47 alpha electrons       47 beta electrons
       nuclear repulsion energy       780.0220897230 Hartrees.
 NAtoms=   25 NActive=   25 NUniq=   25 SFac= 1.00D+00 NAtFMM=   60 NAOKFM=F Big=F
 Integral buffers will be    131072 words long.
 Regular integral format.
 Two-electron integral symmetry is turned on.
 Nuclear repulsion after empirical dispersion term =      780.0211098101 Hartrees.
 One-electron integrals computed using PRISM.
 NBasis=   385 RedAO= T EigKep=  1.24D-06  NBF=   385
 NBsUse=   379 1.00D-06 EigRej=  8.76D-07 NBFU=   379
 ExpMin= 3.60D-02 ExpMax= 4.56D+03 ExpMxC= 6.82D+02 IAcc=3 IRadAn=         5 AccDes= 0.00D+00
 Harris functional with IExCor= 1009 and IRadAn=       5 diagonalized for initial guess.
 HarFok:  IExCor= 1009 AccDes= 0.00D+00 IRadAn=         5 IDoV= 1 UseB2=F ITyADJ=14
 ICtDFT=  3500011 ScaDFX=  1.000000  1.000000  1.000000  1.000000
 FoFCou: FMM=F IPFlag=           0 FMFlag=      100000 FMFlg1=           0
         NFxFlg=           0 DoJE=T BraDBF=F KetDBF=T FulRan=T
         wScrn=  0.000000 ICntrl=       500 IOpCl=  0 I1Cent=   200000004 NGrid=           0
         NMat0=    1 NMatS0=      1 NMatT0=    0 NMatD0=    1 NMtDS0=    0 NMtDT0=    0
 Petite list used in FoFCou.
 Requested convergence on RMS density matrix=1.00D-08 within 128 cycles.
 Requested convergence on MAX density matrix=1.00D-06.
 Requested convergence on             energy=1.00D-06.
 No special actions if energy rises.
 SCF Done:  E(RM062X) =  -539.757952861     A.U. after   15 cycles
            NFock= 15  Conv=0.45D-08     -V/T= 2.0043
 DoSCS=F DFT=T ScalE2(SS,OS)=  1.000000  1.000000
 ExpMin= 3.60D-02 ExpMax= 4.56D+03 ExpMxC= 6.82D+02 IAcc=3 IRadAn=         5 AccDes= 0.00D+00
 HarFok:  IExCor=  205 AccDes= 0.00D+00 IRadAn=         5 IDoV=-2 UseB2=F ITyADJ=14
 ICtDFT= 12500011 ScaDFX=  1.000000  1.000000  1.000000  1.000000
 Range of M.O.s used for correlation:    15   379
 NBasis=   385 NAE=    47 NBE=    47 NFC=    14 NFV=     0
 NROrb=    365 NOA=    33 NOB=    33 NVA=   332 NVB=   332

 **** Warning!!: The largest alpha MO coefficient is  0.14926265D+03

 Orbital symmetries:
       Occupied  (A) (A) (A) (A) (A) (A) (A) (A) (A) (A) (A) (A)
                 (A) (A) (A) (A) (A) (A) (A) (A) (A) (A) (A) (A)
                 (A) (A) (A) (A) (A) (A) (A) (A) (A) (A) (A) (A)
                 (A) (A) (A) (A) (A) (A) (A) (A) (A) (A) (A)
       Virtual   (A) (A) (A) (A) (A) (A) (A) (A) (A) (A) (A) (A)
                 (A) (A) (A) (A) (A) (A) (A) (A) (A) (A) (A) (A)
                 (A) (A) (A) (A) (A) (A) (A) (A) (A) (A) (A) (A)
                 (A) (A) (A) (A) (A) (A) (A) (A) (A) (A) (A) (A)
                 (A) (A) (A) (A) (A) (A) (A) (A) (A) (A) (A) (A)
                 (A) (A) (A) (A) (A) (A) (A) (A) (A) (A) (A) (A)
                 (A) (A) (A) (A) (A) (A) (A) (A) (A) (A) (A) (A)
                 (A) (A) (A) (A) (A) (A) (A) (A) (A) (A) (A) (A)
                 (A) (A) (A) (A) (A) (A) (A) (A) (A) (A) (A) (A)
                 (A) (A) (A) (A) (A) (A) (A) (A) (A) (A) (A) (A)
                 (A) (A) (A) (A) (A) (A) (A) (A) (A) (A) (A) (A)
                 (A) (A) (A) (A) (A) (A) (A) (A) (A) (A) (A) (A)
                 (A) (A) (A) (A) (A) (A) (A) (A) (A) (A) (A) (A)
                 (A) (A) (A) (A) (A) (A) (A) (A) (A) (A) (A) (A)
                 (A) (A) (A) (A) (A) (A) (A) (A) (A) (A) (A) (A)
                 (A) (A) (A) (A) (A) (A) (A) (A) (A) (A) (A) (A)
                 (A) (A) (A) (A) (A) (A) (A) (A) (A) (A) (A) (A)
                 (A) (A) (A) (A) (A) (A) (A) (A) (A) (A) (A) (A)
                 (A) (A) (A) (A) (A) (A) (A) (A) (A) (A) (A) (A)
                 (A) (A) (A) (A) (A) (A) (A) (A) (A) (A) (A) (A)
                 (A) (A) (A) (A) (A) (A) (A) (A) (A) (A) (A) (A)
                 (A) (A) (A) (A) (A) (A) (A) (A) (A) (A) (A) (A)
                 (A) (A) (A) (A) (A) (A) (A) (A) (A) (A) (A) (A)
                 (A) (A) (A) (A) (A) (A) (A) (A) (A) (A) (A) (A)
                 (A) (A) (A) (A) (A) (A) (A) (A) (A) (A) (A) (A)
                 (A) (A) (A) (A) (A) (A) (A) (A) (A) (A) (A) (A)
                 (A) (A) (A) (A) (A) (A) (A) (A) (A) (A) (A) (A)
                 (A) (A) (A) (A) (A) (A) (A) (A)
     4 initial guesses have been made.
 Convergence on wavefunction:    0.001000000000000
 Iteration     1 Dimension     4 NMult     0 NNew      4
 CISAX will form     4 AO SS matrices at one time.
 Iteration     2 Dimension     6 NMult     4 NNew      2
 Iteration     3 Dimension     8 NMult     6 NNew      2
 Iteration     4 Dimension    10 NMult     8 NNew      2
 Iteration     5 Dimension    12 NMult    10 NNew      2
 Iteration     6 Dimension    14 NMult    12 NNew      2
 ***********************************************************************
 Excited states from <AA,BB:AA,BB> singles matrix:
 ***********************************************************************
 
 Ground to excited state transition densities written to RWF  633
 Ground to excited state transition electric dipole moments (Au):
       state          X           Y           Z        Dip. S.      Osc.
         1        -0.0044     -0.6357      0.0050      0.4041      0.0277
 Ground to excited state transition velocity dipole moments (Au):
       state          X           Y           Z        Dip. S.      Osc.
         1         0.0005      0.0731     -0.0006      0.0053      0.0346
 Ground to excited state transition magnetic dipole moments (Au):
       state          X           Y           Z
         1        -0.0065     -0.0003      0.0000
 Ground to excited state transition velocity quadrupole moments (Au):
       state          XX          YY          ZZ          XY          XZ          YZ
         1         0.3106      0.0317     -0.0095      0.0006      0.0000      0.0010
 <0|del|b> * <b|rxdel|0> + <0|del|b> * <b|delr+rdel|0>
 Rotatory Strengths (R) in cgs (10**-40 erg-esu-cm/Gauss)
       state          XX          YY          ZZ    R(velocity)    E-M Angle
         1        -0.0832     -0.0074     -0.0777     -0.0561       90.00
 1/2[<0|r|b>*<b|rxdel|0> + (<0|rxdel|b>*<b|r|0>)*]
 Rotatory Strengths (R) in cgs (10**-40 erg-esu-cm/Gauss)
       state          XX          YY          ZZ     R(length)
         1        -0.0204     -0.1320     -0.0001     -0.0508
  1/2[<0|del|b>*<b|r|0> + (<0|r|b>*<b|del|0>)*] (Au)
       state          X           Y           Z        Dip. S.   Osc.(frdel)
         1        -0.0000     -0.0465     -0.0000      0.0465      0.0310

 Excitation energies and oscillator strengths:
 
 Excited State   1:      Singlet-A      2.8001 eV  442.78 nm  f=0.0277  <S**2>=0.000
      47 -> 48         0.70427
 This state for optimization and/or second-order correction.
 Total Energy, E(TD-HF/TD-DFT) =  -539.655050946    
 Copying the excited state density for this state as the 1-particle RhoCI density.
 SavETr:  write IOETrn=   770 NScale= 10 NData=  16 NLR=1 NState=    1 LETran=      28.

 **********************************************************************

            Population analysis using the SCF Density.

 **********************************************************************

 Orbital symmetries:
       Occupied  (A) (A) (A) (A) (A) (A) (A) (A) (A) (A) (A) (A)
                 (A) (A) (A) (A) (A) (A) (A) (A) (A) (A) (A) (A)
                 (A) (A) (A) (A) (A) (A) (A) (A) (A) (A) (A) (A)
                 (A) (A) (A) (A) (A) (A) (A) (A) (A) (A) (A)
       Virtual   (A) (A) (A) (A) (A) (A) (A) (A) (A) (A) (A) (A)
                 (A) (A) (A) (A) (A) (A) (A) (A) (A) (A) (A) (A)
                 (A) (A) (A) (A) (A) (A) (A) (A) (A) (A) (A) (A)
                 (A) (A) (A) (A) (A) (A) (A) (A) (A) (A) (A) (A)
                 (A) (A) (A) (A) (A) (A) (A) (A) (A) (A) (A) (A)
                 (A) (A) (A) (A) (A) (A) (A) (A) (A) (A) (A) (A)
                 (A) (A) (A) (A) (A) (A) (A) (A) (A) (A) (A) (A)
                 (A) (A) (A) (A) (A) (A) (A) (A) (A) (A) (A) (A)
                 (A) (A) (A) (A) (A) (A) (A) (A) (A) (A) (A) (A)
                 (A) (A) (A) (A) (A) (A) (A) (A) (A) (A) (A) (A)
                 (A) (A) (A) (A) (A) (A) (A) (A) (A) (A) (A) (A)
                 (A) (A) (A) (A) (A) (A) (A) (A) (A) (A) (A) (A)
                 (A) (A) (A) (A) (A) (A) (A) (A) (A) (A) (A) (A)
                 (A) (A) (A) (A) (A) (A) (A) (A) (A) (A) (A) (A)
                 (A) (A) (A) (A) (A) (A) (A) (A) (A) (A) (A) (A)
                 (A) (A) (A) (A) (A) (A) (A) (A) (A) (A) (A) (A)
                 (A) (A) (A) (A) (A) (A) (A) (A) (A) (A) (A) (A)
                 (A) (A) (A) (A) (A) (A) (A) (A) (A) (A) (A) (A)
                 (A) (A) (A) (A) (A) (A) (A) (A) (A) (A) (A) (A)
                 (A) (A) (A) (A) (A) (A) (A) (A) (A) (A) (A) (A)
                 (A) (A) (A) (A) (A) (A) (A) (A) (A) (A) (A) (A)
                 (A) (A) (A) (A) (A) (A) (A) (A) (A) (A) (A) (A)
                 (A) (A) (A) (A) (A) (A) (A) (A) (A) (A) (A) (A)
                 (A) (A) (A) (A) (A) (A) (A) (A) (A) (A) (A) (A)
                 (A) (A) (A) (A) (A) (A) (A) (A) (A) (A) (A) (A)
                 (A) (A) (A) (A) (A) (A) (A) (A) (A) (A) (A) (A)
                 (A) (A) (A) (A) (A) (A) (A) (A) (A) (A) (A) (A)
                 (A) (A) (A) (A) (A) (A) (A) (A)
 The electronic state is 1-A.
 Alpha  occ. eigenvalues --  -10.77657 -10.73303 -10.73262 -10.72543 -10.72541
 Alpha  occ. eigenvalues --  -10.71511 -10.71489 -10.71087 -10.71080 -10.70981
 Alpha  occ. eigenvalues --  -10.70122 -10.70106 -10.69600 -10.69579  -1.16363
 Alpha  occ. eigenvalues --   -1.12200  -1.06811  -1.05812  -1.01077  -1.00195
 Alpha  occ. eigenvalues --   -0.95686  -0.91079  -0.86408  -0.85857  -0.83804
 Alpha  occ. eigenvalues --   -0.78390  -0.76004  -0.74365  -0.69583  -0.69329
 Alpha  occ. eigenvalues --   -0.68629  -0.68255  -0.68126  -0.64545  -0.64118
 Alpha  occ. eigenvalues --   -0.63188  -0.62033  -0.59897  -0.59482  -0.59156
 Alpha  occ. eigenvalues --   -0.56933  -0.55275  -0.54912  -0.52336  -0.46465
 Alpha  occ. eigenvalues --   -0.46037  -0.44381
 Alpha virt. eigenvalues --   -0.26068  -0.14822  -0.14134  -0.12936  -0.11177
 Alpha virt. eigenvalues --   -0.10080  -0.09211  -0.08013  -0.07920  -0.07467
 Alpha virt. eigenvalues --   -0.07223  -0.07144  -0.05647  -0.05582  -0.05359
 Alpha virt. eigenvalues --   -0.03786  -0.03650  -0.03284  -0.03133  -0.02155
 Alpha virt. eigenvalues --   -0.01358  -0.00909   0.00191   0.00650   0.00714
 Alpha virt. eigenvalues --    0.01040   0.01512   0.01887   0.02200   0.02296
 Alpha virt. eigenvalues --    0.02421   0.02601   0.02736   0.03266   0.03397
 Alpha virt. eigenvalues --    0.04252   0.04499   0.04685   0.04961   0.05355
 Alpha virt. eigenvalues --    0.06009   0.06285   0.06600   0.07034   0.07213
 Alpha virt. eigenvalues --    0.07856   0.08040   0.08349   0.08482   0.08936
 Alpha virt. eigenvalues --    0.09562   0.09580   0.10026   0.10781   0.11005
 Alpha virt. eigenvalues --    0.11121   0.12231   0.12278   0.12875   0.13043
 Alpha virt. eigenvalues --    0.13403   0.13532   0.14030   0.14242   0.15993
 Alpha virt. eigenvalues --    0.16371   0.16605   0.17398   0.17490   0.17671
 Alpha virt. eigenvalues --    0.18088   0.18918   0.19165   0.19584   0.19716
 Alpha virt. eigenvalues --    0.21447   0.21483   0.22683   0.23132   0.23465
 Alpha virt. eigenvalues --    0.23573   0.24544   0.24882   0.26831   0.27470
 Alpha virt. eigenvalues --    0.28829   0.29278   0.29814   0.31199   0.35799
 Alpha virt. eigenvalues --    0.36215   0.37953   0.39142   0.41159   0.41485
 Alpha virt. eigenvalues --    0.41934   0.42364   0.43034   0.43551   0.44241
 Alpha virt. eigenvalues --    0.44722   0.44783   0.45378   0.46056   0.47911
 Alpha virt. eigenvalues --    0.48609   0.48913   0.49063   0.50463   0.51174
 Alpha virt. eigenvalues --    0.51384   0.51399   0.52129   0.52534   0.54004
 Alpha virt. eigenvalues --    0.54119   0.54492   0.55761   0.55762   0.57413
 Alpha virt. eigenvalues --    0.58182   0.58764   0.61376   0.62058   0.62308
 Alpha virt. eigenvalues --    0.62951   0.63619   0.64447   0.65133   0.67036
 Alpha virt. eigenvalues --    0.70436   0.70590   0.70953   0.72160   0.72739
 Alpha virt. eigenvalues --    0.75524   0.75689   0.76158   0.76586   0.76940
 Alpha virt. eigenvalues --    0.77472   0.77688   0.78115   0.80404   0.80491
 Alpha virt. eigenvalues --    0.81162   0.81534   0.82045   0.82842   0.84844
 Alpha virt. eigenvalues --    0.86806   0.87301   0.88022   0.89563   0.90463
 Alpha virt. eigenvalues --    0.90735   0.91443   0.93071   0.94710   0.96373
 Alpha virt. eigenvalues --    0.96706   1.00463   1.01275   1.01548   1.02636
 Alpha virt. eigenvalues --    1.02991   1.03910   1.04449   1.05910   1.08798
 Alpha virt. eigenvalues --    1.19802   1.23337   1.24083   1.25382   1.27967
 Alpha virt. eigenvalues --    1.29247   1.32091   1.33709   1.35401   1.35915
 Alpha virt. eigenvalues --    1.39059   1.40202   1.40524   1.42809   1.43125
 Alpha virt. eigenvalues --    1.43358   1.44993   1.45060   1.46502   1.46779
 Alpha virt. eigenvalues --    1.47563   1.47583   1.51588   1.53592   1.55536
 Alpha virt. eigenvalues --    1.55973   1.56125   1.56354   1.57603   1.61235
 Alpha virt. eigenvalues --    1.63456   1.63985   1.64076   1.65968   1.67989
 Alpha virt. eigenvalues --    1.68491   1.68602   1.69685   1.73973   1.75914
 Alpha virt. eigenvalues --    1.77022   1.77865   1.79558   1.79938   1.80176
 Alpha virt. eigenvalues --    1.83073   1.83153   1.83361   1.83548   1.84022
 Alpha virt. eigenvalues --    1.84322   1.85787   1.85792   1.88096   1.91501
 Alpha virt. eigenvalues --    1.91731   1.94124   1.95253   1.97416   1.97675
 Alpha virt. eigenvalues --    1.99297   2.02377   2.04048   2.07547   2.11618
 Alpha virt. eigenvalues --    2.11881   2.13616   2.15100   2.18513   2.20943
 Alpha virt. eigenvalues --    2.22183   2.28380   2.29634   2.34373   2.35339
 Alpha virt. eigenvalues --    2.35982   2.39142   2.40294   2.41766   2.42436
 Alpha virt. eigenvalues --    2.46007   2.48500   2.48656   2.52608   2.53738
 Alpha virt. eigenvalues --    2.54119   2.56868   2.57767   2.58296   2.59636
 Alpha virt. eigenvalues --    2.59658   2.61602   2.61731   2.63258   2.63788
 Alpha virt. eigenvalues --    2.64342   2.64542   2.64937   2.65242   2.67780
 Alpha virt. eigenvalues --    2.68826   2.70857   2.71337   2.73367   2.74807
 Alpha virt. eigenvalues --    2.76245   2.78302   2.79542   2.82342   2.82879
 Alpha virt. eigenvalues --    2.84303   2.86279   2.92038   2.96546   2.99345
 Alpha virt. eigenvalues --    2.99663   3.05681   3.10164   3.10649   3.11768
 Alpha virt. eigenvalues --    3.20908   3.23572   3.25978   3.27721   3.30267
 Alpha virt. eigenvalues --    3.31545   3.32898   3.43320   3.44946   3.45688
 Alpha virt. eigenvalues --    3.47506   3.49378   3.56210   3.65187   3.67206
 Alpha virt. eigenvalues --    3.67780   3.94409   3.95523   3.95786   3.96922
 Alpha virt. eigenvalues --    4.04527   4.06908   4.07136   4.12446   4.35647
 Alpha virt. eigenvalues --    4.61517   4.68935   4.70639  23.45583  23.61437
 Alpha virt. eigenvalues --   23.81564  23.86023  23.87229  23.89070  23.90442
 Alpha virt. eigenvalues --   23.92223  23.96753  23.97611  23.97794  23.99181
 Alpha virt. eigenvalues --   24.09404  24.09560
          Condensed to atoms (all electrons):
               1          2          3          4          5          6
     1  C    8.379047   0.476711  -0.571330   1.716344   0.006681  -0.087549
     2  C    0.476711   6.957891   0.361968  -0.891246  -0.035179  -0.014141
     3  C   -0.571330   0.361968   6.571553   0.638528  -0.115176   0.016347
     4  C    1.716344  -0.891246   0.638528  10.501455  -0.139709  -0.114596
     5  C    0.006681  -0.035179  -0.115176  -0.139709  10.490892   0.628763
     6  C   -0.087549  -0.014141   0.016347  -0.114596   0.628763   6.569420
     7  C   -0.029157   0.005341  -0.014222  -0.035689  -0.879511   0.359577
     8  C    0.387291  -0.028168  -0.087627   0.002809   1.724788  -0.576609
     9  C   -1.308971  -0.684141   0.284246  -0.354211  -0.353607   0.285453
    10  C   -1.148255   0.194133  -0.339711  -2.396742  -2.394771  -0.336231
    11  C    0.223896  -0.943863   1.076538  -0.558871  -1.576447  -0.144934
    12  C   -1.589199   1.129465  -1.337912  -0.973658  -0.192458  -0.210036
    13  C    0.107491  -0.206908  -0.147332  -1.581689  -0.569010   1.079479
    14  C   -1.030752  -0.206040  -0.210250  -0.195618  -0.978232  -1.329375
    15  H    0.360206  -0.102539  -0.000411   0.025445   0.005509   0.001119
    16  H   -0.021669   0.380141  -0.018149   0.013361  -0.001470  -0.000315
    17  H   -0.020666  -0.020939   0.380726  -0.062160  -0.000001   0.000379
    18  H    0.045742   0.006631  -0.091077   0.446509   0.010214  -0.004762
    19  H   -0.045743  -0.008410   0.052126  -0.076195  -0.076321   0.052168
    20  H    0.007337   0.001743  -0.004773   0.010126   0.445588  -0.091463
    21  H   -0.001281  -0.000373   0.000380   0.000011  -0.062046   0.380657
    22  H    0.000672   0.000351  -0.000316  -0.001486   0.013538  -0.018311
    23  H    0.005673  -0.002646   0.001121   0.005533   0.025280  -0.000447
    24  H    0.019148   0.014854  -0.001834  -0.012819  -0.013429  -0.001634
    25  H    0.044943   0.013481  -0.000776  -0.012759  -0.012155  -0.001038
               7          8          9         10         11         12
     1  C   -0.029157   0.387291  -1.308971  -1.148255   0.223896  -1.589199
     2  C    0.005341  -0.028168  -0.684141   0.194133  -0.943863   1.129465
     3  C   -0.014222  -0.087627   0.284246  -0.339711   1.076538  -1.337912
     4  C   -0.035689   0.002809  -0.354211  -2.396742  -0.558871  -0.973658
     5  C   -0.879511   1.724788  -0.353607  -2.394771  -1.576447  -0.192458
     6  C    0.359577  -0.576609   0.285453  -0.336231  -0.144934  -0.210036
     7  C    6.939732   0.479846  -0.675613   0.190476  -0.201127  -0.204948
     8  C    0.479846   8.370937  -1.299603  -1.147506   0.112500  -1.019622
     9  C   -0.675613  -1.299603   9.151785   0.326650   1.635191  -1.627012
    10  C    0.190476  -1.147506   0.326650   9.057968  -0.381076   2.094559
    11  C   -0.201127   0.112500   1.635191  -0.381076  14.338514  -3.601095
    12  C   -0.204948  -1.019622  -1.627012   2.094559  -3.601095  15.166988
    13  C   -0.938973   0.204370   1.630791  -0.388175   1.304108  -4.730929
    14  C    1.116955  -1.593170  -1.628532   2.094606  -4.714901   2.665793
    15  H   -0.002596   0.005630   0.087559  -0.009588  -0.022680  -0.022331
    16  H    0.000345   0.000627   0.003605  -0.009777   0.026329  -0.030583
    17  H   -0.000371  -0.001267  -0.004246   0.019132  -0.024240   0.080762
    18  H    0.001739   0.007270  -0.026439   0.022530  -0.020029  -0.040501
    19  H   -0.008487  -0.045699   0.073280   0.423234   0.085212  -0.068113
    20  H    0.007051   0.045671  -0.026410   0.023002  -0.012169  -0.008358
    21  H   -0.021146  -0.020355  -0.004238   0.019102  -0.005762   0.004508
    22  H    0.379915  -0.021117   0.003878  -0.009935   0.002722  -0.008709
    23  H   -0.101848   0.360683   0.087522  -0.009534   0.000282   0.006321
    24  H    0.015479   0.020771   0.369157   0.006508   0.005727  -0.044597
    25  H    0.012663   0.042766   0.346767   0.005225   0.020743  -0.074270
              13         14         15         16         17         18
     1  C    0.107491  -1.030752   0.360206  -0.021669  -0.020666   0.045742
     2  C   -0.206908  -0.206040  -0.102539   0.380141  -0.020939   0.006631
     3  C   -0.147332  -0.210250  -0.000411  -0.018149   0.380726  -0.091077
     4  C   -1.581689  -0.195618   0.025445   0.013361  -0.062160   0.446509
     5  C   -0.569010  -0.978232   0.005509  -0.001470  -0.000001   0.010214
     6  C    1.079479  -1.329375   0.001119  -0.000315   0.000379  -0.004762
     7  C   -0.938973   1.116955  -0.002596   0.000345  -0.000371   0.001739
     8  C    0.204370  -1.593170   0.005630   0.000627  -0.001267   0.007270
     9  C    1.630791  -1.628532   0.087559   0.003605  -0.004246  -0.026439
    10  C   -0.388175   2.094606  -0.009588  -0.009777   0.019132   0.022530
    11  C    1.304108  -4.714901  -0.022680   0.026329  -0.024240  -0.020029
    12  C   -4.730929   2.665793  -0.022331  -0.030583   0.080762  -0.040501
    13  C   14.397287  -3.592546   0.000421   0.002670  -0.005806  -0.012446
    14  C   -3.592546  15.176205   0.006396  -0.008627   0.004524  -0.008728
    15  H    0.000421   0.006396   0.440213  -0.009000   0.001556   0.000128
    16  H    0.002670  -0.008627  -0.009000   0.420062  -0.006946   0.001957
    17  H   -0.005806   0.004524   0.001556  -0.006946   0.424734  -0.010529
    18  H   -0.012446  -0.008728   0.000128   0.001957  -0.010529   0.454157
    19  H    0.085363  -0.067596   0.000333  -0.000573   0.001477  -0.006404
    20  H   -0.020211  -0.040614  -0.000127   0.000016  -0.000148   0.001312
    21  H   -0.024040   0.080290   0.000018  -0.000007   0.000011  -0.000147
    22  H    0.026724  -0.031521  -0.000127   0.000007  -0.000007   0.000015
    23  H   -0.023130  -0.022444   0.000579  -0.000127   0.000017  -0.000126
    24  H    0.005509  -0.043596  -0.001491   0.000757  -0.000194   0.000158
    25  H    0.020462  -0.075476  -0.000373   0.000479  -0.000097   0.000207
              19         20         21         22         23         24
     1  C   -0.045743   0.007337  -0.001281   0.000672   0.005673   0.019148
     2  C   -0.008410   0.001743  -0.000373   0.000351  -0.002646   0.014854
     3  C    0.052126  -0.004773   0.000380  -0.000316   0.001121  -0.001834
     4  C   -0.076195   0.010126   0.000011  -0.001486   0.005533  -0.012819
     5  C   -0.076321   0.445588  -0.062046   0.013538   0.025280  -0.013429
     6  C    0.052168  -0.091463   0.380657  -0.018311  -0.000447  -0.001634
     7  C   -0.008487   0.007051  -0.021146   0.379915  -0.101848   0.015479
     8  C   -0.045699   0.045671  -0.020355  -0.021117   0.360683   0.020771
     9  C    0.073280  -0.026410  -0.004238   0.003878   0.087522   0.369157
    10  C    0.423234   0.023002   0.019102  -0.009935  -0.009534   0.006508
    11  C    0.085212  -0.012169  -0.005762   0.002722   0.000282   0.005727
    12  C   -0.068113  -0.008358   0.004508  -0.008709   0.006321  -0.044597
    13  C    0.085363  -0.020211  -0.024040   0.026724  -0.023130   0.005509
    14  C   -0.067596  -0.040614   0.080290  -0.031521  -0.022444  -0.043596
    15  H    0.000333  -0.000127   0.000018  -0.000127   0.000579  -0.001491
    16  H   -0.000573   0.000016  -0.000007   0.000007  -0.000127   0.000757
    17  H    0.001477  -0.000148   0.000011  -0.000007   0.000017  -0.000194
    18  H   -0.006404   0.001312  -0.000147   0.000015  -0.000126   0.000158
    19  H    0.446071  -0.006402   0.001469  -0.000570   0.000337   0.000638
    20  H   -0.006402   0.454220  -0.010468   0.001967   0.000119   0.000146
    21  H    0.001469  -0.010468   0.424524  -0.006930   0.001557  -0.000189
    22  H   -0.000570   0.001967  -0.006930   0.420067  -0.009007   0.000733
    23  H    0.000337   0.000119   0.001557  -0.009007   0.439978  -0.001391
    24  H    0.000638   0.000146  -0.000189   0.000733  -0.001391   0.491893
    25  H    0.000576   0.000224  -0.000104   0.000503  -0.000468  -0.078683
              25
     1  C    0.044943
     2  C    0.013481
     3  C   -0.000776
     4  C   -0.012759
     5  C   -0.012155
     6  C   -0.001038
     7  C    0.012663
     8  C    0.042766
     9  C    0.346767
    10  C    0.005225
    11  C    0.020743
    12  C   -0.074270
    13  C    0.020462
    14  C   -0.075476
    15  H   -0.000373
    16  H    0.000479
    17  H   -0.000097
    18  H    0.000207
    19  H    0.000576
    20  H    0.000224
    21  H   -0.000104
    22  H    0.000503
    23  H   -0.000468
    24  H   -0.078683
    25  H    0.492131
 Mulliken charges:
               1
     1  C    0.073388
     2  C   -0.398117
     3  C   -0.442635
     4  C    0.047327
     5  C    0.048270
     6  C   -0.441920
     7  C   -0.395433
     8  C    0.074785
     9  C   -0.292858
    10  C    0.094176
    11  C   -0.624565
    12  C    0.635936
    13  C   -0.623484
    14  C    0.633251
    15  H    0.236151
    16  H    0.256886
    17  H    0.244297
    18  H    0.222619
    19  H    0.188229
    20  H    0.222620
    21  H    0.244559
    22  H    0.256946
    23  H    0.236165
    24  H    0.248377
    25  H    0.255030
 Sum of Mulliken charges =   1.00000
 Mulliken charges with hydrogens summed into heavy atoms:
               1
     1  C    0.309539
     2  C   -0.141231
     3  C   -0.198338
     4  C    0.269946
     5  C    0.270890
     6  C   -0.197361
     7  C   -0.138487
     8  C    0.310950
     9  C    0.210548
    10  C    0.282406
    11  C   -0.624565
    12  C    0.635936
    13  C   -0.623484
    14  C    0.633251
 Electronic spatial extent (au):  <R**2>=           2865.7992
 Charge=              1.0000 electrons
 Dipole moment (field-independent basis, Debye):
    X=              0.0041    Y=              0.1915    Z=              0.0012  Tot=              0.1916
 Quadrupole moment (field-independent basis, Debye-Ang):
   XX=            -30.8988   YY=            -56.2597   ZZ=            -84.2228
   XY=              0.0023   XZ=              0.0037   YZ=              0.1198
 Traceless Quadrupole moment (field-independent basis, Debye-Ang):
   XX=             26.2283   YY=              0.8674   ZZ=            -27.0957
   XY=              0.0023   XZ=              0.0037   YZ=              0.1198
 Octapole moment (field-independent basis, Debye-Ang**2):
  XXX=              0.1663  YYY=              5.2012  ZZZ=             -0.0323  XYY=             -0.0020
  XXY=             -4.3788  XXZ=              0.2260  XZZ=             -0.0193  YZZ=             -3.0871
  YYZ=              0.1490  XYZ=              0.0186
 Hexadecapole moment (field-independent basis, Debye-Ang**3):
 XXXX=          -2126.4181 YYYY=           -609.3731 ZZZZ=            -99.6466 XXXY=              0.0931
 XXXZ=              0.1061 YYYX=             -0.0381 YYYZ=              1.3115 ZZZX=              0.0052
 ZZZY=              0.0540 XXYY=           -509.4603 XXZZ=           -593.5038 YYZZ=           -145.8113
 XXYZ=              1.3132 YYXZ=             -0.0001 ZZXY=              0.0020
 N-N= 7.800211098101D+02 E-N=-2.796317185406D+03  KE= 5.374335813532D+02
 Unable to Open any file for archive entry.
 1\1\GINC-GADI-CPU-CLX-0113\SP\RM062X TD-FC\6-311++G(d,p)\C14H11(1+)\TS
 1578\28-Jul-2022\0\\#n M062X/6-311++G(d,p) TD(NStates=1) EmpiricalDisp
 ersion=GD3 SP\\SP_-25\\1,1\C,0,0.01855,2.491455,1.360431\C,0,0.021275,
 3.710058,0.671989\C,0,0.0062,3.698611,-0.71383\C,0,-0.019425,2.474381,
 -1.407538\C,0,-0.019575,-2.474681,-1.407538\C,0,0.0053,-3.700111,-0.71
 383\C,0,0.01985,-3.710583,0.671989\C,0,0.0157,-2.492355,1.360431\C,0,0
 .0109,0.0033,1.453369\C,0,-0.0305,-0.00015,-1.429189\C,0,-0.00445,1.25
 253,0.677065\C,0,-0.0128,1.239196,-0.730804\C,0,-0.004675,-1.252455,0.
 677065\C,0,-0.0122,-1.238746,-0.730804\H,0,0.0069,2.487021,2.443647\H,
 0,0.021675,4.643378,1.211689\H,0,-0.0034,4.607762,-1.272349\H,0,-0.009
 35,2.4785,-2.490059\H,0,-0.028125,-0.000075,-2.510266\H,0,-0.0089,-2.4
 78725,-2.490059\H,0,-0.00385,-4.609637,-1.272349\H,0,0.01995,-4.644503
 ,1.211689\H,0,0.0036,-2.487996,2.443647\H,0,-0.819585,0.00075,2.144962
 \H,0,0.899585,0.00075,2.146612\\Version=ES64L-G16RevC.01\State=1-A\HF=
 -539.7579529\RMSD=4.530e-09\PG=C01 [X(C14H11)]\\@
 The archive entry for this job was punched.


 THE SECRET OF SUCCESS IN LIFE IS TO EAT WHAT YOU LIKE, AND LET THE FOOD
 FIGHT IT OUT INSIDE YOU. -- FROM A FORTUNE COOKIE
 Job cpu time:       0 days  1 hours 21 minutes  9.5 seconds.
 Elapsed time:       0 days  0 hours  1 minutes 42.5 seconds.
 File lengths (MBytes):  RWF=    460 Int=      0 D2E=      0 Chk=     15 Scr=      1
 Normal termination of Gaussian 16 at Thu Jul 28 14:53:17 2022.
