 Entering Gaussian System, Link 0=g16
 Initial command:
 /apps/gaussian/g16c01/g16/l1.exe "/jobfs/53002009.gadi-pbs/Gau-813680.inp" -scrdir="/jobfs/53002009.gadi-pbs/"
 Entering Link 1 = /apps/gaussian/g16c01/g16/l1.exe PID=    813681.
  
 Copyright (c) 1988-2019, Gaussian, Inc.  All Rights Reserved.
  
 This is part of the Gaussian(R) 16 program.  It is based on
 the Gaussian(R) 09 system (copyright 2009, Gaussian, Inc.),
 the Gaussian(R) 03 system (copyright 2003, Gaussian, Inc.),
 the Gaussian(R) 98 system (copyright 1998, Gaussian, Inc.),
 the Gaussian(R) 94 system (copyright 1995, Gaussian, Inc.),
 the Gaussian 92(TM) system (copyright 1992, Gaussian, Inc.),
 the Gaussian 90(TM) system (copyright 1990, Gaussian, Inc.),
 the Gaussian 88(TM) system (copyright 1988, Gaussian, Inc.),
 the Gaussian 86(TM) system (copyright 1986, Carnegie Mellon
 University), and the Gaussian 82(TM) system (copyright 1983,
 Carnegie Mellon University). Gaussian is a federally registered
 trademark of Gaussian, Inc.
  
 This software contains proprietary and confidential information,
 including trade secrets, belonging to Gaussian, Inc.
  
 This software is provided under written license and may be
 used, copied, transmitted, or stored only in accord with that
 written license.
  
 The following legend is applicable only to US Government
 contracts under FAR:
  
                    RESTRICTED RIGHTS LEGEND
  
 Use, reproduction and disclosure by the US Government is
 subject to restrictions as set forth in subparagraphs (a)
 and (c) of the Commercial Computer Software - Restricted
 Rights clause in FAR 52.227-19.
  
 Gaussian, Inc.
 340 Quinnipiac St., Bldg. 40, Wallingford CT 06492
  
  
 ---------------------------------------------------------------
 Warning -- This program may not be used in any manner that
 competes with the business of Gaussian, Inc. or will provide
 assistance to any competitor of Gaussian, Inc.  The licensee
 of this program is prohibited from giving any competitor of
 Gaussian, Inc. access to this program.  By using this program,
 the user acknowledges that Gaussian, Inc. is engaged in the
 business of creating and licensing software in the field of
 computational chemistry and represents and warrants to the
 licensee that it is not a competitor of Gaussian, Inc. and that
 it will not use this program in any manner prohibited above.
 ---------------------------------------------------------------
  

 Cite this work as:
 Gaussian 16, Revision C.01,
 M. J. Frisch, G. W. Trucks, H. B. Schlegel, G. E. Scuseria, 
 M. A. Robb, J. R. Cheeseman, G. Scalmani, V. Barone, 
 G. A. Petersson, H. Nakatsuji, X. Li, M. Caricato, A. V. Marenich, 
 J. Bloino, B. G. Janesko, R. Gomperts, B. Mennucci, H. P. Hratchian, 
 J. V. Ortiz, A. F. Izmaylov, J. L. Sonnenberg, D. Williams-Young, 
 F. Ding, F. Lipparini, F. Egidi, J. Goings, B. Peng, A. Petrone, 
 T. Henderson, D. Ranasinghe, V. G. Zakrzewski, J. Gao, N. Rega, 
 G. Zheng, W. Liang, M. Hada, M. Ehara, K. Toyota, R. Fukuda, 
 J. Hasegawa, M. Ishida, T. Nakajima, Y. Honda, O. Kitao, H. Nakai, 
 T. Vreven, K. Throssell, J. A. Montgomery, Jr., J. E. Peralta, 
 F. Ogliaro, M. J. Bearpark, J. J. Heyd, E. N. Brothers, K. N. Kudin, 
 V. N. Staroverov, T. A. Keith, R. Kobayashi, J. Normand, 
 K. Raghavachari, A. P. Rendell, J. C. Burant, S. S. Iyengar, 
 J. Tomasi, M. Cossi, J. M. Millam, M. Klene, C. Adamo, R. Cammi, 
 J. W. Ochterski, R. L. Martin, K. Morokuma, O. Farkas, 
 J. B. Foresman, and D. J. Fox, Gaussian, Inc., Wallingford CT, 2019.
 
 ******************************************
 Gaussian 16:  ES64L-G16RevC.01  3-Jul-2019
                28-Jul-2022 
 ******************************************
 %NProcShared=48
 Will use up to   48 processors via shared memory.
 %mem = 190GB
 ---------------------------------------------------------------
 #n M062X/6-311++G(d,p) TD(NStates=1) EmpiricalDispersion=GD3 SP
 ---------------------------------------------------------------
 1/38=1,172=1/1;
 2/12=2,17=6,18=5,40=1/2;
 3/5=4,6=6,7=1111,11=9,25=1,30=1,74=-55,124=31/1,2,3,8;
 4//1;
 5/5=2,38=5/2;
 8/6=1,10=2,108=1/1;
 9/41=1,42=1,70=2/14;
 6/7=2,8=2,9=2,10=2/1;
 99/5=1,9=1/99;
 ------
 SP_150
 ------
 Symbolic Z-matrix:
 Charge =  1 Multiplicity = 1
 C                     0.0057    2.49086   1.36043 
 C                     0.00285   3.70046   0.67199 
 C                     0.0018    3.68086  -0.71383 
 C                     0.0003    2.46256  -1.40754 
 C                    -0.0003   -2.46376  -1.40754 
 C                    -0.0018   -3.68686  -0.71383 
 C                    -0.00285  -3.70256   0.67199 
 C                    -0.0057   -2.49446   1.36043 
 C                    -0.00015   0.0132    1.45337 
 C                     0.       -0.0006   -1.42919 
 C                     0.00045   1.26221   0.67707 
 C                    -0.0012    1.23837  -0.7308 
 C                    -0.00045  -1.2619    0.67707 
 C                     0.0012   -1.23657  -0.7308 
 H                     0.0066    2.48612   2.44365 
 H                     0.00345   4.6345    1.21169 
 H                     0.0009    4.60551  -1.27235 
 H                    -0.0009    2.4671   -2.49006 
 H                     0.       -0.0003   -2.51027 
 H                     0.0009   -2.468    -2.49006 
 H                    -0.0009   -4.61301  -1.27235 
 H                    -0.00345  -4.639     1.21169 
 H                    -0.0066   -2.49002   2.44365 
 H                    -0.85959   0.003     2.14249 
 H                     0.85959   0.003     2.14909 
 
                          Input orientation:                          
 ---------------------------------------------------------------------
 Center     Atomic      Atomic             Coordinates (Angstroms)
 Number     Number       Type             X           Y           Z
 ---------------------------------------------------------------------
      1          6           0        0.005700    2.490855    1.360431
      2          6           0        0.002850    3.700458    0.671989
      3          6           0        0.001800    3.680861   -0.713830
      4          6           0        0.000300    2.462556   -1.407538
      5          6           0       -0.000300   -2.463756   -1.407538
      6          6           0       -0.001800   -3.686861   -0.713830
      7          6           0       -0.002850   -3.702558    0.671989
      8          6           0       -0.005700   -2.494455    1.360431
      9          6           0       -0.000150    0.013200    1.453369
     10          6           0        0.000000   -0.000600   -1.429189
     11          6           0        0.000450    1.262205    0.677065
     12          6           0       -0.001200    1.238371   -0.730804
     13          6           0       -0.000450   -1.261905    0.677065
     14          6           0        0.001200   -1.236571   -0.730804
     15          1           0        0.006600    2.486121    2.443647
     16          1           0        0.003450    4.634503    1.211689
     17          1           0        0.000900    4.605512   -1.272349
     18          1           0       -0.000900    2.467100   -2.490059
     19          1           0        0.000000   -0.000300   -2.510266
     20          1           0        0.000900   -2.468000   -2.490059
     21          1           0       -0.000900   -4.613012   -1.272349
     22          1           0       -0.003450   -4.639003    1.211689
     23          1           0       -0.006600   -2.490021    2.443647
     24          1           0       -0.859585    0.003000    2.142487
     25          1           0        0.859585    0.003000    2.149087
 ---------------------------------------------------------------------
                    Distance matrix (angstroms):
                    1          2          3          4          5
     1  C    0.000000
     2  C    1.391797   0.000000
     3  C    2.391378   1.385958   0.000000
     4  C    2.768119   2.420091   1.401963   0.000000
     5  C    5.675373   6.505534   6.183652   4.926312   0.000000
     6  C    6.516655   7.516182   7.367723   6.188422   1.406136
     7  C    6.231564   7.403018   7.512349   6.506387   2.420551
     8  C    4.985323   6.233055   6.514380   5.677468   2.768145
     9  C    2.479404   3.769143   4.260105   3.766183   3.784191
    10  C    3.740235   4.255912   3.750320   2.463251   2.463251
    11  C    1.405915   2.438259   2.790069   2.405496   4.269468
    12  C    2.437627   2.833676   2.442551   1.398785   3.763471
    13  C    3.814477   4.962367   5.134738   4.268159   2.406245
    14  C    4.273990   5.132454   4.917461   3.760520   1.401411
    15  H    1.083227   2.147883   3.375957   3.851262   6.271599
    16  H    2.148803   1.078757   2.148734   3.402604   7.566085
    17  H    3.376881   2.144662   1.080242   2.147216   7.070561
    18  H    3.850569   3.394073   2.151328   1.082531   5.048286
    19  H    4.603062   4.880816   4.096112   2.698457   2.699004
    20  H    6.278259   6.931697   6.400272   5.047993   1.082530
    21  H    7.576048   8.537813   8.312658   7.076859   2.153504
    22  H    7.131415   8.356909   8.539777   7.569181   3.404711
    23  H    5.097316   6.439013   6.931776   6.273730   3.851280
    24  H    2.747681   4.071530   4.735736   4.403578   4.407486
    25  H    2.746001   4.072715   4.739066   4.408783   4.412921
                    6          7          8          9         10
     6  C    0.000000
     7  C    1.385908   0.000000
     8  C    2.392573   1.390494   0.000000
     9  C    4.288031   3.797028   2.509383   0.000000
    10  C    3.755032   4.256695   3.741834   2.882591   0.000000
    11  C    5.140802   4.964767   3.818314   1.470599   2.455806
    12  C    4.925261   5.136206   4.278700   2.504328   1.422249
    13  C    2.795533   2.440659   1.409325   1.492830   2.455035
    14  C    2.450351   2.837065   2.440406   2.516454   1.419636
    15  H    6.933645   6.437283   5.097023   2.663838   4.602465
    16  H    8.541238   8.354514   7.130515   4.627620   5.334644
    17  H    8.311161   8.532555   7.572391   5.340306   4.608782
    18  H    6.405172   6.932765   6.280392   4.644594   2.686073
    19  H    4.100965   4.881953   4.604686   3.963658   1.081077
    20  H    2.154210   3.394510   3.850587   4.659075   2.685798
    21  H    1.081527   2.146947   3.379325   5.369486   4.615078
    22  H    2.148069   1.080836   2.149701   4.658478   5.337512
    23  H    3.376701   2.146866   1.083225   2.691990   4.603924
    24  H    4.744409   4.077686   2.752819   1.101642   3.673659
    25  H    4.749037   4.081271   2.758256   1.106016   3.680076
                   11         12         13         14         15
    11  C    0.000000
    12  C    1.408072   0.000000
    13  C    2.524110   2.869403   0.000000
    14  C    2.868096   2.474943   1.408098   0.000000
    15  H    2.149144   3.410877   4.143496   4.892403   0.000000
    16  H    3.414414   3.912418   5.920597   6.184076   2.476545
    17  H    3.870131   3.410413   6.182782   5.867129   4.277906
    18  H    3.388576   2.145869   4.892459   4.100264   4.933748
    19  H    3.428265   2.168131   3.427933   2.166761   5.542886
    20  H    4.893373   4.102703   3.389003   2.147416   6.991767
    21  H    6.190185   5.876390   3.876872   3.419595   8.012888
    22  H    5.925377   6.190057   3.419155   3.917888   7.230852
    23  H    4.147296   4.896741   2.151539   3.412966   4.976160
    24  H    2.114880   3.243265   2.117914   3.245503   2.647048
    25  H    2.119094   3.249748   2.122850   3.250713   2.642014
                   16         17         18         19         20
    16  H    0.000000
    17  H    2.484208   0.000000
    18  H    4.289591   2.460818   0.000000
    19  H    5.944271   4.769271   2.467483   0.000000
    20  H    8.009275   7.177562   4.935100   2.467783   0.000000
    21  H    9.575333   9.218524   7.184066   4.775935   2.466556
    22  H    9.273509   9.572435   8.012468   5.947313   4.291411
    23  H    7.230260   8.009699   6.993893   5.544367   4.933761
    24  H    4.802295   5.795227   5.316917   4.731491   5.320410
    25  H    4.802343   5.798852   5.322960   4.737981   5.325867
                   21         22         23         24         25
    21  H    0.000000
    22  H    2.484175   0.000000
    23  H    4.279690   2.477066   0.000000
    24  H    5.805688   4.811189   2.652062   0.000000
    25  H    5.809839   4.813703   2.655597   1.719183   0.000000
 Stoichiometry    C14H11(1+)
 Framework group  C1[X(C14H11)]
 Deg. of freedom    69
 Full point group                 C1      NOp   1
 Largest Abelian subgroup         C1      NOp   1
 Largest concise Abelian subgroup C1      NOp   1
                         Standard orientation:                         
 ---------------------------------------------------------------------
 Center     Atomic      Atomic             Coordinates (Angstroms)
 Number     Number       Type             X           Y           Z
 ---------------------------------------------------------------------
      1          6           0        2.491206   -1.359800   -0.003889
      2          6           0        3.700632   -0.671052   -0.000196
      3          6           0        3.680684    0.714762    0.000797
      4          6           0        2.462202    1.408162    0.001406
      5          6           0       -2.464109    1.406914   -0.001512
      6          6           0       -3.687039    0.712896   -0.000864
      7          6           0       -3.702386   -0.672926    0.000217
      8          6           0       -2.494111   -1.361062    0.003951
      9          6           0        0.013571   -1.453366    0.000195
     10          6           0       -0.000959    1.429189   -0.000054
     11          6           0        1.262380   -0.676745    0.000463
     12          6           0        1.238188    0.731118    0.002052
     13          6           0       -1.261730   -0.677385   -0.000440
     14          6           0       -1.236752    0.730491   -0.002115
     15          1           0        2.486747   -2.443018   -0.004759
     16          1           0        4.634814   -1.210515   -0.000113
     17          1           0        4.605192    1.273515    0.002340
     18          1           0        2.466471    2.490684    0.002575
     19          1           0       -0.000932    2.510266   -0.000087
     20          1           0       -2.468626    2.489434   -0.002748
     21          1           0       -4.613330    1.271181   -0.002443
     22          1           0       -4.638694   -1.212864    0.000165
     23          1           0       -2.489403   -2.444277    0.004888
     24          1           0        0.002932   -2.142460    0.859643
     25          1           0        0.004161   -2.149112   -0.859526
 ---------------------------------------------------------------------
 Rotational constants (GHZ):           2.1362217           0.4446253           0.3688261
 Standard basis: 6-311++G(d,p) (5D, 7F)
 There are   399 symmetry adapted cartesian basis functions of A   symmetry.
 There are   385 symmetry adapted basis functions of A   symmetry.
   385 basis functions,   603 primitive gaussians,   399 cartesian basis functions
    47 alpha electrons       47 beta electrons
       nuclear repulsion energy       781.1987287011 Hartrees.
 NAtoms=   25 NActive=   25 NUniq=   25 SFac= 1.00D+00 NAtFMM=   60 NAOKFM=F Big=F
 Integral buffers will be    131072 words long.
 Regular integral format.
 Two-electron integral symmetry is turned on.
 Nuclear repulsion after empirical dispersion term =      781.1977492137 Hartrees.
 One-electron integrals computed using PRISM.
 NBasis=   385 RedAO= T EigKep=  1.12D-06  NBF=   385
 NBsUse=   379 1.00D-06 EigRej=  8.40D-07 NBFU=   379
 ExpMin= 3.60D-02 ExpMax= 4.56D+03 ExpMxC= 6.82D+02 IAcc=3 IRadAn=         5 AccDes= 0.00D+00
 Harris functional with IExCor= 1009 and IRadAn=       5 diagonalized for initial guess.
 HarFok:  IExCor= 1009 AccDes= 0.00D+00 IRadAn=         5 IDoV= 1 UseB2=F ITyADJ=14
 ICtDFT=  3500011 ScaDFX=  1.000000  1.000000  1.000000  1.000000
 FoFCou: FMM=F IPFlag=           0 FMFlag=      100000 FMFlg1=           0
         NFxFlg=           0 DoJE=T BraDBF=F KetDBF=T FulRan=T
         wScrn=  0.000000 ICntrl=       500 IOpCl=  0 I1Cent=   200000004 NGrid=           0
         NMat0=    1 NMatS0=      1 NMatT0=    0 NMatD0=    1 NMtDS0=    0 NMtDT0=    0
 Petite list used in FoFCou.
 Requested convergence on RMS density matrix=1.00D-08 within 128 cycles.
 Requested convergence on MAX density matrix=1.00D-06.
 Requested convergence on             energy=1.00D-06.
 No special actions if energy rises.
 SCF Done:  E(RM062X) =  -539.760032601     A.U. after   15 cycles
            NFock= 15  Conv=0.49D-08     -V/T= 2.0042
 DoSCS=F DFT=T ScalE2(SS,OS)=  1.000000  1.000000
 ExpMin= 3.60D-02 ExpMax= 4.56D+03 ExpMxC= 6.82D+02 IAcc=3 IRadAn=         5 AccDes= 0.00D+00
 HarFok:  IExCor=  205 AccDes= 0.00D+00 IRadAn=         5 IDoV=-2 UseB2=F ITyADJ=14
 ICtDFT= 12500011 ScaDFX=  1.000000  1.000000  1.000000  1.000000
 Range of M.O.s used for correlation:    15   379
 NBasis=   385 NAE=    47 NBE=    47 NFC=    14 NFV=     0
 NROrb=    365 NOA=    33 NOB=    33 NVA=   332 NVB=   332

 **** Warning!!: The largest alpha MO coefficient is  0.15247986D+03

 Orbital symmetries:
       Occupied  (A) (A) (A) (A) (A) (A) (A) (A) (A) (A) (A) (A)
                 (A) (A) (A) (A) (A) (A) (A) (A) (A) (A) (A) (A)
                 (A) (A) (A) (A) (A) (A) (A) (A) (A) (A) (A) (A)
                 (A) (A) (A) (A) (A) (A) (A) (A) (A) (A) (A)
       Virtual   (A) (A) (A) (A) (A) (A) (A) (A) (A) (A) (A) (A)
                 (A) (A) (A) (A) (A) (A) (A) (A) (A) (A) (A) (A)
                 (A) (A) (A) (A) (A) (A) (A) (A) (A) (A) (A) (A)
                 (A) (A) (A) (A) (A) (A) (A) (A) (A) (A) (A) (A)
                 (A) (A) (A) (A) (A) (A) (A) (A) (A) (A) (A) (A)
                 (A) (A) (A) (A) (A) (A) (A) (A) (A) (A) (A) (A)
                 (A) (A) (A) (A) (A) (A) (A) (A) (A) (A) (A) (A)
                 (A) (A) (A) (A) (A) (A) (A) (A) (A) (A) (A) (A)
                 (A) (A) (A) (A) (A) (A) (A) (A) (A) (A) (A) (A)
                 (A) (A) (A) (A) (A) (A) (A) (A) (A) (A) (A) (A)
                 (A) (A) (A) (A) (A) (A) (A) (A) (A) (A) (A) (A)
                 (A) (A) (A) (A) (A) (A) (A) (A) (A) (A) (A) (A)
                 (A) (A) (A) (A) (A) (A) (A) (A) (A) (A) (A) (A)
                 (A) (A) (A) (A) (A) (A) (A) (A) (A) (A) (A) (A)
                 (A) (A) (A) (A) (A) (A) (A) (A) (A) (A) (A) (A)
                 (A) (A) (A) (A) (A) (A) (A) (A) (A) (A) (A) (A)
                 (A) (A) (A) (A) (A) (A) (A) (A) (A) (A) (A) (A)
                 (A) (A) (A) (A) (A) (A) (A) (A) (A) (A) (A) (A)
                 (A) (A) (A) (A) (A) (A) (A) (A) (A) (A) (A) (A)
                 (A) (A) (A) (A) (A) (A) (A) (A) (A) (A) (A) (A)
                 (A) (A) (A) (A) (A) (A) (A) (A) (A) (A) (A) (A)
                 (A) (A) (A) (A) (A) (A) (A) (A) (A) (A) (A) (A)
                 (A) (A) (A) (A) (A) (A) (A) (A) (A) (A) (A) (A)
                 (A) (A) (A) (A) (A) (A) (A) (A) (A) (A) (A) (A)
                 (A) (A) (A) (A) (A) (A) (A) (A) (A) (A) (A) (A)
                 (A) (A) (A) (A) (A) (A) (A) (A) (A) (A) (A) (A)
                 (A) (A) (A) (A) (A) (A) (A) (A) (A) (A) (A) (A)
                 (A) (A) (A) (A) (A) (A) (A) (A)
     4 initial guesses have been made.
 Convergence on wavefunction:    0.001000000000000
 Iteration     1 Dimension     4 NMult     0 NNew      4
 CISAX will form     4 AO SS matrices at one time.
 Iteration     2 Dimension     6 NMult     4 NNew      2
 Iteration     3 Dimension     8 NMult     6 NNew      2
 Iteration     4 Dimension    10 NMult     8 NNew      2
 Iteration     5 Dimension    12 NMult    10 NNew      2
 Iteration     6 Dimension    14 NMult    12 NNew      2
 ***********************************************************************
 Excited states from <AA,BB:AA,BB> singles matrix:
 ***********************************************************************
 
 Ground to excited state transition densities written to RWF  633
 Ground to excited state transition electric dipole moments (Au):
       state          X           Y           Z        Dip. S.      Osc.
         1         0.0173     -0.6443     -0.0003      0.4154      0.0287
 Ground to excited state transition velocity dipole moments (Au):
       state          X           Y           Z        Dip. S.      Osc.
         1        -0.0019      0.0746      0.0000      0.0056      0.0357
 Ground to excited state transition magnetic dipole moments (Au):
       state          X           Y           Z
         1        -0.0002     -0.0012     -0.0007
 Ground to excited state transition velocity quadrupole moments (Au):
       state          XX          YY          ZZ          XY          XZ          YZ
         1         0.2975      0.0351     -0.0098     -0.0026      0.0001     -0.0003
 <0|del|b> * <b|rxdel|0> + <0|del|b> * <b|delr+rdel|0>
 Rotatory Strengths (R) in cgs (10**-40 erg-esu-cm/Gauss)
       state          XX          YY          ZZ    R(velocity)    E-M Angle
         1        -0.3439      0.0028     -0.2910     -0.2107       90.00
 1/2[<0|r|b>*<b|rxdel|0> + (<0|rxdel|b>*<b|r|0>)*]
 Rotatory Strengths (R) in cgs (10**-40 erg-esu-cm/Gauss)
       state          XX          YY          ZZ     R(length)
         1         0.0019     -0.5683     -0.0001     -0.1889
  1/2[<0|del|b>*<b|r|0> + (<0|r|b>*<b|del|0>)*] (Au)
       state          X           Y           Z        Dip. S.   Osc.(frdel)
         1        -0.0000     -0.0480     -0.0000      0.0481      0.0320

 Excitation energies and oscillator strengths:
 
 Excited State   1:      Singlet-A      2.8227 eV  439.24 nm  f=0.0287  <S**2>=0.000
      47 -> 48         0.70425
 This state for optimization and/or second-order correction.
 Total Energy, E(TD-HF/TD-DFT) =  -539.656299996    
 Copying the excited state density for this state as the 1-particle RhoCI density.
 SavETr:  write IOETrn=   770 NScale= 10 NData=  16 NLR=1 NState=    1 LETran=      28.

 **********************************************************************

            Population analysis using the SCF Density.

 **********************************************************************

 Orbital symmetries:
       Occupied  (A) (A) (A) (A) (A) (A) (A) (A) (A) (A) (A) (A)
                 (A) (A) (A) (A) (A) (A) (A) (A) (A) (A) (A) (A)
                 (A) (A) (A) (A) (A) (A) (A) (A) (A) (A) (A) (A)
                 (A) (A) (A) (A) (A) (A) (A) (A) (A) (A) (A)
       Virtual   (A) (A) (A) (A) (A) (A) (A) (A) (A) (A) (A) (A)
                 (A) (A) (A) (A) (A) (A) (A) (A) (A) (A) (A) (A)
                 (A) (A) (A) (A) (A) (A) (A) (A) (A) (A) (A) (A)
                 (A) (A) (A) (A) (A) (A) (A) (A) (A) (A) (A) (A)
                 (A) (A) (A) (A) (A) (A) (A) (A) (A) (A) (A) (A)
                 (A) (A) (A) (A) (A) (A) (A) (A) (A) (A) (A) (A)
                 (A) (A) (A) (A) (A) (A) (A) (A) (A) (A) (A) (A)
                 (A) (A) (A) (A) (A) (A) (A) (A) (A) (A) (A) (A)
                 (A) (A) (A) (A) (A) (A) (A) (A) (A) (A) (A) (A)
                 (A) (A) (A) (A) (A) (A) (A) (A) (A) (A) (A) (A)
                 (A) (A) (A) (A) (A) (A) (A) (A) (A) (A) (A) (A)
                 (A) (A) (A) (A) (A) (A) (A) (A) (A) (A) (A) (A)
                 (A) (A) (A) (A) (A) (A) (A) (A) (A) (A) (A) (A)
                 (A) (A) (A) (A) (A) (A) (A) (A) (A) (A) (A) (A)
                 (A) (A) (A) (A) (A) (A) (A) (A) (A) (A) (A) (A)
                 (A) (A) (A) (A) (A) (A) (A) (A) (A) (A) (A) (A)
                 (A) (A) (A) (A) (A) (A) (A) (A) (A) (A) (A) (A)
                 (A) (A) (A) (A) (A) (A) (A) (A) (A) (A) (A) (A)
                 (A) (A) (A) (A) (A) (A) (A) (A) (A) (A) (A) (A)
                 (A) (A) (A) (A) (A) (A) (A) (A) (A) (A) (A) (A)
                 (A) (A) (A) (A) (A) (A) (A) (A) (A) (A) (A) (A)
                 (A) (A) (A) (A) (A) (A) (A) (A) (A) (A) (A) (A)
                 (A) (A) (A) (A) (A) (A) (A) (A) (A) (A) (A) (A)
                 (A) (A) (A) (A) (A) (A) (A) (A) (A) (A) (A) (A)
                 (A) (A) (A) (A) (A) (A) (A) (A) (A) (A) (A) (A)
                 (A) (A) (A) (A) (A) (A) (A) (A) (A) (A) (A) (A)
                 (A) (A) (A) (A) (A) (A) (A) (A) (A) (A) (A) (A)
                 (A) (A) (A) (A) (A) (A) (A) (A)
 The electronic state is 1-A.
 Alpha  occ. eigenvalues --  -10.77665 -10.73323 -10.73156 -10.72440 -10.72431
 Alpha  occ. eigenvalues --  -10.71413 -10.71324 -10.71019 -10.70990 -10.70980
 Alpha  occ. eigenvalues --  -10.70004 -10.69940 -10.69670 -10.69589  -1.16444
 Alpha  occ. eigenvalues --   -1.12466  -1.06945  -1.05737  -1.01313  -1.00182
 Alpha  occ. eigenvalues --   -0.95782  -0.91056  -0.86421  -0.85899  -0.83816
 Alpha  occ. eigenvalues --   -0.78399  -0.76029  -0.74418  -0.69565  -0.69245
 Alpha  occ. eigenvalues --   -0.68504  -0.68195  -0.68102  -0.64739  -0.64286
 Alpha  occ. eigenvalues --   -0.63074  -0.61856  -0.60005  -0.59677  -0.59093
 Alpha  occ. eigenvalues --   -0.56896  -0.55231  -0.54815  -0.52438  -0.46625
 Alpha  occ. eigenvalues --   -0.46056  -0.44501
 Alpha virt. eigenvalues --   -0.26088  -0.14670  -0.14099  -0.12774  -0.11179
 Alpha virt. eigenvalues --   -0.10086  -0.09230  -0.07983  -0.07970  -0.07476
 Alpha virt. eigenvalues --   -0.07204  -0.07146  -0.05643  -0.05581  -0.05332
 Alpha virt. eigenvalues --   -0.03826  -0.03646  -0.03280  -0.03133  -0.02165
 Alpha virt. eigenvalues --   -0.01368  -0.00930   0.00191   0.00589   0.00664
 Alpha virt. eigenvalues --    0.01055   0.01513   0.01940   0.02218   0.02286
 Alpha virt. eigenvalues --    0.02450   0.02670   0.02745   0.03315   0.03375
 Alpha virt. eigenvalues --    0.04240   0.04505   0.04695   0.05031   0.05364
 Alpha virt. eigenvalues --    0.06034   0.06296   0.06596   0.07043   0.07254
 Alpha virt. eigenvalues --    0.07891   0.08164   0.08362   0.08537   0.08929
 Alpha virt. eigenvalues --    0.09546   0.09558   0.10032   0.10794   0.11090
 Alpha virt. eigenvalues --    0.11117   0.12160   0.12256   0.12917   0.12969
 Alpha virt. eigenvalues --    0.13417   0.13524   0.14019   0.14386   0.16206
 Alpha virt. eigenvalues --    0.16285   0.16381   0.17346   0.17627   0.17798
 Alpha virt. eigenvalues --    0.18122   0.19073   0.19236   0.19637   0.19732
 Alpha virt. eigenvalues --    0.21553   0.21601   0.22726   0.23106   0.23553
 Alpha virt. eigenvalues --    0.23807   0.24575   0.25332   0.26920   0.27603
 Alpha virt. eigenvalues --    0.28846   0.29288   0.29861   0.31360   0.35808
 Alpha virt. eigenvalues --    0.36440   0.38185   0.39273   0.41159   0.41405
 Alpha virt. eigenvalues --    0.41968   0.42201   0.42984   0.43678   0.44293
 Alpha virt. eigenvalues --    0.44958   0.45018   0.46116   0.46141   0.47947
 Alpha virt. eigenvalues --    0.48530   0.48866   0.49026   0.50422   0.51155
 Alpha virt. eigenvalues --    0.51584   0.51677   0.52115   0.52913   0.53969
 Alpha virt. eigenvalues --    0.54089   0.54649   0.55685   0.55761   0.57470
 Alpha virt. eigenvalues --    0.58240   0.58811   0.61441   0.62184   0.62355
 Alpha virt. eigenvalues --    0.63213   0.63488   0.64968   0.65151   0.67250
 Alpha virt. eigenvalues --    0.70403   0.70618   0.71019   0.72409   0.72860
 Alpha virt. eigenvalues --    0.75770   0.76019   0.76282   0.76897   0.77091
 Alpha virt. eigenvalues --    0.77816   0.77886   0.78237   0.79897   0.80390
 Alpha virt. eigenvalues --    0.81244   0.81657   0.82133   0.83015   0.85181
 Alpha virt. eigenvalues --    0.87160   0.88171   0.88602   0.89125   0.90397
 Alpha virt. eigenvalues --    0.91088   0.91256   0.93200   0.94637   0.96444
 Alpha virt. eigenvalues --    0.96628   1.00398   1.01273   1.01682   1.02718
 Alpha virt. eigenvalues --    1.03195   1.03861   1.04738   1.05404   1.08776
 Alpha virt. eigenvalues --    1.19553   1.23273   1.24047   1.25274   1.27994
 Alpha virt. eigenvalues --    1.29700   1.31758   1.34303   1.35768   1.36004
 Alpha virt. eigenvalues --    1.39348   1.40167   1.40946   1.43022   1.43448
 Alpha virt. eigenvalues --    1.43533   1.45142   1.45383   1.46359   1.46683
 Alpha virt. eigenvalues --    1.47637   1.48024   1.51726   1.53631   1.55772
 Alpha virt. eigenvalues --    1.55822   1.56349   1.56574   1.57774   1.61444
 Alpha virt. eigenvalues --    1.63227   1.63548   1.63745   1.66110   1.68303
 Alpha virt. eigenvalues --    1.68359   1.68694   1.69735   1.74387   1.75985
 Alpha virt. eigenvalues --    1.77159   1.78050   1.80005   1.80126   1.80696
 Alpha virt. eigenvalues --    1.83149   1.83223   1.83629   1.83817   1.84154
 Alpha virt. eigenvalues --    1.84290   1.85882   1.86058   1.88218   1.91386
 Alpha virt. eigenvalues --    1.92062   1.94128   1.95198   1.97688   1.98154
 Alpha virt. eigenvalues --    1.99744   2.02422   2.04415   2.07258   2.11743
 Alpha virt. eigenvalues --    2.12132   2.14104   2.15218   2.19098   2.21253
 Alpha virt. eigenvalues --    2.22791   2.28622   2.30157   2.34640   2.34943
 Alpha virt. eigenvalues --    2.36222   2.38673   2.39605   2.42372   2.44634
 Alpha virt. eigenvalues --    2.46207   2.46502   2.49354   2.52903   2.53801
 Alpha virt. eigenvalues --    2.54246   2.56789   2.57849   2.58308   2.59644
 Alpha virt. eigenvalues --    2.59815   2.61599   2.62116   2.63522   2.63803
 Alpha virt. eigenvalues --    2.64778   2.65116   2.65229   2.65309   2.67946
 Alpha virt. eigenvalues --    2.68562   2.70957   2.71409   2.73340   2.74823
 Alpha virt. eigenvalues --    2.76305   2.78721   2.79724   2.82895   2.83061
 Alpha virt. eigenvalues --    2.84891   2.86298   2.92114   2.97004   2.99498
 Alpha virt. eigenvalues --    3.00068   3.05040   3.11084   3.11427   3.13076
 Alpha virt. eigenvalues --    3.20801   3.23985   3.26705   3.28217   3.30756
 Alpha virt. eigenvalues --    3.32840   3.33582   3.43402   3.45906   3.46560
 Alpha virt. eigenvalues --    3.48529   3.50137   3.56495   3.65841   3.66693
 Alpha virt. eigenvalues --    3.67597   3.94174   3.94578   3.95174   3.96229
 Alpha virt. eigenvalues --    4.03980   4.06851   4.07517   4.12549   4.35507
 Alpha virt. eigenvalues --    4.61337   4.69805   4.71641  23.45339  23.60511
 Alpha virt. eigenvalues --   23.82234  23.85394  23.88122  23.89302  23.90547
 Alpha virt. eigenvalues --   23.92320  23.97766  23.99420  24.00042  24.00158
 Alpha virt. eigenvalues --   24.10399  24.10791
          Condensed to atoms (all electrons):
               1          2          3          4          5          6
     1  C    8.593514   0.320028  -0.534177   1.944266  -0.017286  -0.095478
     2  C    0.320028   7.163032   0.358280  -1.085436  -0.016666  -0.014435
     3  C   -0.534177   0.358280   6.593690   0.779011  -0.126711   0.016952
     4  C    1.944266  -1.085436   0.779011  10.959089  -0.365322  -0.121410
     5  C   -0.017286  -0.016666  -0.126711  -0.365322  11.051964   0.746043
     6  C   -0.095478  -0.014435   0.016952  -0.121410   0.746043   6.583356
     7  C   -0.021733   0.001612  -0.014628  -0.019784  -1.068149   0.350756
     8  C    0.406194  -0.014761  -0.095940  -0.041075   2.015465  -0.555627
     9  C   -1.200357  -0.806506   0.291489  -0.252847  -0.185579   0.296812
    10  C   -1.281166   0.254331  -0.366186  -2.573690  -2.574771  -0.340494
    11  C    0.340210  -0.923970   1.012491  -0.259289  -1.511228  -0.172199
    12  C   -2.041291   1.351956  -1.417223  -1.522345  -0.351886  -0.200346
    13  C    0.194292  -0.256539  -0.176843  -1.489900  -0.280248   1.006207
    14  C   -1.099486  -0.200653  -0.197888  -0.313911  -1.676147  -1.375077
    15  H    0.365826  -0.106586  -0.001243   0.027172   0.005813   0.001092
    16  H   -0.020837   0.379705  -0.016152   0.013237  -0.001541  -0.000326
    17  H   -0.025199  -0.015931   0.375085  -0.067696   0.000311   0.000396
    18  H    0.049784   0.002388  -0.083859   0.457441   0.006488  -0.005023
    19  H   -0.046747  -0.007704   0.051430  -0.067472  -0.072085   0.051029
    20  H    0.007409   0.002040  -0.005137   0.006206   0.457877  -0.085726
    21  H   -0.001336  -0.000402   0.000403   0.000330  -0.068153   0.374762
    22  H    0.000806   0.000372  -0.000331  -0.001545   0.013997  -0.017247
    23  H    0.005776  -0.002724   0.001116   0.005668   0.027496  -0.001562
    24  H    0.030694   0.013113  -0.002021  -0.010642  -0.013658  -0.001142
    25  H    0.036211   0.016022  -0.000930  -0.013315  -0.011202  -0.002059
               7          8          9         10         11         12
     1  C   -0.021733   0.406194  -1.200357  -1.281166   0.340210  -2.041291
     2  C    0.001612  -0.014761  -0.806506   0.254331  -0.923970   1.351956
     3  C   -0.014628  -0.095940   0.291489  -0.366186   1.012491  -1.417223
     4  C   -0.019784  -0.041075  -0.252847  -2.573690  -0.259289  -1.522345
     5  C   -1.068149   2.015465  -0.185579  -2.574771  -1.511228  -0.351886
     6  C    0.350756  -0.555627   0.296812  -0.340494  -0.172199  -0.200346
     7  C    7.109596   0.315235  -0.799635   0.243058  -0.229725  -0.191493
     8  C    0.315235   8.595037  -1.132538  -1.284026   0.223151  -1.060829
     9  C   -0.799635  -1.132538   9.598498   0.259671   1.641734  -1.915664
    10  C    0.243058  -1.284026   0.259671   9.159602  -0.464009   2.407329
    11  C   -0.229725   0.223151   1.641734  -0.464009  14.400918  -3.790220
    12  C   -0.191493  -1.060829  -1.915664   2.407329  -3.790220  15.999151
    13  C   -0.901642   0.252067   1.588781  -0.444926   1.092707  -4.831041
    14  C    1.349149  -2.124731  -1.966319   2.451289  -4.771469   3.086723
    15  H   -0.002595   0.005687   0.090581  -0.009543  -0.029438  -0.023146
    16  H    0.000359   0.000630   0.002956  -0.009261   0.026267  -0.031532
    17  H   -0.000399  -0.001296  -0.005765   0.020557  -0.028215   0.092619
    18  H    0.002049   0.007070  -0.025145   0.012666  -0.006766  -0.053644
    19  H   -0.007704  -0.046852   0.075659   0.421844   0.079070  -0.065548
    20  H    0.003530   0.050501  -0.024585   0.013093  -0.011863  -0.013709
    21  H   -0.016906  -0.024621  -0.005726   0.020463  -0.006124   0.005308
    22  H    0.378248  -0.017713   0.004046  -0.009560   0.003080  -0.009182
    23  H   -0.105590   0.368644   0.092416  -0.009627   0.001463   0.006519
    24  H    0.015790   0.036429   0.355264   0.005064   0.015666  -0.062712
    25  H    0.012932   0.028024   0.357369   0.005570   0.011977  -0.057657
              13         14         15         16         17         18
     1  C    0.194292  -1.099486   0.365826  -0.020837  -0.025199   0.049784
     2  C   -0.256539  -0.200653  -0.106586   0.379705  -0.015931   0.002388
     3  C   -0.176843  -0.197888  -0.001243  -0.016152   0.375085  -0.083859
     4  C   -1.489900  -0.313911   0.027172   0.013237  -0.067696   0.457441
     5  C   -0.280248  -1.676147   0.005813  -0.001541   0.000311   0.006488
     6  C    1.006207  -1.375077   0.001092  -0.000326   0.000396  -0.005023
     7  C   -0.901642   1.349149  -0.002595   0.000359  -0.000399   0.002049
     8  C    0.252067  -2.124731   0.005687   0.000630  -0.001296   0.007070
     9  C    1.588781  -1.966319   0.090581   0.002956  -0.005765  -0.025145
    10  C   -0.444926   2.451289  -0.009543  -0.009261   0.020557   0.012666
    11  C    1.092707  -4.771469  -0.029438   0.026267  -0.028215  -0.006766
    12  C   -4.831041   3.086723  -0.023146  -0.031532   0.092619  -0.053644
    13  C   14.570149  -3.746158   0.001578   0.003068  -0.006479  -0.011769
    14  C   -3.746158  16.122733   0.006659  -0.009012   0.005340  -0.014165
    15  H    0.001578   0.006659   0.439156  -0.008984   0.001483   0.000181
    16  H    0.003068  -0.009012  -0.008984   0.419524  -0.006674   0.001891
    17  H   -0.006479   0.005340   0.001483  -0.006674   0.422762  -0.010350
    18  H   -0.011769  -0.014165   0.000181   0.001891  -0.010350   0.453538
    19  H    0.075818  -0.065042   0.000297  -0.000540   0.001419  -0.006103
    20  H   -0.007169  -0.055251  -0.000113   0.000015  -0.000144   0.001266
    21  H   -0.026658   0.091495   0.000014  -0.000007   0.000010  -0.000142
    22  H    0.027387  -0.035220  -0.000126   0.000008  -0.000007   0.000015
    23  H   -0.031286  -0.025759   0.000579  -0.000128   0.000014  -0.000112
    24  H    0.012619  -0.059156  -0.000980   0.000685  -0.000158   0.000222
    25  H    0.013587  -0.060689  -0.000801   0.000584  -0.000128   0.000141
              19         20         21         22         23         24
     1  C   -0.046747   0.007409  -0.001336   0.000806   0.005776   0.030694
     2  C   -0.007704   0.002040  -0.000402   0.000372  -0.002724   0.013113
     3  C    0.051430  -0.005137   0.000403  -0.000331   0.001116  -0.002021
     4  C   -0.067472   0.006206   0.000330  -0.001545   0.005668  -0.010642
     5  C   -0.072085   0.457877  -0.068153   0.013997   0.027496  -0.013658
     6  C    0.051029  -0.085726   0.374762  -0.017247  -0.001562  -0.001142
     7  C   -0.007704   0.003530  -0.016906   0.378248  -0.105590   0.015790
     8  C   -0.046852   0.050501  -0.024621  -0.017713   0.368644   0.036429
     9  C    0.075659  -0.024585  -0.005726   0.004046   0.092416   0.355264
    10  C    0.421844   0.013093   0.020463  -0.009560  -0.009627   0.005064
    11  C    0.079070  -0.011863  -0.006124   0.003080   0.001463   0.015666
    12  C   -0.065548  -0.013709   0.005308  -0.009182   0.006519  -0.062712
    13  C    0.075818  -0.007169  -0.026658   0.027387  -0.031286   0.012619
    14  C   -0.065042  -0.055251   0.091495  -0.035220  -0.025759  -0.059156
    15  H    0.000297  -0.000113   0.000014  -0.000126   0.000579  -0.000980
    16  H   -0.000540   0.000015  -0.000007   0.000008  -0.000128   0.000685
    17  H    0.001419  -0.000144   0.000010  -0.000007   0.000014  -0.000158
    18  H   -0.006103   0.001266  -0.000142   0.000015  -0.000112   0.000222
    19  H    0.442728  -0.006307   0.001416  -0.000539   0.000318   0.000585
    20  H   -0.006307   0.453693  -0.010185   0.001954   0.000168   0.000158
    21  H    0.001416  -0.010185   0.422165  -0.006602   0.001454  -0.000129
    22  H   -0.000539   0.001954  -0.006602   0.419407  -0.009055   0.000580
    23  H    0.000318   0.000168   0.001454  -0.009055   0.438957  -0.000760
    24  H    0.000585   0.000158  -0.000129   0.000580  -0.000760   0.493700
    25  H    0.000604   0.000204  -0.000154   0.000676  -0.001095  -0.079640
              25
     1  C    0.036211
     2  C    0.016022
     3  C   -0.000930
     4  C   -0.013315
     5  C   -0.011202
     6  C   -0.002059
     7  C    0.012932
     8  C    0.028024
     9  C    0.357369
    10  C    0.005570
    11  C    0.011977
    12  C   -0.057657
    13  C    0.013587
    14  C   -0.060689
    15  H   -0.000801
    16  H    0.000584
    17  H   -0.000128
    18  H    0.000141
    19  H    0.000604
    20  H    0.000204
    21  H   -0.000154
    22  H    0.000676
    23  H   -0.001095
    24  H   -0.079640
    25  H    0.494045
 Mulliken charges:
               1
     1  C    0.090083
     2  C   -0.410566
     3  C   -0.440678
     4  C    0.013261
     5  C    0.015178
     6  C   -0.439256
     7  C   -0.402331
     8  C    0.095876
     9  C   -0.334610
    10  C    0.092723
    11  C   -0.644218
    12  C    0.689862
    13  C   -0.627603
    14  C    0.682747
    15  H    0.237438
    16  H    0.256066
    17  H    0.248445
    18  H    0.221938
    19  H    0.190426
    20  H    0.222075
    21  H    0.249324
    22  H    0.256554
    23  H    0.237110
    24  H    0.250428
    25  H    0.249727
 Sum of Mulliken charges =   1.00000
 Mulliken charges with hydrogens summed into heavy atoms:
               1
     1  C    0.327521
     2  C   -0.154500
     3  C   -0.192232
     4  C    0.235199
     5  C    0.237253
     6  C   -0.189932
     7  C   -0.145777
     8  C    0.332986
     9  C    0.165546
    10  C    0.283149
    11  C   -0.644218
    12  C    0.689862
    13  C   -0.627603
    14  C    0.682747
 Electronic spatial extent (au):  <R**2>=           2855.9239
 Charge=              1.0000 electrons
 Dipole moment (field-independent basis, Debye):
    X=             -0.0158    Y=              0.1874    Z=              0.0008  Tot=              0.1881
 Quadrupole moment (field-independent basis, Debye-Ang):
   XX=            -31.1162   YY=            -56.2624   ZZ=            -84.1418
   XY=             -0.0088   XZ=              0.0147   YZ=              0.0021
 Traceless Quadrupole moment (field-independent basis, Debye-Ang):
   XX=             26.0572   YY=              0.9111   ZZ=            -26.9683
   XY=             -0.0088   XZ=              0.0147   YZ=              0.0021
 Octapole moment (field-independent basis, Debye-Ang**2):
  XXX=             -0.6570  YYY=              5.2092  ZZZ=              0.0093  XYY=              0.0057
  XXY=             -5.1737  XXZ=             -0.0001  XZZ=              0.0802  YZZ=             -3.0883
  YYZ=             -0.0190  XYZ=              0.0737
 Hexadecapole moment (field-independent basis, Debye-Ang**3):
 XXXX=          -2122.4435 YYYY=           -609.2449 ZZZZ=            -99.3318 XXXY=             -0.3733
 XXXZ=              0.4148 YYYX=              0.1559 YYYZ=              0.0574 ZZZX=              0.0189
 ZZZY=             -0.0120 XXYY=           -507.7150 XXZZ=           -590.7536 YYZZ=           -145.7038
 XXYZ=             -0.0122 YYXZ=              0.0012 ZZXY=             -0.0075
 N-N= 7.811977492137D+02 E-N=-2.798737333670D+03  KE= 5.375062352137D+02
 Unable to Open any file for archive entry.
 1\1\GINC-GADI-CPU-CLX-0113\SP\RM062X TD-FC\6-311++G(d,p)\C14H11(1+)\TS
 1578\28-Jul-2022\0\\#n M062X/6-311++G(d,p) TD(NStates=1) EmpiricalDisp
 ersion=GD3 SP\\SP_150\\1,1\C,0,0.0057,2.490855,1.360431\C,0,0.00285,3.
 700458,0.671989\C,0,0.0018,3.680861,-0.71383\C,0,0.0003,2.462556,-1.40
 7538\C,0,-0.0003,-2.463756,-1.407538\C,0,-0.0018,-3.686861,-0.71383\C,
 0,-0.00285,-3.702558,0.671989\C,0,-0.0057,-2.494455,1.360431\C,0,-0.00
 015,0.0132,1.453369\C,0,0.,-0.0006,-1.429189\C,0,0.00045,1.262205,0.67
 7065\C,0,-0.0012,1.238371,-0.730804\C,0,-0.00045,-1.261905,0.677065\C,
 0,0.0012,-1.236571,-0.730804\H,0,0.0066,2.486121,2.443647\H,0,0.00345,
 4.634503,1.211689\H,0,0.0009,4.605512,-1.272349\H,0,-0.0009,2.4671,-2.
 490059\H,0,0.,-0.0003,-2.510266\H,0,0.0009,-2.468,-2.490059\H,0,-0.000
 9,-4.613012,-1.272349\H,0,-0.00345,-4.639003,1.211689\H,0,-0.0066,-2.4
 90021,2.443647\H,0,-0.859585,0.003,2.142487\H,0,0.859585,0.003,2.14908
 7\\Version=ES64L-G16RevC.01\State=1-A\HF=-539.7600326\RMSD=4.875e-09\P
 G=C01 [X(C14H11)]\\@
 The archive entry for this job was punched.


 Boundary, n.  In political geography, an imaginary
 line between two nations, separating the imaginary
 rights of one from the imaginary rights of another.
                               -- Ambrose Bierce
 Job cpu time:       0 days  1 hours 19 minutes 28.0 seconds.
 Elapsed time:       0 days  0 hours  1 minutes 39.5 seconds.
 File lengths (MBytes):  RWF=    460 Int=      0 D2E=      0 Chk=     15 Scr=      1
 Normal termination of Gaussian 16 at Thu Jul 28 17:24:27 2022.
