 Entering Gaussian System, Link 0=g16
 Initial command:
 /apps/gaussian/g16c01/g16/l1.exe "/jobfs/53002009.gadi-pbs/Gau-776221.inp" -scrdir="/jobfs/53002009.gadi-pbs/"
 Entering Link 1 = /apps/gaussian/g16c01/g16/l1.exe PID=    776222.
  
 Copyright (c) 1988-2019, Gaussian, Inc.  All Rights Reserved.
  
 This is part of the Gaussian(R) 16 program.  It is based on
 the Gaussian(R) 09 system (copyright 2009, Gaussian, Inc.),
 the Gaussian(R) 03 system (copyright 2003, Gaussian, Inc.),
 the Gaussian(R) 98 system (copyright 1998, Gaussian, Inc.),
 the Gaussian(R) 94 system (copyright 1995, Gaussian, Inc.),
 the Gaussian 92(TM) system (copyright 1992, Gaussian, Inc.),
 the Gaussian 90(TM) system (copyright 1990, Gaussian, Inc.),
 the Gaussian 88(TM) system (copyright 1988, Gaussian, Inc.),
 the Gaussian 86(TM) system (copyright 1986, Carnegie Mellon
 University), and the Gaussian 82(TM) system (copyright 1983,
 Carnegie Mellon University). Gaussian is a federally registered
 trademark of Gaussian, Inc.
  
 This software contains proprietary and confidential information,
 including trade secrets, belonging to Gaussian, Inc.
  
 This software is provided under written license and may be
 used, copied, transmitted, or stored only in accord with that
 written license.
  
 The following legend is applicable only to US Government
 contracts under FAR:
  
                    RESTRICTED RIGHTS LEGEND
  
 Use, reproduction and disclosure by the US Government is
 subject to restrictions as set forth in subparagraphs (a)
 and (c) of the Commercial Computer Software - Restricted
 Rights clause in FAR 52.227-19.
  
 Gaussian, Inc.
 340 Quinnipiac St., Bldg. 40, Wallingford CT 06492
  
  
 ---------------------------------------------------------------
 Warning -- This program may not be used in any manner that
 competes with the business of Gaussian, Inc. or will provide
 assistance to any competitor of Gaussian, Inc.  The licensee
 of this program is prohibited from giving any competitor of
 Gaussian, Inc. access to this program.  By using this program,
 the user acknowledges that Gaussian, Inc. is engaged in the
 business of creating and licensing software in the field of
 computational chemistry and represents and warrants to the
 licensee that it is not a competitor of Gaussian, Inc. and that
 it will not use this program in any manner prohibited above.
 ---------------------------------------------------------------
  

 Cite this work as:
 Gaussian 16, Revision C.01,
 M. J. Frisch, G. W. Trucks, H. B. Schlegel, G. E. Scuseria, 
 M. A. Robb, J. R. Cheeseman, G. Scalmani, V. Barone, 
 G. A. Petersson, H. Nakatsuji, X. Li, M. Caricato, A. V. Marenich, 
 J. Bloino, B. G. Janesko, R. Gomperts, B. Mennucci, H. P. Hratchian, 
 J. V. Ortiz, A. F. Izmaylov, J. L. Sonnenberg, D. Williams-Young, 
 F. Ding, F. Lipparini, F. Egidi, J. Goings, B. Peng, A. Petrone, 
 T. Henderson, D. Ranasinghe, V. G. Zakrzewski, J. Gao, N. Rega, 
 G. Zheng, W. Liang, M. Hada, M. Ehara, K. Toyota, R. Fukuda, 
 J. Hasegawa, M. Ishida, T. Nakajima, Y. Honda, O. Kitao, H. Nakai, 
 T. Vreven, K. Throssell, J. A. Montgomery, Jr., J. E. Peralta, 
 F. Ogliaro, M. J. Bearpark, J. J. Heyd, E. N. Brothers, K. N. Kudin, 
 V. N. Staroverov, T. A. Keith, R. Kobayashi, J. Normand, 
 K. Raghavachari, A. P. Rendell, J. C. Burant, S. S. Iyengar, 
 J. Tomasi, M. Cossi, J. M. Millam, M. Klene, C. Adamo, R. Cammi, 
 J. W. Ochterski, R. L. Martin, K. Morokuma, O. Farkas, 
 J. B. Foresman, and D. J. Fox, Gaussian, Inc., Wallingford CT, 2019.
 
 ******************************************
 Gaussian 16:  ES64L-G16RevC.01  3-Jul-2019
                28-Jul-2022 
 ******************************************
 %NProcShared=48
 Will use up to   48 processors via shared memory.
 %mem = 190GB
 ---------------------------------------------------------------
 #n M062X/6-311++G(d,p) TD(NStates=1) EmpiricalDispersion=GD3 SP
 ---------------------------------------------------------------
 1/38=1,172=1/1;
 2/12=2,17=6,18=5,40=1/2;
 3/5=4,6=6,7=1111,11=9,25=1,30=1,74=-55,124=31/1,2,3,8;
 4//1;
 5/5=2,38=5/2;
 8/6=1,10=2,108=1/1;
 9/41=1,42=1,70=2/14;
 6/7=2,8=2,9=2,10=2/1;
 99/5=1,9=1/99;
 -----
 SP_50
 -----
 Symbolic Z-matrix:
 Charge =  1 Multiplicity = 1
 C                    -0.0137    2.49325   1.36043 
 C                    -0.01645   3.69446   0.67199 
 C                    -0.0046    3.67146  -0.71383 
 C                     0.0156    2.45406  -1.40754 
 C                     0.0156   -2.45406  -1.40754 
 C                    -0.0046   -3.67146  -0.71383 
 C                    -0.01645  -3.69446   0.67199 
 C                    -0.0137   -2.49325   1.36043 
 C                    -0.00875   0.        1.45337 
 C                     0.0244    0.       -1.42919 
 C                     0.00365   1.26971   0.67707 
 C                     0.01      1.23627  -0.7308 
 C                     0.00365  -1.26971   0.67707 
 C                     0.01     -1.23627  -0.7308 
 H                    -0.0042    2.48852   2.44365 
 H                    -0.01665   4.631     1.21169 
 H                     0.0029    4.60971  -1.27235 
 H                     0.0073    2.4587   -2.49006 
 H                     0.0225    0.       -2.51027 
 H                     0.0073   -2.4587   -2.49006 
 H                     0.0029   -4.60971  -1.27235 
 H                    -0.01665  -4.631     1.21169 
 H                    -0.0042   -2.48852   2.44365 
 H                    -0.89159   0.        2.14579 
 H                     0.82759   0.        2.14579 
 
                          Input orientation:                          
 ---------------------------------------------------------------------
 Center     Atomic      Atomic             Coordinates (Angstroms)
 Number     Number       Type             X           Y           Z
 ---------------------------------------------------------------------
      1          6           0       -0.013700    2.493255    1.360431
      2          6           0       -0.016450    3.694458    0.671989
      3          6           0       -0.004600    3.671461   -0.713830
      4          6           0        0.015600    2.454056   -1.407538
      5          6           0        0.015600   -2.454056   -1.407538
      6          6           0       -0.004600   -3.671461   -0.713830
      7          6           0       -0.016450   -3.694458    0.671989
      8          6           0       -0.013700   -2.493255    1.360431
      9          6           0       -0.008750    0.000000    1.453369
     10          6           0        0.024400    0.000000   -1.429189
     11          6           0        0.003650    1.269705    0.677065
     12          6           0        0.010000    1.236271   -0.730804
     13          6           0        0.003650   -1.269705    0.677065
     14          6           0        0.010000   -1.236271   -0.730804
     15          1           0       -0.004200    2.488521    2.443647
     16          1           0       -0.016650    4.631003    1.211689
     17          1           0        0.002900    4.609712   -1.272349
     18          1           0        0.007300    2.458700   -2.490059
     19          1           0        0.022500    0.000000   -2.510266
     20          1           0        0.007300   -2.458700   -2.490059
     21          1           0        0.002900   -4.609712   -1.272349
     22          1           0       -0.016650   -4.631003    1.211689
     23          1           0       -0.004200   -2.488521    2.443647
     24          1           0       -0.891585    0.000000    2.145787
     25          1           0        0.827585    0.000000    2.145787
 ---------------------------------------------------------------------
                    Distance matrix (angstroms):
                    1          2          3          4          5
     1  C    0.000000
     2  C    1.384503   0.000000
     3  C    2.385542   1.386060   0.000000
     4  C    2.768402   2.421581   1.401326   0.000000
     5  C    5.669074   6.490738   6.164706   4.908112   0.000000
     6  C    6.504334   7.495158   7.342922   6.164706   1.401326
     7  C    6.225894   7.388916   7.495158   6.490738   2.421581
     8  C    4.986510   6.225894   6.504334   5.669074   2.768402
     9  C    2.494991   3.776193   4.263378   3.769320   3.769320
    10  C    3.741624   4.250369   3.740616   2.454167   2.454167
    11  C    1.401558   2.424842   2.775444   2.397582   4.267565
    12  C    2.440048   2.830408   2.435293   1.393198   3.751868
    13  C    3.824547   4.964206   5.133204   4.267565   2.397582
    14  C    4.275885   5.126462   4.907783   3.751868   1.393198
    15  H    1.083268   2.143177   3.371796   3.851390   6.265867
    16  H    2.142918   1.080922   2.151392   3.405949   7.553771
    17  H    3.378046   2.149073   1.091932   2.159928   7.065073
    18  H    3.850702   3.395027   2.150795   1.082563   5.030615
    19  H    4.604338   4.876196   4.087486   2.690436   2.690436
    20  H    6.272844   6.918126   6.382320   5.030615   1.082563
    21  H    7.575219   8.528779   8.299990   7.065073   2.159928
    22  H    7.125811   8.342936   8.522833   7.553771   3.405949
    23  H    5.098190   6.431808   6.922069   6.265867   3.851390
    24  H    2.757496   4.072709   4.737486   4.412652   4.412652
    25  H    2.746064   4.066140   4.727533   4.394067   4.394067
                    6          7          8          9         10
     6  C    0.000000
     7  C    1.386060   0.000000
     8  C    2.385542   1.384503   0.000000
     9  C    4.263378   3.776193   2.494991   0.000000
    10  C    3.740616   4.250369   3.741624   2.882749   0.000000
    11  C    5.133204   4.964206   3.824547   1.488272   2.459449
    12  C    4.907783   5.126462   4.275885   2.509846   1.419970
    13  C    2.775444   2.424842   1.401558   1.488272   2.459449
    14  C    2.435293   2.830408   2.440048   2.509846   1.419970
    15  H    6.922069   6.431808   5.098190   2.678322   4.603522
    16  H    8.522833   8.342936   7.125811   4.637312   5.331239
    17  H    8.299990   8.528779   7.575219   5.355289   4.612429
    18  H    6.382320   6.918126   6.272844   4.647159   2.677862
    19  H    4.087486   4.876196   4.604338   3.963758   1.081079
    20  H    2.150795   3.395027   3.850702   4.647159   2.677862
    21  H    1.091932   2.149073   3.378046   5.355289   4.612429
    22  H    2.151392   1.080922   2.142918   4.637312   5.331239
    23  H    3.371796   2.143177   1.083268   2.678322   4.603522
    24  H    4.737486   4.072709   2.757496   1.121981   3.690458
    25  H    4.727533   4.066140   2.746064   1.085771   3.664091
                   11         12         13         14         15
    11  C    0.000000
    12  C    1.408280   0.000000
    13  C    2.539410   2.874378   0.000000
    14  C    2.874378   2.472542   1.408280   0.000000
    15  H    2.146249   3.412546   4.152726   4.894018   0.000000
    16  H    3.403610   3.911291   5.924913   6.180525   2.471458
    17  H    3.867281   3.416640   6.194171   5.871017   4.278800
    18  H    3.382957   2.142269   4.892003   4.092407   4.933810
    19  H    3.430974   2.166797   3.430974   2.166797   5.543889
    20  H    4.892003   4.092407   3.382957   2.142269   6.986886
    21  H    6.194171   5.871017   3.867281   3.416640   8.012090
    22  H    5.924913   6.180525   3.403610   3.911291   7.225337
    23  H    4.152726   4.894018   2.146249   3.412546   4.977042
    24  H    2.137929   3.258220   2.137929   3.258220   2.658742
    25  H    2.109067   3.235983   2.109067   3.235983   2.640705
                   16         17         18         19         20
    16  H    0.000000
    17  H    2.484206   0.000000
    18  H    4.292134   2.471779   0.000000
    19  H    5.941437   4.773077   2.458830   0.000000
    20  H    7.997962   7.172537   4.917400   2.458830   0.000000
    21  H    9.568785   9.219424   7.172537   4.773077   2.471779
    22  H    9.262006   9.568785   7.997962   5.941437   4.292134
    23  H    7.225337   8.012090   6.986886   5.543889   4.933810
    24  H    4.804606   5.808029   5.323934   4.744932   5.323934
    25  H    4.799110   5.797690   5.311228   4.725145   5.311228
                   21         22         23         24         25
    21  H    0.000000
    22  H    2.484206   0.000000
    23  H    4.278800   2.471458   0.000000
    24  H    5.808029   4.804606   2.658742   0.000000
    25  H    5.797690   4.799110   2.640705   1.719170   0.000000
 Stoichiometry    C14H11(1+)
 Framework group  CS[SG(C2H3),X(C12H8)]
 Deg. of freedom    37
 Full point group                 CS      NOp   2
 Largest Abelian subgroup         CS      NOp   2
 Largest concise Abelian subgroup CS      NOp   2
                         Standard orientation:                         
 ---------------------------------------------------------------------
 Center     Atomic      Atomic             Coordinates (Angstroms)
 Number     Number       Type             X           Y           Z
 ---------------------------------------------------------------------
      1          6           0       -1.360496    0.001360    2.493255
      2          6           0       -0.672105    0.010168    3.694458
      3          6           0        0.713765    0.010514    3.671461
      4          6           0        1.407624   -0.003580    2.454056
      5          6           0        1.407624   -0.003580   -2.454056
      6          6           0        0.713765    0.010514   -3.671461
      7          6           0       -0.672105    0.010168   -3.694458
      8          6           0       -1.360496    0.001360   -2.493255
      9          6           0       -1.453386   -0.004408   -0.000000
     10          6           0        1.429352   -0.012189    0.000000
     11          6           0       -0.677003   -0.009976    1.269705
     12          6           0        0.730867   -0.003936    1.236271
     13          6           0       -0.677003   -0.009976   -1.269705
     14          6           0        0.730867   -0.003936   -1.236271
     15          1           0       -2.443586   -0.017672    2.488521
     16          1           0       -1.211785    0.005619    4.631003
     17          1           0        1.272328    0.007930    4.609712
     18          1           0        2.490030    0.014246    2.458700
     19          1           0        2.510370   -0.000776    0.000000
     20          1           0        2.490030    0.014246   -2.458700
     21          1           0        1.272328    0.007930   -4.609712
     22          1           0       -1.211785    0.005619   -4.631003
     23          1           0       -2.443586   -0.017672   -2.488521
     24          1           0       -2.153547    0.872300   -0.000000
     25          1           0       -2.138418   -0.846804   -0.000000
 ---------------------------------------------------------------------
 Rotational constants (GHZ):           2.1359432           0.4462836           0.3699641
 Standard basis: 6-311++G(d,p) (5D, 7F)
 There are   218 symmetry adapted cartesian basis functions of A'  symmetry.
 There are   181 symmetry adapted cartesian basis functions of A"  symmetry.
 There are   210 symmetry adapted basis functions of A'  symmetry.
 There are   175 symmetry adapted basis functions of A"  symmetry.
   385 basis functions,   603 primitive gaussians,   399 cartesian basis functions
    47 alpha electrons       47 beta electrons
       nuclear repulsion energy       782.1053534369 Hartrees.
 NAtoms=   25 NActive=   25 NUniq=   15 SFac= 2.78D+00 NAtFMM=   60 NAOKFM=F Big=F
 Integral buffers will be    131072 words long.
 Regular integral format.
 Two-electron integral symmetry is turned on.
 Nuclear repulsion after empirical dispersion term =      782.1043742309 Hartrees.
 One-electron integrals computed using PRISM.
 NBasis=   385 RedAO= T EigKep=  1.18D-06  NBF=   210   175
 NBsUse=   379 1.00D-06 EigRej=  8.29D-07 NBFU=   207   172
 ExpMin= 3.60D-02 ExpMax= 4.56D+03 ExpMxC= 6.82D+02 IAcc=3 IRadAn=         5 AccDes= 0.00D+00
 Harris functional with IExCor= 1009 and IRadAn=       5 diagonalized for initial guess.
 HarFok:  IExCor= 1009 AccDes= 0.00D+00 IRadAn=         5 IDoV= 1 UseB2=F ITyADJ=14
 ICtDFT=  3500011 ScaDFX=  1.000000  1.000000  1.000000  1.000000
 FoFCou: FMM=F IPFlag=           0 FMFlag=      100000 FMFlg1=           0
         NFxFlg=           0 DoJE=T BraDBF=F KetDBF=T FulRan=T
         wScrn=  0.000000 ICntrl=       500 IOpCl=  0 I1Cent=   200000004 NGrid=           0
         NMat0=    1 NMatS0=      1 NMatT0=    0 NMatD0=    1 NMtDS0=    0 NMtDT0=    0
 Petite list used in FoFCou.
 Initial guess orbital symmetries:
       Occupied  (A') (A") (A') (A") (A') (A") (A') (A") (A') (A')
                 (A") (A') (A") (A') (A') (A") (A') (A') (A") (A")
                 (A') (A') (A") (A') (A") (A') (A") (A') (A') (A")
                 (A") (A') (A') (A") (A") (A') (A') (A') (A") (A")
                 (A') (A") (A') (A') (A") (A") (A')
       Virtual   (A') (A') (A") (A") (A') (A') (A") (A') (A') (A")
                 (A') (A") (A') (A") (A') (A') (A") (A') (A") (A")
                 (A') (A') (A') (A") (A') (A') (A") (A") (A') (A')
                 (A") (A') (A") (A') (A") (A') (A") (A') (A') (A')
                 (A') (A") (A") (A') (A') (A") (A') (A") (A") (A")
                 (A") (A") (A') (A') (A') (A') (A') (A') (A') (A")
                 (A") (A') (A") (A') (A') (A') (A") (A") (A') (A")
                 (A") (A') (A') (A") (A") (A') (A') (A") (A') (A')
                 (A') (A") (A") (A") (A') (A") (A') (A') (A') (A")
                 (A") (A') (A") (A') (A') (A") (A") (A') (A') (A")
                 (A") (A') (A') (A') (A') (A') (A") (A") (A") (A')
                 (A') (A") (A") (A') (A') (A') (A") (A") (A') (A')
                 (A") (A') (A') (A") (A') (A") (A") (A") (A') (A')
                 (A') (A") (A') (A') (A') (A") (A") (A') (A") (A")
                 (A') (A") (A") (A') (A') (A") (A') (A") (A") (A')
                 (A') (A") (A') (A") (A") (A") (A') (A') (A") (A')
                 (A') (A') (A") (A") (A') (A') (A") (A') (A") (A")
                 (A') (A') (A") (A') (A") (A') (A") (A") (A') (A')
                 (A') (A") (A") (A') (A") (A') (A") (A') (A") (A')
                 (A') (A") (A') (A') (A') (A") (A") (A') (A') (A")
                 (A") (A') (A') (A') (A") (A") (A") (A') (A') (A')
                 (A") (A') (A") (A') (A") (A") (A') (A") (A') (A")
                 (A') (A') (A") (A") (A') (A') (A") (A") (A") (A')
                 (A') (A") (A') (A") (A") (A') (A') (A") (A") (A')
                 (A') (A') (A") (A') (A") (A') (A") (A") (A') (A')
                 (A") (A') (A') (A") (A") (A') (A") (A') (A') (A')
                 (A') (A') (A") (A") (A') (A") (A') (A') (A") (A')
                 (A") (A") (A") (A') (A') (A') (A') (A") (A") (A')
                 (A") (A") (A') (A') (A") (A') (A") (A") (A') (A')
                 (A") (A') (A") (A') (A') (A") (A') (A') (A") (A")
                 (A') (A") (A') (A') (A") (A') (A') (A") (A') (A")
                 (A') (A') (A") (A') (A") (A") (A") (A') (A') (A")
                 (A') (A') (A") (A') (A") (A') (A") (A') (A") (A')
                 (A') (A")
 The electronic state of the initial guess is 1-A'.
 Requested convergence on RMS density matrix=1.00D-08 within 128 cycles.
 Requested convergence on MAX density matrix=1.00D-06.
 Requested convergence on             energy=1.00D-06.
 No special actions if energy rises.
 SCF Done:  E(RM062X) =  -539.759544948     A.U. after   15 cycles
            NFock= 15  Conv=0.47D-08     -V/T= 2.0041
 DoSCS=F DFT=T ScalE2(SS,OS)=  1.000000  1.000000
 ExpMin= 3.60D-02 ExpMax= 4.56D+03 ExpMxC= 6.82D+02 IAcc=3 IRadAn=         5 AccDes= 0.00D+00
 HarFok:  IExCor=  205 AccDes= 0.00D+00 IRadAn=         5 IDoV=-2 UseB2=F ITyADJ=14
 ICtDFT= 12500011 ScaDFX=  1.000000  1.000000  1.000000  1.000000
 Range of M.O.s used for correlation:    15   379
 NBasis=   385 NAE=    47 NBE=    47 NFC=    14 NFV=     0
 NROrb=    365 NOA=    33 NOB=    33 NVA=   332 NVB=   332

 **** Warning!!: The largest alpha MO coefficient is  0.14520617D+03

 Orbital symmetries:
       Occupied  (A') (A") (A') (A") (A') (A") (A') (A') (A") (A')
                 (A") (A') (A") (A') (A') (A") (A') (A') (A") (A")
                 (A') (A') (A') (A") (A") (A') (A") (A') (A') (A")
                 (A') (A") (A') (A") (A') (A") (A') (A') (A") (A')
                 (A") (A') (A") (A') (A") (A") (A')
       Virtual   (A') (A') (A") (A") (A') (A') (A") (A') (A') (A")
                 (A') (A') (A") (A') (A') (A") (A") (A') (A") (A')
                 (A') (A") (A') (A') (A") (A') (A') (A') (A") (A')
                 (A") (A") (A") (A") (A') (A") (A") (A') (A') (A')
                 (A") (A') (A") (A') (A') (A') (A") (A') (A') (A")
                 (A") (A') (A') (A') (A") (A') (A") (A') (A") (A')
                 (A') (A") (A") (A') (A') (A") (A') (A') (A") (A")
                 (A') (A") (A') (A') (A") (A") (A') (A") (A') (A')
                 (A") (A') (A") (A") (A') (A') (A") (A') (A") (A')
                 (A") (A') (A") (A') (A') (A') (A') (A") (A") (A')
                 (A") (A') (A") (A') (A') (A") (A') (A") (A') (A")
                 (A') (A") (A') (A") (A') (A") (A') (A") (A") (A')
                 (A') (A') (A") (A") (A') (A') (A') (A") (A') (A")
                 (A") (A') (A') (A') (A') (A') (A") (A") (A') (A")
                 (A") (A') (A") (A") (A') (A") (A") (A') (A") (A')
                 (A") (A') (A") (A') (A") (A') (A') (A") (A') (A')
                 (A") (A") (A') (A') (A") (A") (A") (A') (A') (A")
                 (A') (A') (A") (A') (A") (A') (A") (A") (A') (A')
                 (A') (A") (A') (A') (A") (A") (A") (A') (A") (A')
                 (A") (A') (A') (A') (A') (A') (A") (A") (A') (A")
                 (A') (A") (A') (A') (A") (A") (A") (A') (A') (A')
                 (A') (A") (A") (A") (A') (A") (A") (A') (A') (A')
                 (A") (A') (A") (A") (A') (A") (A') (A") (A") (A')
                 (A') (A') (A") (A") (A') (A") (A") (A') (A") (A')
                 (A') (A') (A") (A") (A") (A') (A') (A") (A') (A')
                 (A") (A') (A") (A') (A") (A') (A') (A") (A') (A')
                 (A") (A') (A') (A") (A') (A") (A') (A') (A") (A')
                 (A") (A") (A') (A') (A") (A') (A") (A') (A") (A')
                 (A") (A") (A') (A') (A') (A") (A") (A') (A') (A")
                 (A") (A') (A") (A') (A') (A") (A') (A') (A") (A")
                 (A') (A") (A') (A') (A') (A") (A') (A") (A') (A")
                 (A') (A') (A") (A') (A") (A") (A") (A') (A') (A")
                 (A') (A') (A") (A") (A') (A') (A") (A') (A') (A")
                 (A') (A")
     4 initial guesses have been made.
 Convergence on wavefunction:    0.001000000000000
 Iteration     1 Dimension     4 NMult     0 NNew      4
 CISAX will form     4 AO SS matrices at one time.
 Iteration     2 Dimension     6 NMult     4 NNew      2
 Iteration     3 Dimension     8 NMult     6 NNew      2
 Iteration     4 Dimension    10 NMult     8 NNew      2
 Iteration     5 Dimension    12 NMult    10 NNew      2
 Iteration     6 Dimension    14 NMult    12 NNew      2
 ***********************************************************************
 Excited states from <AA,BB:AA,BB> singles matrix:
 ***********************************************************************
 
 Ground to excited state transition densities written to RWF  633
 Ground to excited state transition electric dipole moments (Au):
       state          X           Y           Z        Dip. S.      Osc.
         1        -0.6507      0.0041     -0.0000      0.4235      0.0294
 Ground to excited state transition velocity dipole moments (Au):
       state          X           Y           Z        Dip. S.      Osc.
         1         0.0754     -0.0005      0.0000      0.0057      0.0364
 Ground to excited state transition magnetic dipole moments (Au):
       state          X           Y           Z
         1         0.0000     -0.0000     -0.0055
 Ground to excited state transition velocity quadrupole moments (Au):
       state          XX          YY          ZZ          XY          XZ          YZ
         1         0.0374     -0.0100      0.2854      0.0007     -0.0000     -0.0000
 <0|del|b> * <b|rxdel|0> + <0|del|b> * <b|delr+rdel|0>
 Rotatory Strengths (R) in cgs (10**-40 erg-esu-cm/Gauss)
       state          XX          YY          ZZ    R(velocity)    E-M Angle
         1        -0.0000     -0.0000      0.0000     -0.0000       90.00
 1/2[<0|r|b>*<b|rxdel|0> + (<0|rxdel|b>*<b|r|0>)*]
 Rotatory Strengths (R) in cgs (10**-40 erg-esu-cm/Gauss)
       state          XX          YY          ZZ     R(length)
         1         0.0000      0.0000     -0.0000     -0.0000
  1/2[<0|del|b>*<b|r|0> + (<0|r|b>*<b|del|0>)*] (Au)
       state          X           Y           Z        Dip. S.   Osc.(frdel)
         1        -0.0491     -0.0000     -0.0000      0.0491      0.0327

 Excitation energies and oscillator strengths:
 
 Excited State   1:      Singlet-A'     2.8368 eV  437.06 nm  f=0.0294  <S**2>=0.000
      47 -> 48         0.70424
 This state for optimization and/or second-order correction.
 Total Energy, E(TD-HF/TD-DFT) =  -539.655296101    
 Copying the excited state density for this state as the 1-particle RhoCI density.
 SavETr:  write IOETrn=   770 NScale= 10 NData=  16 NLR=1 NState=    1 LETran=      28.

 **********************************************************************

            Population analysis using the SCF Density.

 **********************************************************************

 Orbital symmetries:
       Occupied  (A') (A") (A') (A") (A') (A") (A') (A') (A") (A')
                 (A") (A') (A") (A') (A') (A") (A') (A') (A") (A")
                 (A') (A') (A') (A") (A") (A') (A") (A') (A') (A")
                 (A') (A") (A') (A") (A') (A") (A') (A') (A") (A')
                 (A") (A') (A") (A') (A") (A") (A')
       Virtual   (A') (A') (A") (A") (A') (A') (A") (A') (A') (A")
                 (A') (A') (A") (A') (A') (A") (A") (A') (A") (A')
                 (A') (A") (A') (A') (A") (A') (A') (A') (A") (A')
                 (A") (A") (A") (A") (A') (A") (A") (A') (A') (A')
                 (A") (A') (A") (A') (A') (A') (A") (A') (A') (A")
                 (A") (A') (A') (A') (A") (A') (A") (A') (A") (A')
                 (A') (A") (A") (A') (A') (A") (A') (A') (A") (A")
                 (A') (A") (A') (A') (A") (A") (A') (A") (A') (A')
                 (A") (A') (A") (A") (A') (A') (A") (A') (A") (A')
                 (A") (A') (A") (A') (A') (A') (A') (A") (A") (A')
                 (A") (A') (A") (A') (A') (A") (A') (A") (A') (A")
                 (A') (A") (A') (A") (A') (A") (A') (A") (A") (A')
                 (A') (A') (A") (A") (A') (A') (A') (A") (A') (A")
                 (A") (A') (A') (A') (A') (A') (A") (A") (A') (A")
                 (A") (A') (A") (A") (A') (A") (A") (A') (A") (A')
                 (A") (A') (A") (A') (A") (A') (A') (A") (A') (A')
                 (A") (A") (A') (A') (A") (A") (A") (A') (A') (A")
                 (A') (A') (A") (A') (A") (A') (A") (A") (A') (A')
                 (A') (A") (A') (A') (A") (A") (A") (A') (A") (A')
                 (A") (A') (A') (A') (A') (A') (A") (A") (A') (A")
                 (A') (A") (A') (A') (A") (A") (A") (A') (A') (A')
                 (A') (A") (A") (A") (A') (A") (A") (A') (A') (A')
                 (A") (A') (A") (A") (A') (A") (A') (A") (A") (A')
                 (A') (A') (A") (A") (A') (A") (A") (A') (A") (A')
                 (A') (A') (A") (A") (A") (A') (A') (A") (A') (A')
                 (A") (A') (A") (A') (A") (A') (A') (A") (A') (A')
                 (A") (A') (A') (A") (A') (A") (A') (A') (A") (A')
                 (A") (A") (A') (A') (A") (A') (A") (A') (A") (A')
                 (A") (A") (A') (A') (A') (A") (A") (A') (A') (A")
                 (A") (A') (A") (A') (A') (A") (A') (A') (A") (A")
                 (A') (A") (A') (A') (A') (A") (A') (A") (A') (A")
                 (A') (A') (A") (A') (A") (A") (A") (A') (A') (A")
                 (A') (A') (A") (A") (A') (A') (A") (A') (A') (A")
                 (A') (A")
 The electronic state is 1-A'.
 Alpha  occ. eigenvalues --  -10.77675 -10.73212 -10.73211 -10.72355 -10.72354
 Alpha  occ. eigenvalues --  -10.71265 -10.71265 -10.70975 -10.70944 -10.70944
 Alpha  occ. eigenvalues --  -10.69863 -10.69863 -10.69667 -10.69667  -1.16512
 Alpha  occ. eigenvalues --   -1.12676  -1.07060  -1.05661  -1.01526  -1.00147
 Alpha  occ. eigenvalues --   -0.95861  -0.91034  -0.86431  -0.85940  -0.83824
 Alpha  occ. eigenvalues --   -0.78420  -0.76038  -0.74460  -0.69559  -0.69224
 Alpha  occ. eigenvalues --   -0.68499  -0.68117  -0.67974  -0.64897  -0.64419
 Alpha  occ. eigenvalues --   -0.62927  -0.61728  -0.60064  -0.59831  -0.59034
 Alpha  occ. eigenvalues --   -0.56876  -0.55161  -0.54760  -0.52520  -0.46782
 Alpha  occ. eigenvalues --   -0.46038  -0.44588
 Alpha virt. eigenvalues --   -0.26111  -0.14570  -0.14073  -0.12654  -0.11182
 Alpha virt. eigenvalues --   -0.10093  -0.09245  -0.08028  -0.07950  -0.07482
 Alpha virt. eigenvalues --   -0.07212  -0.07124  -0.05640  -0.05581  -0.05314
 Alpha virt. eigenvalues --   -0.03855  -0.03692  -0.03278  -0.03130  -0.02166
 Alpha virt. eigenvalues --   -0.01380  -0.00957   0.00195   0.00546   0.00673
 Alpha virt. eigenvalues --    0.01065   0.01512   0.01959   0.02225   0.02281
 Alpha virt. eigenvalues --    0.02459   0.02667   0.02850   0.03215   0.03339
 Alpha virt. eigenvalues --    0.04232   0.04509   0.04704   0.05090   0.05379
 Alpha virt. eigenvalues --    0.05986   0.06307   0.06611   0.07040   0.07267
 Alpha virt. eigenvalues --    0.07909   0.08252   0.08347   0.08586   0.08924
 Alpha virt. eigenvalues --    0.09535   0.09557   0.10037   0.10880   0.11045
 Alpha virt. eigenvalues --    0.11136   0.12185   0.12215   0.12929   0.12954
 Alpha virt. eigenvalues --    0.13421   0.13483   0.14014   0.14481   0.16053
 Alpha virt. eigenvalues --    0.16235   0.16535   0.17318   0.17567   0.17738
 Alpha virt. eigenvalues --    0.18130   0.19148   0.19297   0.19679   0.19766
 Alpha virt. eigenvalues --    0.21610   0.21643   0.22678   0.23073   0.23560
 Alpha virt. eigenvalues --    0.23801   0.24591   0.25113   0.26885   0.27695
 Alpha virt. eigenvalues --    0.28843   0.29279   0.29841   0.31399   0.35810
 Alpha virt. eigenvalues --    0.36574   0.38171   0.39362   0.41126   0.41347
 Alpha virt. eigenvalues --    0.41977   0.42101   0.42958   0.43808   0.44239
 Alpha virt. eigenvalues --    0.44975   0.45176   0.45948   0.46175   0.47910
 Alpha virt. eigenvalues --    0.48486   0.48860   0.48999   0.50389   0.51291
 Alpha virt. eigenvalues --    0.51648   0.51741   0.52150   0.53140   0.53925
 Alpha virt. eigenvalues --    0.54035   0.54761   0.55728   0.55777   0.57378
 Alpha virt. eigenvalues --    0.58263   0.58817   0.61465   0.62216   0.62305
 Alpha virt. eigenvalues --    0.63191   0.63538   0.64727   0.65187   0.66962
 Alpha virt. eigenvalues --    0.70487   0.70513   0.71033   0.72450   0.72839
 Alpha virt. eigenvalues --    0.75752   0.75867   0.76314   0.76715   0.76995
 Alpha virt. eigenvalues --    0.77747   0.77826   0.78257   0.80309   0.80346
 Alpha virt. eigenvalues --    0.81347   0.81591   0.82172   0.83058   0.85051
 Alpha virt. eigenvalues --    0.87100   0.87946   0.88065   0.89654   0.90439
 Alpha virt. eigenvalues --    0.90937   0.91477   0.93439   0.94764   0.96341
 Alpha virt. eigenvalues --    0.96705   1.00258   1.01323   1.01816   1.02933
 Alpha virt. eigenvalues --    1.03197   1.04042   1.04675   1.05492   1.08980
 Alpha virt. eigenvalues --    1.19330   1.23227   1.24073   1.25379   1.28099
 Alpha virt. eigenvalues --    1.30017   1.31434   1.34480   1.35879   1.36180
 Alpha virt. eigenvalues --    1.39459   1.40107   1.41010   1.43319   1.43578
 Alpha virt. eigenvalues --    1.43677   1.45263   1.45457   1.46413   1.46641
 Alpha virt. eigenvalues --    1.47778   1.48368   1.51768   1.53712   1.55784
 Alpha virt. eigenvalues --    1.56090   1.56467   1.56734   1.57931   1.61636
 Alpha virt. eigenvalues --    1.63058   1.63270   1.63461   1.66210   1.68184
 Alpha virt. eigenvalues --    1.68540   1.68727   1.69729   1.74668   1.76004
 Alpha virt. eigenvalues --    1.77220   1.78090   1.79955   1.80506   1.81124
 Alpha virt. eigenvalues --    1.83095   1.83351   1.83446   1.84031   1.84120
 Alpha virt. eigenvalues --    1.84444   1.86059   1.86203   1.88341   1.91289
 Alpha virt. eigenvalues --    1.92180   1.94091   1.95171   1.97949   1.98544
 Alpha virt. eigenvalues --    2.00120   2.02337   2.04666   2.06903   2.11967
 Alpha virt. eigenvalues --    2.12108   2.14035   2.15298   2.19677   2.21205
 Alpha virt. eigenvalues --    2.23151   2.28863   2.30423   2.34429   2.35253
 Alpha virt. eigenvalues --    2.36281   2.38164   2.38837   2.42301   2.42991
 Alpha virt. eigenvalues --    2.46819   2.48036   2.49618   2.53094   2.53787
 Alpha virt. eigenvalues --    2.54152   2.56619   2.57968   2.58466   2.59750
 Alpha virt. eigenvalues --    2.59983   2.61509   2.62232   2.63550   2.63999
 Alpha virt. eigenvalues --    2.64773   2.65033   2.65376   2.65397   2.67962
 Alpha virt. eigenvalues --    2.68296   2.71109   2.71379   2.73453   2.74845
 Alpha virt. eigenvalues --    2.76425   2.79097   2.79911   2.83188   2.83347
 Alpha virt. eigenvalues --    2.85351   2.86415   2.92188   2.96774   2.99779
 Alpha virt. eigenvalues --    3.00384   3.04575   3.11708   3.12004   3.13793
 Alpha virt. eigenvalues --    3.20848   3.23467   3.27269   3.28510   3.31148
 Alpha virt. eigenvalues --    3.33578   3.33629   3.43497   3.46095   3.47630
 Alpha virt. eigenvalues --    3.49195   3.50781   3.56635   3.65175   3.67343
 Alpha virt. eigenvalues --    3.67572   3.93070   3.94004   3.94682   3.96167
 Alpha virt. eigenvalues --    4.03433   4.06925   4.07685   4.12536   4.35312
 Alpha virt. eigenvalues --    4.61027   4.70344   4.72218  23.45145  23.59794
 Alpha virt. eigenvalues --   23.82624  23.85171  23.88104  23.89774  23.90627
 Alpha virt. eigenvalues --   23.92431  23.98398  24.00678  24.01387  24.01493
 Alpha virt. eigenvalues --   24.11514  24.11596
          Condensed to atoms (all electrons):
               1          2          3          4          5          6
     1  C    8.494703   0.468066  -0.581841   1.753260  -0.000956  -0.095227
     2  C    0.468066   7.058297   0.373930  -0.937287  -0.042350  -0.016575
     3  C   -0.581841   0.373930   6.626480   0.731730  -0.117870   0.017756
     4  C    1.753260  -0.937287   0.731730  10.538626  -0.254505  -0.117870
     5  C   -0.000956  -0.042350  -0.117870  -0.254505  10.538626   0.731730
     6  C   -0.095227  -0.016575   0.017756  -0.117870   0.731730   6.626480
     7  C   -0.025294   0.006729  -0.016575  -0.042350  -0.937287   0.373930
     8  C    0.412210  -0.025294  -0.095227  -0.000956   1.753260  -0.581841
     9  C   -1.370110  -0.678793   0.278179  -0.368762  -0.368762   0.278179
    10  C   -1.182507   0.191729  -0.369557  -2.457012  -2.457012  -0.369557
    11  C    0.278992  -0.983110   1.019600  -0.201841  -1.545261  -0.194287
    12  C   -1.773245   1.120140  -1.347061  -1.197350  -0.284854  -0.194916
    13  C    0.186996  -0.183271  -0.194287  -1.545261  -0.201841   1.019600
    14  C   -1.063692  -0.219928  -0.194916  -0.284854  -1.197350  -1.347061
    15  H    0.362635  -0.101188  -0.002522   0.024017   0.005949   0.001189
    16  H   -0.019866   0.378781  -0.014836   0.013957  -0.001651  -0.000351
    17  H   -0.020811  -0.019135   0.371998  -0.062972   0.000368   0.000406
    18  H    0.047724   0.003990  -0.086475   0.448892   0.008476  -0.004962
    19  H   -0.045972  -0.007760   0.050555  -0.063876  -0.063876   0.050555
    20  H    0.007765   0.001815  -0.004962   0.008476   0.448892  -0.086475
    21  H   -0.001333  -0.000396   0.000406   0.000368  -0.062972   0.371998
    22  H    0.000775   0.000378  -0.000351  -0.001651   0.013957  -0.014836
    23  H    0.005888  -0.002694   0.001189   0.005949   0.024017  -0.002522
    24  H    0.043370   0.013403  -0.001136  -0.011803  -0.011803  -0.001136
    25  H    0.024729   0.015435  -0.002232  -0.011568  -0.011568  -0.002232
               7          8          9         10         11         12
     1  C   -0.025294   0.412210  -1.370110  -1.182507   0.278992  -1.773245
     2  C    0.006729  -0.025294  -0.678793   0.191729  -0.983110   1.120140
     3  C   -0.016575  -0.095227   0.278179  -0.369557   1.019600  -1.347061
     4  C   -0.042350  -0.000956  -0.368762  -2.457012  -0.201841  -1.197350
     5  C   -0.937287   1.753260  -0.368762  -2.457012  -1.545261  -0.284854
     6  C    0.373930  -0.581841   0.278179  -0.369557  -0.194287  -0.194916
     7  C    7.058297   0.468066  -0.678793   0.191729  -0.183271  -0.219928
     8  C    0.468066   8.494703  -1.370110  -1.182507   0.186996  -1.063692
     9  C   -0.678793  -1.370110   9.304787   0.386867   1.589331  -1.578326
    10  C    0.191729  -1.182507   0.386867   9.199297  -0.530306   2.269728
    11  C   -0.183271   0.186996   1.589331  -0.530306  14.271073  -3.779687
    12  C   -0.219928  -1.063692  -1.578326   2.269728  -3.779687  15.440133
    13  C   -0.983110   0.278992   1.589331  -0.530306   1.251285  -4.630992
    14  C    1.120140  -1.773245  -1.578326   2.269728  -4.630992   2.815404
    15  H   -0.002694   0.005888   0.085869  -0.008919  -0.023057  -0.020593
    16  H    0.000378   0.000775   0.004334  -0.010523   0.030946  -0.037987
    17  H   -0.000396  -0.001333  -0.004566   0.019445  -0.025593   0.084671
    18  H    0.001815   0.007765  -0.027387   0.018677  -0.009053  -0.049788
    19  H   -0.007760  -0.045972   0.075277   0.422092   0.068580  -0.062208
    20  H    0.003990   0.047724  -0.027387   0.018677  -0.010371  -0.012138
    21  H   -0.019135  -0.020811  -0.004566   0.019445  -0.006196   0.004867
    22  H    0.378781  -0.019866   0.004334  -0.010523   0.003253  -0.009437
    23  H   -0.101188   0.362635   0.085869  -0.008919  -0.000196   0.006924
    24  H    0.013403   0.043370   0.346506   0.004846   0.019393  -0.072324
    25  H    0.015435   0.024729   0.362634   0.004738   0.005672  -0.045792
              13         14         15         16         17         18
     1  C    0.186996  -1.063692   0.362635  -0.019866  -0.020811   0.047724
     2  C   -0.183271  -0.219928  -0.101188   0.378781  -0.019135   0.003990
     3  C   -0.194287  -0.194916  -0.002522  -0.014836   0.371998  -0.086475
     4  C   -1.545261  -0.284854   0.024017   0.013957  -0.062972   0.448892
     5  C   -0.201841  -1.197350   0.005949  -0.001651   0.000368   0.008476
     6  C    1.019600  -1.347061   0.001189  -0.000351   0.000406  -0.004962
     7  C   -0.983110   1.120140  -0.002694   0.000378  -0.000396   0.001815
     8  C    0.278992  -1.773245   0.005888   0.000775  -0.001333   0.007765
     9  C    1.589331  -1.578326   0.085869   0.004334  -0.004566  -0.027387
    10  C   -0.530306   2.269728  -0.008919  -0.010523   0.019445   0.018677
    11  C    1.251285  -4.630992  -0.023057   0.030946  -0.025593  -0.009053
    12  C   -4.630992   2.815404  -0.020593  -0.037987   0.084671  -0.049788
    13  C   14.271073  -3.779687  -0.000196   0.003253  -0.006196  -0.010371
    14  C   -3.779687  15.440133   0.006924  -0.009437   0.004867  -0.012138
    15  H   -0.000196   0.006924   0.438527  -0.009003   0.001409   0.000209
    16  H    0.003253  -0.009437  -0.009003   0.419363  -0.006591   0.001923
    17  H   -0.006196   0.004867   0.001409  -0.006591   0.421366  -0.010054
    18  H   -0.010371  -0.012138   0.000209   0.001923  -0.010054   0.454181
    19  H    0.068580  -0.062208   0.000331  -0.000526   0.001348  -0.005801
    20  H   -0.009053  -0.049788  -0.000116   0.000015  -0.000143   0.001288
    21  H   -0.025593   0.084671   0.000014  -0.000007   0.000010  -0.000143
    22  H    0.030946  -0.037987  -0.000126   0.000007  -0.000007   0.000015
    23  H   -0.023057  -0.020593   0.000617  -0.000126   0.000014  -0.000116
    24  H    0.019393  -0.072324  -0.000503   0.000524  -0.000102   0.000198
    25  H    0.005672  -0.045792  -0.001289   0.000755  -0.000181   0.000178
              19         20         21         22         23         24
     1  C   -0.045972   0.007765  -0.001333   0.000775   0.005888   0.043370
     2  C   -0.007760   0.001815  -0.000396   0.000378  -0.002694   0.013403
     3  C    0.050555  -0.004962   0.000406  -0.000351   0.001189  -0.001136
     4  C   -0.063876   0.008476   0.000368  -0.001651   0.005949  -0.011803
     5  C   -0.063876   0.448892  -0.062972   0.013957   0.024017  -0.011803
     6  C    0.050555  -0.086475   0.371998  -0.014836  -0.002522  -0.001136
     7  C   -0.007760   0.003990  -0.019135   0.378781  -0.101188   0.013403
     8  C   -0.045972   0.047724  -0.020811  -0.019866   0.362635   0.043370
     9  C    0.075277  -0.027387  -0.004566   0.004334   0.085869   0.346506
    10  C    0.422092   0.018677   0.019445  -0.010523  -0.008919   0.004846
    11  C    0.068580  -0.010371  -0.006196   0.003253  -0.000196   0.019393
    12  C   -0.062208  -0.012138   0.004867  -0.009437   0.006924  -0.072324
    13  C    0.068580  -0.009053  -0.025593   0.030946  -0.023057   0.019393
    14  C   -0.062208  -0.049788   0.084671  -0.037987  -0.020593  -0.072324
    15  H    0.000331  -0.000116   0.000014  -0.000126   0.000617  -0.000503
    16  H   -0.000526   0.000015  -0.000007   0.000007  -0.000126   0.000524
    17  H    0.001348  -0.000143   0.000010  -0.000007   0.000014  -0.000102
    18  H   -0.005801   0.001288  -0.000143   0.000015  -0.000116   0.000198
    19  H    0.441345  -0.005801   0.001348  -0.000526   0.000331   0.000567
    20  H   -0.005801   0.454181  -0.010054   0.001923   0.000209   0.000198
    21  H    0.001348  -0.010054   0.421366  -0.006591   0.001409  -0.000102
    22  H   -0.000526   0.001923  -0.006591   0.419363  -0.009003   0.000524
    23  H    0.000331   0.000209   0.001409  -0.009003   0.438527  -0.000503
    24  H    0.000567   0.000198  -0.000102   0.000524  -0.000503   0.494914
    25  H    0.000523   0.000178  -0.000181   0.000755  -0.001289  -0.079756
              25
     1  C    0.024729
     2  C    0.015435
     3  C   -0.002232
     4  C   -0.011568
     5  C   -0.011568
     6  C   -0.002232
     7  C    0.015435
     8  C    0.024729
     9  C    0.362634
    10  C    0.004738
    11  C    0.005672
    12  C   -0.045792
    13  C    0.005672
    14  C   -0.045792
    15  H   -0.001289
    16  H    0.000755
    17  H   -0.000181
    18  H    0.000178
    19  H    0.000523
    20  H    0.000178
    21  H   -0.000181
    22  H    0.000755
    23  H   -0.001289
    24  H   -0.079756
    25  H    0.494634
 Mulliken charges:
               1
     1  C    0.093742
     2  C   -0.414910
     3  C   -0.441977
     4  C    0.034643
     5  C    0.034643
     6  C   -0.441977
     7  C   -0.414910
     8  C    0.093742
     9  C   -0.335610
    10  C    0.100649
    11  C   -0.601901
    12  C    0.638452
    13  C   -0.601901
    14  C    0.638452
    15  H    0.236628
    16  H    0.255895
    17  H    0.252178
    18  H    0.220957
    19  H    0.190855
    20  H    0.220957
    21  H    0.252178
    22  H    0.255895
    23  H    0.236628
    24  H    0.250879
    25  H    0.245812
 Sum of Mulliken charges =   1.00000
 Mulliken charges with hydrogens summed into heavy atoms:
               1
     1  C    0.330370
     2  C   -0.159015
     3  C   -0.189799
     4  C    0.255600
     5  C    0.255600
     6  C   -0.189799
     7  C   -0.159015
     8  C    0.330370
     9  C    0.161081
    10  C    0.291504
    11  C   -0.601901
    12  C    0.638452
    13  C   -0.601901
    14  C    0.638452
 Electronic spatial extent (au):  <R**2>=           2848.1845
 Charge=              1.0000 electrons
 Dipole moment (field-independent basis, Debye):
    X=              0.1830    Y=             -0.0004    Z=             -0.0000  Tot=              0.1830
 Quadrupole moment (field-independent basis, Debye-Ang):
   XX=            -56.2630   YY=            -84.0774   ZZ=            -31.2897
   XY=              0.0961   XZ=             -0.0000   YZ=             -0.0000
 Traceless Quadrupole moment (field-independent basis, Debye-Ang):
   XX=              0.9470   YY=            -26.8674   ZZ=             25.9203
   XY=              0.0961   XZ=             -0.0000   YZ=             -0.0000
 Octapole moment (field-independent basis, Debye-Ang**2):
  XXX=              5.2011  YYY=             -0.0282  ZZZ=             -0.0000  XYY=             -3.0942
  XXY=              0.1090  XXZ=              0.0000  XZZ=             -5.8288  YZZ=              0.1590
  YYZ=             -0.0000  XYZ=             -0.0000
 Hexadecapole moment (field-independent basis, Debye-Ang**3):
 XXXX=           -609.2969 YYYY=            -99.1706 ZZZZ=          -2119.2751 XXXY=              1.0614
 XXXZ=              0.0000 YYYX=              0.0384 YYYZ=             -0.0000 ZZZX=              0.0000
 ZZZY=             -0.0000 XXYY=           -145.6220 XXZZ=           -506.3913 YYZZ=           -588.5759
 XXYZ=             -0.0000 YYXZ=              0.0000 ZZXY=              1.0228
 N-N= 7.821043742309D+02 E-N=-2.800600800948D+03  KE= 5.375643672625D+02
 Symmetry A'   KE= 3.038159799459D+02
 Symmetry A"   KE= 2.337483873166D+02
 Unable to Open any file for archive entry.
 1\1\GINC-GADI-CPU-CLX-0113\SP\RM062X TD-FC\6-311++G(d,p)\C14H11(1+)\TS
 1578\28-Jul-2022\0\\#n M062X/6-311++G(d,p) TD(NStates=1) EmpiricalDisp
 ersion=GD3 SP\\SP_50\\1,1\C,0,-0.0137,2.493255,1.360431\C,0,-0.01645,3
 .694458,0.671989\C,0,-0.0046,3.671461,-0.71383\C,0,0.0156,2.454056,-1.
 407538\C,0,0.0156,-2.454056,-1.407538\C,0,-0.0046,-3.671461,-0.71383\C
 ,0,-0.01645,-3.694458,0.671989\C,0,-0.0137,-2.493255,1.360431\C,0,-0.0
 0875,0.,1.453369\C,0,0.0244,0.,-1.429189\C,0,0.00365,1.269705,0.677065
 \C,0,0.01,1.236271,-0.730804\C,0,0.00365,-1.269705,0.677065\C,0,0.01,-
 1.236271,-0.730804\H,0,-0.0042,2.488521,2.443647\H,0,-0.01665,4.631003
 ,1.211689\H,0,0.0029,4.609712,-1.272349\H,0,0.0073,2.4587,-2.490059\H,
 0,0.0225,0.,-2.510266\H,0,0.0073,-2.4587,-2.490059\H,0,0.0029,-4.60971
 2,-1.272349\H,0,-0.01665,-4.631003,1.211689\H,0,-0.0042,-2.488521,2.44
 3647\H,0,-0.891585,0.,2.145787\H,0,0.827585,0.,2.145787\\Version=ES64L
 -G16RevC.01\State=1-A'\HF=-539.7595449\RMSD=4.739e-09\PG=CS [SG(C2H3),
 X(C12H8)]\\@
 The archive entry for this job was punched.


 TIME IS IN FACT THE HERO OF THE PLOT. THE TIME
 WITH WHICH WE HAVE TO DEAL IS OF THE ORDER OF TWO
 BILLION YEARS...GIVEN SO MUCH TIME, THE "IMPOSSIBLE"
 BECOMES POSSIBLE, THE POSSIBLE PROBABLE, THE PROBABLE
 VIRTUALLY CERTAIN.  ONE HAS ONLY TO WAIT, TIME
 ITSELF PERFORMS THE MIRACLES.
 "ORIGIN OF LIFE" LECTURES, GEORGE WALD, 1954
 Job cpu time:       0 days  0 hours 42 minutes 37.2 seconds.
 Elapsed time:       0 days  0 hours  0 minutes 53.4 seconds.
 File lengths (MBytes):  RWF=    460 Int=      0 D2E=      0 Chk=     15 Scr=      1
 Normal termination of Gaussian 16 at Thu Jul 28 15:46:19 2022.
