 Entering Gaussian System, Link 0=g16
 Initial command:
 /apps/gaussian/g16c01/g16/l1.exe "/jobfs/53002009.gadi-pbs/Gau-719663.inp" -scrdir="/jobfs/53002009.gadi-pbs/"
 Entering Link 1 = /apps/gaussian/g16c01/g16/l1.exe PID=    719664.
  
 Copyright (c) 1988-2019, Gaussian, Inc.  All Rights Reserved.
  
 This is part of the Gaussian(R) 16 program.  It is based on
 the Gaussian(R) 09 system (copyright 2009, Gaussian, Inc.),
 the Gaussian(R) 03 system (copyright 2003, Gaussian, Inc.),
 the Gaussian(R) 98 system (copyright 1998, Gaussian, Inc.),
 the Gaussian(R) 94 system (copyright 1995, Gaussian, Inc.),
 the Gaussian 92(TM) system (copyright 1992, Gaussian, Inc.),
 the Gaussian 90(TM) system (copyright 1990, Gaussian, Inc.),
 the Gaussian 88(TM) system (copyright 1988, Gaussian, Inc.),
 the Gaussian 86(TM) system (copyright 1986, Carnegie Mellon
 University), and the Gaussian 82(TM) system (copyright 1983,
 Carnegie Mellon University). Gaussian is a federally registered
 trademark of Gaussian, Inc.
  
 This software contains proprietary and confidential information,
 including trade secrets, belonging to Gaussian, Inc.
  
 This software is provided under written license and may be
 used, copied, transmitted, or stored only in accord with that
 written license.
  
 The following legend is applicable only to US Government
 contracts under FAR:
  
                    RESTRICTED RIGHTS LEGEND
  
 Use, reproduction and disclosure by the US Government is
 subject to restrictions as set forth in subparagraphs (a)
 and (c) of the Commercial Computer Software - Restricted
 Rights clause in FAR 52.227-19.
  
 Gaussian, Inc.
 340 Quinnipiac St., Bldg. 40, Wallingford CT 06492
  
  
 ---------------------------------------------------------------
 Warning -- This program may not be used in any manner that
 competes with the business of Gaussian, Inc. or will provide
 assistance to any competitor of Gaussian, Inc.  The licensee
 of this program is prohibited from giving any competitor of
 Gaussian, Inc. access to this program.  By using this program,
 the user acknowledges that Gaussian, Inc. is engaged in the
 business of creating and licensing software in the field of
 computational chemistry and represents and warrants to the
 licensee that it is not a competitor of Gaussian, Inc. and that
 it will not use this program in any manner prohibited above.
 ---------------------------------------------------------------
  

 Cite this work as:
 Gaussian 16, Revision C.01,
 M. J. Frisch, G. W. Trucks, H. B. Schlegel, G. E. Scuseria, 
 M. A. Robb, J. R. Cheeseman, G. Scalmani, V. Barone, 
 G. A. Petersson, H. Nakatsuji, X. Li, M. Caricato, A. V. Marenich, 
 J. Bloino, B. G. Janesko, R. Gomperts, B. Mennucci, H. P. Hratchian, 
 J. V. Ortiz, A. F. Izmaylov, J. L. Sonnenberg, D. Williams-Young, 
 F. Ding, F. Lipparini, F. Egidi, J. Goings, B. Peng, A. Petrone, 
 T. Henderson, D. Ranasinghe, V. G. Zakrzewski, J. Gao, N. Rega, 
 G. Zheng, W. Liang, M. Hada, M. Ehara, K. Toyota, R. Fukuda, 
 J. Hasegawa, M. Ishida, T. Nakajima, Y. Honda, O. Kitao, H. Nakai, 
 T. Vreven, K. Throssell, J. A. Montgomery, Jr., J. E. Peralta, 
 F. Ogliaro, M. J. Bearpark, J. J. Heyd, E. N. Brothers, K. N. Kudin, 
 V. N. Staroverov, T. A. Keith, R. Kobayashi, J. Normand, 
 K. Raghavachari, A. P. Rendell, J. C. Burant, S. S. Iyengar, 
 J. Tomasi, M. Cossi, J. M. Millam, M. Klene, C. Adamo, R. Cammi, 
 J. W. Ochterski, R. L. Martin, K. Morokuma, O. Farkas, 
 J. B. Foresman, and D. J. Fox, Gaussian, Inc., Wallingford CT, 2019.
 
 ******************************************
 Gaussian 16:  ES64L-G16RevC.01  3-Jul-2019
                28-Jul-2022 
 ******************************************
 %NProcShared=48
 Will use up to   48 processors via shared memory.
 %mem = 190GB
 ---------------------------------------------------------------
 #n M062X/6-311++G(d,p) TD(NStates=1) EmpiricalDispersion=GD3 SP
 ---------------------------------------------------------------
 1/38=1,172=1/1;
 2/12=2,17=6,18=5,40=1/2;
 3/5=4,6=6,7=1111,11=9,25=1,30=1,74=-55,124=31/1,2,3,8;
 4//1;
 5/5=2,38=5/2;
 8/6=1,10=2,108=1/1;
 9/41=1,42=1,70=2/14;
 6/7=2,8=2,9=2,10=2/1;
 99/5=1,9=1/99;
 -------
 SP_-125
 -------
 Symbolic Z-matrix:
 Charge =  1 Multiplicity = 1
 C                     0.00695   2.49325   1.36043 
 C                     0.01067   3.70741   0.67199 
 C                     0.0024    3.69491  -0.71383 
 C                    -0.01187   2.47033  -1.40754 
 C                    -0.01152  -2.46963  -1.40754 
 C                     0.0045   -3.69141  -0.71383 
 C                     0.014    -3.70618   0.67199 
 C                     0.0136   -2.49116   1.36043 
 C                     0.00665  -0.0077    1.45337 
 C                    -0.0183    0.00035  -1.42919 
 C                    -0.003     1.25623   0.67707 
 C                    -0.0068    1.23785  -0.7308 
 C                    -0.00248  -1.2564    0.67707 
 C                    -0.0082   -1.2389   -0.7308 
 H                    -0.0007    2.48887   2.44365 
 H                     0.01048   4.64238   1.21169 
 H                    -0.0027    4.61111  -1.27235 
 H                    -0.00495   2.47445  -2.49006 
 H                    -0.01688   0.00018  -2.51027 
 H                    -0.006    -2.47392  -2.49006 
 H                    -0.00165  -4.60674  -1.27235 
 H                     0.0145   -4.63975   1.21169 
 H                     0.007    -2.4866    2.44365 
 H                    -0.83559  -0.00175   2.14771 
 H                     0.88359  -0.00175   2.14386 
 
                          Input orientation:                          
 ---------------------------------------------------------------------
 Center     Atomic      Atomic             Coordinates (Angstroms)
 Number     Number       Type             X           Y           Z
 ---------------------------------------------------------------------
      1          6           0        0.006950    2.493255    1.360431
      2          6           0        0.010675    3.707408    0.671989
      3          6           0        0.002400    3.694911   -0.713830
      4          6           0       -0.011875    2.470331   -1.407538
      5          6           0       -0.011525   -2.469631   -1.407538
      6          6           0        0.004500   -3.691411   -0.713830
      7          6           0        0.014000   -3.706183    0.671989
      8          6           0        0.013600   -2.491155    1.360431
      9          6           0        0.006650   -0.007700    1.453369
     10          6           0       -0.018300    0.000350   -1.429189
     11          6           0       -0.003000    1.256230    0.677065
     12          6           0       -0.006800    1.237846   -0.730804
     13          6           0       -0.002475   -1.256405    0.677065
     14          6           0       -0.008200   -1.238896   -0.730804
     15          1           0       -0.000700    2.488871    2.443647
     16          1           0        0.010475    4.642378    1.211689
     17          1           0       -0.002700    4.611112   -1.272349
     18          1           0       -0.004950    2.474450   -2.490059
     19          1           0       -0.016875    0.000175   -2.510266
     20          1           0       -0.006000   -2.473925   -2.490059
     21          1           0       -0.001650   -4.606737   -1.272349
     22          1           0        0.014500   -4.639753    1.211689
     23          1           0        0.007000   -2.486596    2.443647
     24          1           0       -0.835585   -0.001750    2.147712
     25          1           0        0.883585   -0.001750    2.143862
 ---------------------------------------------------------------------
                    Distance matrix (angstroms):
                    1          2          3          4          5
     1  C    0.000000
     2  C    1.395756   0.000000
     3  C    2.397198   1.385900   0.000000
     4  C    2.768128   2.419773   1.407491   0.000000
     5  C    5.682625   6.517725   6.203467   4.939962   0.000000
     6  C    6.523240   7.527487   7.386322   6.200691   1.405074
     7  C    6.237550   7.413592   7.529729   6.517241   2.419534
     8  C    4.984414   6.236677   6.524576   5.681430   2.768167
     9  C    2.502681   3.796393   4.290233   3.784940   3.774417
    10  C    3.741282   4.261228   3.763236   2.470084   2.470085
    11  C    1.413265   2.451221   2.807451   2.412403   4.269389
    12  C    2.439161   2.840224   2.457141   1.406063   3.768737
    13  C    3.811434   4.963833   5.142970   4.270154   2.411964
    14  C    4.278136   5.141411   4.933848   3.770457   1.404524
    15  H    1.083252   2.150287   3.379971   3.851246   6.278414
    16  H    2.154267   1.079558   2.146015   3.402740   7.579017
    17  H    3.378897   2.144134   1.073030   2.145065   7.082039
    18  H    3.850554   3.393962   2.155126   1.082551   5.061209
    19  H    4.604162   4.885804   4.108361   2.705126   2.704807
    20  H    6.284848   6.943177   6.419470   5.061379   1.082544
    21  H    7.572416   8.538478   8.320416   7.078366   2.141400
    22  H    7.134563   8.364591   8.554203   7.577225   3.401537
    23  H    5.096300   6.442396   6.941233   6.277189   3.851267
    24  H    2.748586   4.080658   4.749310   4.407889   4.405600
    25  H    2.758134   4.084879   4.754807   4.418764   4.416345
                    6          7          8          9         10
     6  C    0.000000
     7  C    1.385930   0.000000
     8  C    2.396509   1.396512   0.000000
     9  C    4.273931   3.780130   2.485203   0.000000
    10  C    3.760500   4.260796   3.740400   2.882677   0.000000
    11  C    5.139435   4.962445   3.809220   1.483327   2.452300
    12  C    4.929299   5.139230   4.275410   2.514394   1.421010
    13  C    2.804263   2.449839   1.411331   1.470373   2.452751
    14  C    2.452607   2.838279   2.437600   2.507324   1.422524
    15  H    6.940142   6.443422   5.096491   2.685809   4.603467
    16  H    8.553344   8.365988   7.135084   4.656356   5.340739
    17  H    8.321291   8.541553   7.574562   5.363119   4.613455
    18  H    6.416613   6.942559   6.283618   4.659595   2.691987
    19  H    4.105539   4.885160   4.603254   3.963713   1.081078
    20  H    2.153456   3.393731   3.850578   4.651134   2.692143
    21  H    1.072289   2.142824   3.377492   5.346097   4.609786
    22  H    2.146410   1.078346   2.153741   4.638360   5.339089
    23  H    3.379533   2.150863   1.083246   2.669377   4.602651
    24  H    4.744235   4.077055   2.745553   1.091562   3.669084
    25  H    4.748978   4.079879   2.750959   1.116168   3.685118
                   11         12         13         14         15
    11  C    0.000000
    12  C    1.407994   0.000000
    13  C    2.512635   2.864158   0.000000
    14  C    2.864922   2.476742   1.407990   0.000000
    15  H    2.154117   3.412073   4.141003   4.896268   0.000000
    16  H    3.428119   3.919747   5.922975   6.193788   2.481015
    17  H    3.880135   3.416462   6.182877   5.875023   4.279315
    18  H    3.393337   2.150389   4.893870   4.109006   4.933729
    19  H    3.425923   2.167583   3.426117   2.168377   5.543927
    20  H    4.893336   4.107581   3.393087   2.149484   6.997916
    21  H    6.178560   5.869621   3.876202   3.411109   8.009762
    22  H    5.920198   6.190307   3.425369   3.916583   7.234309
    23  H    4.138799   4.893751   2.152736   3.410883   4.975473
    24  H    2.106778   3.241811   2.105002   3.240517   2.643445
    25  H    2.126039   3.254702   2.123854   3.254154   2.659892
                   16         17         18         19         20
    16  H    0.000000
    17  H    2.484270   0.000000
    18  H    4.289882   2.459298   0.000000
    19  H    5.950105   4.774241   2.474386   0.000000
    20  H    8.021532   7.188920   4.948375   2.474206   0.000000
    21  H    9.576885   9.217849   7.185126   4.770357   2.455957
    22  H    9.282132   9.578583   8.019676   5.948350   4.288842
    23  H    7.234639   8.011628   6.996683   5.543091   4.933739
    24  H    4.812471   5.802500   5.322635   4.729381   5.320600
    25  H    4.816554   5.808140   5.328629   4.740437   5.326935
                   21         22         23         24         25
    21  H    0.000000
    22  H    2.484310   0.000000
    23  H    4.278282   2.480698   0.000000
    24  H    5.796393   4.807271   2.640452   0.000000
    25  H    5.801728   4.809920   2.651930   1.719174   0.000000
 Stoichiometry    C14H11(1+)
 Framework group  C1[X(C14H11)]
 Deg. of freedom    69
 Full point group                 C1      NOp   1
 Largest Abelian subgroup         C1      NOp   1
 Largest concise Abelian subgroup C1      NOp   1
                         Standard orientation:                         
 ---------------------------------------------------------------------
 Center     Atomic      Atomic             Coordinates (Angstroms)
 Number     Number       Type             X           Y           Z
 ---------------------------------------------------------------------
      1          6           0       -2.493049   -1.360821   -0.001250
      2          6           0       -3.707302   -0.672602    0.007510
      3          6           0       -3.695014    0.713244    0.008351
      4          6           0       -2.470542    1.407215   -0.001866
      5          6           0        2.469419    1.407957   -0.003567
      6          6           0        3.691309    0.714343    0.007384
      7          6           0        3.706290   -0.671506    0.007757
      8          6           0        2.491363   -1.360114    0.003331
      9          6           0        0.007920   -1.453378   -0.003200
     10          6           0       -0.000567    1.429280   -0.009174
     11          6           0       -1.256129   -0.677218   -0.007216
     12          6           0       -1.237955    0.730648   -0.001757
     13          6           0        1.256506   -0.676843   -0.007734
     14          6           0        1.238786    0.731031   -0.004185
     15          1           0       -2.488508   -2.443963   -0.016031
     16          1           0       -4.642192   -1.212430    0.004146
     17          1           0       -4.611299    1.271646    0.007307
     18          1           0       -2.474819    2.489667    0.012185
     19          1           0       -0.000552    2.510324   -0.000634
     20          1           0        2.473556    2.490419    0.009081
     21          1           0        4.606549    1.273028    0.004530
     22          1           0        4.639940   -1.211057    0.004317
     23          1           0        2.486962   -2.443264   -0.010397
     24          1           0        0.001722   -2.142164   -0.849984
     25          1           0        0.002437   -2.149629    0.869174
 ---------------------------------------------------------------------
 Rotational constants (GHZ):           2.1360654           0.4433814           0.3679685
 Standard basis: 6-311++G(d,p) (5D, 7F)
 There are   399 symmetry adapted cartesian basis functions of A   symmetry.
 There are   385 symmetry adapted basis functions of A   symmetry.
   385 basis functions,   603 primitive gaussians,   399 cartesian basis functions
    47 alpha electrons       47 beta electrons
       nuclear repulsion energy       780.4975553277 Hartrees.
 NAtoms=   25 NActive=   25 NUniq=   25 SFac= 1.00D+00 NAtFMM=   60 NAOKFM=F Big=F
 Integral buffers will be    131072 words long.
 Regular integral format.
 Two-electron integral symmetry is turned on.
 Nuclear repulsion after empirical dispersion term =      780.4965755932 Hartrees.
 One-electron integrals computed using PRISM.
 NBasis=   385 RedAO= T EigKep=  1.17D-06  NBF=   385
 NBsUse=   379 1.00D-06 EigRej=  8.59D-07 NBFU=   379
 ExpMin= 3.60D-02 ExpMax= 4.56D+03 ExpMxC= 6.82D+02 IAcc=3 IRadAn=         5 AccDes= 0.00D+00
 Harris functional with IExCor= 1009 and IRadAn=       5 diagonalized for initial guess.
 HarFok:  IExCor= 1009 AccDes= 0.00D+00 IRadAn=         5 IDoV= 1 UseB2=F ITyADJ=14
 ICtDFT=  3500011 ScaDFX=  1.000000  1.000000  1.000000  1.000000
 FoFCou: FMM=F IPFlag=           0 FMFlag=      100000 FMFlg1=           0
         NFxFlg=           0 DoJE=T BraDBF=F KetDBF=T FulRan=T
         wScrn=  0.000000 ICntrl=       500 IOpCl=  0 I1Cent=   200000004 NGrid=           0
         NMat0=    1 NMatS0=      1 NMatT0=    0 NMatD0=    1 NMtDS0=    0 NMtDT0=    0
 Petite list used in FoFCou.
 Requested convergence on RMS density matrix=1.00D-08 within 128 cycles.
 Requested convergence on MAX density matrix=1.00D-06.
 Requested convergence on             energy=1.00D-06.
 No special actions if energy rises.
 SCF Done:  E(RM062X) =  -539.759276892     A.U. after   15 cycles
            NFock= 15  Conv=0.46D-08     -V/T= 2.0043
 DoSCS=F DFT=T ScalE2(SS,OS)=  1.000000  1.000000
 ExpMin= 3.60D-02 ExpMax= 4.56D+03 ExpMxC= 6.82D+02 IAcc=3 IRadAn=         5 AccDes= 0.00D+00
 HarFok:  IExCor=  205 AccDes= 0.00D+00 IRadAn=         5 IDoV=-2 UseB2=F ITyADJ=14
 ICtDFT= 12500011 ScaDFX=  1.000000  1.000000  1.000000  1.000000
 Range of M.O.s used for correlation:    15   379
 NBasis=   385 NAE=    47 NBE=    47 NFC=    14 NFV=     0
 NROrb=    365 NOA=    33 NOB=    33 NVA=   332 NVB=   332

 **** Warning!!: The largest alpha MO coefficient is  0.14984860D+03

 Orbital symmetries:
       Occupied  (A) (A) (A) (A) (A) (A) (A) (A) (A) (A) (A) (A)
                 (A) (A) (A) (A) (A) (A) (A) (A) (A) (A) (A) (A)
                 (A) (A) (A) (A) (A) (A) (A) (A) (A) (A) (A) (A)
                 (A) (A) (A) (A) (A) (A) (A) (A) (A) (A) (A)
       Virtual   (A) (A) (A) (A) (A) (A) (A) (A) (A) (A) (A) (A)
                 (A) (A) (A) (A) (A) (A) (A) (A) (A) (A) (A) (A)
                 (A) (A) (A) (A) (A) (A) (A) (A) (A) (A) (A) (A)
                 (A) (A) (A) (A) (A) (A) (A) (A) (A) (A) (A) (A)
                 (A) (A) (A) (A) (A) (A) (A) (A) (A) (A) (A) (A)
                 (A) (A) (A) (A) (A) (A) (A) (A) (A) (A) (A) (A)
                 (A) (A) (A) (A) (A) (A) (A) (A) (A) (A) (A) (A)
                 (A) (A) (A) (A) (A) (A) (A) (A) (A) (A) (A) (A)
                 (A) (A) (A) (A) (A) (A) (A) (A) (A) (A) (A) (A)
                 (A) (A) (A) (A) (A) (A) (A) (A) (A) (A) (A) (A)
                 (A) (A) (A) (A) (A) (A) (A) (A) (A) (A) (A) (A)
                 (A) (A) (A) (A) (A) (A) (A) (A) (A) (A) (A) (A)
                 (A) (A) (A) (A) (A) (A) (A) (A) (A) (A) (A) (A)
                 (A) (A) (A) (A) (A) (A) (A) (A) (A) (A) (A) (A)
                 (A) (A) (A) (A) (A) (A) (A) (A) (A) (A) (A) (A)
                 (A) (A) (A) (A) (A) (A) (A) (A) (A) (A) (A) (A)
                 (A) (A) (A) (A) (A) (A) (A) (A) (A) (A) (A) (A)
                 (A) (A) (A) (A) (A) (A) (A) (A) (A) (A) (A) (A)
                 (A) (A) (A) (A) (A) (A) (A) (A) (A) (A) (A) (A)
                 (A) (A) (A) (A) (A) (A) (A) (A) (A) (A) (A) (A)
                 (A) (A) (A) (A) (A) (A) (A) (A) (A) (A) (A) (A)
                 (A) (A) (A) (A) (A) (A) (A) (A) (A) (A) (A) (A)
                 (A) (A) (A) (A) (A) (A) (A) (A) (A) (A) (A) (A)
                 (A) (A) (A) (A) (A) (A) (A) (A) (A) (A) (A) (A)
                 (A) (A) (A) (A) (A) (A) (A) (A) (A) (A) (A) (A)
                 (A) (A) (A) (A) (A) (A) (A) (A) (A) (A) (A) (A)
                 (A) (A) (A) (A) (A) (A) (A) (A) (A) (A) (A) (A)
                 (A) (A) (A) (A) (A) (A) (A) (A)
     4 initial guesses have been made.
 Convergence on wavefunction:    0.001000000000000
 Iteration     1 Dimension     4 NMult     0 NNew      4
 CISAX will form     4 AO SS matrices at one time.
 Iteration     2 Dimension     6 NMult     4 NNew      2
 Iteration     3 Dimension     8 NMult     6 NNew      2
 Iteration     4 Dimension    10 NMult     8 NNew      2
 Iteration     5 Dimension    12 NMult    10 NNew      2
 Iteration     6 Dimension    14 NMult    12 NNew      2
 ***********************************************************************
 Excited states from <AA,BB:AA,BB> singles matrix:
 ***********************************************************************
 
 Ground to excited state transition densities written to RWF  633
 Ground to excited state transition electric dipole moments (Au):
       state          X           Y           Z        Dip. S.      Osc.
         1         0.0103     -0.6392      0.0028      0.4087      0.0281
 Ground to excited state transition velocity dipole moments (Au):
       state          X           Y           Z        Dip. S.      Osc.
         1        -0.0011      0.0737     -0.0003      0.0054      0.0351
 Ground to excited state transition magnetic dipole moments (Au):
       state          X           Y           Z
         1        -0.0041      0.0007     -0.0002
 Ground to excited state transition velocity quadrupole moments (Au):
       state          XX          YY          ZZ          XY          XZ          YZ
         1         0.3056      0.0332     -0.0097     -0.0015     -0.0001      0.0004
 <0|del|b> * <b|rxdel|0> + <0|del|b> * <b|delr+rdel|0>
 Rotatory Strengths (R) in cgs (10**-40 erg-esu-cm/Gauss)
       state          XX          YY          ZZ    R(velocity)    E-M Angle
         1         0.2058      0.0121      0.1782      0.1320       90.00
 1/2[<0|r|b>*<b|rxdel|0> + (<0|rxdel|b>*<b|r|0>)*]
 Rotatory Strengths (R) in cgs (10**-40 erg-esu-cm/Gauss)
       state          XX          YY          ZZ     R(length)
         1         0.0295      0.3270      0.0004      0.1190
  1/2[<0|del|b>*<b|r|0> + (<0|r|b>*<b|del|0>)*] (Au)
       state          X           Y           Z        Dip. S.   Osc.(frdel)
         1        -0.0000     -0.0471     -0.0000      0.0471      0.0314

 Excitation energies and oscillator strengths:
 
 Excited State   1:      Singlet-A      2.8099 eV  441.25 nm  f=0.0281  <S**2>=0.000
      47 -> 48         0.70427
 This state for optimization and/or second-order correction.
 Total Energy, E(TD-HF/TD-DFT) =  -539.656016056    
 Copying the excited state density for this state as the 1-particle RhoCI density.
 SavETr:  write IOETrn=   770 NScale= 10 NData=  16 NLR=1 NState=    1 LETran=      28.

 **********************************************************************

            Population analysis using the SCF Density.

 **********************************************************************

 Orbital symmetries:
       Occupied  (A) (A) (A) (A) (A) (A) (A) (A) (A) (A) (A) (A)
                 (A) (A) (A) (A) (A) (A) (A) (A) (A) (A) (A) (A)
                 (A) (A) (A) (A) (A) (A) (A) (A) (A) (A) (A) (A)
                 (A) (A) (A) (A) (A) (A) (A) (A) (A) (A) (A)
       Virtual   (A) (A) (A) (A) (A) (A) (A) (A) (A) (A) (A) (A)
                 (A) (A) (A) (A) (A) (A) (A) (A) (A) (A) (A) (A)
                 (A) (A) (A) (A) (A) (A) (A) (A) (A) (A) (A) (A)
                 (A) (A) (A) (A) (A) (A) (A) (A) (A) (A) (A) (A)
                 (A) (A) (A) (A) (A) (A) (A) (A) (A) (A) (A) (A)
                 (A) (A) (A) (A) (A) (A) (A) (A) (A) (A) (A) (A)
                 (A) (A) (A) (A) (A) (A) (A) (A) (A) (A) (A) (A)
                 (A) (A) (A) (A) (A) (A) (A) (A) (A) (A) (A) (A)
                 (A) (A) (A) (A) (A) (A) (A) (A) (A) (A) (A) (A)
                 (A) (A) (A) (A) (A) (A) (A) (A) (A) (A) (A) (A)
                 (A) (A) (A) (A) (A) (A) (A) (A) (A) (A) (A) (A)
                 (A) (A) (A) (A) (A) (A) (A) (A) (A) (A) (A) (A)
                 (A) (A) (A) (A) (A) (A) (A) (A) (A) (A) (A) (A)
                 (A) (A) (A) (A) (A) (A) (A) (A) (A) (A) (A) (A)
                 (A) (A) (A) (A) (A) (A) (A) (A) (A) (A) (A) (A)
                 (A) (A) (A) (A) (A) (A) (A) (A) (A) (A) (A) (A)
                 (A) (A) (A) (A) (A) (A) (A) (A) (A) (A) (A) (A)
                 (A) (A) (A) (A) (A) (A) (A) (A) (A) (A) (A) (A)
                 (A) (A) (A) (A) (A) (A) (A) (A) (A) (A) (A) (A)
                 (A) (A) (A) (A) (A) (A) (A) (A) (A) (A) (A) (A)
                 (A) (A) (A) (A) (A) (A) (A) (A) (A) (A) (A) (A)
                 (A) (A) (A) (A) (A) (A) (A) (A) (A) (A) (A) (A)
                 (A) (A) (A) (A) (A) (A) (A) (A) (A) (A) (A) (A)
                 (A) (A) (A) (A) (A) (A) (A) (A) (A) (A) (A) (A)
                 (A) (A) (A) (A) (A) (A) (A) (A) (A) (A) (A) (A)
                 (A) (A) (A) (A) (A) (A) (A) (A) (A) (A) (A) (A)
                 (A) (A) (A) (A) (A) (A) (A) (A) (A) (A) (A) (A)
                 (A) (A) (A) (A) (A) (A) (A) (A)
 The electronic state is 1-A.
 Alpha  occ. eigenvalues --  -10.77660 -10.73313 -10.73216 -10.72501 -10.72496
 Alpha  occ. eigenvalues --  -10.71473 -10.71421 -10.71060 -10.71043 -10.70982
 Alpha  occ. eigenvalues --  -10.70075 -10.70038 -10.69628 -10.69581  -1.16394
 Alpha  occ. eigenvalues --   -1.12307  -1.06863  -1.05782  -1.01166  -1.00196
 Alpha  occ. eigenvalues --   -0.95723  -0.91070  -0.86412  -0.85874  -0.83809
 Alpha  occ. eigenvalues --   -0.78391  -0.76015  -0.74386  -0.69571  -0.69287
 Alpha  occ. eigenvalues --   -0.68560  -0.68235  -0.68139  -0.64622  -0.64185
 Alpha  occ. eigenvalues --   -0.63148  -0.61965  -0.59944  -0.59561  -0.59132
 Alpha  occ. eigenvalues --   -0.56917  -0.55257  -0.54879  -0.52376  -0.46522
 Alpha  occ. eigenvalues --   -0.46052  -0.44430
 Alpha virt. eigenvalues --   -0.26075  -0.14757  -0.14119  -0.12869  -0.11178
 Alpha virt. eigenvalues --   -0.10082  -0.09218  -0.07996  -0.07944  -0.07471
 Alpha virt. eigenvalues --   -0.07213  -0.07147  -0.05645  -0.05582  -0.05348
 Alpha virt. eigenvalues --   -0.03802  -0.03640  -0.03282  -0.03134  -0.02161
 Alpha virt. eigenvalues --   -0.01361  -0.00916   0.00191   0.00626   0.00687
 Alpha virt. eigenvalues --    0.01047   0.01513   0.01913   0.02208   0.02291
 Alpha virt. eigenvalues --    0.02434   0.02657   0.02705   0.03306   0.03388
 Alpha virt. eigenvalues --    0.04247   0.04502   0.04689   0.04988   0.05358
 Alpha virt. eigenvalues --    0.06030   0.06289   0.06596   0.07039   0.07233
 Alpha virt. eigenvalues --    0.07872   0.08091   0.08361   0.08500   0.08933
 Alpha virt. eigenvalues --    0.09556   0.09569   0.10031   0.10803   0.11033
 Alpha virt. eigenvalues --    0.11117   0.12197   0.12268   0.12892   0.13012
 Alpha virt. eigenvalues --    0.13406   0.13534   0.14024   0.14303   0.16127
 Alpha virt. eigenvalues --    0.16301   0.16505   0.17375   0.17591   0.17726
 Alpha virt. eigenvalues --    0.18105   0.18993   0.19191   0.19605   0.19715
 Alpha virt. eigenvalues --    0.21491   0.21533   0.22724   0.23125   0.23562
 Alpha virt. eigenvalues --    0.23649   0.24556   0.25130   0.26880   0.27526
 Alpha virt. eigenvalues --    0.28838   0.29287   0.29842   0.31272   0.35806
 Alpha virt. eigenvalues --    0.36309   0.38078   0.39198   0.41162   0.41454
 Alpha virt. eigenvalues --    0.41950   0.42293   0.43013   0.43599   0.44290
 Alpha virt. eigenvalues --    0.44801   0.44904   0.45810   0.46079   0.47938
 Alpha virt. eigenvalues --    0.48575   0.48891   0.49058   0.50448   0.51152
 Alpha virt. eigenvalues --    0.51482   0.51522   0.52117   0.52697   0.53993
 Alpha virt. eigenvalues --    0.54112   0.54556   0.55712   0.55759   0.57467
 Alpha virt. eigenvalues --    0.58210   0.58788   0.61408   0.62119   0.62331
 Alpha virt. eigenvalues --    0.63071   0.63566   0.64781   0.65137   0.67172
 Alpha virt. eigenvalues --    0.70397   0.70616   0.70985   0.72294   0.72802
 Alpha virt. eigenvalues --    0.75733   0.75833   0.76207   0.76784   0.77024
 Alpha virt. eigenvalues --    0.77661   0.77765   0.78170   0.80187   0.80405
 Alpha virt. eigenvalues --    0.81191   0.81593   0.82085   0.82926   0.85044
 Alpha virt. eigenvalues --    0.86999   0.87927   0.88124   0.89418   0.90426
 Alpha virt. eigenvalues --    0.90857   0.91372   0.93095   0.94658   0.96431
 Alpha virt. eigenvalues --    0.96656   1.00463   1.01279   1.01593   1.02623
 Alpha virt. eigenvalues --    1.03099   1.03855   1.04594   1.05635   1.08748
 Alpha virt. eigenvalues --    1.19711   1.23323   1.24065   1.25298   1.27966
 Alpha virt. eigenvalues --    1.29442   1.31968   1.33981   1.35567   1.35943
 Alpha virt. eigenvalues --    1.39201   1.40195   1.40731   1.42862   1.43271
 Alpha virt. eigenvalues --    1.43435   1.45060   1.45198   1.46423   1.46735
 Alpha virt. eigenvalues --    1.47583   1.47758   1.51653   1.53596   1.55642
 Alpha virt. eigenvalues --    1.55949   1.56127   1.56469   1.57668   1.61314
 Alpha virt. eigenvalues --    1.63368   1.63798   1.63947   1.66025   1.68121
 Alpha virt. eigenvalues --    1.68456   1.68631   1.69714   1.74146   1.75954
 Alpha virt. eigenvalues --    1.77089   1.77958   1.79799   1.79994   1.80385
 Alpha virt. eigenvalues --    1.83136   1.83162   1.83513   1.83657   1.84122
 Alpha virt. eigenvalues --    1.84275   1.85802   1.85894   1.88142   1.91459
 Alpha virt. eigenvalues --    1.91884   1.94130   1.95227   1.97517   1.97864
 Alpha virt. eigenvalues --    1.99465   2.02419   2.04198   2.07468   2.11672
 Alpha virt. eigenvalues --    2.11990   2.13863   2.15152   2.18729   2.21132
 Alpha virt. eigenvalues --    2.22445   2.28468   2.29872   2.34514   2.35112
 Alpha virt. eigenvalues --    2.36096   2.39004   2.40052   2.42164   2.43527
 Alpha virt. eigenvalues --    2.46218   2.47262   2.48987   2.52699   2.53775
 Alpha virt. eigenvalues --    2.54204   2.56874   2.57790   2.58257   2.59629
 Alpha virt. eigenvalues --    2.59704   2.61654   2.61885   2.63393   2.63769
 Alpha virt. eigenvalues --    2.64606   2.64853   2.65087   2.65199   2.67864
 Alpha virt. eigenvalues --    2.68716   2.70888   2.71379   2.73339   2.74815
 Alpha virt. eigenvalues --    2.76256   2.78480   2.79608   2.82543   2.82959
 Alpha virt. eigenvalues --    2.84529   2.86268   2.92066   2.96823   2.99390
 Alpha virt. eigenvalues --    2.99823   3.05445   3.10548   3.10977   3.12328
 Alpha virt. eigenvalues --    3.20918   3.23777   3.26276   3.27935   3.30465
 Alpha virt. eigenvalues --    3.32093   3.33243   3.43350   3.45481   3.45937
 Alpha virt. eigenvalues --    3.47941   3.49673   3.56333   3.65650   3.67036
 Alpha virt. eigenvalues --    3.67459   3.94484   3.95003   3.95705   3.96500
 Alpha virt. eigenvalues --    4.04357   4.06950   4.07208   4.12496   4.35612
 Alpha virt. eigenvalues --    4.61482   4.69317   4.71073  23.45484  23.61071
 Alpha virt. eigenvalues --   23.81857  23.85781  23.87637  23.89120  23.90470
 Alpha virt. eigenvalues --   23.92221  23.97199  23.98333  23.98690  23.99570
 Alpha virt. eigenvalues --   24.09790  24.10035
          Condensed to atoms (all electrons):
               1          2          3          4          5          6
     1  C    8.481471   0.385562  -0.561282   1.886161  -0.019454  -0.091844
     2  C    0.385562   7.032882   0.352870  -0.987670  -0.025047  -0.014168
     3  C   -0.561282   0.352870   6.571848   0.693340  -0.119098   0.016541
     4  C    1.886161  -0.987670   0.693340  10.801363  -0.263772  -0.121200
     5  C   -0.019454  -0.025047  -0.119098  -0.263772  10.799717   0.714812
     6  C   -0.091844  -0.014168   0.016541  -0.121200   0.714812   6.577181
     7  C   -0.021387   0.002888  -0.014014  -0.023586  -1.009772   0.358298
     8  C    0.396887  -0.024737  -0.091607  -0.007599   1.858746  -0.549118
     9  C   -1.199178  -0.752034   0.294089  -0.258746  -0.275375   0.290874
    10  C   -1.228007   0.225022  -0.339806  -2.502272  -2.503475  -0.350501
    11  C    0.236757  -0.916401   1.046030  -0.422140  -1.537578  -0.160632
    12  C   -1.878740   1.258625  -1.362671  -1.353348  -0.269406  -0.205590
    13  C    0.167605  -0.224132  -0.156147  -1.534581  -0.406250   1.043191
    14  C   -1.040715  -0.196691  -0.205762  -0.274576  -1.313114  -1.384155
    15  H    0.365061  -0.104104  -0.000850   0.026678   0.005639   0.001102
    16  H   -0.019373   0.379103  -0.017950   0.013755  -0.001514  -0.000321
    17  H   -0.022887  -0.018609   0.377997  -0.065631   0.000166   0.000391
    18  H    0.048106   0.005212  -0.088310   0.451974   0.007998  -0.004964
    19  H   -0.046419  -0.008104   0.051782  -0.074431  -0.073293   0.051806
    20  H    0.007153   0.001914  -0.004922   0.008175   0.453338  -0.087292
    21  H   -0.001282  -0.000385   0.000388   0.000144  -0.065717   0.378173
    22  H    0.000625   0.000350  -0.000318  -0.001490   0.013303  -0.017453
    23  H    0.005631  -0.002594   0.001096   0.005631   0.026873  -0.000729
    24  H    0.026271   0.015724  -0.001458  -0.013492  -0.011918  -0.001945
    25  H    0.037422   0.012675  -0.001425  -0.011742  -0.013137  -0.000792
               7          8          9         10         11         12
     1  C   -0.021387   0.396887  -1.199178  -1.228007   0.236757  -1.878740
     2  C    0.002888  -0.024737  -0.752034   0.225022  -0.916401   1.258625
     3  C   -0.014014  -0.091607   0.294089  -0.339806   1.046030  -1.362671
     4  C   -0.023586  -0.007599  -0.258746  -2.502272  -0.422140  -1.353348
     5  C   -1.009772   1.858746  -0.275375  -2.503475  -1.537578  -0.269406
     6  C    0.358298  -0.549118   0.290874  -0.350501  -0.160632  -0.205590
     7  C    7.073109   0.380726  -0.766577   0.232734  -0.239066  -0.200713
     8  C    0.380726   8.492639  -1.228206  -1.228221   0.151897  -1.065166
     9  C   -0.766577  -1.228206   9.426174   0.271106   1.629929  -1.849353
    10  C    0.232734  -1.228221   0.271106   9.117711  -0.424480   2.297622
    11  C   -0.239066   0.151897   1.629929  -0.424480  14.546633  -3.689801
    12  C   -0.200713  -1.065166  -1.849353   2.297622  -3.689801  15.739394
    13  C   -0.926966   0.285855   1.648801  -0.417982   1.176822  -4.783056
    14  C    1.277483  -1.853149  -1.834435   2.286978  -4.817712   2.911070
    15  H   -0.002699   0.005727   0.090586  -0.009630  -0.028215  -0.024344
    16  H    0.000360   0.000728   0.003888  -0.009669   0.026669  -0.032910
    17  H   -0.000389  -0.001311  -0.005167   0.020014  -0.025912   0.086931
    18  H    0.001918   0.007339  -0.025290   0.017592  -0.013528  -0.047844
    19  H   -0.007982  -0.046492   0.074661   0.422489   0.082481  -0.066748
    20  H    0.004325   0.048084  -0.025441   0.016809  -0.012535  -0.011749
    21  H   -0.018078  -0.023493  -0.005196   0.020089  -0.006137   0.005013
    22  H    0.379809  -0.020945   0.003233  -0.009379   0.002838  -0.008782
    23  H   -0.105379   0.363748   0.090189  -0.009693   0.001294   0.006536
    24  H    0.014215   0.022705   0.364639   0.006071   0.007819  -0.048682
    25  H    0.014577   0.042287   0.350113   0.005267   0.018586  -0.071338
              13         14         15         16         17         18
     1  C    0.167605  -1.040715   0.365061  -0.019373  -0.022887   0.048106
     2  C   -0.224132  -0.196691  -0.104104   0.379103  -0.018609   0.005212
     3  C   -0.156147  -0.205762  -0.000850  -0.017950   0.377997  -0.088310
     4  C   -1.534581  -0.274576   0.026678   0.013755  -0.065631   0.451974
     5  C   -0.406250  -1.313114   0.005639  -0.001514   0.000166   0.007998
     6  C    1.043191  -1.384155   0.001102  -0.000321   0.000391  -0.004964
     7  C   -0.926966   1.277483  -0.002699   0.000360  -0.000389   0.001918
     8  C    0.285855  -1.853149   0.005727   0.000728  -0.001311   0.007339
     9  C    1.648801  -1.834435   0.090586   0.003888  -0.005167  -0.025290
    10  C   -0.417982   2.286978  -0.009630  -0.009669   0.020014   0.017592
    11  C    1.176822  -4.817712  -0.028215   0.026669  -0.025912  -0.013528
    12  C   -4.783056   2.911070  -0.024344  -0.032910   0.086931  -0.047844
    13  C   14.422692  -3.712172   0.001047   0.002913  -0.005994  -0.012139
    14  C   -3.712172  15.696333   0.006383  -0.008936   0.004978  -0.011092
    15  H    0.001047   0.006383   0.439383  -0.009028   0.001518   0.000138
    16  H    0.002913  -0.008936  -0.009028   0.419756  -0.006773   0.001959
    17  H   -0.005994   0.004978   0.001518  -0.006773   0.423440  -0.010337
    18  H   -0.012139  -0.011092   0.000138   0.001959  -0.010337   0.453770
    19  H    0.083028  -0.067530   0.000321  -0.000555   0.001451  -0.006400
    20  H   -0.013177  -0.047464  -0.000117   0.000015  -0.000145   0.001296
    21  H   -0.026563   0.087908   0.000015  -0.000007   0.000011  -0.000147
    22  H    0.025870  -0.030700  -0.000127   0.000007  -0.000007   0.000016
    23  H   -0.027156  -0.023559   0.000575  -0.000127   0.000015  -0.000120
    24  H    0.008819  -0.050885  -0.001164   0.000673  -0.000165   0.000145
    25  H    0.018782  -0.068933  -0.000680   0.000570  -0.000123   0.000219
              19         20         21         22         23         24
     1  C   -0.046419   0.007153  -0.001282   0.000625   0.005631   0.026271
     2  C   -0.008104   0.001914  -0.000385   0.000350  -0.002594   0.015724
     3  C    0.051782  -0.004922   0.000388  -0.000318   0.001096  -0.001458
     4  C   -0.074431   0.008175   0.000144  -0.001490   0.005631  -0.013492
     5  C   -0.073293   0.453338  -0.065717   0.013303   0.026873  -0.011918
     6  C    0.051806  -0.087292   0.378173  -0.017453  -0.000729  -0.001945
     7  C   -0.007982   0.004325  -0.018078   0.379809  -0.105379   0.014215
     8  C   -0.046492   0.048084  -0.023493  -0.020945   0.363748   0.022705
     9  C    0.074661  -0.025441  -0.005196   0.003233   0.090189   0.364639
    10  C    0.422489   0.016809   0.020089  -0.009379  -0.009693   0.006071
    11  C    0.082481  -0.012535  -0.006137   0.002838   0.001294   0.007819
    12  C   -0.066748  -0.011749   0.005013  -0.008782   0.006536  -0.048682
    13  C    0.083028  -0.013177  -0.026563   0.025870  -0.027156   0.008819
    14  C   -0.067530  -0.047464   0.087908  -0.030700  -0.023559  -0.050885
    15  H    0.000321  -0.000117   0.000015  -0.000127   0.000575  -0.001164
    16  H   -0.000555   0.000015  -0.000007   0.000007  -0.000127   0.000673
    17  H    0.001451  -0.000145   0.000011  -0.000007   0.000015  -0.000165
    18  H   -0.006400   0.001296  -0.000147   0.000016  -0.000120   0.000145
    19  H    0.444580  -0.006358   0.001464  -0.000559   0.000310   0.000619
    20  H   -0.006358   0.453655  -0.010464   0.001929   0.000154   0.000178
    21  H    0.001464  -0.010464   0.423875  -0.006812   0.001524  -0.000179
    22  H   -0.000559   0.001929  -0.006812   0.419779  -0.009003   0.000733
    23  H    0.000310   0.000154   0.001524  -0.009003   0.439773  -0.001352
    24  H    0.000619   0.000178  -0.000179   0.000733  -0.001352   0.492860
    25  H    0.000601   0.000180  -0.000107   0.000515  -0.000481  -0.079157
              25
     1  C    0.037422
     2  C    0.012675
     3  C   -0.001425
     4  C   -0.011742
     5  C   -0.013137
     6  C   -0.000792
     7  C    0.014577
     8  C    0.042287
     9  C    0.350113
    10  C    0.005267
    11  C    0.018586
    12  C   -0.071338
    13  C    0.018782
    14  C   -0.068933
    15  H   -0.000680
    16  H    0.000570
    17  H   -0.000123
    18  H    0.000219
    19  H    0.000601
    20  H    0.000180
    21  H   -0.000107
    22  H    0.000515
    23  H   -0.000481
    24  H   -0.079157
    25  H    0.492743
 Mulliken charges:
               1
     1  C    0.085855
     2  C   -0.398150
     3  C   -0.440358
     4  C    0.029057
     5  C    0.027329
     6  C   -0.441665
     7  C   -0.403833
     8  C    0.082676
     9  C   -0.313286
    10  C    0.093612
    11  C   -0.633621
    12  C    0.665052
    13  C   -0.639111
    14  C    0.670446
    15  H    0.236786
    16  H    0.256764
    17  H    0.246536
    18  H    0.222491
    19  H    0.189280
    20  H    0.222460
    21  H    0.245964
    22  H    0.256566
    23  H    0.236845
    24  H    0.248928
    25  H    0.253377
 Sum of Mulliken charges =   1.00000
 Mulliken charges with hydrogens summed into heavy atoms:
               1
     1  C    0.322642
     2  C   -0.141386
     3  C   -0.193822
     4  C    0.251548
     5  C    0.249789
     6  C   -0.195701
     7  C   -0.147267
     8  C    0.319522
     9  C    0.189019
    10  C    0.282891
    11  C   -0.633621
    12  C    0.665052
    13  C   -0.639111
    14  C    0.670446
 Electronic spatial extent (au):  <R**2>=           2861.8199
 Charge=              1.0000 electrons
 Dipole moment (field-independent basis, Debye):
    X=             -0.0094    Y=              0.1901    Z=              0.0010  Tot=              0.1904
 Quadrupole moment (field-independent basis, Debye-Ang):
   XX=            -30.9859   YY=            -56.2613   ZZ=            -84.1904
   XY=             -0.0053   XZ=             -0.0086   YZ=              0.0735
 Traceless Quadrupole moment (field-independent basis, Debye-Ang):
   XX=             26.1599   YY=              0.8846   ZZ=            -27.0446
   XY=             -0.0053   XZ=             -0.0086   YZ=              0.0735
 Octapole moment (field-independent basis, Debye-Ang**2):
  XXX=             -0.3860  YYY=              5.2078  ZZZ=             -0.0134  XYY=              0.0041
  XXY=             -4.6933  XXZ=              0.1316  XZZ=              0.0457  YZZ=             -3.0866
  YYZ=              0.0742  XYZ=             -0.0433
 Hexadecapole moment (field-independent basis, Debye-Ang**3):
 XXXX=          -2124.8225 YYYY=           -609.2978 ZZZZ=            -99.5051 XXXY=             -0.2175
 XXXZ=             -0.2450 YYYX=              0.0897 YYYZ=              0.8300 ZZZX=             -0.0116
 ZZZY=              0.0231 XXYY=           -508.7496 XXZZ=           -592.3996 YYZZ=           -145.7679
 XXYZ=              0.7757 YYXZ=             -0.0002 ZZXY=             -0.0045
 N-N= 7.804965755932D+02 E-N=-2.797295278991D+03  KE= 5.374621688492D+02
 Unable to Open any file for archive entry.
 1\1\GINC-GADI-CPU-CLX-0113\SP\RM062X TD-FC\6-311++G(d,p)\C14H11(1+)\TS
 1578\28-Jul-2022\0\\#n M062X/6-311++G(d,p) TD(NStates=1) EmpiricalDisp
 ersion=GD3 SP\\SP_-125\\1,1\C,0,0.00695,2.493255,1.360431\C,0,0.010675
 ,3.707408,0.671989\C,0,0.0024,3.694911,-0.71383\C,0,-0.011875,2.470331
 ,-1.407538\C,0,-0.011525,-2.469631,-1.407538\C,0,0.0045,-3.691411,-0.7
 1383\C,0,0.014,-3.706183,0.671989\C,0,0.0136,-2.491155,1.360431\C,0,0.
 00665,-0.0077,1.453369\C,0,-0.0183,0.00035,-1.429189\C,0,-0.003,1.2562
 3,0.677065\C,0,-0.0068,1.237846,-0.730804\C,0,-0.002475,-1.256405,0.67
 7065\C,0,-0.0082,-1.238896,-0.730804\H,0,-0.0007,2.488871,2.443647\H,0
 ,0.010475,4.642378,1.211689\H,0,-0.0027,4.611112,-1.272349\H,0,-0.0049
 5,2.47445,-2.490059\H,0,-0.016875,0.000175,-2.510266\H,0,-0.006,-2.473
 925,-2.490059\H,0,-0.00165,-4.606737,-1.272349\H,0,0.0145,-4.639753,1.
 211689\H,0,0.007,-2.486596,2.443647\H,0,-0.835585,-0.00175,2.147712\H,
 0,0.883585,-0.00175,2.143862\\Version=ES64L-G16RevC.01\State=1-A\HF=-5
 39.7592769\RMSD=4.618e-09\PG=C01 [X(C14H11)]\\@
 The archive entry for this job was punched.


 EDUCATION IS NOT TRAINING BUT RATHER THE PROCESS THAT EQUIPS YOU TO
 ENTERTAIN YOURSELF, A FRIEND, OR AN IDEA.  -- WALLACE STERLING
 Job cpu time:       0 days  1 hours 19 minutes 32.5 seconds.
 Elapsed time:       0 days  0 hours  1 minutes 39.7 seconds.
 File lengths (MBytes):  RWF=    460 Int=      0 D2E=      0 Chk=     15 Scr=      1
 Normal termination of Gaussian 16 at Thu Jul 28 13:19:38 2022.
