 Entering Gaussian System, Link 0=g16
 Initial command:
 /apps/gaussian/g16c01/g16/l1.exe "/jobfs/53002009.gadi-pbs/Gau-763168.inp" -scrdir="/jobfs/53002009.gadi-pbs/"
 Entering Link 1 = /apps/gaussian/g16c01/g16/l1.exe PID=    763169.
  
 Copyright (c) 1988-2019, Gaussian, Inc.  All Rights Reserved.
  
 This is part of the Gaussian(R) 16 program.  It is based on
 the Gaussian(R) 09 system (copyright 2009, Gaussian, Inc.),
 the Gaussian(R) 03 system (copyright 2003, Gaussian, Inc.),
 the Gaussian(R) 98 system (copyright 1998, Gaussian, Inc.),
 the Gaussian(R) 94 system (copyright 1995, Gaussian, Inc.),
 the Gaussian 92(TM) system (copyright 1992, Gaussian, Inc.),
 the Gaussian 90(TM) system (copyright 1990, Gaussian, Inc.),
 the Gaussian 88(TM) system (copyright 1988, Gaussian, Inc.),
 the Gaussian 86(TM) system (copyright 1986, Carnegie Mellon
 University), and the Gaussian 82(TM) system (copyright 1983,
 Carnegie Mellon University). Gaussian is a federally registered
 trademark of Gaussian, Inc.
  
 This software contains proprietary and confidential information,
 including trade secrets, belonging to Gaussian, Inc.
  
 This software is provided under written license and may be
 used, copied, transmitted, or stored only in accord with that
 written license.
  
 The following legend is applicable only to US Government
 contracts under FAR:
  
                    RESTRICTED RIGHTS LEGEND
  
 Use, reproduction and disclosure by the US Government is
 subject to restrictions as set forth in subparagraphs (a)
 and (c) of the Commercial Computer Software - Restricted
 Rights clause in FAR 52.227-19.
  
 Gaussian, Inc.
 340 Quinnipiac St., Bldg. 40, Wallingford CT 06492
  
  
 ---------------------------------------------------------------
 Warning -- This program may not be used in any manner that
 competes with the business of Gaussian, Inc. or will provide
 assistance to any competitor of Gaussian, Inc.  The licensee
 of this program is prohibited from giving any competitor of
 Gaussian, Inc. access to this program.  By using this program,
 the user acknowledges that Gaussian, Inc. is engaged in the
 business of creating and licensing software in the field of
 computational chemistry and represents and warrants to the
 licensee that it is not a competitor of Gaussian, Inc. and that
 it will not use this program in any manner prohibited above.
 ---------------------------------------------------------------
  

 Cite this work as:
 Gaussian 16, Revision C.01,
 M. J. Frisch, G. W. Trucks, H. B. Schlegel, G. E. Scuseria, 
 M. A. Robb, J. R. Cheeseman, G. Scalmani, V. Barone, 
 G. A. Petersson, H. Nakatsuji, X. Li, M. Caricato, A. V. Marenich, 
 J. Bloino, B. G. Janesko, R. Gomperts, B. Mennucci, H. P. Hratchian, 
 J. V. Ortiz, A. F. Izmaylov, J. L. Sonnenberg, D. Williams-Young, 
 F. Ding, F. Lipparini, F. Egidi, J. Goings, B. Peng, A. Petrone, 
 T. Henderson, D. Ranasinghe, V. G. Zakrzewski, J. Gao, N. Rega, 
 G. Zheng, W. Liang, M. Hada, M. Ehara, K. Toyota, R. Fukuda, 
 J. Hasegawa, M. Ishida, T. Nakajima, Y. Honda, O. Kitao, H. Nakai, 
 T. Vreven, K. Throssell, J. A. Montgomery, Jr., J. E. Peralta, 
 F. Ogliaro, M. J. Bearpark, J. J. Heyd, E. N. Brothers, K. N. Kudin, 
 V. N. Staroverov, T. A. Keith, R. Kobayashi, J. Normand, 
 K. Raghavachari, A. P. Rendell, J. C. Burant, S. S. Iyengar, 
 J. Tomasi, M. Cossi, J. M. Millam, M. Klene, C. Adamo, R. Cammi, 
 J. W. Ochterski, R. L. Martin, K. Morokuma, O. Farkas, 
 J. B. Foresman, and D. J. Fox, Gaussian, Inc., Wallingford CT, 2019.
 
 ******************************************
 Gaussian 16:  ES64L-G16RevC.01  3-Jul-2019
                28-Jul-2022 
 ******************************************
 %NProcShared=48
 Will use up to   48 processors via shared memory.
 %mem = 190GB
 ---------------------------------------------------------------
 #n M062X/6-311++G(d,p) TD(NStates=1) EmpiricalDispersion=GD3 SP
 ---------------------------------------------------------------
 1/38=1,172=1/1;
 2/12=2,17=6,18=5,40=1/2;
 3/5=4,6=6,7=1111,11=9,25=1,30=1,74=-55,124=31/1,2,3,8;
 4//1;
 5/5=2,38=5/2;
 8/6=1,10=2,108=1/1;
 9/41=1,42=1,70=2/14;
 6/7=2,8=2,9=2,10=2/1;
 99/5=1,9=1/99;
 ----
 SP_0
 ----
 Symbolic Z-matrix:
 Charge =  1 Multiplicity = 1
 C                     0.0117    2.49176   1.36043 
 C                     0.01305   3.70653   0.67199 
 C                     0.0039    3.69241  -0.71383 
 C                    -0.01162   2.46983  -1.40754 
 C                    -0.01177  -2.47013  -1.40754 
 C                     0.003    -3.69391  -0.71383 
 C                     0.01162  -3.70706   0.67199 
 C                     0.00885  -2.49266   1.36043 
 C                     0.00653   0.0033    1.45337 
 C                    -0.0183   -0.00015  -1.42919 
 C                    -0.00263   1.25636   0.67707 
 C                    -0.0078    1.2386   -0.7308 
 C                    -0.00285  -1.25628   0.67707 
 C                    -0.0072   -1.23815  -0.7308 
 H                     0.0048    2.48725   2.44365 
 H                     0.01335   4.6405    1.21169 
 H                    -0.00195   4.60799  -1.27235 
 H                    -0.0057    2.47408  -2.49006 
 H                    -0.01688  -0.00008  -2.51027 
 H                    -0.00525  -2.4743   -2.49006 
 H                    -0.0024   -4.60986  -1.27235 
 H                     0.01163  -4.64163   1.21169 
 H                     0.0015   -2.48822   2.44365 
 H                    -0.83559   0.00075   2.14496 
 H                     0.88359   0.00075   2.14661 
 
                          Input orientation:                          
 ---------------------------------------------------------------------
 Center     Atomic      Atomic             Coordinates (Angstroms)
 Number     Number       Type             X           Y           Z
 ---------------------------------------------------------------------
      1          6           0        0.011700    2.491755    1.360431
      2          6           0        0.013050    3.706533    0.671989
      3          6           0        0.003900    3.692411   -0.713830
      4          6           0       -0.011625    2.469831   -1.407538
      5          6           0       -0.011775   -2.470131   -1.407538
      6          6           0        0.003000   -3.693911   -0.713830
      7          6           0        0.011625   -3.707058    0.671989
      8          6           0        0.008850   -2.492655    1.360431
      9          6           0        0.006525    0.003300    1.453369
     10          6           0       -0.018300   -0.000150   -1.429189
     11          6           0       -0.002625    1.256355    0.677065
     12          6           0       -0.007800    1.238596   -0.730804
     13          6           0       -0.002850   -1.256280    0.677065
     14          6           0       -0.007200   -1.238146   -0.730804
     15          1           0        0.004800    2.487246    2.443647
     16          1           0        0.013350    4.640503    1.211689
     17          1           0       -0.001950    4.607987   -1.272349
     18          1           0       -0.005700    2.474075   -2.490059
     19          1           0       -0.016875   -0.000075   -2.510266
     20          1           0       -0.005250   -2.474300   -2.490059
     21          1           0       -0.002400   -4.609862   -1.272349
     22          1           0        0.011625   -4.641628    1.211689
     23          1           0        0.001500   -2.488221    2.443647
     24          1           0       -0.835585    0.000750    2.144962
     25          1           0        0.883585    0.000750    2.146612
 ---------------------------------------------------------------------
                    Distance matrix (angstroms):
                    1          2          3          4          5
     1  C    0.000000
     2  C    1.396295   0.000000
     3  C    2.396705   1.385921   0.000000
     4  C    2.768154   2.419602   1.405764   0.000000
     5  C    5.681771   6.517379   6.201484   4.939962   0.000000
     6  C    6.524193   7.529088   7.386322   6.202674   1.406800
     7  C    6.236925   7.413591   7.528127   6.517586   2.419704
     8  C    4.984411   6.237299   6.523621   5.682283   2.768137
     9  C    2.490195   3.784776   4.278586   3.777419   3.781929
    10  C    3.740651   4.260919   3.761281   2.470085   2.470085
    11  C    1.411881   2.450233   2.805174   2.412089   4.269936
    12  C    2.438043   2.838834   2.453902   1.404964   3.769966
    13  C    3.809851   4.962841   5.140445   4.269608   2.412278
    14  C    4.276188   5.139853   4.930599   3.769228   1.405623
    15  H    1.083247   2.150698   3.379657   3.851259   6.277538
    16  H    2.153891   1.078692   2.146297   3.401880   7.577737
    17  H    3.377892   2.143197   1.072500   2.142447   7.079416
    18  H    3.850570   3.393796   2.153932   1.082546   5.061330
    19  H    4.603513   4.885344   4.106345   2.704898   2.705035
    20  H    6.283969   6.942736   6.417429   5.061257   1.082549
    21  H    7.573948   8.540674   8.321041   7.080990   2.144018
    22  H    7.134934   8.365588   8.553589   7.578505   3.402396
    23  H    5.096432   6.443127   6.940452   6.278063   3.851250
    24  H    2.745630   4.077089   4.744027   4.404035   4.405017
    25  H    2.753792   4.082300   4.752298   4.419247   4.420283
                    6          7          8          9         10
     6  C    0.000000
     7  C    1.385908   0.000000
     8  C    2.397000   1.395971   0.000000
     9  C    4.285573   3.791746   2.497686   0.000000
    10  C    3.762454   4.261104   3.741029   2.882667   0.000000
    11  C    5.141960   4.963436   3.810800   1.474069   2.452622
    12  C    4.932548   5.140788   4.277356   2.509337   1.422091
    13  C    2.806540   2.450826   1.412710   1.479621   2.452429
    14  C    2.455845   2.839667   2.438712   2.512367   1.421443
    15  H    6.940920   6.442687   5.096350   2.674068   4.602883
    16  H    8.553957   8.364990   7.134710   4.643502   5.339560
    17  H    8.320666   8.539356   7.573029   5.350958   4.610834
    18  H    6.418654   6.943000   6.284496   4.653547   2.692098
    19  H    4.107554   4.885620   4.603902   3.963706   1.081078
    20  H    2.154648   3.393895   3.850560   4.657173   2.692032
    21  H    1.072818   2.143759   3.378494   5.358254   4.612407
    22  H    2.146128   1.079211   2.154116   4.651214   5.340267
    23  H    3.379845   2.150451   1.083250   2.681110   4.603232
    24  H    4.746202   4.078634   2.746931   1.089705   3.666403
    25  H    4.754795   4.084442   2.756866   1.117956   3.687784
                   11         12         13         14         15
    11  C    0.000000
    12  C    1.407991   0.000000
    13  C    2.512635   2.864703   0.000000
    14  C    2.864376   2.476742   1.407993   0.000000
    15  H    2.153128   3.411220   4.139427   4.894469   0.000000
    16  H    3.426155   3.917486   5.920991   6.191302   2.480788
    17  H    3.877325   3.412638   6.179793   5.871164   4.278576
    18  H    3.393159   2.149742   4.893489   4.107988   4.933735
    19  H    3.426062   2.168150   3.425978   2.167810   5.543328
    20  H    4.893717   4.108598   3.393266   2.150130   6.997035
    21  H    6.181644   5.873479   3.879011   3.414932   8.011094
    22  H    5.922181   6.192793   3.427333   3.918842   7.234543
    23  H    4.140372   4.895548   2.153720   3.411730   4.975468
    24  H    2.103589   3.238444   2.104351   3.238999   2.641614
    25  H    2.126377   3.256740   2.127313   3.256975   2.653894
                   16         17         18         19         20
    16  H    0.000000
    17  H    2.484298   0.000000
    18  H    4.289139   2.456911   0.000000
    19  H    5.948851   4.771467   2.474258   0.000000
    20  H    8.020206   7.186210   4.948375   2.474335   0.000000
    21  H    9.578097   9.217849   7.187836   4.773131   2.458343
    22  H    9.282131   9.577370   8.021002   5.949603   4.289584
    23  H    7.234402   8.010294   6.997563   5.543687   4.933730
    24  H    4.808222   5.796516   5.318784   4.726673   5.319657
    25  H    4.812348   5.805179   5.329811   4.743136   5.330536
                   21         22         23         24         25
    21  H    0.000000
    22  H    2.484281   0.000000
    23  H    4.279019   2.480924   0.000000
    24  H    5.799134   4.810451   2.642896   0.000000
    25  H    5.807926   4.815191   2.657307   1.719171   0.000000
 Stoichiometry    C14H11(1+)
 Framework group  C1[X(C14H11)]
 Deg. of freedom    69
 Full point group                 C1      NOp   1
 Largest Abelian subgroup         C1      NOp   1
 Largest concise Abelian subgroup C1      NOp   1
                         Standard orientation:                         
 ---------------------------------------------------------------------
 Center     Atomic      Atomic             Coordinates (Angstroms)
 Number     Number       Type             X           Y           Z
 ---------------------------------------------------------------------
      1          6           0       -2.491844   -1.360316    0.001994
      2          6           0       -3.706579   -0.671819    0.007677
      3          6           0       -3.692367    0.714029    0.007687
      4          6           0       -2.469740    1.407745   -0.003036
      5          6           0        2.470222    1.407427   -0.002307
      6          6           0        3.693955    0.713558    0.008101
      7          6           0        3.707013   -0.672289    0.007571
      8          6           0        2.492566   -1.360619    0.000031
      9          6           0       -0.003394   -1.453378   -0.003353
     10          6           0        0.000243    1.429281   -0.009129
     11          6           0       -1.256398   -0.676950   -0.007596
     12          6           0       -1.238549    0.730921   -0.003464
     13          6           0        1.256237   -0.677111   -0.007374
     14          6           0        1.238193    0.730757   -0.002424
     15          1           0       -2.487403   -2.443463   -0.012063
     16          1           0       -4.640583   -1.211449    0.004244
     17          1           0       -4.607907    1.272634    0.005365
     18          1           0       -2.473917    2.490204    0.010041
     19          1           0        0.000236    2.510324   -0.000560
     20          1           0        2.474458    2.489881    0.011371
     21          1           0        4.609942    1.272041    0.006555
     22          1           0        4.641548   -1.212037    0.004171
     23          1           0        2.488065   -2.443762   -0.014478
     24          1           0       -0.000738   -2.139392   -0.850014
     25          1           0       -0.001044   -2.152402    0.869108
 ---------------------------------------------------------------------
 Rotational constants (GHZ):           2.1360671           0.4433818           0.3679687
 Standard basis: 6-311++G(d,p) (5D, 7F)
 There are   399 symmetry adapted cartesian basis functions of A   symmetry.
 There are   385 symmetry adapted basis functions of A   symmetry.
   385 basis functions,   603 primitive gaussians,   399 cartesian basis functions
    47 alpha electrons       47 beta electrons
       nuclear repulsion energy       780.4977115070 Hartrees.
 NAtoms=   25 NActive=   25 NUniq=   25 SFac= 1.00D+00 NAtFMM=   60 NAOKFM=F Big=F
 Integral buffers will be    131072 words long.
 Regular integral format.
 Two-electron integral symmetry is turned on.
 Nuclear repulsion after empirical dispersion term =      780.4967317711 Hartrees.
 One-electron integrals computed using PRISM.
 NBasis=   385 RedAO= T EigKep=  1.17D-06  NBF=   385
 NBsUse=   379 1.00D-06 EigRej=  8.58D-07 NBFU=   379
 ExpMin= 3.60D-02 ExpMax= 4.56D+03 ExpMxC= 6.82D+02 IAcc=3 IRadAn=         5 AccDes= 0.00D+00
 Harris functional with IExCor= 1009 and IRadAn=       5 diagonalized for initial guess.
 HarFok:  IExCor= 1009 AccDes= 0.00D+00 IRadAn=         5 IDoV= 1 UseB2=F ITyADJ=14
 ICtDFT=  3500011 ScaDFX=  1.000000  1.000000  1.000000  1.000000
 FoFCou: FMM=F IPFlag=           0 FMFlag=      100000 FMFlg1=           0
         NFxFlg=           0 DoJE=T BraDBF=F KetDBF=T FulRan=T
         wScrn=  0.000000 ICntrl=       500 IOpCl=  0 I1Cent=   200000004 NGrid=           0
         NMat0=    1 NMatS0=      1 NMatT0=    0 NMatD0=    1 NMtDS0=    0 NMtDT0=    0
 Petite list used in FoFCou.
 Requested convergence on RMS density matrix=1.00D-08 within 128 cycles.
 Requested convergence on MAX density matrix=1.00D-06.
 Requested convergence on             energy=1.00D-06.
 No special actions if energy rises.
 SCF Done:  E(RM062X) =  -539.759274534     A.U. after   15 cycles
            NFock= 15  Conv=0.46D-08     -V/T= 2.0043
 DoSCS=F DFT=T ScalE2(SS,OS)=  1.000000  1.000000
 ExpMin= 3.60D-02 ExpMax= 4.56D+03 ExpMxC= 6.82D+02 IAcc=3 IRadAn=         5 AccDes= 0.00D+00
 HarFok:  IExCor=  205 AccDes= 0.00D+00 IRadAn=         5 IDoV=-2 UseB2=F ITyADJ=14
 ICtDFT= 12500011 ScaDFX=  1.000000  1.000000  1.000000  1.000000
 Range of M.O.s used for correlation:    15   379
 NBasis=   385 NAE=    47 NBE=    47 NFC=    14 NFV=     0
 NROrb=    365 NOA=    33 NOB=    33 NVA=   332 NVB=   332

 **** Warning!!: The largest alpha MO coefficient is  0.14882294D+03

 Orbital symmetries:
       Occupied  (A) (A) (A) (A) (A) (A) (A) (A) (A) (A) (A) (A)
                 (A) (A) (A) (A) (A) (A) (A) (A) (A) (A) (A) (A)
                 (A) (A) (A) (A) (A) (A) (A) (A) (A) (A) (A) (A)
                 (A) (A) (A) (A) (A) (A) (A) (A) (A) (A) (A)
       Virtual   (A) (A) (A) (A) (A) (A) (A) (A) (A) (A) (A) (A)
                 (A) (A) (A) (A) (A) (A) (A) (A) (A) (A) (A) (A)
                 (A) (A) (A) (A) (A) (A) (A) (A) (A) (A) (A) (A)
                 (A) (A) (A) (A) (A) (A) (A) (A) (A) (A) (A) (A)
                 (A) (A) (A) (A) (A) (A) (A) (A) (A) (A) (A) (A)
                 (A) (A) (A) (A) (A) (A) (A) (A) (A) (A) (A) (A)
                 (A) (A) (A) (A) (A) (A) (A) (A) (A) (A) (A) (A)
                 (A) (A) (A) (A) (A) (A) (A) (A) (A) (A) (A) (A)
                 (A) (A) (A) (A) (A) (A) (A) (A) (A) (A) (A) (A)
                 (A) (A) (A) (A) (A) (A) (A) (A) (A) (A) (A) (A)
                 (A) (A) (A) (A) (A) (A) (A) (A) (A) (A) (A) (A)
                 (A) (A) (A) (A) (A) (A) (A) (A) (A) (A) (A) (A)
                 (A) (A) (A) (A) (A) (A) (A) (A) (A) (A) (A) (A)
                 (A) (A) (A) (A) (A) (A) (A) (A) (A) (A) (A) (A)
                 (A) (A) (A) (A) (A) (A) (A) (A) (A) (A) (A) (A)
                 (A) (A) (A) (A) (A) (A) (A) (A) (A) (A) (A) (A)
                 (A) (A) (A) (A) (A) (A) (A) (A) (A) (A) (A) (A)
                 (A) (A) (A) (A) (A) (A) (A) (A) (A) (A) (A) (A)
                 (A) (A) (A) (A) (A) (A) (A) (A) (A) (A) (A) (A)
                 (A) (A) (A) (A) (A) (A) (A) (A) (A) (A) (A) (A)
                 (A) (A) (A) (A) (A) (A) (A) (A) (A) (A) (A) (A)
                 (A) (A) (A) (A) (A) (A) (A) (A) (A) (A) (A) (A)
                 (A) (A) (A) (A) (A) (A) (A) (A) (A) (A) (A) (A)
                 (A) (A) (A) (A) (A) (A) (A) (A) (A) (A) (A) (A)
                 (A) (A) (A) (A) (A) (A) (A) (A) (A) (A) (A) (A)
                 (A) (A) (A) (A) (A) (A) (A) (A) (A) (A) (A) (A)
                 (A) (A) (A) (A) (A) (A) (A) (A) (A) (A) (A) (A)
                 (A) (A) (A) (A) (A) (A) (A) (A)
     4 initial guesses have been made.
 Convergence on wavefunction:    0.001000000000000
 Iteration     1 Dimension     4 NMult     0 NNew      4
 CISAX will form     4 AO SS matrices at one time.
 Iteration     2 Dimension     6 NMult     4 NNew      2
 Iteration     3 Dimension     8 NMult     6 NNew      2
 Iteration     4 Dimension    10 NMult     8 NNew      2
 Iteration     5 Dimension    12 NMult    10 NNew      2
 Iteration     6 Dimension    14 NMult    12 NNew      2
 ***********************************************************************
 Excited states from <AA,BB:AA,BB> singles matrix:
 ***********************************************************************
 
 Ground to excited state transition densities written to RWF  633
 Ground to excited state transition electric dipole moments (Au):
       state          X           Y           Z        Dip. S.      Osc.
         1        -0.0044     -0.6392      0.0030      0.4086      0.0281
 Ground to excited state transition velocity dipole moments (Au):
       state          X           Y           Z        Dip. S.      Osc.
         1         0.0005      0.0737     -0.0004      0.0054      0.0351
 Ground to excited state transition magnetic dipole moments (Au):
       state          X           Y           Z
         1        -0.0039     -0.0003      0.0001
 Ground to excited state transition velocity quadrupole moments (Au):
       state          XX          YY          ZZ          XY          XZ          YZ
         1         0.3056      0.0332     -0.0097      0.0006      0.0000      0.0007
 <0|del|b> * <b|rxdel|0> + <0|del|b> * <b|delr+rdel|0>
 Rotatory Strengths (R) in cgs (10**-40 erg-esu-cm/Gauss)
       state          XX          YY          ZZ    R(velocity)    E-M Angle
         1        -0.0857     -0.0044     -0.0758     -0.0553       90.00
 1/2[<0|r|b>*<b|rxdel|0> + (<0|rxdel|b>*<b|r|0>)*]
 Rotatory Strengths (R) in cgs (10**-40 erg-esu-cm/Gauss)
       state          XX          YY          ZZ     R(length)
         1        -0.0121     -0.1373     -0.0002     -0.0499
  1/2[<0|del|b>*<b|r|0> + (<0|r|b>*<b|del|0>)*] (Au)
       state          X           Y           Z        Dip. S.   Osc.(frdel)
         1        -0.0000     -0.0471     -0.0000      0.0471      0.0314

 Excitation energies and oscillator strengths:
 
 Excited State   1:      Singlet-A      2.8099 eV  441.24 nm  f=0.0281  <S**2>=0.000
      47 -> 48         0.70427
 This state for optimization and/or second-order correction.
 Total Energy, E(TD-HF/TD-DFT) =  -539.656013255    
 Copying the excited state density for this state as the 1-particle RhoCI density.
 SavETr:  write IOETrn=   770 NScale= 10 NData=  16 NLR=1 NState=    1 LETran=      28.

 **********************************************************************

            Population analysis using the SCF Density.

 **********************************************************************

 Orbital symmetries:
       Occupied  (A) (A) (A) (A) (A) (A) (A) (A) (A) (A) (A) (A)
                 (A) (A) (A) (A) (A) (A) (A) (A) (A) (A) (A) (A)
                 (A) (A) (A) (A) (A) (A) (A) (A) (A) (A) (A) (A)
                 (A) (A) (A) (A) (A) (A) (A) (A) (A) (A) (A)
       Virtual   (A) (A) (A) (A) (A) (A) (A) (A) (A) (A) (A) (A)
                 (A) (A) (A) (A) (A) (A) (A) (A) (A) (A) (A) (A)
                 (A) (A) (A) (A) (A) (A) (A) (A) (A) (A) (A) (A)
                 (A) (A) (A) (A) (A) (A) (A) (A) (A) (A) (A) (A)
                 (A) (A) (A) (A) (A) (A) (A) (A) (A) (A) (A) (A)
                 (A) (A) (A) (A) (A) (A) (A) (A) (A) (A) (A) (A)
                 (A) (A) (A) (A) (A) (A) (A) (A) (A) (A) (A) (A)
                 (A) (A) (A) (A) (A) (A) (A) (A) (A) (A) (A) (A)
                 (A) (A) (A) (A) (A) (A) (A) (A) (A) (A) (A) (A)
                 (A) (A) (A) (A) (A) (A) (A) (A) (A) (A) (A) (A)
                 (A) (A) (A) (A) (A) (A) (A) (A) (A) (A) (A) (A)
                 (A) (A) (A) (A) (A) (A) (A) (A) (A) (A) (A) (A)
                 (A) (A) (A) (A) (A) (A) (A) (A) (A) (A) (A) (A)
                 (A) (A) (A) (A) (A) (A) (A) (A) (A) (A) (A) (A)
                 (A) (A) (A) (A) (A) (A) (A) (A) (A) (A) (A) (A)
                 (A) (A) (A) (A) (A) (A) (A) (A) (A) (A) (A) (A)
                 (A) (A) (A) (A) (A) (A) (A) (A) (A) (A) (A) (A)
                 (A) (A) (A) (A) (A) (A) (A) (A) (A) (A) (A) (A)
                 (A) (A) (A) (A) (A) (A) (A) (A) (A) (A) (A) (A)
                 (A) (A) (A) (A) (A) (A) (A) (A) (A) (A) (A) (A)
                 (A) (A) (A) (A) (A) (A) (A) (A) (A) (A) (A) (A)
                 (A) (A) (A) (A) (A) (A) (A) (A) (A) (A) (A) (A)
                 (A) (A) (A) (A) (A) (A) (A) (A) (A) (A) (A) (A)
                 (A) (A) (A) (A) (A) (A) (A) (A) (A) (A) (A) (A)
                 (A) (A) (A) (A) (A) (A) (A) (A) (A) (A) (A) (A)
                 (A) (A) (A) (A) (A) (A) (A) (A) (A) (A) (A) (A)
                 (A) (A) (A) (A) (A) (A) (A) (A) (A) (A) (A) (A)
                 (A) (A) (A) (A) (A) (A) (A) (A)
 The electronic state is 1-A.
 Alpha  occ. eigenvalues --  -10.77660 -10.73286 -10.73244 -10.72500 -10.72497
 Alpha  occ. eigenvalues --  -10.71458 -10.71436 -10.71055 -10.71048 -10.70981
 Alpha  occ. eigenvalues --  -10.70065 -10.70049 -10.69615 -10.69594  -1.16394
 Alpha  occ. eigenvalues --   -1.12307  -1.06863  -1.05781  -1.01166  -1.00197
 Alpha  occ. eigenvalues --   -0.95724  -0.91070  -0.86411  -0.85875  -0.83809
 Alpha  occ. eigenvalues --   -0.78392  -0.76015  -0.74386  -0.69571  -0.69288
 Alpha  occ. eigenvalues --   -0.68564  -0.68235  -0.68135  -0.64622  -0.64184
 Alpha  occ. eigenvalues --   -0.63146  -0.61968  -0.59943  -0.59562  -0.59132
 Alpha  occ. eigenvalues --   -0.56917  -0.55252  -0.54886  -0.52376  -0.46522
 Alpha  occ. eigenvalues --   -0.46052  -0.44431
 Alpha virt. eigenvalues --   -0.26075  -0.14757  -0.14119  -0.12869  -0.11178
 Alpha virt. eigenvalues --   -0.10082  -0.09218  -0.07997  -0.07942  -0.07471
 Alpha virt. eigenvalues --   -0.07211  -0.07148  -0.05645  -0.05582  -0.05348
 Alpha virt. eigenvalues --   -0.03802  -0.03640  -0.03282  -0.03134  -0.02161
 Alpha virt. eigenvalues --   -0.01361  -0.00916   0.00191   0.00627   0.00686
 Alpha virt. eigenvalues --    0.01047   0.01513   0.01912   0.02209   0.02291
 Alpha virt. eigenvalues --    0.02434   0.02657   0.02705   0.03307   0.03387
 Alpha virt. eigenvalues --    0.04247   0.04502   0.04690   0.04988   0.05358
 Alpha virt. eigenvalues --    0.06031   0.06289   0.06596   0.07039   0.07233
 Alpha virt. eigenvalues --    0.07872   0.08091   0.08361   0.08500   0.08933
 Alpha virt. eigenvalues --    0.09557   0.09569   0.10033   0.10824   0.11018
 Alpha virt. eigenvalues --    0.11116   0.12201   0.12265   0.12892   0.13015
 Alpha virt. eigenvalues --    0.13403   0.13534   0.14024   0.14302   0.16121
 Alpha virt. eigenvalues --    0.16303   0.16510   0.17376   0.17591   0.17726
 Alpha virt. eigenvalues --    0.18105   0.18993   0.19191   0.19606   0.19715
 Alpha virt. eigenvalues --    0.21494   0.21529   0.22724   0.23126   0.23566
 Alpha virt. eigenvalues --    0.23647   0.24558   0.25130   0.26880   0.27527
 Alpha virt. eigenvalues --    0.28838   0.29289   0.29842   0.31272   0.35810
 Alpha virt. eigenvalues --    0.36305   0.38076   0.39199   0.41162   0.41454
 Alpha virt. eigenvalues --    0.41950   0.42295   0.43013   0.43600   0.44288
 Alpha virt. eigenvalues --    0.44804   0.44901   0.45812   0.46078   0.47937
 Alpha virt. eigenvalues --    0.48575   0.48890   0.49058   0.50448   0.51153
 Alpha virt. eigenvalues --    0.51484   0.51520   0.52120   0.52696   0.53994
 Alpha virt. eigenvalues --    0.54112   0.54557   0.55712   0.55759   0.57458
 Alpha virt. eigenvalues --    0.58209   0.58790   0.61408   0.62120   0.62330
 Alpha virt. eigenvalues --    0.63074   0.63565   0.64782   0.65139   0.67175
 Alpha virt. eigenvalues --    0.70412   0.70614   0.70985   0.72297   0.72803
 Alpha virt. eigenvalues --    0.75745   0.75826   0.76208   0.76786   0.77025
 Alpha virt. eigenvalues --    0.77661   0.77768   0.78171   0.80185   0.80407
 Alpha virt. eigenvalues --    0.81189   0.81594   0.82085   0.82925   0.85044
 Alpha virt. eigenvalues --    0.87000   0.87918   0.88125   0.89424   0.90428
 Alpha virt. eigenvalues --    0.90857   0.91374   0.93091   0.94657   0.96434
 Alpha virt. eigenvalues --    0.96659   1.00463   1.01281   1.01595   1.02621
 Alpha virt. eigenvalues --    1.03099   1.03854   1.04597   1.05631   1.08746
 Alpha virt. eigenvalues --    1.19716   1.23323   1.24066   1.25300   1.27968
 Alpha virt. eigenvalues --    1.29440   1.31968   1.33983   1.35568   1.35942
 Alpha virt. eigenvalues --    1.39199   1.40195   1.40729   1.42870   1.43270
 Alpha virt. eigenvalues --    1.43435   1.45086   1.45171   1.46424   1.46734
 Alpha virt. eigenvalues --    1.47583   1.47754   1.51653   1.53596   1.55645
 Alpha virt. eigenvalues --    1.55941   1.56127   1.56470   1.57669   1.61313
 Alpha virt. eigenvalues --    1.63369   1.63796   1.63948   1.66026   1.68122
 Alpha virt. eigenvalues --    1.68455   1.68630   1.69711   1.74146   1.75955
 Alpha virt. eigenvalues --    1.77090   1.77958   1.79802   1.79996   1.80386
 Alpha virt. eigenvalues --    1.83120   1.83176   1.83508   1.83656   1.84124
 Alpha virt. eigenvalues --    1.84271   1.85802   1.85895   1.88142   1.91456
 Alpha virt. eigenvalues --    1.91887   1.94133   1.95227   1.97519   1.97863
 Alpha virt. eigenvalues --    1.99469   2.02417   2.04194   2.07465   2.11696
 Alpha virt. eigenvalues --    2.11967   2.13867   2.15151   2.18734   2.21123
 Alpha virt. eigenvalues --    2.22436   2.28473   2.29870   2.34516   2.35122
 Alpha virt. eigenvalues --    2.36095   2.39004   2.40049   2.42145   2.43380
 Alpha virt. eigenvalues --    2.46222   2.47448   2.48989   2.52708   2.53776
 Alpha virt. eigenvalues --    2.54190   2.56864   2.57785   2.58267   2.59632
 Alpha virt. eigenvalues --    2.59703   2.61657   2.61887   2.63396   2.63772
 Alpha virt. eigenvalues --    2.64606   2.64852   2.65089   2.65207   2.67864
 Alpha virt. eigenvalues --    2.68710   2.70888   2.71380   2.73342   2.74813
 Alpha virt. eigenvalues --    2.76256   2.78498   2.79607   2.82534   2.82959
 Alpha virt. eigenvalues --    2.84528   2.86267   2.92065   2.96822   2.99391
 Alpha virt. eigenvalues --    2.99818   3.05465   3.10553   3.10979   3.12319
 Alpha virt. eigenvalues --    3.20982   3.23696   3.26278   3.27932   3.30472
 Alpha virt. eigenvalues --    3.32080   3.33243   3.43352   3.45483   3.45939
 Alpha virt. eigenvalues --    3.47939   3.49674   3.56330   3.65588   3.67200
 Alpha virt. eigenvalues --    3.67375   3.94491   3.95011   3.95698   3.96498
 Alpha virt. eigenvalues --    4.04365   4.06985   4.07185   4.12498   4.35620
 Alpha virt. eigenvalues --    4.61494   4.69323   4.71071  23.45487  23.61077
 Alpha virt. eigenvalues --   23.81863  23.85868  23.87555  23.89119  23.90464
 Alpha virt. eigenvalues --   23.92210  23.97200  23.98416  23.98609  23.99564
 Alpha virt. eigenvalues --   24.09839  24.09984
          Condensed to atoms (all electrons):
               1          2          3          4          5          6
     1  C    8.488010   0.382736  -0.552923   1.865841  -0.010816  -0.091634
     2  C    0.382736   7.061276   0.357237  -1.003390  -0.024036  -0.014064
     3  C   -0.552923   0.357237   6.575210   0.708405  -0.120588   0.016540
     4  C    1.865841  -1.003390   0.708405  10.802204  -0.263595  -0.119687
     5  C   -0.010816  -0.024036  -0.120588  -0.263595  10.803001   0.699195
     6  C   -0.091634  -0.014064   0.016540  -0.119687   0.699195   6.572908
     7  C   -0.023888   0.002891  -0.014131  -0.024666  -0.993928   0.354916
     8  C    0.396578  -0.022453  -0.091739  -0.015901   1.877619  -0.558126
     9  C   -1.220433  -0.762609   0.291640  -0.270121  -0.262936   0.293019
    10  C   -1.227669   0.230457  -0.347325  -2.504465  -2.503927  -0.342729
    11  C    0.272222  -0.924613   1.044303  -0.408825  -1.536217  -0.157423
    12  C   -1.858691   1.272497  -1.377666  -1.326311  -0.273184  -0.205796
    13  C    0.156085  -0.234816  -0.159358  -1.537500  -0.415634   1.045532
    14  C   -1.057910  -0.199629  -0.205716  -0.270951  -1.343730  -1.368485
    15  H    0.364109  -0.105004  -0.000771   0.026816   0.005636   0.001097
    16  H   -0.020487   0.379586  -0.017583   0.013441  -0.001497  -0.000319
    17  H   -0.023309  -0.018219   0.378103  -0.065713   0.000151   0.000389
    18  H    0.048083   0.004566  -0.087564   0.452994   0.008122  -0.004934
    19  H   -0.046471  -0.008019   0.051799  -0.073668  -0.074157   0.051788
    20  H    0.007286   0.001917  -0.004952   0.008046   0.452411  -0.088000
    21  H   -0.001303  -0.000388   0.000390   0.000160  -0.065676   0.378027
    22  H    0.000698   0.000357  -0.000320  -0.001507   0.013635  -0.017796
    23  H    0.005701  -0.002671   0.001100   0.005640   0.026732  -0.000823
    24  H    0.024387   0.014649  -0.001837  -0.012331  -0.013009  -0.001627
    25  H    0.040299   0.014059  -0.000949  -0.012790  -0.012192  -0.001221
               7          8          9         10         11         12
     1  C   -0.023888   0.396578  -1.220433  -1.227669   0.272222  -1.858691
     2  C    0.002891  -0.022453  -0.762609   0.230457  -0.924613   1.272497
     3  C   -0.014131  -0.091739   0.291640  -0.347325   1.044303  -1.377666
     4  C   -0.024666  -0.015901  -0.270121  -2.504465  -0.408825  -1.326311
     5  C   -0.993928   1.877619  -0.262936  -2.503927  -1.536217  -0.273184
     6  C    0.354916  -0.558126   0.293019  -0.342729  -0.157423  -0.205796
     7  C    7.044069   0.384819  -0.756415   0.227142  -0.228413  -0.197917
     8  C    0.384819   8.483233  -1.208040  -1.227584   0.162806  -1.047435
     9  C   -0.756415  -1.208040   9.426743   0.270314   1.644803  -1.839828
    10  C    0.227142  -1.227584   0.270314   9.119833  -0.421219   2.291434
    11  C   -0.228413   0.162806   1.644803  -0.421219  14.461991  -3.708367
    12  C   -0.197917  -1.047435  -1.839828   2.291434  -3.708367  15.712975
    13  C   -0.920066   0.251164   1.636727  -0.423993   1.176380  -4.809697
    14  C    1.264422  -1.869648  -1.846292   2.296035  -4.794696   2.910196
    15  H   -0.002626   0.005660   0.090353  -0.009675  -0.027425  -0.023844
    16  H    0.000353   0.000654   0.003428  -0.009471   0.026115  -0.031355
    17  H   -0.000386  -0.001290  -0.005196   0.020086  -0.026419   0.087678
    18  H    0.001916   0.007206  -0.025388   0.017025  -0.013260  -0.047602
    19  H   -0.008072  -0.046441   0.074674   0.422526   0.082887  -0.067293
    20  H    0.004946   0.048092  -0.025323   0.017361  -0.012275  -0.011282
    21  H   -0.018447  -0.023048  -0.005184   0.020053  -0.006035   0.004990
    22  H    0.379285  -0.019815   0.003708  -0.009595   0.002894  -0.008891
    23  H   -0.104460   0.364672   0.090523  -0.009647   0.001130   0.006415
    24  H    0.015298   0.025917   0.363834   0.005882   0.009000  -0.050995
    25  H    0.013241   0.038209   0.350902   0.005452   0.018252  -0.068940
              13         14         15         16         17         18
     1  C    0.156085  -1.057910   0.364109  -0.020487  -0.023309   0.048083
     2  C   -0.234816  -0.199629  -0.105004   0.379586  -0.018219   0.004566
     3  C   -0.159358  -0.205716  -0.000771  -0.017583   0.378103  -0.087564
     4  C   -1.537500  -0.270951   0.026816   0.013441  -0.065713   0.452994
     5  C   -0.415634  -1.343730   0.005636  -0.001497   0.000151   0.008122
     6  C    1.045532  -1.368485   0.001097  -0.000319   0.000389  -0.004934
     7  C   -0.920066   1.264422  -0.002626   0.000353  -0.000386   0.001916
     8  C    0.251164  -1.869648   0.005660   0.000654  -0.001290   0.007206
     9  C    1.636727  -1.846292   0.090353   0.003428  -0.005196  -0.025388
    10  C   -0.423993   2.296035  -0.009675  -0.009471   0.020086   0.017025
    11  C    1.176380  -4.794696  -0.027425   0.026115  -0.026419  -0.013260
    12  C   -4.809697   2.910196  -0.023844  -0.031355   0.087678  -0.047602
    13  C   14.515235  -3.698799   0.001236   0.002862  -0.006097  -0.012444
    14  C   -3.698799  15.731485   0.006479  -0.008825   0.005005  -0.011563
    15  H    0.001236   0.006479   0.439638  -0.009008   0.001523   0.000150
    16  H    0.002862  -0.008825  -0.009008   0.419770  -0.006799   0.001937
    17  H   -0.006097   0.005005   0.001523  -0.006799   0.423748  -0.010427
    18  H   -0.012444  -0.011563   0.000150   0.001937  -0.010427   0.453678
    19  H    0.082652  -0.066957   0.000314  -0.000558   0.001460  -0.006370
    20  H   -0.013412  -0.047766  -0.000119   0.000015  -0.000146   0.001295
    21  H   -0.026139   0.087259   0.000015  -0.000007   0.000011  -0.000145
    22  H    0.026459  -0.032303  -0.000127   0.000007  -0.000007   0.000015
    23  H   -0.027881  -0.024178   0.000575  -0.000127   0.000015  -0.000118
    24  H    0.008567  -0.050050  -0.001264   0.000716  -0.000176   0.000176
    25  H    0.018179  -0.069968  -0.000573   0.000531  -0.000111   0.000185
              19         20         21         22         23         24
     1  C   -0.046471   0.007286  -0.001303   0.000698   0.005701   0.024387
     2  C   -0.008019   0.001917  -0.000388   0.000357  -0.002671   0.014649
     3  C    0.051799  -0.004952   0.000390  -0.000320   0.001100  -0.001837
     4  C   -0.073668   0.008046   0.000160  -0.001507   0.005640  -0.012331
     5  C   -0.074157   0.452411  -0.065676   0.013635   0.026732  -0.013009
     6  C    0.051788  -0.088000   0.378027  -0.017796  -0.000823  -0.001627
     7  C   -0.008072   0.004946  -0.018447   0.379285  -0.104460   0.015298
     8  C   -0.046441   0.048092  -0.023048  -0.019815   0.364672   0.025917
     9  C    0.074674  -0.025323  -0.005184   0.003708   0.090523   0.363834
    10  C    0.422526   0.017361   0.020053  -0.009595  -0.009647   0.005882
    11  C    0.082887  -0.012275  -0.006035   0.002894   0.001130   0.009000
    12  C   -0.067293  -0.011282   0.004990  -0.008891   0.006415  -0.050995
    13  C    0.082652  -0.013412  -0.026139   0.026459  -0.027881   0.008567
    14  C   -0.066957  -0.047766   0.087259  -0.032303  -0.024178  -0.050050
    15  H    0.000314  -0.000119   0.000015  -0.000127   0.000575  -0.001264
    16  H   -0.000558   0.000015  -0.000007   0.000007  -0.000127   0.000716
    17  H    0.001460  -0.000146   0.000011  -0.000007   0.000015  -0.000176
    18  H   -0.006370   0.001295  -0.000145   0.000015  -0.000118   0.000176
    19  H    0.444580  -0.006388   0.001454  -0.000556   0.000319   0.000611
    20  H   -0.006388   0.453727  -0.010372   0.001950   0.000142   0.000161
    21  H    0.001454  -0.010372   0.423562  -0.006783   0.001520  -0.000170
    22  H   -0.000556   0.001950  -0.006783   0.419760  -0.009020   0.000691
    23  H    0.000319   0.000142   0.001520  -0.009020   0.439472  -0.001183
    24  H    0.000611   0.000161  -0.000170   0.000691  -0.001183   0.492750
    25  H    0.000608   0.000202  -0.000118   0.000555  -0.000659  -0.079172
              25
     1  C    0.040299
     2  C    0.014059
     3  C   -0.000949
     4  C   -0.012790
     5  C   -0.012192
     6  C   -0.001221
     7  C    0.013241
     8  C    0.038209
     9  C    0.350902
    10  C    0.005452
    11  C    0.018252
    12  C   -0.068940
    13  C    0.018179
    14  C   -0.069968
    15  H   -0.000573
    16  H    0.000531
    17  H   -0.000111
    18  H    0.000185
    19  H    0.000608
    20  H    0.000202
    21  H   -0.000118
    22  H    0.000555
    23  H   -0.000659
    24  H   -0.079172
    25  H    0.492975
 Mulliken charges:
               1
     1  C    0.083500
     2  C   -0.402319
     3  C   -0.441307
     4  C    0.027873
     5  C    0.028617
     6  C   -0.440747
     7  C   -0.399884
     8  C    0.084892
     9  C   -0.312903
    10  C    0.093698
    11  C   -0.637595
    12  C    0.668909
    13  C   -0.635243
    14  C    0.666587
    15  H    0.236834
    16  H    0.256620
    17  H    0.246128
    18  H    0.222469
    19  H    0.189280
    20  H    0.222482
    21  H    0.246374
    22  H    0.256705
    23  H    0.236809
    24  H    0.249176
    25  H    0.253046
 Sum of Mulliken charges =   1.00000
 Mulliken charges with hydrogens summed into heavy atoms:
               1
     1  C    0.320334
     2  C   -0.145699
     3  C   -0.195178
     4  C    0.250342
     5  C    0.251099
     6  C   -0.194373
     7  C   -0.143179
     8  C    0.321701
     9  C    0.189318
    10  C    0.282978
    11  C   -0.637595
    12  C    0.668909
    13  C   -0.635243
    14  C    0.666587
 Electronic spatial extent (au):  <R**2>=           2861.8176
 Charge=              1.0000 electrons
 Dipole moment (field-independent basis, Debye):
    X=              0.0040    Y=              0.1902    Z=              0.0004  Tot=              0.1903
 Quadrupole moment (field-independent basis, Debye-Ang):
   XX=            -30.9856   YY=            -56.2613   ZZ=            -84.1904
   XY=              0.0023   XZ=              0.0037   YZ=              0.0717
 Traceless Quadrupole moment (field-independent basis, Debye-Ang):
   XX=             26.1602   YY=              0.8845   ZZ=            -27.0447
   XY=              0.0023   XZ=              0.0037   YZ=              0.0717
 Octapole moment (field-independent basis, Debye-Ang**2):
  XXX=              0.1654  YYY=              5.2077  ZZZ=             -0.0211  XYY=             -0.0018
  XXY=             -4.6937  XXZ=              0.1314  XZZ=             -0.0196  YZZ=             -3.0867
  YYZ=              0.0903  XYZ=              0.0186
 Hexadecapole moment (field-independent basis, Debye-Ang**3):
 XXXX=          -2124.8180 YYYY=           -609.2966 ZZZZ=            -99.5042 XXXY=              0.0932
 XXXZ=              0.1050 YYYX=             -0.0385 YYYZ=              0.7817 ZZZX=              0.0050
 ZZZY=              0.0332 XXYY=           -508.7481 XXZZ=           -592.3987 YYZZ=           -145.7674
 XXYZ=              0.7853 YYXZ=              0.0001 ZZXY=              0.0019
 N-N= 7.804967317711D+02 E-N=-2.797295592635D+03  KE= 5.374622256104D+02
 Unable to Open any file for archive entry.
 1\1\GINC-GADI-CPU-CLX-0113\SP\RM062X TD-FC\6-311++G(d,p)\C14H11(1+)\TS
 1578\28-Jul-2022\0\\#n M062X/6-311++G(d,p) TD(NStates=1) EmpiricalDisp
 ersion=GD3 SP\\SP_0\\1,1\C,0,0.0117,2.491755,1.360431\C,0,0.01305,3.70
 6533,0.671989\C,0,0.0039,3.692411,-0.71383\C,0,-0.011625,2.469831,-1.4
 07538\C,0,-0.011775,-2.470131,-1.407538\C,0,0.003,-3.693911,-0.71383\C
 ,0,0.011625,-3.707058,0.671989\C,0,0.00885,-2.492655,1.360431\C,0,0.00
 6525,0.0033,1.453369\C,0,-0.0183,-0.00015,-1.429189\C,0,-0.002625,1.25
 6355,0.677065\C,0,-0.0078,1.238596,-0.730804\C,0,-0.00285,-1.25628,0.6
 77065\C,0,-0.0072,-1.238146,-0.730804\H,0,0.0048,2.487246,2.443647\H,0
 ,0.01335,4.640503,1.211689\H,0,-0.00195,4.607987,-1.272349\H,0,-0.0057
 ,2.474075,-2.490059\H,0,-0.016875,-0.000075,-2.510266\H,0,-0.00525,-2.
 4743,-2.490059\H,0,-0.0024,-4.609862,-1.272349\H,0,0.011625,-4.641628,
 1.211689\H,0,0.0015,-2.488221,2.443647\H,0,-0.835585,0.00075,2.144962\
 H,0,0.883585,0.00075,2.146612\\Version=ES64L-G16RevC.01\State=1-A\HF=-
 539.7592745\RMSD=4.633e-09\PG=C01 [X(C14H11)]\\@
 The archive entry for this job was punched.


 IF YOU WANT TO LEARN FROM THE THEORETICAL PHYSICISTS ABOUT THE
 METHODS WHICH THEY USE, I ADVISE YOU TO FOLLOW THIS PRINCIPLE VERY STRICTLY:
 DON'T LISTEN TO THEIR WORDS; PAY ATTENTION, INSTEAD, TO THEIR ACTIONS.
 -- A.EINSTEIN, 1934
 Job cpu time:       0 days  1 hours 19 minutes 46.7 seconds.
 Elapsed time:       0 days  0 hours  1 minutes 39.9 seconds.
 File lengths (MBytes):  RWF=    460 Int=      0 D2E=      0 Chk=     15 Scr=      1
 Normal termination of Gaussian 16 at Thu Jul 28 15:12:24 2022.
