 Entering Gaussian System, Link 0=g16
 Initial command:
 /apps/gaussian/g16c01/g16/l1.exe "/jobfs/53002009.gadi-pbs/Gau-794417.inp" -scrdir="/jobfs/53002009.gadi-pbs/"
 Entering Link 1 = /apps/gaussian/g16c01/g16/l1.exe PID=    794418.
  
 Copyright (c) 1988-2019, Gaussian, Inc.  All Rights Reserved.
  
 This is part of the Gaussian(R) 16 program.  It is based on
 the Gaussian(R) 09 system (copyright 2009, Gaussian, Inc.),
 the Gaussian(R) 03 system (copyright 2003, Gaussian, Inc.),
 the Gaussian(R) 98 system (copyright 1998, Gaussian, Inc.),
 the Gaussian(R) 94 system (copyright 1995, Gaussian, Inc.),
 the Gaussian 92(TM) system (copyright 1992, Gaussian, Inc.),
 the Gaussian 90(TM) system (copyright 1990, Gaussian, Inc.),
 the Gaussian 88(TM) system (copyright 1988, Gaussian, Inc.),
 the Gaussian 86(TM) system (copyright 1986, Carnegie Mellon
 University), and the Gaussian 82(TM) system (copyright 1983,
 Carnegie Mellon University). Gaussian is a federally registered
 trademark of Gaussian, Inc.
  
 This software contains proprietary and confidential information,
 including trade secrets, belonging to Gaussian, Inc.
  
 This software is provided under written license and may be
 used, copied, transmitted, or stored only in accord with that
 written license.
  
 The following legend is applicable only to US Government
 contracts under FAR:
  
                    RESTRICTED RIGHTS LEGEND
  
 Use, reproduction and disclosure by the US Government is
 subject to restrictions as set forth in subparagraphs (a)
 and (c) of the Commercial Computer Software - Restricted
 Rights clause in FAR 52.227-19.
  
 Gaussian, Inc.
 340 Quinnipiac St., Bldg. 40, Wallingford CT 06492
  
  
 ---------------------------------------------------------------
 Warning -- This program may not be used in any manner that
 competes with the business of Gaussian, Inc. or will provide
 assistance to any competitor of Gaussian, Inc.  The licensee
 of this program is prohibited from giving any competitor of
 Gaussian, Inc. access to this program.  By using this program,
 the user acknowledges that Gaussian, Inc. is engaged in the
 business of creating and licensing software in the field of
 computational chemistry and represents and warrants to the
 licensee that it is not a competitor of Gaussian, Inc. and that
 it will not use this program in any manner prohibited above.
 ---------------------------------------------------------------
  

 Cite this work as:
 Gaussian 16, Revision C.01,
 M. J. Frisch, G. W. Trucks, H. B. Schlegel, G. E. Scuseria, 
 M. A. Robb, J. R. Cheeseman, G. Scalmani, V. Barone, 
 G. A. Petersson, H. Nakatsuji, X. Li, M. Caricato, A. V. Marenich, 
 J. Bloino, B. G. Janesko, R. Gomperts, B. Mennucci, H. P. Hratchian, 
 J. V. Ortiz, A. F. Izmaylov, J. L. Sonnenberg, D. Williams-Young, 
 F. Ding, F. Lipparini, F. Egidi, J. Goings, B. Peng, A. Petrone, 
 T. Henderson, D. Ranasinghe, V. G. Zakrzewski, J. Gao, N. Rega, 
 G. Zheng, W. Liang, M. Hada, M. Ehara, K. Toyota, R. Fukuda, 
 J. Hasegawa, M. Ishida, T. Nakajima, Y. Honda, O. Kitao, H. Nakai, 
 T. Vreven, K. Throssell, J. A. Montgomery, Jr., J. E. Peralta, 
 F. Ogliaro, M. J. Bearpark, J. J. Heyd, E. N. Brothers, K. N. Kudin, 
 V. N. Staroverov, T. A. Keith, R. Kobayashi, J. Normand, 
 K. Raghavachari, A. P. Rendell, J. C. Burant, S. S. Iyengar, 
 J. Tomasi, M. Cossi, J. M. Millam, M. Klene, C. Adamo, R. Cammi, 
 J. W. Ochterski, R. L. Martin, K. Morokuma, O. Farkas, 
 J. B. Foresman, and D. J. Fox, Gaussian, Inc., Wallingford CT, 2019.
 
 ******************************************
 Gaussian 16:  ES64L-G16RevC.01  3-Jul-2019
                28-Jul-2022 
 ******************************************
 %NProcShared=48
 Will use up to   48 processors via shared memory.
 %mem = 190GB
 ---------------------------------------------------------------
 #n M062X/6-311++G(d,p) TD(NStates=1) EmpiricalDispersion=GD3 SP
 ---------------------------------------------------------------
 1/38=1,172=1/1;
 2/12=2,17=6,18=5,40=1/2;
 3/5=4,6=6,7=1111,11=9,25=1,30=1,74=-55,124=31/1,2,3,8;
 4//1;
 5/5=2,38=5/2;
 8/6=1,10=2,108=1/1;
 9/41=1,42=1,70=2/14;
 6/7=2,8=2,9=2,10=2/1;
 99/5=1,9=1/99;
 ------
 SP_100
 ------
 Symbolic Z-matrix:
 Charge =  1 Multiplicity = 1
 C                    -0.0079    2.49236   1.36043 
 C                    -0.01115   3.69578   0.67199 
 C                    -0.0027    3.67331  -0.71383 
 C                     0.01182   2.45608  -1.40754 
 C                     0.01157  -2.45658  -1.40754 
 C                    -0.0042   -3.67581  -0.71383 
 C                    -0.01353  -3.69666   0.67199 
 C                    -0.01265  -2.49386   1.36043 
 C                    -0.00663   0.0055    1.45337 
 C                     0.0183   -0.00025  -1.42919 
 C                     0.00293   1.26786   0.67707 
 C                     0.007     1.23695  -0.7308 
 C                     0.00255  -1.26773   0.67707 
 C                     0.008    -1.2362   -0.7308 
 H                    -0.0004    2.4876    2.44365 
 H                    -0.01105   4.6315    1.21169 
 H                     0.00255   4.60804  -1.27235 
 H                     0.0051    2.46073  -2.49006 
 H                     0.01688  -0.00013  -2.51027 
 H                     0.00585  -2.4611   -2.49006 
 H                     0.0018   -4.61116  -1.27235 
 H                    -0.01393  -4.63338   1.21169 
 H                    -0.0059   -2.48922   2.44365 
 H                    -0.88359   0.00125   2.14441 
 H                     0.83559   0.00125   2.14716 
 
                          Input orientation:                          
 ---------------------------------------------------------------------
 Center     Atomic      Atomic             Coordinates (Angstroms)
 Number     Number       Type             X           Y           Z
 ---------------------------------------------------------------------
      1          6           0       -0.007900    2.492355    1.360431
      2          6           0       -0.011150    3.695783    0.671989
      3          6           0       -0.002700    3.673311   -0.713830
      4          6           0        0.011825    2.456081   -1.407538
      5          6           0        0.011575   -2.456581   -1.407538
      6          6           0       -0.004200   -3.675811   -0.713830
      7          6           0       -0.013525   -3.696658    0.671989
      8          6           0       -0.012650   -2.493855    1.360431
      9          6           0       -0.006625    0.005500    1.453369
     10          6           0        0.018300   -0.000250   -1.429189
     11          6           0        0.002925    1.267855    0.677065
     12          6           0        0.007000    1.236946   -0.730804
     13          6           0        0.002550   -1.267730    0.677065
     14          6           0        0.008000   -1.236196   -0.730804
     15          1           0       -0.000400    2.487596    2.443647
     16          1           0       -0.011050    4.631503    1.211689
     17          1           0        0.002550    4.608037   -1.272349
     18          1           0        0.005100    2.460725   -2.490059
     19          1           0        0.016875   -0.000125   -2.510266
     20          1           0        0.005850   -2.461100   -2.490059
     21          1           0        0.001800   -4.611162   -1.272349
     22          1           0       -0.013925   -4.633378    1.211689
     23          1           0       -0.005900   -2.489221    2.443647
     24          1           0       -0.883585    0.001250    2.144412
     25          1           0        0.835585    0.001250    2.147162
 ---------------------------------------------------------------------
                    Distance matrix (angstroms):
                    1          2          3          4          5
     1  C    0.000000
     2  C    1.386435   0.000000
     3  C    2.386890   1.386027   0.000000
     4  C    2.768277   2.421120   1.401103   0.000000
     5  C    5.670450   6.494346   6.169036   4.912662   0.000000
     6  C    6.507599   7.500729   7.349122   6.171028   1.402855
     7  C    6.227188   7.392441   7.499137   6.494711   2.421333
     8  C    4.986212   6.227806   6.506658   5.671342   2.768326
     9  C    2.488591   3.772103   4.260235   3.767025   3.774515
    10  C    3.741089   4.251644   3.742623   2.456435   2.456436
    11  C    1.402322   2.427974   2.778640   2.399485   4.268146
    12  C    2.439167   2.830907   2.436443   1.394375   3.755014
    13  C    3.821693   4.963535   5.133079   4.267602   2.399795
    14  C    4.274998   5.127632   4.909548   3.753784   1.395465
    15  H    1.083252   2.144435   3.372771   3.851333   6.267109
    16  H    2.144315   1.080207   2.150773   3.404899   7.556573
    17  H    3.377536   2.147754   1.088891   2.156218   7.065917
    18  H    3.850642   3.394728   2.150678   1.082552   5.035056
    19  H    4.603842   4.877219   4.089217   2.692393   2.692622
    20  H    6.274008   6.921419   6.386397   5.034934   1.082546
    21  H    7.575723   8.531468   8.303280   7.068543   2.158840
    22  H    7.127288   8.346628   8.526947   7.557873   3.405796
    23  H    5.097986   6.433745   6.924339   6.268010   3.851363
    24  H    2.754461   4.071701   4.735983   4.409569   4.411190
    25  H    2.745181   4.067268   4.729908   4.397803   4.399525
                    6          7          8          9         10
     6  C    0.000000
     7  C    1.386007   0.000000
     8  C    2.387394   1.385889   0.000000
     9  C    4.271862   3.783725   2.501090   0.000000
    10  C    3.744595   4.251987   3.741791   2.882671   0.000000
    11  C    5.135608   4.964543   3.823309   1.481985   2.458583
    12  C    4.912799   5.129201   4.276976   2.507440   1.420747
    13  C    2.780915   2.428986   1.403782   1.491257   2.458264
    14  C    2.439705   2.832343   2.440368   2.512496   1.419651
    15  H    6.925118   6.433035   5.097878   2.672357   4.603106
    16  H    8.527552   8.345630   7.126911   4.632314   5.331813
    17  H    8.302658   8.529283   7.574208   5.349109   4.610982
    18  H    6.388439   6.921868   6.274906   4.645309   2.679929
    19  H    4.091246   4.877707   4.604547   3.963709   1.081078
    20  H    2.151886   3.394927   3.850674   4.651333   2.679810
    21  H    1.089431   2.148721   3.378569   5.361266   4.613608
    22  H    2.150501   1.081074   2.144688   4.645175   5.333024
    23  H    3.373079   2.144000   1.083247   2.684080   4.603740
    24  H    4.739583   4.074255   2.756574   1.116520   3.685651
    25  H    4.734057   4.070829   2.750272   1.091185   3.668548
                   11         12         13         14         15
    11  C    0.000000
    12  C    1.408214   0.000000
    13  C    2.535585   2.873242   0.000000
    14  C    2.872698   2.473142   1.408233   0.000000
    15  H    2.146763   3.411938   4.150096   4.893244   0.000000
    16  H    3.405899   3.911090   5.923424   6.180901   2.472685
    17  H    3.867432   3.414315   6.190707   5.869273   4.278423
    18  H    3.384319   2.143039   4.892040   4.094168   4.933782
    19  H    3.430313   2.167240   3.430176   2.166665   5.543492
    20  H    4.892422   4.095183   3.384497   2.143682   6.987924
    21  H    6.193792   5.873131   3.870239   3.418143   8.012552
    22  H    5.925425   6.183399   3.407885   3.913388   7.226768
    23  H    4.151688   4.895061   2.147772   3.412829   4.976820
    24  H    2.131501   3.253760   2.132757   3.254699   2.655461
    25  H    2.111586   3.239782   2.113159   3.240194   2.639828
                   16         17         18         19         20
    16  H    0.000000
    17  H    2.484186   0.000000
    18  H    4.291326   2.468557   0.000000
    19  H    5.941861   4.771562   2.460961   0.000000
    20  H    8.000515   7.173251   4.921825   2.461083   0.000000
    21  H    9.570657   9.219199   7.175961   4.774341   2.470951
    22  H    9.264881   9.569455   8.001850   5.943142   4.292100
    23  H    7.226511   8.011228   6.988815   5.544129   4.933800
    24  H    4.803179   5.803618   5.321381   4.740976   5.322836
    25  H    4.799077   5.797369   5.314371   4.728840   5.315585
                   21         22         23         24         25
    21  H    0.000000
    22  H    2.484187   0.000000
    23  H    4.279173   2.472892   0.000000
    24  H    5.807969   4.806876   2.657502   0.000000
    25  H    5.801948   4.803806   2.645458   1.719172   0.000000
 Stoichiometry    C14H11(1+)
 Framework group  C1[X(C14H11)]
 Deg. of freedom    69
 Full point group                 C1      NOp   1
 Largest Abelian subgroup         C1      NOp   1
 Largest concise Abelian subgroup C1      NOp   1
                         Standard orientation:                         
 ---------------------------------------------------------------------
 Center     Atomic      Atomic             Coordinates (Angstroms)
 Number     Number       Type             X           Y           Z
 ---------------------------------------------------------------------
      1          6           0        2.492497   -1.360194   -0.000597
      2          6           0        3.695852   -0.671664    0.007547
      3          6           0        3.673236    0.714178    0.008219
      4          6           0        2.455938    1.407841   -0.002099
      5          6           0       -2.456724    1.407332   -0.003316
      6          6           0       -3.675886    0.713409    0.007525
      7          6           0       -3.696590   -0.672444    0.007715
      8          6           0       -2.493714   -1.360741    0.002664
      9          6           0        0.005652   -1.453379   -0.003227
     10          6           0       -0.000394    1.429280   -0.009165
     11          6           0        1.267928   -0.676898   -0.007286
     12          6           0        1.236872    0.730964   -0.002096
     13          6           0       -1.267656   -0.677163   -0.007668
     14          6           0       -1.236269    0.730715   -0.003834
     15          1           0        2.487854   -2.443338   -0.015234
     16          1           0        4.631628   -1.211255    0.004171
     17          1           0        4.607905    1.272816    0.006927
     18          1           0        2.460466    2.490295    0.011758
     19          1           0       -0.000383    2.510325   -0.000619
     20          1           0       -2.461359    2.489791    0.009538
     21          1           0       -4.611294    1.271859    0.004925
     22          1           0       -4.633253   -1.212231    0.004281
     23          1           0       -2.488964   -2.443888   -0.011219
     24          1           0        0.001214   -2.150184    0.869161
     25          1           0        0.001726   -2.141609   -0.849990
 ---------------------------------------------------------------------
 Rotational constants (GHZ):           2.1360664           0.4458694           0.3696804
 Standard basis: 6-311++G(d,p) (5D, 7F)
 There are   399 symmetry adapted cartesian basis functions of A   symmetry.
 There are   385 symmetry adapted basis functions of A   symmetry.
   385 basis functions,   603 primitive gaussians,   399 cartesian basis functions
    47 alpha electrons       47 beta electrons
       nuclear repulsion energy       781.8811069759 Hartrees.
 NAtoms=   25 NActive=   25 NUniq=   25 SFac= 1.00D+00 NAtFMM=   60 NAOKFM=F Big=F
 Integral buffers will be    131072 words long.
 Regular integral format.
 Two-electron integral symmetry is turned on.
 Nuclear repulsion after empirical dispersion term =      781.8801277035 Hartrees.
 One-electron integrals computed using PRISM.
 NBasis=   385 RedAO= T EigKep=  1.15D-06  NBF=   385
 NBsUse=   379 1.00D-06 EigRej=  8.30D-07 NBFU=   379
 ExpMin= 3.60D-02 ExpMax= 4.56D+03 ExpMxC= 6.82D+02 IAcc=3 IRadAn=         5 AccDes= 0.00D+00
 Harris functional with IExCor= 1009 and IRadAn=       5 diagonalized for initial guess.
 HarFok:  IExCor= 1009 AccDes= 0.00D+00 IRadAn=         5 IDoV= 1 UseB2=F ITyADJ=14
 ICtDFT=  3500011 ScaDFX=  1.000000  1.000000  1.000000  1.000000
 FoFCou: FMM=F IPFlag=           0 FMFlag=      100000 FMFlg1=           0
         NFxFlg=           0 DoJE=T BraDBF=F KetDBF=T FulRan=T
         wScrn=  0.000000 ICntrl=       500 IOpCl=  0 I1Cent=   200000004 NGrid=           0
         NMat0=    1 NMatS0=      1 NMatT0=    0 NMatD0=    1 NMtDS0=    0 NMtDT0=    0
 Petite list used in FoFCou.
 Requested convergence on RMS density matrix=1.00D-08 within 128 cycles.
 Requested convergence on MAX density matrix=1.00D-06.
 Requested convergence on             energy=1.00D-06.
 No special actions if energy rises.
 SCF Done:  E(RM062X) =  -539.759918267     A.U. after   15 cycles
            NFock= 15  Conv=0.46D-08     -V/T= 2.0041
 DoSCS=F DFT=T ScalE2(SS,OS)=  1.000000  1.000000
 ExpMin= 3.60D-02 ExpMax= 4.56D+03 ExpMxC= 6.82D+02 IAcc=3 IRadAn=         5 AccDes= 0.00D+00
 HarFok:  IExCor=  205 AccDes= 0.00D+00 IRadAn=         5 IDoV=-2 UseB2=F ITyADJ=14
 ICtDFT= 12500011 ScaDFX=  1.000000  1.000000  1.000000  1.000000
 Range of M.O.s used for correlation:    15   379
 NBasis=   385 NAE=    47 NBE=    47 NFC=    14 NFV=     0
 NROrb=    365 NOA=    33 NOB=    33 NVA=   332 NVB=   332

 **** Warning!!: The largest alpha MO coefficient is  0.15063402D+03

 Orbital symmetries:
       Occupied  (A) (A) (A) (A) (A) (A) (A) (A) (A) (A) (A) (A)
                 (A) (A) (A) (A) (A) (A) (A) (A) (A) (A) (A) (A)
                 (A) (A) (A) (A) (A) (A) (A) (A) (A) (A) (A) (A)
                 (A) (A) (A) (A) (A) (A) (A) (A) (A) (A) (A)
       Virtual   (A) (A) (A) (A) (A) (A) (A) (A) (A) (A) (A) (A)
                 (A) (A) (A) (A) (A) (A) (A) (A) (A) (A) (A) (A)
                 (A) (A) (A) (A) (A) (A) (A) (A) (A) (A) (A) (A)
                 (A) (A) (A) (A) (A) (A) (A) (A) (A) (A) (A) (A)
                 (A) (A) (A) (A) (A) (A) (A) (A) (A) (A) (A) (A)
                 (A) (A) (A) (A) (A) (A) (A) (A) (A) (A) (A) (A)
                 (A) (A) (A) (A) (A) (A) (A) (A) (A) (A) (A) (A)
                 (A) (A) (A) (A) (A) (A) (A) (A) (A) (A) (A) (A)
                 (A) (A) (A) (A) (A) (A) (A) (A) (A) (A) (A) (A)
                 (A) (A) (A) (A) (A) (A) (A) (A) (A) (A) (A) (A)
                 (A) (A) (A) (A) (A) (A) (A) (A) (A) (A) (A) (A)
                 (A) (A) (A) (A) (A) (A) (A) (A) (A) (A) (A) (A)
                 (A) (A) (A) (A) (A) (A) (A) (A) (A) (A) (A) (A)
                 (A) (A) (A) (A) (A) (A) (A) (A) (A) (A) (A) (A)
                 (A) (A) (A) (A) (A) (A) (A) (A) (A) (A) (A) (A)
                 (A) (A) (A) (A) (A) (A) (A) (A) (A) (A) (A) (A)
                 (A) (A) (A) (A) (A) (A) (A) (A) (A) (A) (A) (A)
                 (A) (A) (A) (A) (A) (A) (A) (A) (A) (A) (A) (A)
                 (A) (A) (A) (A) (A) (A) (A) (A) (A) (A) (A) (A)
                 (A) (A) (A) (A) (A) (A) (A) (A) (A) (A) (A) (A)
                 (A) (A) (A) (A) (A) (A) (A) (A) (A) (A) (A) (A)
                 (A) (A) (A) (A) (A) (A) (A) (A) (A) (A) (A) (A)
                 (A) (A) (A) (A) (A) (A) (A) (A) (A) (A) (A) (A)
                 (A) (A) (A) (A) (A) (A) (A) (A) (A) (A) (A) (A)
                 (A) (A) (A) (A) (A) (A) (A) (A) (A) (A) (A) (A)
                 (A) (A) (A) (A) (A) (A) (A) (A) (A) (A) (A) (A)
                 (A) (A) (A) (A) (A) (A) (A) (A) (A) (A) (A) (A)
                 (A) (A) (A) (A) (A) (A) (A) (A)
     4 initial guesses have been made.
 Convergence on wavefunction:    0.001000000000000
 Iteration     1 Dimension     4 NMult     0 NNew      4
 CISAX will form     4 AO SS matrices at one time.
 Iteration     2 Dimension     6 NMult     4 NNew      2
 Iteration     3 Dimension     8 NMult     6 NNew      2
 Iteration     4 Dimension    10 NMult     8 NNew      2
 Iteration     5 Dimension    12 NMult    10 NNew      2
 Iteration     6 Dimension    14 NMult    12 NNew      2
 ***********************************************************************
 Excited states from <AA,BB:AA,BB> singles matrix:
 ***********************************************************************
 
 Ground to excited state transition densities written to RWF  633
 Ground to excited state transition electric dipole moments (Au):
       state          X           Y           Z        Dip. S.      Osc.
         1         0.0070     -0.6492      0.0029      0.4215      0.0293
 Ground to excited state transition velocity dipole moments (Au):
       state          X           Y           Z        Dip. S.      Osc.
         1        -0.0008      0.0752     -0.0004      0.0057      0.0362
 Ground to excited state transition magnetic dipole moments (Au):
       state          X           Y           Z
         1        -0.0042     -0.0005     -0.0004
 Ground to excited state transition velocity quadrupole moments (Au):
       state          XX          YY          ZZ          XY          XZ          YZ
         1         0.2886      0.0369     -0.0100     -0.0011      0.0000      0.0005
 <0|del|b> * <b|rxdel|0> + <0|del|b> * <b|delr+rdel|0>
 Rotatory Strengths (R) in cgs (10**-40 erg-esu-cm/Gauss)
       state          XX          YY          ZZ    R(velocity)    E-M Angle
         1        -0.1405      0.0086     -0.1146     -0.0822       90.00
 1/2[<0|r|b>*<b|rxdel|0> + (<0|rxdel|b>*<b|r|0>)*]
 Rotatory Strengths (R) in cgs (10**-40 erg-esu-cm/Gauss)
       state          XX          YY          ZZ     R(length)
         1         0.0206     -0.2415      0.0008     -0.0734
  1/2[<0|del|b>*<b|r|0> + (<0|r|b>*<b|del|0>)*] (Au)
       state          X           Y           Z        Dip. S.   Osc.(frdel)
         1        -0.0000     -0.0488     -0.0000      0.0488      0.0326

 Excitation energies and oscillator strengths:
 
 Excited State   1:      Singlet-A      2.8336 eV  437.55 nm  f=0.0293  <S**2>=0.000
      47 -> 48         0.70425
 This state for optimization and/or second-order correction.
 Total Energy, E(TD-HF/TD-DFT) =  -539.655784532    
 Copying the excited state density for this state as the 1-particle RhoCI density.
 SavETr:  write IOETrn=   770 NScale= 10 NData=  16 NLR=1 NState=    1 LETran=      28.

 **********************************************************************

            Population analysis using the SCF Density.

 **********************************************************************

 Orbital symmetries:
       Occupied  (A) (A) (A) (A) (A) (A) (A) (A) (A) (A) (A) (A)
                 (A) (A) (A) (A) (A) (A) (A) (A) (A) (A) (A) (A)
                 (A) (A) (A) (A) (A) (A) (A) (A) (A) (A) (A) (A)
                 (A) (A) (A) (A) (A) (A) (A) (A) (A) (A) (A)
       Virtual   (A) (A) (A) (A) (A) (A) (A) (A) (A) (A) (A) (A)
                 (A) (A) (A) (A) (A) (A) (A) (A) (A) (A) (A) (A)
                 (A) (A) (A) (A) (A) (A) (A) (A) (A) (A) (A) (A)
                 (A) (A) (A) (A) (A) (A) (A) (A) (A) (A) (A) (A)
                 (A) (A) (A) (A) (A) (A) (A) (A) (A) (A) (A) (A)
                 (A) (A) (A) (A) (A) (A) (A) (A) (A) (A) (A) (A)
                 (A) (A) (A) (A) (A) (A) (A) (A) (A) (A) (A) (A)
                 (A) (A) (A) (A) (A) (A) (A) (A) (A) (A) (A) (A)
                 (A) (A) (A) (A) (A) (A) (A) (A) (A) (A) (A) (A)
                 (A) (A) (A) (A) (A) (A) (A) (A) (A) (A) (A) (A)
                 (A) (A) (A) (A) (A) (A) (A) (A) (A) (A) (A) (A)
                 (A) (A) (A) (A) (A) (A) (A) (A) (A) (A) (A) (A)
                 (A) (A) (A) (A) (A) (A) (A) (A) (A) (A) (A) (A)
                 (A) (A) (A) (A) (A) (A) (A) (A) (A) (A) (A) (A)
                 (A) (A) (A) (A) (A) (A) (A) (A) (A) (A) (A) (A)
                 (A) (A) (A) (A) (A) (A) (A) (A) (A) (A) (A) (A)
                 (A) (A) (A) (A) (A) (A) (A) (A) (A) (A) (A) (A)
                 (A) (A) (A) (A) (A) (A) (A) (A) (A) (A) (A) (A)
                 (A) (A) (A) (A) (A) (A) (A) (A) (A) (A) (A) (A)
                 (A) (A) (A) (A) (A) (A) (A) (A) (A) (A) (A) (A)
                 (A) (A) (A) (A) (A) (A) (A) (A) (A) (A) (A) (A)
                 (A) (A) (A) (A) (A) (A) (A) (A) (A) (A) (A) (A)
                 (A) (A) (A) (A) (A) (A) (A) (A) (A) (A) (A) (A)
                 (A) (A) (A) (A) (A) (A) (A) (A) (A) (A) (A) (A)
                 (A) (A) (A) (A) (A) (A) (A) (A) (A) (A) (A) (A)
                 (A) (A) (A) (A) (A) (A) (A) (A) (A) (A) (A) (A)
                 (A) (A) (A) (A) (A) (A) (A) (A) (A) (A) (A) (A)
                 (A) (A) (A) (A) (A) (A) (A) (A)
 The electronic state is 1-A.
 Alpha  occ. eigenvalues --  -10.77672 -10.73253 -10.73183 -10.72376 -10.72372
 Alpha  occ. eigenvalues --  -10.71309 -10.71272 -10.70977 -10.70965 -10.70953
 Alpha  occ. eigenvalues --  -10.69904 -10.69877 -10.69674 -10.69640  -1.16494
 Alpha  occ. eigenvalues --   -1.12623  -1.07030  -1.05679  -1.01472  -1.00158
 Alpha  occ. eigenvalues --   -0.95841  -0.91040  -0.86428  -0.85930  -0.83822
 Alpha  occ. eigenvalues --   -0.78414  -0.76036  -0.74449  -0.69559  -0.69226
 Alpha  occ. eigenvalues --   -0.68493  -0.68138  -0.68014  -0.64857  -0.64386
 Alpha  occ. eigenvalues --   -0.62966  -0.61761  -0.60052  -0.59793  -0.59049
 Alpha  occ. eigenvalues --   -0.56881  -0.55178  -0.54777  -0.52500  -0.46741
 Alpha  occ. eigenvalues --   -0.46044  -0.44567
 Alpha virt. eigenvalues --   -0.26104  -0.14593  -0.14079  -0.12683  -0.11181
 Alpha virt. eigenvalues --   -0.10091  -0.09242  -0.08015  -0.07956  -0.07481
 Alpha virt. eigenvalues --   -0.07209  -0.07130  -0.05641  -0.05581  -0.05318
 Alpha virt. eigenvalues --   -0.03848  -0.03676  -0.03278  -0.03131  -0.02166
 Alpha virt. eigenvalues --   -0.01377  -0.00949   0.00194   0.00557   0.00668
 Alpha virt. eigenvalues --    0.01063   0.01513   0.01956   0.02224   0.02282
 Alpha virt. eigenvalues --    0.02458   0.02664   0.02825   0.03246   0.03348
 Alpha virt. eigenvalues --    0.04234   0.04508   0.04701   0.05076   0.05375
 Alpha virt. eigenvalues --    0.06004   0.06304   0.06606   0.07042   0.07266
 Alpha virt. eigenvalues --    0.07906   0.08231   0.08352   0.08575   0.08925
 Alpha virt. eigenvalues --    0.09538   0.09555   0.10038   0.10866   0.11056
 Alpha virt. eigenvalues --    0.11129   0.12175   0.12227   0.12937   0.12947
 Alpha virt. eigenvalues --    0.13418   0.13496   0.14014   0.14458   0.16126
 Alpha virt. eigenvalues --    0.16234   0.16479   0.17324   0.17607   0.17757
 Alpha virt. eigenvalues --    0.18130   0.19130   0.19281   0.19668   0.19764
 Alpha virt. eigenvalues --    0.21609   0.21628   0.22690   0.23083   0.23558
 Alpha virt. eigenvalues --    0.23813   0.24586   0.25199   0.26899   0.27673
 Alpha virt. eigenvalues --    0.28846   0.29284   0.29851   0.31393   0.35813
 Alpha virt. eigenvalues --    0.36541   0.38191   0.39341   0.41137   0.41359
 Alpha virt. eigenvalues --    0.41976   0.42122   0.42963   0.43774   0.44257
 Alpha virt. eigenvalues --    0.45018   0.45127   0.46047   0.46159   0.47924
 Alpha virt. eigenvalues --    0.48496   0.48860   0.49002   0.50397   0.51265
 Alpha virt. eigenvalues --    0.51643   0.51739   0.52135   0.53084   0.53936
 Alpha virt. eigenvalues --    0.54051   0.54735   0.55712   0.55769   0.57416
 Alpha virt. eigenvalues --    0.58260   0.58817   0.61462   0.62210   0.62326
 Alpha virt. eigenvalues --    0.63217   0.63509   0.64840   0.65176   0.67082
 Alpha virt. eigenvalues --    0.70466   0.70533   0.71035   0.72449   0.72859
 Alpha virt. eigenvalues --    0.75763   0.75936   0.76318   0.76799   0.77041
 Alpha virt. eigenvalues --    0.77800   0.77853   0.78249   0.80141   0.80360
 Alpha virt. eigenvalues --    0.81326   0.81609   0.82164   0.83053   0.85117
 Alpha virt. eigenvalues --    0.87146   0.88109   0.88179   0.89537   0.90427
 Alpha virt. eigenvalues --    0.90956   0.91428   0.93367   0.94716   0.96383
 Alpha virt. eigenvalues --    0.96678   1.00289   1.01311   1.01783   1.02886
 Alpha virt. eigenvalues --    1.03195   1.03976   1.04716   1.05426   1.08913
 Alpha virt. eigenvalues --    1.19381   1.23234   1.24065   1.25341   1.28066
 Alpha virt. eigenvalues --    1.29946   1.31517   1.34451   1.35867   1.36126
 Alpha virt. eigenvalues --    1.39443   1.40122   1.41018   1.43233   1.43569
 Alpha virt. eigenvalues --    1.43627   1.45252   1.45440   1.46385   1.46647
 Alpha virt. eigenvalues --    1.47734   1.48279   1.51765   1.53685   1.55765
 Alpha virt. eigenvalues --    1.56014   1.56482   1.56668   1.57890   1.61586
 Alpha virt. eigenvalues --    1.63101   1.63333   1.63533   1.66186   1.68228
 Alpha virt. eigenvalues --    1.68488   1.68720   1.69735   1.74603   1.76001
 Alpha virt. eigenvalues --    1.77211   1.78088   1.79984   1.80421   1.81020
 Alpha virt. eigenvalues --    1.83120   1.83315   1.83520   1.83997   1.84102
 Alpha virt. eigenvalues --    1.84405   1.86011   1.86166   1.88308   1.91313
 Alpha virt. eigenvalues --    1.92166   1.94102   1.95173   1.97880   1.98447
 Alpha virt. eigenvalues --    2.00021   2.02371   2.04610   2.06995   2.11909
 Alpha virt. eigenvalues --    2.12120   2.14088   2.15281   2.19523   2.21239
 Alpha virt. eigenvalues --    2.23084   2.28797   2.30371   2.34496   2.35145
 Alpha virt. eigenvalues --    2.36279   2.38299   2.39041   2.42403   2.43553
 Alpha virt. eigenvalues --    2.46748   2.47356   2.49579   2.53054   2.53797
 Alpha virt. eigenvalues --    2.54198   2.56664   2.57930   2.58413   2.59713
 Alpha virt. eigenvalues --    2.59940   2.61531   2.62222   2.63572   2.63940
 Alpha virt. eigenvalues --    2.64790   2.65070   2.65352   2.65397   2.67971
 Alpha virt. eigenvalues --    2.68365   2.71065   2.71396   2.73412   2.74838
 Alpha virt. eigenvalues --    2.76389   2.79017   2.79860   2.83148   2.83230
 Alpha virt. eigenvalues --    2.85238   2.86375   2.92167   2.96880   2.99701
 Alpha virt. eigenvalues --    3.00303   3.04703   3.11564   3.11864   3.13625
 Alpha virt. eigenvalues --    3.20867   3.23607   3.27131   3.28445   3.31054
 Alpha virt. eigenvalues --    3.33414   3.33655   3.43473   3.46065   3.47370
 Alpha virt. eigenvalues --    3.49040   3.50624   3.56607   3.65420   3.67103
 Alpha virt. eigenvalues --    3.67572   3.93353   3.94311   3.94664   3.96175
 Alpha virt. eigenvalues --    4.03575   4.06903   4.07663   4.12548   4.35372
 Alpha virt. eigenvalues --    4.61124   4.70227   4.72091  23.45194  23.59976
 Alpha virt. eigenvalues --   23.82548  23.85240  23.88112  23.89639  23.90589
 Alpha virt. eigenvalues --   23.92389  23.98254  24.00519  24.00900  24.01158
 Alpha virt. eigenvalues --   24.11217  24.11398
          Condensed to atoms (all electrons):
               1          2          3          4          5          6
     1  C    8.526721   0.423180  -0.565294   1.812075  -0.004865  -0.095699
     2  C    0.423180   7.097544   0.368875  -0.988233  -0.033613  -0.015899
     3  C   -0.565294   0.368875   6.619447   0.755282  -0.121884   0.017499
     4  C    1.812075  -0.988233   0.755282  10.668283  -0.299400  -0.119146
     5  C   -0.004865  -0.033613  -0.121884  -0.299400  10.736752   0.743756
     6  C   -0.095699  -0.015899   0.017499  -0.119146   0.743756   6.613887
     7  C   -0.024356   0.005026  -0.015977  -0.034918  -0.988086   0.366559
     8  C    0.411624  -0.021878  -0.095748  -0.014211   1.843986  -0.574399
     9  C   -1.322654  -0.722075   0.283851  -0.334152  -0.299238   0.285242
    10  C   -1.217241   0.214933  -0.374820  -2.502585  -2.509538  -0.361162
    11  C    0.306619  -0.971759   1.021320  -0.195858  -1.539257  -0.189296
    12  C   -1.858250   1.198102  -1.378139  -1.301824  -0.322761  -0.197508
    13  C    0.188886  -0.207245  -0.190411  -1.523028  -0.193271   1.012809
    14  C   -1.078809  -0.214165  -0.196146  -0.299454  -1.387960  -1.357268
    15  H    0.363630  -0.102810  -0.002141   0.024914   0.005980   0.001153
    16  H   -0.020062   0.378895  -0.015067   0.013786  -0.001630  -0.000344
    17  H   -0.022207  -0.017865   0.372553  -0.064491   0.000372   0.000404
    18  H    0.048317   0.003324  -0.085234   0.451363   0.007712  -0.004989
    19  H   -0.046263  -0.007714   0.050878  -0.064036  -0.066756   0.050569
    20  H    0.007686   0.001893  -0.005051   0.007592   0.452494  -0.086004
    21  H   -0.001338  -0.000399   0.000407   0.000371  -0.064978   0.372467
    22  H    0.000799   0.000378  -0.000346  -0.001621   0.014114  -0.015587
    23  H    0.005858  -0.002714   0.001171   0.005861   0.025229  -0.002330
    24  H    0.039817   0.013162  -0.001440  -0.011262  -0.012488  -0.001062
    25  H    0.028092   0.015793  -0.001807  -0.012112  -0.011411  -0.002286
               7          8          9         10         11         12
     1  C   -0.024356   0.411624  -1.322654  -1.217241   0.306619  -1.858250
     2  C    0.005026  -0.021878  -0.722075   0.214933  -0.971759   1.198102
     3  C   -0.015977  -0.095748   0.283851  -0.374820   1.021320  -1.378139
     4  C   -0.034918  -0.014211  -0.334152  -2.502585  -0.195858  -1.301824
     5  C   -0.988086   1.843986  -0.299238  -2.509538  -1.539257  -0.322761
     6  C    0.366559  -0.574399   0.285242  -0.361162  -0.189296  -0.197508
     7  C    7.083129   0.416826  -0.724286   0.211835  -0.198142  -0.210225
     8  C    0.416826   8.527756  -1.292390  -1.219798   0.199273  -1.063307
     9  C   -0.724286  -1.292390   9.421116   0.338423   1.619191  -1.699340
    10  C    0.211835  -1.219798   0.338423   9.208747  -0.532035   2.332052
    11  C   -0.198142   0.199273   1.619191  -0.532035  14.337999  -3.810272
    12  C   -0.210225  -1.063307  -1.699340   2.332052  -3.810272  15.659551
    13  C   -0.963376   0.281010   1.597837  -0.514907   1.203837  -4.708969
    14  C    1.206470  -1.900623  -1.722030   2.360465  -4.687511   2.917830
    15  H   -0.002677   0.005864   0.087369  -0.009078  -0.025212  -0.021252
    16  H    0.000374   0.000724   0.003963  -0.010160   0.029630  -0.036223
    17  H   -0.000400  -0.001327  -0.005048   0.019953  -0.026990   0.087750
    18  H    0.001905   0.007558  -0.026698   0.016687  -0.007821  -0.051135
    19  H   -0.007678  -0.046326   0.075540   0.421922   0.072129  -0.062891
    20  H    0.003662   0.048825  -0.026442   0.016416  -0.011018  -0.012967
    21  H   -0.018257  -0.022197  -0.005026   0.019964  -0.006167   0.005077
    22  H    0.378322  -0.018749   0.004377  -0.010242   0.003236  -0.009394
    23  H   -0.102811   0.364753   0.088356  -0.009176   0.000389   0.006834
    24  H    0.014224   0.042267   0.348458   0.004850   0.019235  -0.070458
    25  H    0.014620   0.024623   0.361597   0.005013   0.006737  -0.048578
              13         14         15         16         17         18
     1  C    0.188886  -1.078809   0.363630  -0.020062  -0.022207   0.048317
     2  C   -0.207245  -0.214165  -0.102810   0.378895  -0.017865   0.003324
     3  C   -0.190411  -0.196146  -0.002141  -0.015067   0.372553  -0.085234
     4  C   -1.523028  -0.299454   0.024914   0.013786  -0.064491   0.451363
     5  C   -0.193271  -1.387960   0.005980  -0.001630   0.000372   0.007712
     6  C    1.012809  -1.357268   0.001153  -0.000344   0.000404  -0.004989
     7  C   -0.963376   1.206470  -0.002677   0.000374  -0.000400   0.001905
     8  C    0.281010  -1.900623   0.005864   0.000724  -0.001327   0.007558
     9  C    1.597837  -1.722030   0.087369   0.003963  -0.005048  -0.026698
    10  C   -0.514907   2.360465  -0.009078  -0.010160   0.019953   0.016687
    11  C    1.203837  -4.687511  -0.025212   0.029630  -0.026990  -0.007821
    12  C   -4.708969   2.917830  -0.021252  -0.036223   0.087750  -0.051135
    13  C   14.371961  -3.798031   0.000347   0.003265  -0.006349  -0.010696
    14  C   -3.798031  15.719518   0.006829  -0.009355   0.005082  -0.012925
    15  H    0.000347   0.006829   0.438519  -0.008991   0.001434   0.000203
    16  H    0.003265  -0.009355  -0.008991   0.419392  -0.006606   0.001907
    17  H   -0.006349   0.005082   0.001434  -0.006606   0.421684  -0.010127
    18  H   -0.010696  -0.012925   0.000203   0.001907  -0.010127   0.453875
    19  H    0.069782  -0.063189   0.000317  -0.000527   0.001363  -0.005857
    20  H   -0.007782  -0.052010  -0.000113   0.000015  -0.000143   0.001283
    21  H   -0.026230   0.087553   0.000013  -0.000007   0.000010  -0.000142
    22  H    0.030014  -0.037716  -0.000125   0.000007  -0.000007   0.000015
    23  H   -0.025681  -0.022609   0.000608  -0.000127   0.000014  -0.000114
    24  H    0.017376  -0.069081  -0.000613   0.000574  -0.000119   0.000210
    25  H    0.008121  -0.049509  -0.001160   0.000706  -0.000166   0.000163
              19         20         21         22         23         24
     1  C   -0.046263   0.007686  -0.001338   0.000799   0.005858   0.039817
     2  C   -0.007714   0.001893  -0.000399   0.000378  -0.002714   0.013162
     3  C    0.050878  -0.005051   0.000407  -0.000346   0.001171  -0.001440
     4  C   -0.064036   0.007592   0.000371  -0.001621   0.005861  -0.011262
     5  C   -0.066756   0.452494  -0.064978   0.014114   0.025229  -0.012488
     6  C    0.050569  -0.086004   0.372467  -0.015587  -0.002330  -0.001062
     7  C   -0.007678   0.003662  -0.018257   0.378322  -0.102811   0.014224
     8  C   -0.046326   0.048825  -0.022197  -0.018749   0.364753   0.042267
     9  C    0.075540  -0.026442  -0.005026   0.004377   0.088356   0.348458
    10  C    0.421922   0.016416   0.019964  -0.010242  -0.009176   0.004850
    11  C    0.072129  -0.011018  -0.006167   0.003236   0.000389   0.019235
    12  C   -0.062891  -0.012967   0.005077  -0.009394   0.006834  -0.070458
    13  C    0.069782  -0.007782  -0.026230   0.030014  -0.025681   0.017376
    14  C   -0.063189  -0.052010   0.087553  -0.037716  -0.022609  -0.069081
    15  H    0.000317  -0.000113   0.000013  -0.000125   0.000608  -0.000613
    16  H   -0.000527   0.000015  -0.000007   0.000007  -0.000127   0.000574
    17  H    0.001363  -0.000143   0.000010  -0.000007   0.000014  -0.000119
    18  H   -0.005857   0.001283  -0.000142   0.000015  -0.000114   0.000210
    19  H    0.441573  -0.005981   0.001370  -0.000529   0.000327   0.000574
    20  H   -0.005981   0.453915  -0.010082   0.001938   0.000202   0.000182
    21  H    0.001370  -0.010082   0.421489  -0.006577   0.001416  -0.000105
    22  H   -0.000529   0.001938  -0.006577   0.419321  -0.009028   0.000529
    23  H    0.000327   0.000202   0.001416  -0.009028   0.438630  -0.000550
    24  H    0.000574   0.000182  -0.000105   0.000529  -0.000550   0.494609
    25  H    0.000547   0.000187  -0.000176   0.000742  -0.001270  -0.079782
              25
     1  C    0.028092
     2  C    0.015793
     3  C   -0.001807
     4  C   -0.012112
     5  C   -0.011411
     6  C   -0.002286
     7  C    0.014620
     8  C    0.024623
     9  C    0.361597
    10  C    0.005013
    11  C    0.006737
    12  C   -0.048578
    13  C    0.008121
    14  C   -0.049509
    15  H   -0.001160
    16  H    0.000706
    17  H   -0.000166
    18  H    0.000163
    19  H    0.000547
    20  H    0.000187
    21  H   -0.000176
    22  H    0.000742
    23  H   -0.001270
    24  H   -0.079782
    25  H    0.494559
 Mulliken charges:
               1
     1  C    0.093734
     2  C   -0.414736
     3  C   -0.441776
     4  C    0.026803
     5  C    0.026740
     6  C   -0.441367
     7  C   -0.411762
     8  C    0.095864
     9  C   -0.335942
    10  C    0.099482
    11  C   -0.618256
    12  C    0.656296
    13  C   -0.609268
    14  C    0.654645
    15  H    0.236993
    16  H    0.255863
    17  H    0.251227
    18  H    0.221215
    19  H    0.190858
    20  H    0.221305
    21  H    0.251545
    22  H    0.256130
    23  H    0.236760
    24  H    0.250891
    25  H    0.246756
 Sum of Mulliken charges =   1.00000
 Mulliken charges with hydrogens summed into heavy atoms:
               1
     1  C    0.330727
     2  C   -0.158873
     3  C   -0.190549
     4  C    0.248018
     5  C    0.248045
     6  C   -0.189822
     7  C   -0.155631
     8  C    0.332625
     9  C    0.161704
    10  C    0.290340
    11  C   -0.618256
    12  C    0.656296
    13  C   -0.609268
    14  C    0.654645
 Electronic spatial extent (au):  <R**2>=           2850.1046
 Charge=              1.0000 electrons
 Dipole moment (field-independent basis, Debye):
    X=             -0.0065    Y=              0.1842    Z=              0.0002  Tot=              0.1843
 Quadrupole moment (field-independent basis, Debye-Ang):
   XX=            -31.2465   YY=            -56.2631   ZZ=            -84.0935
   XY=             -0.0036   XZ=              0.0061   YZ=              0.0730
 Traceless Quadrupole moment (field-independent basis, Debye-Ang):
   XX=             25.9546   YY=              0.9379   ZZ=            -26.8925
   XY=             -0.0036   XZ=              0.0061   YZ=              0.0730
 Octapole moment (field-independent basis, Debye-Ang**2):
  XXX=             -0.2721  YYY=              5.2047  ZZZ=             -0.0170  XYY=              0.0018
  XXY=             -5.6635  XXZ=              0.1208  XZZ=              0.0342  YZZ=             -3.0923
  YYZ=              0.0745  XYZ=              0.0305
 Hexadecapole moment (field-independent basis, Debye-Ang**3):
 XXXX=          -2120.0656 YYYY=           -609.2721 ZZZZ=            -99.2029 XXXY=             -0.1555
 XXXZ=              0.1707 YYYX=              0.0658 YYYZ=              0.8200 ZZZX=              0.0074
 ZZZY=              0.0239 XXYY=           -506.7161 XXZZ=           -589.1181 YYZZ=           -145.6422
 XXYZ=              0.7645 YYXZ=              0.0007 ZZXY=             -0.0030
 N-N= 7.818801277035D+02 E-N=-2.800139954867D+03  KE= 5.375495812511D+02
 Unable to Open any file for archive entry.
 1\1\GINC-GADI-CPU-CLX-0113\SP\RM062X TD-FC\6-311++G(d,p)\C14H11(1+)\TS
 1578\28-Jul-2022\0\\#n M062X/6-311++G(d,p) TD(NStates=1) EmpiricalDisp
 ersion=GD3 SP\\SP_100\\1,1\C,0,-0.0079,2.492355,1.360431\C,0,-0.01115,
 3.695783,0.671989\C,0,-0.0027,3.673311,-0.71383\C,0,0.011825,2.456081,
 -1.407538\C,0,0.011575,-2.456581,-1.407538\C,0,-0.0042,-3.675811,-0.71
 383\C,0,-0.013525,-3.696658,0.671989\C,0,-0.01265,-2.493855,1.360431\C
 ,0,-0.006625,0.0055,1.453369\C,0,0.0183,-0.00025,-1.429189\C,0,0.00292
 5,1.267855,0.677065\C,0,0.007,1.236946,-0.730804\C,0,0.00255,-1.26773,
 0.677065\C,0,0.008,-1.236196,-0.730804\H,0,-0.0004,2.487596,2.443647\H
 ,0,-0.01105,4.631503,1.211689\H,0,0.00255,4.608037,-1.272349\H,0,0.005
 1,2.460725,-2.490059\H,0,0.016875,-0.000125,-2.510266\H,0,0.00585,-2.4
 611,-2.490059\H,0,0.0018,-4.611162,-1.272349\H,0,-0.013925,-4.633378,1
 .211689\H,0,-0.0059,-2.489221,2.443647\H,0,-0.883585,0.00125,2.144412\
 H,0,0.835585,0.00125,2.147162\\Version=ES64L-G16RevC.01\State=1-A\HF=-
 539.7599183\RMSD=4.592e-09\PG=C01 [X(C14H11)]\\@
 The archive entry for this job was punched.


 THERE ARE PEOPLE SO ADDICTED TO EXAGERATING THEY
 CAN'T TELL THE TRUTH WITHOUT LYING. -- FORTUNE COOKIE
 Job cpu time:       0 days  1 hours 20 minutes  2.1 seconds.
 Elapsed time:       0 days  0 hours  1 minutes 40.2 seconds.
 File lengths (MBytes):  RWF=    460 Int=      0 D2E=      0 Chk=     15 Scr=      1
 Normal termination of Gaussian 16 at Thu Jul 28 16:33:24 2022.
