 Entering Gaussian System, Link 0=g16
 Initial command:
 /apps/gaussian/g16c01/g16/l1.exe "/jobfs/53002009.gadi-pbs/Gau-724639.inp" -scrdir="/jobfs/53002009.gadi-pbs/"
 Entering Link 1 = /apps/gaussian/g16c01/g16/l1.exe PID=    724640.
  
 Copyright (c) 1988-2019, Gaussian, Inc.  All Rights Reserved.
  
 This is part of the Gaussian(R) 16 program.  It is based on
 the Gaussian(R) 09 system (copyright 2009, Gaussian, Inc.),
 the Gaussian(R) 03 system (copyright 2003, Gaussian, Inc.),
 the Gaussian(R) 98 system (copyright 1998, Gaussian, Inc.),
 the Gaussian(R) 94 system (copyright 1995, Gaussian, Inc.),
 the Gaussian 92(TM) system (copyright 1992, Gaussian, Inc.),
 the Gaussian 90(TM) system (copyright 1990, Gaussian, Inc.),
 the Gaussian 88(TM) system (copyright 1988, Gaussian, Inc.),
 the Gaussian 86(TM) system (copyright 1986, Carnegie Mellon
 University), and the Gaussian 82(TM) system (copyright 1983,
 Carnegie Mellon University). Gaussian is a federally registered
 trademark of Gaussian, Inc.
  
 This software contains proprietary and confidential information,
 including trade secrets, belonging to Gaussian, Inc.
  
 This software is provided under written license and may be
 used, copied, transmitted, or stored only in accord with that
 written license.
  
 The following legend is applicable only to US Government
 contracts under FAR:
  
                    RESTRICTED RIGHTS LEGEND
  
 Use, reproduction and disclosure by the US Government is
 subject to restrictions as set forth in subparagraphs (a)
 and (c) of the Commercial Computer Software - Restricted
 Rights clause in FAR 52.227-19.
  
 Gaussian, Inc.
 340 Quinnipiac St., Bldg. 40, Wallingford CT 06492
  
  
 ---------------------------------------------------------------
 Warning -- This program may not be used in any manner that
 competes with the business of Gaussian, Inc. or will provide
 assistance to any competitor of Gaussian, Inc.  The licensee
 of this program is prohibited from giving any competitor of
 Gaussian, Inc. access to this program.  By using this program,
 the user acknowledges that Gaussian, Inc. is engaged in the
 business of creating and licensing software in the field of
 computational chemistry and represents and warrants to the
 licensee that it is not a competitor of Gaussian, Inc. and that
 it will not use this program in any manner prohibited above.
 ---------------------------------------------------------------
  

 Cite this work as:
 Gaussian 16, Revision C.01,
 M. J. Frisch, G. W. Trucks, H. B. Schlegel, G. E. Scuseria, 
 M. A. Robb, J. R. Cheeseman, G. Scalmani, V. Barone, 
 G. A. Petersson, H. Nakatsuji, X. Li, M. Caricato, A. V. Marenich, 
 J. Bloino, B. G. Janesko, R. Gomperts, B. Mennucci, H. P. Hratchian, 
 J. V. Ortiz, A. F. Izmaylov, J. L. Sonnenberg, D. Williams-Young, 
 F. Ding, F. Lipparini, F. Egidi, J. Goings, B. Peng, A. Petrone, 
 T. Henderson, D. Ranasinghe, V. G. Zakrzewski, J. Gao, N. Rega, 
 G. Zheng, W. Liang, M. Hada, M. Ehara, K. Toyota, R. Fukuda, 
 J. Hasegawa, M. Ishida, T. Nakajima, Y. Honda, O. Kitao, H. Nakai, 
 T. Vreven, K. Throssell, J. A. Montgomery, Jr., J. E. Peralta, 
 F. Ogliaro, M. J. Bearpark, J. J. Heyd, E. N. Brothers, K. N. Kudin, 
 V. N. Staroverov, T. A. Keith, R. Kobayashi, J. Normand, 
 K. Raghavachari, A. P. Rendell, J. C. Burant, S. S. Iyengar, 
 J. Tomasi, M. Cossi, J. M. Millam, M. Klene, C. Adamo, R. Cammi, 
 J. W. Ochterski, R. L. Martin, K. Morokuma, O. Farkas, 
 J. B. Foresman, and D. J. Fox, Gaussian, Inc., Wallingford CT, 2019.
 
 ******************************************
 Gaussian 16:  ES64L-G16RevC.01  3-Jul-2019
                28-Jul-2022 
 ******************************************
 %NProcShared=48
 Will use up to   48 processors via shared memory.
 %mem = 190GB
 ---------------------------------------------------------------
 #n M062X/6-311++G(d,p) TD(NStates=1) EmpiricalDispersion=GD3 SP
 ---------------------------------------------------------------
 1/38=1,172=1/1;
 2/12=2,17=6,18=5,40=1/2;
 3/5=4,6=6,7=1111,11=9,25=1,30=1,74=-55,124=31/1,2,3,8;
 4//1;
 5/5=2,38=5/2;
 8/6=1,10=2,108=1/1;
 9/41=1,42=1,70=2/14;
 6/7=2,8=2,9=2,10=2/1;
 99/5=1,9=1/99;
 -------
 SP_-125
 -------
 Symbolic Z-matrix:
 Charge =  1 Multiplicity = 1
 C                     0.03815   2.49086   1.36043 
 C                     0.04548   3.72081   0.67199 
 C                     0.0128    3.71771  -0.71383 
 C                    -0.04287   2.48813  -1.40754 
 C                    -0.04292  -2.48823  -1.40754 
 C                     0.0125   -3.71821  -0.71383 
 C                     0.045    -3.72098   0.67199 
 C                     0.0372   -2.49116   1.36043 
 C                     0.02405   0.0011    1.45337 
 C                    -0.0671   -0.00005  -1.42919 
 C                    -0.01      1.24103   0.67707 
 C                    -0.0276    1.24085  -0.7308 
 C                    -0.01008  -1.24101   0.67707 
 C                    -0.0274   -1.2407   -0.7308 
 H                     0.0121    2.48667   2.44365 
 H                     0.04608   4.65238   1.21169 
 H                    -0.0079    4.60771  -1.27235 
 H                    -0.02015   2.49185  -2.49006 
 H                    -0.06188  -0.00003  -2.51027 
 H                    -0.02     -2.49193  -2.49006 
 H                    -0.00805  -4.60834  -1.27235 
 H                     0.0455   -4.65275   1.21169 
 H                     0.011    -2.487     2.44365 
 H                    -0.77159   0.00025   2.14551 
 H                     0.94759   0.00025   2.14606 
 
                          Input orientation:                          
 ---------------------------------------------------------------------
 Center     Atomic      Atomic             Coordinates (Angstroms)
 Number     Number       Type             X           Y           Z
 ---------------------------------------------------------------------
      1          6           0        0.038150    2.490855    1.360431
      2          6           0        0.045475    3.720808    0.671989
      3          6           0        0.012800    3.717711   -0.713830
      4          6           0       -0.042875    2.488131   -1.407538
      5          6           0       -0.042925   -2.488231   -1.407538
      6          6           0        0.012500   -3.718211   -0.713830
      7          6           0        0.045000   -3.720983    0.671989
      8          6           0        0.037200   -2.491155    1.360431
      9          6           0        0.024050    0.001100    1.453369
     10          6           0       -0.067100   -0.000050   -1.429189
     11          6           0       -0.010000    1.241030    0.677065
     12          6           0       -0.027600    1.240846   -0.730804
     13          6           0       -0.010075   -1.241005    0.677065
     14          6           0       -0.027400   -1.240696   -0.730804
     15          1           0        0.012100    2.486671    2.443647
     16          1           0        0.046075    4.652378    1.211689
     17          1           0       -0.007900    4.607712   -1.272349
     18          1           0       -0.020150    2.491850   -2.490059
     19          1           0       -0.061875   -0.000025   -2.510266
     20          1           0       -0.020000   -2.491925   -2.490059
     21          1           0       -0.008050   -4.608337   -1.272349
     22          1           0        0.045500   -4.652753    1.211689
     23          1           0        0.011000   -2.486996    2.443647
     24          1           0       -0.771585    0.000250    2.145512
     25          1           0        0.947585    0.000250    2.146062
 ---------------------------------------------------------------------
                    Distance matrix (angstroms):
                    1          2          3          4          5
     1  C    0.000000
     2  C    1.409536   0.000000
     3  C    2.410057   1.386208   0.000000
     4  C    2.769156   2.419035   1.412869   0.000000
     5  C    5.697326   6.548619   6.244842   4.976362   0.000000
     6  C    6.546428   7.567072   7.435922   6.245236   1.413207
     7  C    6.249874   7.441791   7.566750   6.548683   2.419058
     8  C    4.982010   6.250000   6.546233   5.697487   2.769130
     9  C    2.491529   3.800953   4.302334   3.791384   3.792894
    10  C    3.741345   4.274624   3.786802   2.488393   2.488393
    11  C    1.425261   2.480404   2.840609   2.429385   4.272475
    12  C    2.437234   2.850154   2.477253   1.419127   3.790016
    13  C    3.794218   4.962127   5.150143   4.272365   2.429449
    14  C    4.278088   5.156516   4.958599   3.789770   1.419350
    15  H    1.083537   2.159393   3.388970   3.851578   6.291606
    16  H    2.166649   1.076615   2.140638   3.398857   7.606351
    17  H    3.378570   2.137732   1.050939   2.124176   7.097317
    18  H    3.850931   3.393109   2.158428   1.082766   5.096428
    19  H    4.603996   4.897231   4.129688   2.721634   2.721679
    20  H    6.297440   6.971434   6.458765   5.096404   1.082770
    21  H    7.571802   8.553243   8.344786   7.097841   2.124698
    22  H    7.145160   8.390936   8.589142   7.606601   3.399018
    23  H    5.094418   6.455756   6.961900   6.291774   3.851563
    24  H    2.734070   4.084288   4.755062   4.398265   4.398596
    25  H    2.765394   4.102346   4.782502   4.449566   4.449912
                    6          7          8          9         10
     6  C    0.000000
     7  C    1.386203   0.000000
     8  C    2.410153   1.409429   0.000000
     9  C    4.304667   3.803274   2.494022   0.000000
    10  C    3.787188   4.274676   3.741452   2.883999   0.000000
    11  C    5.150647   4.962320   3.794525   1.463295   2.445372
    12  C    4.959248   5.156825   4.278469   2.512021   1.424473
    13  C    2.841065   2.480595   1.425517   1.465141   2.445307
    14  C    2.477894   2.850420   2.437434   2.513029   1.424261
    15  H    6.962056   6.455604   5.094383   2.675604   4.603142
    16  H    8.589267   8.390736   7.145087   4.657605   5.350900
    17  H    8.344660   8.552801   7.571491   5.352703   4.610811
    18  H    6.459173   6.971520   6.297611   4.664377   2.708729
    19  H    4.130087   4.897315   4.604111   3.964566   1.081090
    20  H    2.158662   3.393134   3.850915   4.665591   2.708709
    21  H    1.051042   2.137911   3.378763   5.355136   4.611333
    22  H    2.140580   1.076788   2.166725   4.660174   5.351127
    23  H    3.389034   2.159317   1.083541   2.677955   4.603244
    24  H    4.755794   4.084808   2.734517   1.054560   3.643458
    25  H    4.783338   4.103063   2.766427   1.154444   3.716451
                   11         12         13         14         15
    11  C    0.000000
    12  C    1.407979   0.000000
    13  C    2.482035   2.853417   0.000000
    14  C    2.853307   2.481542   1.407976   0.000000
    15  H    2.161694   3.410395   4.125151   4.896117   0.000000
    16  H    3.453442   3.926482   5.917849   6.205401   2.491819
    17  H    3.890343   3.410197   6.165039   5.873460   4.278766
    18  H    3.405191   2.158714   4.895404   4.126370   4.933814
    19  H    3.420817   2.169659   3.420788   2.169548   5.543499
    20  H    4.895480   4.126574   3.405227   2.158844   7.009201
    21  H    6.165656   5.874231   3.890905   3.410960   8.009255
    22  H    5.918241   6.205895   3.453829   3.926923   7.245013
    23  H    4.125461   4.896472   2.161886   3.410554   4.973667
    24  H    2.067821   3.219594   2.068078   3.219775   2.623992
    25  H    2.148129   3.281223   2.148436   3.281296   2.673196
                   16         17         18         19         20
    16  H    0.000000
    17  H    2.485026   0.000000
    18  H    4.286631   2.441278   0.000000
    19  H    5.958981   4.771435   2.492306   0.000000
    20  H    8.046637   7.203319   4.983775   2.492334   0.000000
    21  H    9.588233   9.216049   7.203861   4.771989   2.441754
    22  H    9.305131   9.587988   8.046900   5.959224   4.286771
    23  H    7.244971   8.008987   7.009375   5.543608   4.933806
    24  H    4.814861   5.787374   5.316131   4.709560   5.316421
    25  H    4.829914   5.816115   5.351467   4.764494   5.351708
                   21         22         23         24         25
    21  H    0.000000
    22  H    2.485012   0.000000
    23  H    4.278911   2.491870   0.000000
    24  H    5.788250   4.815609   2.624446   0.000000
    25  H    5.817031   4.830864   2.674349   1.719170   0.000000
 Stoichiometry    C14H11(1+)
 Framework group  C1[X(C14H11)]
 Deg. of freedom    69
 Full point group                 C1      NOp   1
 Largest Abelian subgroup         C1      NOp   1
 Largest concise Abelian subgroup C1      NOp   1
                         Standard orientation:                         
 ---------------------------------------------------------------------
 Center     Atomic      Atomic             Coordinates (Angstroms)
 Number     Number       Type             X           Y           Z
 ---------------------------------------------------------------------
      1          6           0       -2.490886   -1.360875    0.004055
      2          6           0       -3.720825   -0.672784    0.027969
      3          6           0       -3.717697    0.713420    0.028846
      4          6           0       -2.488099    1.408244   -0.009949
      5          6           0        2.488263    1.408133   -0.009707
      6          6           0        3.718225    0.713258    0.028984
      7          6           0        3.720966   -0.672941    0.027931
      8          6           0        2.491124   -1.360965    0.003398
      9          6           0       -0.001133   -1.453501   -0.012144
     10          6           0        0.000084    1.430419   -0.033497
     11          6           0       -1.241044   -0.676572   -0.027467
     12          6           0       -1.240829    0.731311   -0.010985
     13          6           0        1.240991   -0.676626   -0.027396
     14          6           0        1.240713    0.731249   -0.010639
     15          1           0       -2.486724   -2.443143   -0.048206
     16          1           0       -4.652407   -1.212319    0.015451
     17          1           0       -4.607685    1.272296    0.021619
     18          1           0       -2.491796    2.489898    0.038971
     19          1           0        0.000082    2.511053   -0.002106
     20          1           0        2.491979    2.489782    0.039414
     21          1           0        4.608364    1.272091    0.022011
     22          1           0        4.652724   -1.212516    0.015423
     23          1           0        2.486943   -2.443229   -0.049014
     24          1           0       -0.000250   -2.126183   -0.824299
     25          1           0       -0.000352   -2.168345    0.894354
 ---------------------------------------------------------------------
 Rotational constants (GHZ):           2.1340833           0.4400536           0.3656584
 Standard basis: 6-311++G(d,p) (5D, 7F)
 There are   399 symmetry adapted cartesian basis functions of A   symmetry.
 There are   385 symmetry adapted basis functions of A   symmetry.
   385 basis functions,   603 primitive gaussians,   399 cartesian basis functions
    47 alpha electrons       47 beta electrons
       nuclear repulsion energy       778.5518745754 Hartrees.
 NAtoms=   25 NActive=   25 NUniq=   25 SFac= 1.00D+00 NAtFMM=   60 NAOKFM=F Big=F
 Integral buffers will be    131072 words long.
 Regular integral format.
 Two-electron integral symmetry is turned on.
 Nuclear repulsion after empirical dispersion term =      778.5508940610 Hartrees.
 One-electron integrals computed using PRISM.
 NBasis=   385 RedAO= T EigKep=  1.66D-06  NBF=   385
 NBsUse=   379 1.00D-06 EigRej=  9.34D-07 NBFU=   379
 ExpMin= 3.60D-02 ExpMax= 4.56D+03 ExpMxC= 6.82D+02 IAcc=3 IRadAn=         5 AccDes= 0.00D+00
 Harris functional with IExCor= 1009 and IRadAn=       5 diagonalized for initial guess.
 HarFok:  IExCor= 1009 AccDes= 0.00D+00 IRadAn=         5 IDoV= 1 UseB2=F ITyADJ=14
 ICtDFT=  3500011 ScaDFX=  1.000000  1.000000  1.000000  1.000000
 FoFCou: FMM=F IPFlag=           0 FMFlag=      100000 FMFlg1=           0
         NFxFlg=           0 DoJE=T BraDBF=F KetDBF=T FulRan=T
         wScrn=  0.000000 ICntrl=       500 IOpCl=  0 I1Cent=   200000004 NGrid=           0
         NMat0=    1 NMatS0=      1 NMatT0=    0 NMatD0=    1 NMtDS0=    0 NMtDT0=    0
 Petite list used in FoFCou.
 Requested convergence on RMS density matrix=1.00D-08 within 128 cycles.
 Requested convergence on MAX density matrix=1.00D-06.
 Requested convergence on             energy=1.00D-06.
 No special actions if energy rises.
 SCF Done:  E(RM062X) =  -539.750713565     A.U. after   15 cycles
            NFock= 15  Conv=0.54D-08     -V/T= 2.0045
 DoSCS=F DFT=T ScalE2(SS,OS)=  1.000000  1.000000
 ExpMin= 3.60D-02 ExpMax= 4.56D+03 ExpMxC= 6.82D+02 IAcc=3 IRadAn=         5 AccDes= 0.00D+00
 HarFok:  IExCor=  205 AccDes= 0.00D+00 IRadAn=         5 IDoV=-2 UseB2=F ITyADJ=14
 ICtDFT= 12500011 ScaDFX=  1.000000  1.000000  1.000000  1.000000
 Range of M.O.s used for correlation:    15   379
 NBasis=   385 NAE=    47 NBE=    47 NFC=    14 NFV=     0
 NROrb=    365 NOA=    33 NOB=    33 NVA=   332 NVB=   332

 **** Warning!!: The largest alpha MO coefficient is  0.14731169D+03

 Orbital symmetries:
       Occupied  (A) (A) (A) (A) (A) (A) (A) (A) (A) (A) (A) (A)
                 (A) (A) (A) (A) (A) (A) (A) (A) (A) (A) (A) (A)
                 (A) (A) (A) (A) (A) (A) (A) (A) (A) (A) (A) (A)
                 (A) (A) (A) (A) (A) (A) (A) (A) (A) (A) (A)
       Virtual   (A) (A) (A) (A) (A) (A) (A) (A) (A) (A) (A) (A)
                 (A) (A) (A) (A) (A) (A) (A) (A) (A) (A) (A) (A)
                 (A) (A) (A) (A) (A) (A) (A) (A) (A) (A) (A) (A)
                 (A) (A) (A) (A) (A) (A) (A) (A) (A) (A) (A) (A)
                 (A) (A) (A) (A) (A) (A) (A) (A) (A) (A) (A) (A)
                 (A) (A) (A) (A) (A) (A) (A) (A) (A) (A) (A) (A)
                 (A) (A) (A) (A) (A) (A) (A) (A) (A) (A) (A) (A)
                 (A) (A) (A) (A) (A) (A) (A) (A) (A) (A) (A) (A)
                 (A) (A) (A) (A) (A) (A) (A) (A) (A) (A) (A) (A)
                 (A) (A) (A) (A) (A) (A) (A) (A) (A) (A) (A) (A)
                 (A) (A) (A) (A) (A) (A) (A) (A) (A) (A) (A) (A)
                 (A) (A) (A) (A) (A) (A) (A) (A) (A) (A) (A) (A)
                 (A) (A) (A) (A) (A) (A) (A) (A) (A) (A) (A) (A)
                 (A) (A) (A) (A) (A) (A) (A) (A) (A) (A) (A) (A)
                 (A) (A) (A) (A) (A) (A) (A) (A) (A) (A) (A) (A)
                 (A) (A) (A) (A) (A) (A) (A) (A) (A) (A) (A) (A)
                 (A) (A) (A) (A) (A) (A) (A) (A) (A) (A) (A) (A)
                 (A) (A) (A) (A) (A) (A) (A) (A) (A) (A) (A) (A)
                 (A) (A) (A) (A) (A) (A) (A) (A) (A) (A) (A) (A)
                 (A) (A) (A) (A) (A) (A) (A) (A) (A) (A) (A) (A)
                 (A) (A) (A) (A) (A) (A) (A) (A) (A) (A) (A) (A)
                 (A) (A) (A) (A) (A) (A) (A) (A) (A) (A) (A) (A)
                 (A) (A) (A) (A) (A) (A) (A) (A) (A) (A) (A) (A)
                 (A) (A) (A) (A) (A) (A) (A) (A) (A) (A) (A) (A)
                 (A) (A) (A) (A) (A) (A) (A) (A) (A) (A) (A) (A)
                 (A) (A) (A) (A) (A) (A) (A) (A) (A) (A) (A) (A)
                 (A) (A) (A) (A) (A) (A) (A) (A) (A) (A) (A) (A)
                 (A) (A) (A) (A) (A) (A) (A) (A)
     4 initial guesses have been made.
 Convergence on wavefunction:    0.001000000000000
 Iteration     1 Dimension     4 NMult     0 NNew      4
 CISAX will form     4 AO SS matrices at one time.
 Iteration     2 Dimension     6 NMult     4 NNew      2
 Iteration     3 Dimension     8 NMult     6 NNew      2
 Iteration     4 Dimension    10 NMult     8 NNew      2
 Iteration     5 Dimension    12 NMult    10 NNew      2
 Iteration     6 Dimension    14 NMult    12 NNew      2
 ***********************************************************************
 Excited states from <AA,BB:AA,BB> singles matrix:
 ***********************************************************************
 
 Ground to excited state transition densities written to RWF  633
 Ground to excited state transition electric dipole moments (Au):
       state          X           Y           Z        Dip. S.      Osc.
         1        -0.0015     -0.6249      0.0106      0.3906      0.0265
 Ground to excited state transition velocity dipole moments (Au):
       state          X           Y           Z        Dip. S.      Osc.
         1         0.0002      0.0708     -0.0013      0.0050      0.0329
 Ground to excited state transition magnetic dipole moments (Au):
       state          X           Y           Z
         1        -0.0138     -0.0001     -0.0001
 Ground to excited state transition velocity quadrupole moments (Au):
       state          XX          YY          ZZ          XY          XZ          YZ
         1         0.3237      0.0270     -0.0092      0.0002      0.0000      0.0023
 <0|del|b> * <b|rxdel|0> + <0|del|b> * <b|delr+rdel|0>
 Rotatory Strengths (R) in cgs (10**-40 erg-esu-cm/Gauss)
       state          XX          YY          ZZ    R(velocity)    E-M Angle
         1        -0.0331     -0.0050     -0.0300     -0.0227       90.00
 1/2[<0|r|b>*<b|rxdel|0> + (<0|rxdel|b>*<b|r|0>)*]
 Rotatory Strengths (R) in cgs (10**-40 erg-esu-cm/Gauss)
       state          XX          YY          ZZ     R(length)
         1        -0.0147     -0.0485      0.0004     -0.0209
  1/2[<0|del|b>*<b|r|0> + (<0|r|b>*<b|del|0>)*] (Au)
       state          X           Y           Z        Dip. S.   Osc.(frdel)
         1        -0.0000     -0.0442     -0.0000      0.0443      0.0295

 Excitation energies and oscillator strengths:
 
 Excited State   1:      Singlet-A      2.7655 eV  448.32 nm  f=0.0265  <S**2>=0.000
      47 -> 48         0.70427
 This state for optimization and/or second-order correction.
 Total Energy, E(TD-HF/TD-DFT) =  -539.649082731    
 Copying the excited state density for this state as the 1-particle RhoCI density.
 SavETr:  write IOETrn=   770 NScale= 10 NData=  16 NLR=1 NState=    1 LETran=      28.

 **********************************************************************

            Population analysis using the SCF Density.

 **********************************************************************

 Orbital symmetries:
       Occupied  (A) (A) (A) (A) (A) (A) (A) (A) (A) (A) (A) (A)
                 (A) (A) (A) (A) (A) (A) (A) (A) (A) (A) (A) (A)
                 (A) (A) (A) (A) (A) (A) (A) (A) (A) (A) (A) (A)
                 (A) (A) (A) (A) (A) (A) (A) (A) (A) (A) (A)
       Virtual   (A) (A) (A) (A) (A) (A) (A) (A) (A) (A) (A) (A)
                 (A) (A) (A) (A) (A) (A) (A) (A) (A) (A) (A) (A)
                 (A) (A) (A) (A) (A) (A) (A) (A) (A) (A) (A) (A)
                 (A) (A) (A) (A) (A) (A) (A) (A) (A) (A) (A) (A)
                 (A) (A) (A) (A) (A) (A) (A) (A) (A) (A) (A) (A)
                 (A) (A) (A) (A) (A) (A) (A) (A) (A) (A) (A) (A)
                 (A) (A) (A) (A) (A) (A) (A) (A) (A) (A) (A) (A)
                 (A) (A) (A) (A) (A) (A) (A) (A) (A) (A) (A) (A)
                 (A) (A) (A) (A) (A) (A) (A) (A) (A) (A) (A) (A)
                 (A) (A) (A) (A) (A) (A) (A) (A) (A) (A) (A) (A)
                 (A) (A) (A) (A) (A) (A) (A) (A) (A) (A) (A) (A)
                 (A) (A) (A) (A) (A) (A) (A) (A) (A) (A) (A) (A)
                 (A) (A) (A) (A) (A) (A) (A) (A) (A) (A) (A) (A)
                 (A) (A) (A) (A) (A) (A) (A) (A) (A) (A) (A) (A)
                 (A) (A) (A) (A) (A) (A) (A) (A) (A) (A) (A) (A)
                 (A) (A) (A) (A) (A) (A) (A) (A) (A) (A) (A) (A)
                 (A) (A) (A) (A) (A) (A) (A) (A) (A) (A) (A) (A)
                 (A) (A) (A) (A) (A) (A) (A) (A) (A) (A) (A) (A)
                 (A) (A) (A) (A) (A) (A) (A) (A) (A) (A) (A) (A)
                 (A) (A) (A) (A) (A) (A) (A) (A) (A) (A) (A) (A)
                 (A) (A) (A) (A) (A) (A) (A) (A) (A) (A) (A) (A)
                 (A) (A) (A) (A) (A) (A) (A) (A) (A) (A) (A) (A)
                 (A) (A) (A) (A) (A) (A) (A) (A) (A) (A) (A) (A)
                 (A) (A) (A) (A) (A) (A) (A) (A) (A) (A) (A) (A)
                 (A) (A) (A) (A) (A) (A) (A) (A) (A) (A) (A) (A)
                 (A) (A) (A) (A) (A) (A) (A) (A) (A) (A) (A) (A)
                 (A) (A) (A) (A) (A) (A) (A) (A) (A) (A) (A) (A)
                 (A) (A) (A) (A) (A) (A) (A) (A)
 The electronic state is 1-A.
 Alpha  occ. eigenvalues --  -10.77653 -10.73348 -10.73334 -10.72679 -10.72677
 Alpha  occ. eigenvalues --  -10.71665 -10.71658 -10.71183 -10.71181 -10.70977
 Alpha  occ. eigenvalues --  -10.70295 -10.70290 -10.69556 -10.69549  -1.16278
 Alpha  occ. eigenvalues --   -1.11878  -1.06673  -1.05891  -1.00871  -1.00121
 Alpha  occ. eigenvalues --   -0.95574  -0.91098  -0.86405  -0.85809  -0.83785
 Alpha  occ. eigenvalues --   -0.78401  -0.75959  -0.74299  -0.69650  -0.69507
 Alpha  occ. eigenvalues --   -0.68867  -0.68283  -0.68023  -0.64330  -0.63924
 Alpha  occ. eigenvalues --   -0.63250  -0.62215  -0.59738  -0.59235  -0.59217
 Alpha  occ. eigenvalues --   -0.56996  -0.55333  -0.54958  -0.52215  -0.46369
 Alpha  occ. eigenvalues --   -0.45909  -0.44220
 Alpha virt. eigenvalues --   -0.26057  -0.15046  -0.14186  -0.13150  -0.11178
 Alpha virt. eigenvalues --   -0.10076  -0.09188  -0.08067  -0.07859  -0.07455
 Alpha virt. eigenvalues --   -0.07270  -0.07124  -0.05652  -0.05586  -0.05396
 Alpha virt. eigenvalues --   -0.03752  -0.03711  -0.03295  -0.03130  -0.02126
 Alpha virt. eigenvalues --   -0.01354  -0.00904   0.00193   0.00718   0.00784
 Alpha virt. eigenvalues --    0.01016   0.01502   0.01784   0.02191   0.02315
 Alpha virt. eigenvalues --    0.02348   0.02448   0.02875   0.03209   0.03420
 Alpha virt. eigenvalues --    0.04265   0.04495   0.04650   0.04910   0.05350
 Alpha virt. eigenvalues --    0.05882   0.06274   0.06621   0.07001   0.07122
 Alpha virt. eigenvalues --    0.07797   0.07882   0.08254   0.08472   0.08943
 Alpha virt. eigenvalues --    0.09574   0.09620   0.09990   0.10600   0.10969
 Alpha virt. eigenvalues --    0.11141   0.12303   0.12307   0.12829   0.13117
 Alpha virt. eigenvalues --    0.13420   0.13485   0.14027   0.14043   0.15605
 Alpha virt. eigenvalues --    0.16378   0.16805   0.16828   0.17463   0.17632
 Alpha virt. eigenvalues --    0.18012   0.18640   0.19105   0.19506   0.19683
 Alpha virt. eigenvalues --    0.21300   0.21329   0.22302   0.23056   0.23128
 Alpha virt. eigenvalues --    0.23601   0.24279   0.24492   0.26643   0.27267
 Alpha virt. eigenvalues --    0.28786   0.29212   0.29665   0.31007   0.35736
 Alpha virt. eigenvalues --    0.35917   0.37348   0.38965   0.41130   0.41550
 Alpha virt. eigenvalues --    0.41878   0.42574   0.42910   0.43365   0.43477
 Alpha virt. eigenvalues --    0.43840   0.44516   0.44660   0.45999   0.47763
 Alpha virt. eigenvalues --    0.48705   0.48885   0.48994   0.50497   0.50869
 Alpha virt. eigenvalues --    0.51099   0.51225   0.52067   0.52132   0.53944
 Alpha virt. eigenvalues --    0.54098   0.54341   0.55764   0.55922   0.57101
 Alpha virt. eigenvalues --    0.58062   0.58622   0.61215   0.61961   0.62153
 Alpha virt. eigenvalues --    0.62545   0.62678   0.63749   0.65090   0.66739
 Alpha virt. eigenvalues --    0.70461   0.70541   0.70674   0.71385   0.72582
 Alpha virt. eigenvalues --    0.74414   0.75073   0.75824   0.75929   0.76531
 Alpha virt. eigenvalues --    0.76897   0.77420   0.77918   0.80362   0.80509
 Alpha virt. eigenvalues --    0.80785   0.81873   0.81927   0.82542   0.83902
 Alpha virt. eigenvalues --    0.85539   0.86043   0.87489   0.89131   0.90516
 Alpha virt. eigenvalues --    0.90982   0.91415   0.93146   0.94797   0.96051
 Alpha virt. eigenvalues --    0.96913   1.00253   1.01042   1.01711   1.02326
 Alpha virt. eigenvalues --    1.03225   1.03977   1.04368   1.07133   1.09183
 Alpha virt. eigenvalues --    1.19880   1.23219   1.24133   1.25907   1.28025
 Alpha virt. eigenvalues --    1.28627   1.32252   1.33153   1.34758   1.35867
 Alpha virt. eigenvalues --    1.38417   1.39915   1.40199   1.42626   1.42730
 Alpha virt. eigenvalues --    1.43073   1.44670   1.44747   1.46861   1.46902
 Alpha virt. eigenvalues --    1.47098   1.47548   1.51355   1.53621   1.55205
 Alpha virt. eigenvalues --    1.55485   1.55923   1.56903   1.57426   1.61009
 Alpha virt. eigenvalues --    1.63687   1.64420   1.64526   1.65802   1.67527
 Alpha virt. eigenvalues --    1.68363   1.68746   1.69554   1.73413   1.75622
 Alpha virt. eigenvalues --    1.76795   1.77374   1.78777   1.79524   1.79581
 Alpha virt. eigenvalues --    1.82716   1.82821   1.82979   1.83139   1.83738
 Alpha virt. eigenvalues --    1.84333   1.85679   1.85969   1.87979   1.91164
 Alpha virt. eigenvalues --    1.91601   1.94019   1.95334   1.97139   1.97142
 Alpha virt. eigenvalues --    1.98838   2.02109   2.03559   2.07432   2.11382
 Alpha virt. eigenvalues --    2.11612   2.12933   2.14924   2.17896   2.19914
 Alpha virt. eigenvalues --    2.21479   2.28101   2.28762   2.33908   2.35486
 Alpha virt. eigenvalues --    2.36131   2.38160   2.40075   2.40723   2.41320
 Alpha virt. eigenvalues --    2.45273   2.47257   2.49775   2.53150   2.53549
 Alpha virt. eigenvalues --    2.54215   2.56755   2.57766   2.58438   2.59501
 Alpha virt. eigenvalues --    2.59872   2.60726   2.61724   2.62495   2.62813
 Alpha virt. eigenvalues --    2.63215   2.64557   2.64582   2.65469   2.67502
 Alpha virt. eigenvalues --    2.69220   2.70759   2.71182   2.73474   2.74680
 Alpha virt. eigenvalues --    2.76291   2.77791   2.79400   2.81911   2.82411
 Alpha virt. eigenvalues --    2.83847   2.86409   2.91959   2.95158   2.99210
 Alpha virt. eigenvalues --    2.99267   3.06220   3.08879   3.09546   3.10090
 Alpha virt. eigenvalues --    3.20386   3.22711   3.25027   3.26958   3.29620
 Alpha virt. eigenvalues --    3.29925   3.31648   3.42812   3.43243   3.44969
 Alpha virt. eigenvalues --    3.46065   3.48478   3.55808   3.63794   3.66958
 Alpha virt. eigenvalues --    3.69432   3.94099   3.95669   3.96958   3.98377
 Alpha virt. eigenvalues --    4.04610   4.05980   4.07958   4.12317   4.35597
 Alpha virt. eigenvalues --    4.61298   4.67529   4.69096  23.45877  23.62495
 Alpha virt. eigenvalues --   23.80542  23.86032  23.86258  23.88887  23.90102
 Alpha virt. eigenvalues --   23.92789  23.95063  23.95344  23.95519  23.97945
 Alpha virt. eigenvalues --   24.08238  24.08455
          Condensed to atoms (all electrons):
               1          2          3          4          5          6
     1  C    8.189204   0.627864  -0.587511   1.407249   0.010764  -0.075468
     2  C    0.627864   6.662642   0.357408  -0.572274  -0.056477  -0.014698
     3  C   -0.587511   0.357408   6.559378   0.399758  -0.101570   0.016070
     4  C    1.407249  -0.572274   0.399758   9.852881   0.167263  -0.101576
     5  C    0.010764  -0.056477  -0.101570   0.167263   9.847492   0.395919
     6  C   -0.075468  -0.014698   0.016070  -0.101576   0.395919   6.558947
     7  C   -0.036074   0.011067  -0.014725  -0.056616  -0.568273   0.356970
     8  C    0.353944  -0.036128  -0.075473   0.010655   1.409342  -0.589609
     9  C   -1.421651  -0.431173   0.240255  -0.574018  -0.576649   0.240316
    10  C   -0.957519   0.066569  -0.277122  -2.073609  -2.070605  -0.276569
    11  C    0.133588  -0.906485   1.106078  -1.133995  -1.650588  -0.098694
    12  C   -1.143700   0.712948  -1.185122  -0.147620   0.053305  -0.213788
    13  C    0.057992  -0.133656  -0.099568  -1.653884  -1.143256   1.108093
    14  C   -0.979252  -0.198995  -0.213935   0.048671  -0.144118  -1.182255
    15  H    0.351253  -0.096261   0.000957   0.020948   0.004575   0.001247
    16  H   -0.027534   0.384238  -0.019740   0.012021  -0.001296  -0.000303
    17  H   -0.014282  -0.029780   0.390586  -0.051275  -0.000359   0.000331
    18  H    0.041148   0.013391  -0.101220   0.431176   0.013727  -0.004163
    19  H   -0.041422  -0.010086   0.052289  -0.079203  -0.079113   0.052332
    20  H    0.006669   0.001326  -0.004163   0.013683   0.430772  -0.101294
    21  H   -0.001124  -0.000327   0.000331  -0.000354  -0.051200   0.390564
    22  H    0.000512   0.000321  -0.000304  -0.001305   0.012043  -0.019760
    23  H    0.005734  -0.002338   0.001247   0.004588   0.020866   0.000959
    24  H    0.004528   0.014977  -0.001064  -0.015120  -0.015275  -0.001011
    25  H    0.058437   0.011438  -0.001184  -0.011020  -0.010855  -0.001258
               7          8          9         10         11         12
     1  C   -0.036074   0.353944  -1.421651  -0.957519   0.133588  -1.143700
     2  C    0.011067  -0.036128  -0.431173   0.066569  -0.906485   0.712948
     3  C   -0.014725  -0.075473   0.240255  -0.277122   1.106078  -1.185122
     4  C   -0.056616   0.010655  -0.574018  -2.073609  -1.133995  -0.147620
     5  C   -0.568273   1.409342  -0.576649  -2.070605  -1.650588   0.053305
     6  C    0.356970  -0.589609   0.240316  -0.276569  -0.098694  -0.213788
     7  C    6.657268   0.628861  -0.427907   0.065037  -0.132089  -0.199279
     8  C    0.628861   8.185419  -1.420008  -0.956910   0.057366  -0.975358
     9  C   -0.427907  -1.420008   8.141113   0.592426   1.304937  -0.799437
    10  C    0.065037  -0.956910   0.592426   8.578698  -0.001652   1.377933
    11  C   -0.132089   0.057366   1.304937  -0.001652  13.274440  -2.807628
    12  C   -0.199279  -0.975358  -0.799437   1.377933  -2.807628  13.150285
    13  C   -0.903314   0.127381   1.304622  -0.004977   1.487809  -4.140555
    14  C    0.706394  -1.140711  -0.797659   1.374978  -4.132443   1.975328
    15  H   -0.002322   0.005717   0.076109  -0.008883  -0.009105  -0.016753
    16  H    0.000319   0.000497   0.002437  -0.009684   0.022604  -0.022392
    17  H   -0.000326  -0.001119  -0.000732   0.013760  -0.012475   0.056617
    18  H    0.001321   0.006656  -0.027918   0.032206  -0.032368  -0.027242
    19  H   -0.010105  -0.041424   0.065947   0.426297   0.084126  -0.065801
    20  H    0.013530   0.041091  -0.027888   0.032425  -0.009835  -0.003447
    21  H   -0.029829  -0.014147  -0.000749   0.013755  -0.004868   0.002681
    22  H    0.384220  -0.027440   0.002515  -0.009753   0.001539  -0.007543
    23  H   -0.095979   0.351385   0.075983  -0.008856  -0.001885   0.005021
    24  H    0.015162   0.005109   0.384740   0.009479  -0.002708  -0.026177
    25  H    0.011204   0.057647   0.333046   0.002910   0.022537  -0.084708
              13         14         15         16         17         18
     1  C    0.057992  -0.979252   0.351253  -0.027534  -0.014282   0.041148
     2  C   -0.133656  -0.198995  -0.096261   0.384238  -0.029780   0.013391
     3  C   -0.099568  -0.213935   0.000957  -0.019740   0.390586  -0.101220
     4  C   -1.653884   0.048671   0.020948   0.012021  -0.051275   0.431176
     5  C   -1.143256  -0.144118   0.004575  -0.001296  -0.000359   0.013727
     6  C    1.108093  -1.182255   0.001247  -0.000303   0.000331  -0.004163
     7  C   -0.903314   0.706394  -0.002322   0.000319  -0.000326   0.001321
     8  C    0.127381  -1.140711   0.005717   0.000497  -0.001119   0.006656
     9  C    1.304622  -0.797659   0.076109   0.002437  -0.000732  -0.027918
    10  C   -0.004977   1.374978  -0.008883  -0.009684   0.013760   0.032206
    11  C    1.487809  -4.132443  -0.009105   0.022604  -0.012475  -0.032368
    12  C   -4.140555   1.975328  -0.016753  -0.022392   0.056617  -0.027242
    13  C   13.298656  -2.804321  -0.001840   0.001509  -0.004870  -0.009976
    14  C   -2.804321  13.147044   0.005055  -0.007505   0.002682  -0.003592
    15  H   -0.001840   0.005055   0.443779  -0.008884   0.001610   0.000010
    16  H    0.001509  -0.007505  -0.008884   0.421132  -0.007360   0.001980
    17  H   -0.004870   0.002682   0.001610  -0.007360   0.428343  -0.011144
    18  H   -0.009976  -0.003592   0.000010   0.001980  -0.011144   0.458738
    19  H    0.084458  -0.065414   0.000451  -0.000615   0.001424  -0.005813
    20  H   -0.032414  -0.027374  -0.000164   0.000018  -0.000144   0.001111
    21  H   -0.012478   0.056462   0.000030  -0.000007   0.000011  -0.000144
    22  H    0.022768  -0.022663  -0.000131   0.000007  -0.000007   0.000018
    23  H   -0.009284  -0.016675   0.000528  -0.000131   0.000030  -0.000163
    24  H   -0.002615  -0.025783  -0.002074   0.000832  -0.000221   0.000061
    25  H    0.022438  -0.085200   0.000112   0.000376  -0.000095   0.000357
              19         20         21         22         23         24
     1  C   -0.041422   0.006669  -0.001124   0.000512   0.005734   0.004528
     2  C   -0.010086   0.001326  -0.000327   0.000321  -0.002338   0.014977
     3  C    0.052289  -0.004163   0.000331  -0.000304   0.001247  -0.001064
     4  C   -0.079203   0.013683  -0.000354  -0.001305   0.004588  -0.015120
     5  C   -0.079113   0.430772  -0.051200   0.012043   0.020866  -0.015275
     6  C    0.052332  -0.101294   0.390564  -0.019760   0.000959  -0.001011
     7  C   -0.010105   0.013530  -0.029829   0.384220  -0.095979   0.015162
     8  C   -0.041424   0.041091  -0.014147  -0.027440   0.351385   0.005109
     9  C    0.065947  -0.027888  -0.000749   0.002515   0.075983   0.384740
    10  C    0.426297   0.032425   0.013755  -0.009753  -0.008856   0.009479
    11  C    0.084126  -0.009835  -0.004868   0.001539  -0.001885  -0.002708
    12  C   -0.065801  -0.003447   0.002681  -0.007543   0.005021  -0.026177
    13  C    0.084458  -0.032414  -0.012478   0.022768  -0.009284  -0.002615
    14  C   -0.065414  -0.027374   0.056462  -0.022663  -0.016675  -0.025783
    15  H    0.000451  -0.000164   0.000030  -0.000131   0.000528  -0.002074
    16  H   -0.000615   0.000018  -0.000007   0.000007  -0.000131   0.000832
    17  H    0.001424  -0.000144   0.000011  -0.000007   0.000030  -0.000221
    18  H   -0.005813   0.001111  -0.000144   0.000018  -0.000163   0.000061
    19  H    0.450650  -0.005799   0.001420  -0.000613   0.000452   0.000820
    20  H   -0.005799   0.458775  -0.011121   0.001981   0.000005   0.000058
    21  H    0.001420  -0.011121   0.428254  -0.007356   0.001612  -0.000221
    22  H   -0.000613   0.001981  -0.007356   0.421147  -0.008883   0.000825
    23  H    0.000452   0.000005   0.001612  -0.008883   0.443654  -0.002024
    24  H    0.000820   0.000058  -0.000221   0.000825  -0.002024   0.489300
    25  H    0.000243   0.000363  -0.000097   0.000384   0.000073  -0.076804
              25
     1  C    0.058437
     2  C    0.011438
     3  C   -0.001184
     4  C   -0.011020
     5  C   -0.010855
     6  C   -0.001258
     7  C    0.011204
     8  C    0.057647
     9  C    0.333046
    10  C    0.002910
    11  C    0.022537
    12  C   -0.084708
    13  C    0.022438
    14  C   -0.085200
    15  H    0.000112
    16  H    0.000376
    17  H   -0.000095
    18  H    0.000357
    19  H    0.000243
    20  H    0.000363
    21  H   -0.000097
    22  H    0.000384
    23  H    0.000073
    24  H   -0.076804
    25  H    0.489074
 Mulliken charges:
               1
     1  C    0.036653
     2  C   -0.375512
     3  C   -0.441659
     4  C    0.102977
     5  C    0.103567
     6  C   -0.441302
     7  C   -0.374516
     8  C    0.037256
     9  C   -0.258657
    10  C    0.069666
    11  C   -0.558206
    12  C    0.532430
    13  C   -0.558719
    14  C    0.531280
    15  H    0.234037
    16  H    0.257481
    17  H    0.238796
    18  H    0.221843
    19  H    0.184500
    20  H    0.221836
    21  H    0.238899
    22  H    0.257478
    23  H    0.234082
    24  H    0.245206
    25  H    0.260583
 Sum of Mulliken charges =   1.00000
 Mulliken charges with hydrogens summed into heavy atoms:
               1
     1  C    0.270690
     2  C   -0.118032
     3  C   -0.202863
     4  C    0.324820
     5  C    0.325404
     6  C   -0.202403
     7  C   -0.117038
     8  C    0.271338
     9  C    0.247133
    10  C    0.254166
    11  C   -0.558206
    12  C    0.532430
    13  C   -0.558719
    14  C    0.531280
 Electronic spatial extent (au):  <R**2>=           2877.9783
 Charge=              1.0000 electrons
 Dipole moment (field-independent basis, Debye):
    X=              0.0014    Y=              0.1930    Z=              0.0058  Tot=              0.1931
 Quadrupole moment (field-independent basis, Debye-Ang):
   XX=            -30.6447   YY=            -56.2525   ZZ=            -84.3192
   XY=              0.0008   XZ=              0.0012   YZ=              0.2635
 Traceless Quadrupole moment (field-independent basis, Debye-Ang):
   XX=             26.4275   YY=              0.8196   ZZ=            -27.2471
   XY=              0.0008   XZ=              0.0012   YZ=              0.2635
 Octapole moment (field-independent basis, Debye-Ang**2):
  XXX=              0.0565  YYY=              5.1572  ZZZ=             -0.0586  XYY=             -0.0009
  XXY=             -3.4664  XXZ=              0.5459  XZZ=             -0.0061  YZZ=             -3.0961
  YYZ=              0.3301  XYZ=              0.0063
 Hexadecapole moment (field-independent basis, Debye-Ang**3):
 XXXX=          -2131.4543 YYYY=           -609.8024 ZZZZ=           -100.1952 XXXY=              0.0308
 XXXZ=              0.0365 YYYX=             -0.0123 YYYZ=              2.8966 ZZZX=              0.0019
 ZZZY=              0.1175 XXYY=           -511.7018 XXZZ=           -596.8537 YYZZ=           -145.9513
 XXYZ=              2.9195 YYXZ=             -0.0002 ZZXY=              0.0007
 N-N= 7.785508940610D+02 E-N=-2.793291471824D+03  KE= 5.373491228077D+02
 Unable to Open any file for archive entry.
 1\1\GINC-GADI-CPU-CLX-0113\SP\RM062X TD-FC\6-311++G(d,p)\C14H11(1+)\TS
 1578\28-Jul-2022\0\\#n M062X/6-311++G(d,p) TD(NStates=1) EmpiricalDisp
 ersion=GD3 SP\\SP_-125\\1,1\C,0,0.03815,2.490855,1.360431\C,0,0.045475
 ,3.720808,0.671989\C,0,0.0128,3.717711,-0.71383\C,0,-0.042875,2.488131
 ,-1.407538\C,0,-0.042925,-2.488231,-1.407538\C,0,0.0125,-3.718211,-0.7
 1383\C,0,0.045,-3.720983,0.671989\C,0,0.0372,-2.491155,1.360431\C,0,0.
 02405,0.0011,1.453369\C,0,-0.0671,-0.00005,-1.429189\C,0,-0.01,1.24103
 ,0.677065\C,0,-0.0276,1.240846,-0.730804\C,0,-0.010075,-1.241005,0.677
 065\C,0,-0.0274,-1.240696,-0.730804\H,0,0.0121,2.486671,2.443647\H,0,0
 .046075,4.652378,1.211689\H,0,-0.0079,4.607712,-1.272349\H,0,-0.02015,
 2.49185,-2.490059\H,0,-0.061875,-0.000025,-2.510266\H,0,-0.02,-2.49192
 5,-2.490059\H,0,-0.00805,-4.608337,-1.272349\H,0,0.0455,-4.652753,1.21
 1689\H,0,0.011,-2.486996,2.443647\H,0,-0.771585,0.00025,2.145512\H,0,0
 .947585,0.00025,2.146062\\Version=ES64L-G16RevC.01\State=1-A\HF=-539.7
 507136\RMSD=5.402e-09\PG=C01 [X(C14H11)]\\@
 The archive entry for this job was punched.


      THE ONE-EYED VIEW OF OUR UNIVERSE SAYS YOU MUST NOT LOOK
      FAR AFIELD FOR PROBLEMS.  SUCH PROBLEMS MAY NEVER ARRIVE. 
      INSTEAD, TEND TO THE WOLF WITHIN YOUR FENCES.
      THE PACKS RANGING OUTSIDE MAY NOT EVEN EXIST.

                              -- THE AZHAR BOOK SHAMRA I:4
                                 CHILDREN OF DUNE, BY FRANK HERBERT
 Job cpu time:       0 days  1 hours 19 minutes 49.5 seconds.
 Elapsed time:       0 days  0 hours  1 minutes 40.0 seconds.
 File lengths (MBytes):  RWF=    460 Int=      0 D2E=      0 Chk=     15 Scr=      1
 Normal termination of Gaussian 16 at Thu Jul 28 13:32:29 2022.
