 Entering Gaussian System, Link 0=g16
 Initial command:
 /apps/gaussian/g16c01/g16/l1.exe "/jobfs/53002009.gadi-pbs/Gau-749500.inp" -scrdir="/jobfs/53002009.gadi-pbs/"
 Entering Link 1 = /apps/gaussian/g16c01/g16/l1.exe PID=    749501.
  
 Copyright (c) 1988-2019, Gaussian, Inc.  All Rights Reserved.
  
 This is part of the Gaussian(R) 16 program.  It is based on
 the Gaussian(R) 09 system (copyright 2009, Gaussian, Inc.),
 the Gaussian(R) 03 system (copyright 2003, Gaussian, Inc.),
 the Gaussian(R) 98 system (copyright 1998, Gaussian, Inc.),
 the Gaussian(R) 94 system (copyright 1995, Gaussian, Inc.),
 the Gaussian 92(TM) system (copyright 1992, Gaussian, Inc.),
 the Gaussian 90(TM) system (copyright 1990, Gaussian, Inc.),
 the Gaussian 88(TM) system (copyright 1988, Gaussian, Inc.),
 the Gaussian 86(TM) system (copyright 1986, Carnegie Mellon
 University), and the Gaussian 82(TM) system (copyright 1983,
 Carnegie Mellon University). Gaussian is a federally registered
 trademark of Gaussian, Inc.
  
 This software contains proprietary and confidential information,
 including trade secrets, belonging to Gaussian, Inc.
  
 This software is provided under written license and may be
 used, copied, transmitted, or stored only in accord with that
 written license.
  
 The following legend is applicable only to US Government
 contracts under FAR:
  
                    RESTRICTED RIGHTS LEGEND
  
 Use, reproduction and disclosure by the US Government is
 subject to restrictions as set forth in subparagraphs (a)
 and (c) of the Commercial Computer Software - Restricted
 Rights clause in FAR 52.227-19.
  
 Gaussian, Inc.
 340 Quinnipiac St., Bldg. 40, Wallingford CT 06492
  
  
 ---------------------------------------------------------------
 Warning -- This program may not be used in any manner that
 competes with the business of Gaussian, Inc. or will provide
 assistance to any competitor of Gaussian, Inc.  The licensee
 of this program is prohibited from giving any competitor of
 Gaussian, Inc. access to this program.  By using this program,
 the user acknowledges that Gaussian, Inc. is engaged in the
 business of creating and licensing software in the field of
 computational chemistry and represents and warrants to the
 licensee that it is not a competitor of Gaussian, Inc. and that
 it will not use this program in any manner prohibited above.
 ---------------------------------------------------------------
  

 Cite this work as:
 Gaussian 16, Revision C.01,
 M. J. Frisch, G. W. Trucks, H. B. Schlegel, G. E. Scuseria, 
 M. A. Robb, J. R. Cheeseman, G. Scalmani, V. Barone, 
 G. A. Petersson, H. Nakatsuji, X. Li, M. Caricato, A. V. Marenich, 
 J. Bloino, B. G. Janesko, R. Gomperts, B. Mennucci, H. P. Hratchian, 
 J. V. Ortiz, A. F. Izmaylov, J. L. Sonnenberg, D. Williams-Young, 
 F. Ding, F. Lipparini, F. Egidi, J. Goings, B. Peng, A. Petrone, 
 T. Henderson, D. Ranasinghe, V. G. Zakrzewski, J. Gao, N. Rega, 
 G. Zheng, W. Liang, M. Hada, M. Ehara, K. Toyota, R. Fukuda, 
 J. Hasegawa, M. Ishida, T. Nakajima, Y. Honda, O. Kitao, H. Nakai, 
 T. Vreven, K. Throssell, J. A. Montgomery, Jr., J. E. Peralta, 
 F. Ogliaro, M. J. Bearpark, J. J. Heyd, E. N. Brothers, K. N. Kudin, 
 V. N. Staroverov, T. A. Keith, R. Kobayashi, J. Normand, 
 K. Raghavachari, A. P. Rendell, J. C. Burant, S. S. Iyengar, 
 J. Tomasi, M. Cossi, J. M. Millam, M. Klene, C. Adamo, R. Cammi, 
 J. W. Ochterski, R. L. Martin, K. Morokuma, O. Farkas, 
 J. B. Foresman, and D. J. Fox, Gaussian, Inc., Wallingford CT, 2019.
 
 ******************************************
 Gaussian 16:  ES64L-G16RevC.01  3-Jul-2019
                28-Jul-2022 
 ******************************************
 %NProcShared=48
 Will use up to   48 processors via shared memory.
 %mem = 190GB
 ---------------------------------------------------------------
 #n M062X/6-311++G(d,p) TD(NStates=1) EmpiricalDispersion=GD3 SP
 ---------------------------------------------------------------
 1/38=1,172=1/1;
 2/12=2,17=6,18=5,40=1/2;
 3/5=4,6=6,7=1111,11=9,25=1,30=1,74=-55,124=31/1,2,3,8;
 4//1;
 5/5=2,38=5/2;
 8/6=1,10=2,108=1/1;
 9/41=1,42=1,70=2/14;
 6/7=2,8=2,9=2,10=2/1;
 99/5=1,9=1/99;
 ------
 SP_-25
 ------
 Symbolic Z-matrix:
 Charge =  1 Multiplicity = 1
 C                    -0.02045   2.49446   1.36043 
 C                    -0.02223   3.69331   0.67199 
 C                    -0.0068    3.67011  -0.71383 
 C                     0.01932   2.45213  -1.40754 
 C                     0.01967  -2.45143  -1.40754 
 C                    -0.0047   -3.66661  -0.71383 
 C                    -0.0189   -3.69208   0.67199 
 C                    -0.0138   -2.49236   1.36043 
 C                    -0.01085  -0.0077    1.45337 
 C                     0.0305    0.00035  -1.42919 
 C                     0.0043    1.27153   0.67707 
 C                     0.0132    1.23545  -0.7308 
 C                     0.00483  -1.27171   0.67707 
 C                     0.0118   -1.2365   -0.7308 
 H                    -0.0091    2.48977   2.44365 
 H                    -0.02283   4.63088   1.21169 
 H                     0.0031    4.61201  -1.27235 
 H                     0.00965   2.45675  -2.49006 
 H                     0.02813   0.00018  -2.51027 
 H                     0.0086   -2.45622  -2.49006 
 H                     0.00415  -4.60764  -1.27235 
 H                    -0.0188   -4.62825   1.21169 
 H                    -0.0014   -2.4875    2.44365 
 H                    -0.89959  -0.00175   2.14771 
 H                     0.81959  -0.00175   2.14386 
 
                          Input orientation:                          
 ---------------------------------------------------------------------
 Center     Atomic      Atomic             Coordinates (Angstroms)
 Number     Number       Type             X           Y           Z
 ---------------------------------------------------------------------
      1          6           0       -0.020450    2.494455    1.360431
      2          6           0       -0.022225    3.693308    0.671989
      3          6           0       -0.006800    3.670111   -0.713830
      4          6           0        0.019325    2.452131   -1.407538
      5          6           0        0.019675   -2.451431   -1.407538
      6          6           0       -0.004700   -3.666611   -0.713830
      7          6           0       -0.018900   -3.692083    0.671989
      8          6           0       -0.013800   -2.492355    1.360431
      9          6           0       -0.010850   -0.007700    1.453369
     10          6           0        0.030500    0.000350   -1.429189
     11          6           0        0.004300    1.271530    0.677065
     12          6           0        0.013200    1.235446   -0.730804
     13          6           0        0.004825   -1.271705    0.677065
     14          6           0        0.011800   -1.236496   -0.730804
     15          1           0       -0.009100    2.489771    2.443647
     16          1           0       -0.022825    4.630878    1.211689
     17          1           0        0.003100    4.612012   -1.272349
     18          1           0        0.009650    2.456750   -2.490059
     19          1           0        0.028125    0.000175   -2.510266
     20          1           0        0.008600   -2.456225   -2.490059
     21          1           0        0.004150   -4.607637   -1.272349
     22          1           0       -0.018800   -4.628253    1.211689
     23          1           0       -0.001400   -2.487496    2.443647
     24          1           0       -0.899585   -0.001750    2.147712
     25          1           0        0.819585   -0.001750    2.143862
 ---------------------------------------------------------------------
                    Distance matrix (angstroms):
                    1          2          3          4          5
     1  C    0.000000
     2  C    1.382463   0.000000
     3  C    2.384305   1.386099   0.000000
     4  C    2.768578   2.422123   1.401923   0.000000
     5  C    5.667896   6.487219   6.160780   4.903562   0.000000
     6  C    6.500888   7.489273   7.336722   6.157988   1.399460
     7  C    6.224725   7.385392   7.491498   6.486699   2.421805
     8  C    4.986814   6.223861   6.502199   5.666630   2.768474
     9  C    2.503899   3.782611   4.268848   3.773124   3.762651
    10  C    3.742344   4.249196   3.739021   2.451902   2.451900
    11  C    1.401124   2.421929   2.772707   2.395749   4.266878
    12  C    2.441209   2.830224   2.434806   1.392239   3.748476
    13  C    3.827739   4.965089   5.133836   4.267638   2.395317
    14  C    4.277184   5.125617   4.906672   3.750199   1.390719
    15  H    1.083286   2.141832   3.370885   3.851474   6.264817
    16  H    2.141596   1.081810   2.151965   3.407208   7.551242
    17  H    3.378777   2.150607   1.095089   2.164168   7.064756
    18  H    3.850792   3.395385   2.151164   1.082574   5.026151
    19  H    4.605007   4.875296   4.086176   2.688526   2.688206
    20  H    6.271870   6.914930   6.378653   5.026323   1.082588
    21  H    7.574421   8.525657   8.296576   7.061079   2.160496
    22  H    7.124261   8.339045   8.518839   7.549413   3.405934
    23  H    5.098388   6.429739   6.919958   6.263543   3.851412
    24  H    2.761110   4.074429   4.740048   4.416529   4.414270
    25  H    2.747810   4.065527   4.725662   4.390261   4.387851
                    6          7          8          9         10
     6  C    0.000000
     7  C    1.386126   0.000000
     8  C    2.383594   1.383230   0.000000
     9  C    4.252578   3.766337   2.486394   0.000000
    10  C    3.736252   4.248700   3.741326   2.882866   0.000000
    11  C    5.130293   4.963670   3.825460   1.496431   2.460262
    12  C    4.902119   5.123417   4.274400   2.513285   1.418980
    13  C    2.769522   2.420500   1.399043   1.483443   2.460709
    14  C    2.430230   2.828193   2.439488   2.506205   1.420521
    15  H    6.918867   6.430722   5.098525   2.686636   4.604090
    16  H    8.517997   8.340442   7.124792   4.644885   5.330935
    17  H    8.297446   8.528712   7.576533   5.363905   4.614410
    18  H    6.375794   6.914298   6.270603   4.650221   2.675777
    19  H    4.083329   4.874600   4.603994   3.963834   1.081080
    20  H    2.149465   3.395092   3.850725   4.641797   2.675946
    21  H    1.094327   2.149237   3.377317   5.346885   4.610731
    22  H    2.152342   1.080597   2.141077   4.626876   5.329224
    23  H    3.370458   2.142454   1.083298   2.670230   4.603179
    24  H    4.735024   4.070863   2.758177   1.127829   3.695847
    25  H    4.719858   4.060545   2.740695   1.080018   3.659146
                   11         12         13         14         15
    11  C    0.000000
    12  C    1.408359   0.000000
    13  C    2.543235   2.875408   0.000000
    14  C    2.876169   2.471942   1.408326   0.000000
    15  H    2.145950   3.413351   4.155684   4.895165   0.000000
    16  H    3.401732   3.911973   5.926810   6.180660   2.470273
    17  H    3.867691   3.419733   6.198253   5.873533   4.279332
    18  H    3.381634   2.141629   4.892042   4.090849   4.933852
    19  H    3.431616   2.166241   3.431807   2.167050   5.544432
    20  H    4.891508   4.089430   3.381387   2.140731   6.986032
    21  H    6.193934   5.868132   3.863762   3.414370   8.011367
    22  H    5.924002   6.177157   3.398940   3.908738   7.223855
    23  H    4.153447   4.892612   2.144528   3.412084   4.977273
    24  H    2.145006   3.263385   2.143256   3.262066   2.662371
    25  H    2.106520   3.231813   2.104308   3.231226   2.642776
                   16         17         18         19         20
    16  H    0.000000
    17  H    2.484245   0.000000
    18  H    4.293114   2.475483   0.000000
    19  H    5.941292   4.775155   2.456728   0.000000
    20  H    7.995684   7.172365   4.912975   2.456561   0.000000
    21  H    9.566678   9.219649   7.168571   4.771262   2.472127
    22  H    9.259132   9.568355   7.993811   5.939486   4.292015
    23  H    7.224225   8.013218   6.984780   5.543522   4.933815
    24  H    4.806879   5.813644   5.327274   4.749464   5.325239
    25  H    4.799984   5.798616   5.307866   4.720945   5.306163
                   21         22         23         24         25
    21  H    0.000000
    22  H    2.484230   0.000000
    23  H    4.278277   2.469993   0.000000
    24  H    5.807560   4.801713   2.659558   0.000000
    25  H    5.792204   4.793367   2.634923   1.719174   0.000000
 Stoichiometry    C14H11(1+)
 Framework group  C1[X(C14H11)]
 Deg. of freedom    69
 Full point group                 C1      NOp   1
 Largest Abelian subgroup         C1      NOp   1
 Largest concise Abelian subgroup C1      NOp   1
                         Standard orientation:                         
 ---------------------------------------------------------------------
 Center     Atomic      Atomic             Coordinates (Angstroms)
 Number     Number       Type             X           Y           Z
 ---------------------------------------------------------------------
      1          6           0        2.494261   -1.360924    0.003960
      2          6           0        3.693216   -0.672715    0.012819
      3          6           0        3.670217    0.713193    0.012674
      4          6           0        2.452328    1.407321   -0.005295
      5          6           0       -2.451234    1.408024   -0.003591
      6          6           0       -3.666506    0.714263    0.013647
      7          6           0       -3.692176   -0.671625    0.012587
      8          6           0       -2.492551   -1.360140   -0.000601
      9          6           0       -0.007911   -1.453394   -0.005616
     10          6           0        0.000546    1.429443   -0.015204
     11          6           0        1.271426   -0.677153   -0.012746
     12          6           0        1.235546    0.730734   -0.006118
     13          6           0       -1.271809   -0.676784   -0.012206
     14          6           0       -1.236395    0.731071   -0.003682
     15          1           0        2.489413   -2.443949   -0.019323
     16          1           0        4.630707   -1.212522    0.007079
     17          1           0        4.612196    1.271653    0.008535
     18          1           0        2.457110    2.489669    0.016306
     19          1           0        0.000531    2.510428   -0.000917
     20          1           0       -2.455864    2.490358    0.019413
     21          1           0       -4.607453    1.272980    0.011346
     22          1           0       -4.628425   -1.211158    0.006932
     23          1           0       -2.487857   -2.443154   -0.024938
     24          1           0       -0.001693   -2.157489    0.875412
     25          1           0       -0.002410   -2.134696   -0.843611
 ---------------------------------------------------------------------
 Rotational constants (GHZ):           2.1357821           0.4466967           0.3702468
 Standard basis: 6-311++G(d,p) (5D, 7F)
 There are   399 symmetry adapted cartesian basis functions of A   symmetry.
 There are   385 symmetry adapted basis functions of A   symmetry.
   385 basis functions,   603 primitive gaussians,   399 cartesian basis functions
    47 alpha electrons       47 beta electrons
       nuclear repulsion energy       782.3287120905 Hartrees.
 NAtoms=   25 NActive=   25 NUniq=   25 SFac= 1.00D+00 NAtFMM=   60 NAOKFM=F Big=F
 Integral buffers will be    131072 words long.
 Regular integral format.
 Two-electron integral symmetry is turned on.
 Nuclear repulsion after empirical dispersion term =      782.3277329502 Hartrees.
 One-electron integrals computed using PRISM.
 NBasis=   385 RedAO= T EigKep=  1.21D-06  NBF=   385
 NBsUse=   379 1.00D-06 EigRej=  8.28D-07 NBFU=   379
 ExpMin= 3.60D-02 ExpMax= 4.56D+03 ExpMxC= 6.82D+02 IAcc=3 IRadAn=         5 AccDes= 0.00D+00
 Harris functional with IExCor= 1009 and IRadAn=       5 diagonalized for initial guess.
 HarFok:  IExCor= 1009 AccDes= 0.00D+00 IRadAn=         5 IDoV= 1 UseB2=F ITyADJ=14
 ICtDFT=  3500011 ScaDFX=  1.000000  1.000000  1.000000  1.000000
 FoFCou: FMM=F IPFlag=           0 FMFlag=      100000 FMFlg1=           0
         NFxFlg=           0 DoJE=T BraDBF=F KetDBF=T FulRan=T
         wScrn=  0.000000 ICntrl=       500 IOpCl=  0 I1Cent=   200000004 NGrid=           0
         NMat0=    1 NMatS0=      1 NMatT0=    0 NMatD0=    1 NMtDS0=    0 NMtDT0=    0
 Petite list used in FoFCou.
 Requested convergence on RMS density matrix=1.00D-08 within 128 cycles.
 Requested convergence on MAX density matrix=1.00D-06.
 Requested convergence on             energy=1.00D-06.
 No special actions if energy rises.
 SCF Done:  E(RM062X) =  -539.758894235     A.U. after   15 cycles
            NFock= 15  Conv=0.49D-08     -V/T= 2.0041
 DoSCS=F DFT=T ScalE2(SS,OS)=  1.000000  1.000000
 ExpMin= 3.60D-02 ExpMax= 4.56D+03 ExpMxC= 6.82D+02 IAcc=3 IRadAn=         5 AccDes= 0.00D+00
 HarFok:  IExCor=  205 AccDes= 0.00D+00 IRadAn=         5 IDoV=-2 UseB2=F ITyADJ=14
 ICtDFT= 12500011 ScaDFX=  1.000000  1.000000  1.000000  1.000000
 Range of M.O.s used for correlation:    15   379
 NBasis=   385 NAE=    47 NBE=    47 NFC=    14 NFV=     0
 NROrb=    365 NOA=    33 NOB=    33 NVA=   332 NVB=   332

 **** Warning!!: The largest alpha MO coefficient is  0.14839262D+03

 Orbital symmetries:
       Occupied  (A) (A) (A) (A) (A) (A) (A) (A) (A) (A) (A) (A)
                 (A) (A) (A) (A) (A) (A) (A) (A) (A) (A) (A) (A)
                 (A) (A) (A) (A) (A) (A) (A) (A) (A) (A) (A) (A)
                 (A) (A) (A) (A) (A) (A) (A) (A) (A) (A) (A)
       Virtual   (A) (A) (A) (A) (A) (A) (A) (A) (A) (A) (A) (A)
                 (A) (A) (A) (A) (A) (A) (A) (A) (A) (A) (A) (A)
                 (A) (A) (A) (A) (A) (A) (A) (A) (A) (A) (A) (A)
                 (A) (A) (A) (A) (A) (A) (A) (A) (A) (A) (A) (A)
                 (A) (A) (A) (A) (A) (A) (A) (A) (A) (A) (A) (A)
                 (A) (A) (A) (A) (A) (A) (A) (A) (A) (A) (A) (A)
                 (A) (A) (A) (A) (A) (A) (A) (A) (A) (A) (A) (A)
                 (A) (A) (A) (A) (A) (A) (A) (A) (A) (A) (A) (A)
                 (A) (A) (A) (A) (A) (A) (A) (A) (A) (A) (A) (A)
                 (A) (A) (A) (A) (A) (A) (A) (A) (A) (A) (A) (A)
                 (A) (A) (A) (A) (A) (A) (A) (A) (A) (A) (A) (A)
                 (A) (A) (A) (A) (A) (A) (A) (A) (A) (A) (A) (A)
                 (A) (A) (A) (A) (A) (A) (A) (A) (A) (A) (A) (A)
                 (A) (A) (A) (A) (A) (A) (A) (A) (A) (A) (A) (A)
                 (A) (A) (A) (A) (A) (A) (A) (A) (A) (A) (A) (A)
                 (A) (A) (A) (A) (A) (A) (A) (A) (A) (A) (A) (A)
                 (A) (A) (A) (A) (A) (A) (A) (A) (A) (A) (A) (A)
                 (A) (A) (A) (A) (A) (A) (A) (A) (A) (A) (A) (A)
                 (A) (A) (A) (A) (A) (A) (A) (A) (A) (A) (A) (A)
                 (A) (A) (A) (A) (A) (A) (A) (A) (A) (A) (A) (A)
                 (A) (A) (A) (A) (A) (A) (A) (A) (A) (A) (A) (A)
                 (A) (A) (A) (A) (A) (A) (A) (A) (A) (A) (A) (A)
                 (A) (A) (A) (A) (A) (A) (A) (A) (A) (A) (A) (A)
                 (A) (A) (A) (A) (A) (A) (A) (A) (A) (A) (A) (A)
                 (A) (A) (A) (A) (A) (A) (A) (A) (A) (A) (A) (A)
                 (A) (A) (A) (A) (A) (A) (A) (A) (A) (A) (A) (A)
                 (A) (A) (A) (A) (A) (A) (A) (A) (A) (A) (A) (A)
                 (A) (A) (A) (A) (A) (A) (A) (A)
     4 initial guesses have been made.
 Convergence on wavefunction:    0.001000000000000
 Iteration     1 Dimension     4 NMult     0 NNew      4
 CISAX will form     4 AO SS matrices at one time.
 Iteration     2 Dimension     6 NMult     4 NNew      2
 Iteration     3 Dimension     8 NMult     6 NNew      2
 Iteration     4 Dimension    10 NMult     8 NNew      2
 Iteration     5 Dimension    12 NMult    10 NNew      2
 Iteration     6 Dimension    14 NMult    12 NNew      2
 ***********************************************************************
 Excited states from <AA,BB:AA,BB> singles matrix:
 ***********************************************************************
 
 Ground to excited state transition densities written to RWF  633
 Ground to excited state transition electric dipole moments (Au):
       state          X           Y           Z        Dip. S.      Osc.
         1        -0.0096     -0.6523      0.0053      0.4256      0.0296
 Ground to excited state transition velocity dipole moments (Au):
       state          X           Y           Z        Dip. S.      Osc.
         1         0.0010      0.0756     -0.0007      0.0057      0.0365
 Ground to excited state transition magnetic dipole moments (Au):
       state          X           Y           Z
         1        -0.0068      0.0007      0.0007
 Ground to excited state transition velocity quadrupole moments (Au):
       state          XX          YY          ZZ          XY          XZ          YZ
         1         0.2822      0.0379     -0.0100      0.0015     -0.0000      0.0010
 <0|del|b> * <b|rxdel|0> + <0|del|b> * <b|delr+rdel|0>
 Rotatory Strengths (R) in cgs (10**-40 erg-esu-cm/Gauss)
       state          XX          YY          ZZ    R(velocity)    E-M Angle
         1         0.1935     -0.0185      0.1532      0.1094       90.00
 1/2[<0|r|b>*<b|rxdel|0> + (<0|rxdel|b>*<b|r|0>)*]
 Rotatory Strengths (R) in cgs (10**-40 erg-esu-cm/Gauss)
       state          XX          YY          ZZ     R(length)
         1        -0.0464      0.3415     -0.0025      0.0975
  1/2[<0|del|b>*<b|r|0> + (<0|r|b>*<b|del|0>)*] (Au)
       state          X           Y           Z        Dip. S.   Osc.(frdel)
         1        -0.0000     -0.0493     -0.0000      0.0493      0.0329

 Excitation energies and oscillator strengths:
 
 Excited State   1:      Singlet-A      2.8396 eV  436.63 nm  f=0.0296  <S**2>=0.000
      47 -> 48         0.70423
 This state for optimization and/or second-order correction.
 Total Energy, E(TD-HF/TD-DFT) =  -539.654541990    
 Copying the excited state density for this state as the 1-particle RhoCI density.
 SavETr:  write IOETrn=   770 NScale= 10 NData=  16 NLR=1 NState=    1 LETran=      28.

 **********************************************************************

            Population analysis using the SCF Density.

 **********************************************************************

 Orbital symmetries:
       Occupied  (A) (A) (A) (A) (A) (A) (A) (A) (A) (A) (A) (A)
                 (A) (A) (A) (A) (A) (A) (A) (A) (A) (A) (A) (A)
                 (A) (A) (A) (A) (A) (A) (A) (A) (A) (A) (A) (A)
                 (A) (A) (A) (A) (A) (A) (A) (A) (A) (A) (A)
       Virtual   (A) (A) (A) (A) (A) (A) (A) (A) (A) (A) (A) (A)
                 (A) (A) (A) (A) (A) (A) (A) (A) (A) (A) (A) (A)
                 (A) (A) (A) (A) (A) (A) (A) (A) (A) (A) (A) (A)
                 (A) (A) (A) (A) (A) (A) (A) (A) (A) (A) (A) (A)
                 (A) (A) (A) (A) (A) (A) (A) (A) (A) (A) (A) (A)
                 (A) (A) (A) (A) (A) (A) (A) (A) (A) (A) (A) (A)
                 (A) (A) (A) (A) (A) (A) (A) (A) (A) (A) (A) (A)
                 (A) (A) (A) (A) (A) (A) (A) (A) (A) (A) (A) (A)
                 (A) (A) (A) (A) (A) (A) (A) (A) (A) (A) (A) (A)
                 (A) (A) (A) (A) (A) (A) (A) (A) (A) (A) (A) (A)
                 (A) (A) (A) (A) (A) (A) (A) (A) (A) (A) (A) (A)
                 (A) (A) (A) (A) (A) (A) (A) (A) (A) (A) (A) (A)
                 (A) (A) (A) (A) (A) (A) (A) (A) (A) (A) (A) (A)
                 (A) (A) (A) (A) (A) (A) (A) (A) (A) (A) (A) (A)
                 (A) (A) (A) (A) (A) (A) (A) (A) (A) (A) (A) (A)
                 (A) (A) (A) (A) (A) (A) (A) (A) (A) (A) (A) (A)
                 (A) (A) (A) (A) (A) (A) (A) (A) (A) (A) (A) (A)
                 (A) (A) (A) (A) (A) (A) (A) (A) (A) (A) (A) (A)
                 (A) (A) (A) (A) (A) (A) (A) (A) (A) (A) (A) (A)
                 (A) (A) (A) (A) (A) (A) (A) (A) (A) (A) (A) (A)
                 (A) (A) (A) (A) (A) (A) (A) (A) (A) (A) (A) (A)
                 (A) (A) (A) (A) (A) (A) (A) (A) (A) (A) (A) (A)
                 (A) (A) (A) (A) (A) (A) (A) (A) (A) (A) (A) (A)
                 (A) (A) (A) (A) (A) (A) (A) (A) (A) (A) (A) (A)
                 (A) (A) (A) (A) (A) (A) (A) (A) (A) (A) (A) (A)
                 (A) (A) (A) (A) (A) (A) (A) (A) (A) (A) (A) (A)
                 (A) (A) (A) (A) (A) (A) (A) (A) (A) (A) (A) (A)
                 (A) (A) (A) (A) (A) (A) (A) (A)
 The electronic state is 1-A.
 Alpha  occ. eigenvalues --  -10.77678 -10.73253 -10.73156 -10.72337 -10.72332
 Alpha  occ. eigenvalues --  -10.71266 -10.71214 -10.70973 -10.70937 -10.70920
 Alpha  occ. eigenvalues --  -10.69856 -10.69818 -10.69700 -10.69653  -1.16530
 Alpha  occ. eigenvalues --   -1.12728  -1.07089  -1.05645  -1.01582  -1.00134
 Alpha  occ. eigenvalues --   -0.95882  -0.91029  -0.86437  -0.85948  -0.83826
 Alpha  occ. eigenvalues --   -0.78427  -0.76040  -0.74470  -0.69564  -0.69224
 Alpha  occ. eigenvalues --   -0.68506  -0.68095  -0.67930  -0.64937  -0.64454
 Alpha  occ. eigenvalues --   -0.62891  -0.61690  -0.60076  -0.59867  -0.59018
 Alpha  occ. eigenvalues --   -0.56872  -0.55152  -0.54729  -0.52541  -0.46823
 Alpha  occ. eigenvalues --   -0.46030  -0.44608
 Alpha virt. eigenvalues --   -0.26118  -0.14549  -0.14068  -0.12626  -0.11182
 Alpha virt. eigenvalues --   -0.10095  -0.09249  -0.08041  -0.07944  -0.07484
 Alpha virt. eigenvalues --   -0.07214  -0.07119  -0.05639  -0.05581  -0.05310
 Alpha virt. eigenvalues --   -0.03863  -0.03710  -0.03278  -0.03129  -0.02165
 Alpha virt. eigenvalues --   -0.01384  -0.00965   0.00195   0.00534   0.00678
 Alpha virt. eigenvalues --    0.01066   0.01512   0.01959   0.02226   0.02281
 Alpha virt. eigenvalues --    0.02459   0.02673   0.02874   0.03186   0.03332
 Alpha virt. eigenvalues --    0.04230   0.04510   0.04706   0.05103   0.05383
 Alpha virt. eigenvalues --    0.05966   0.06310   0.06616   0.07037   0.07267
 Alpha virt. eigenvalues --    0.07911   0.08271   0.08342   0.08596   0.08923
 Alpha virt. eigenvalues --    0.09531   0.09561   0.10032   0.10845   0.11069
 Alpha virt. eigenvalues --    0.11148   0.12174   0.12223   0.12919   0.12963
 Alpha virt. eigenvalues --    0.13427   0.13469   0.14015   0.14505   0.15969
 Alpha virt. eigenvalues --    0.16236   0.16591   0.17312   0.17501   0.17730
 Alpha virt. eigenvalues --    0.18128   0.19165   0.19312   0.19688   0.19759
 Alpha virt. eigenvalues --    0.21601   0.21664   0.22670   0.23060   0.23560
 Alpha virt. eigenvalues --    0.23791   0.24597   0.25021   0.26870   0.27715
 Alpha virt. eigenvalues --    0.28840   0.29269   0.29829   0.31404   0.35801
 Alpha virt. eigenvalues --    0.36607   0.38144   0.39381   0.41112   0.41336
 Alpha virt. eigenvalues --    0.41975   0.42084   0.42954   0.43841   0.44219
 Alpha virt. eigenvalues --    0.44890   0.45223   0.45841   0.46192   0.47891
 Alpha virt. eigenvalues --    0.48475   0.48859   0.48999   0.50379   0.51295
 Alpha virt. eigenvalues --    0.51643   0.51742   0.52171   0.53202   0.53914
 Alpha virt. eigenvalues --    0.54017   0.54783   0.55743   0.55791   0.57328
 Alpha virt. eigenvalues --    0.58264   0.58816   0.61468   0.62209   0.62293
 Alpha virt. eigenvalues --    0.63162   0.63569   0.64573   0.65199   0.66820
 Alpha virt. eigenvalues --    0.70438   0.70571   0.71027   0.72442   0.72802
 Alpha virt. eigenvalues --    0.75736   0.75786   0.76304   0.76605   0.76937
 Alpha virt. eigenvalues --    0.77665   0.77818   0.78265   0.80328   0.80474
 Alpha virt. eigenvalues --    0.81343   0.81606   0.82179   0.83061   0.84963
 Alpha virt. eigenvalues --    0.87034   0.87704   0.88009   0.89714   0.90446
 Alpha virt. eigenvalues --    0.90962   0.91517   0.93522   0.94823   0.96279
 Alpha virt. eigenvalues --    0.96735   1.00233   1.01326   1.01847   1.02949
 Alpha virt. eigenvalues --    1.03232   1.04119   1.04622   1.05586   1.09062
 Alpha virt. eigenvalues --    1.19285   1.23221   1.24078   1.25423   1.28134
 Alpha virt. eigenvalues --    1.30076   1.31354   1.34508   1.35886   1.36239
 Alpha virt. eigenvalues --    1.39464   1.40091   1.40989   1.43410   1.43583
 Alpha virt. eigenvalues --    1.43729   1.45232   1.45504   1.46442   1.46644
 Alpha virt. eigenvalues --    1.47828   1.48462   1.51766   1.53748   1.55810
 Alpha virt. eigenvalues --    1.56171   1.56433   1.56809   1.57972   1.61687
 Alpha virt. eigenvalues --    1.63010   1.63218   1.63386   1.66234   1.68140
 Alpha virt. eigenvalues --    1.68586   1.68739   1.69720   1.74728   1.76005
 Alpha virt. eigenvalues --    1.77220   1.78089   1.79909   1.80578   1.81221
 Alpha virt. eigenvalues --    1.83053   1.83366   1.83393   1.84037   1.84167
 Alpha virt. eigenvalues --    1.84488   1.86104   1.86255   1.88375   1.91266
 Alpha virt. eigenvalues --    1.92182   1.94080   1.95174   1.98020   1.98642
 Alpha virt. eigenvalues --    2.00225   2.02294   2.04717   2.06813   2.11962
 Alpha virt. eigenvalues --    2.12161   2.13967   2.15312   2.19834   2.21159
 Alpha virt. eigenvalues --    2.23196   2.28933   2.30465   2.34359   2.35368
 Alpha virt. eigenvalues --    2.36273   2.38013   2.38638   2.41936   2.42645
 Alpha virt. eigenvalues --    2.46878   2.48759   2.49636   2.53134   2.53770
 Alpha virt. eigenvalues --    2.54093   2.56580   2.58008   2.58534   2.59796
 Alpha virt. eigenvalues --    2.60028   2.61486   2.62222   2.63506   2.64052
 Alpha virt. eigenvalues --    2.64745   2.64990   2.65385   2.65402   2.67934
 Alpha virt. eigenvalues --    2.68243   2.71157   2.71351   2.73502   2.74853
 Alpha virt. eigenvalues --    2.76467   2.79142   2.79965   2.83219   2.83498
 Alpha virt. eigenvalues --    2.85467   2.86467   2.92212   2.96639   2.99854
 Alpha virt. eigenvalues --    3.00471   3.04406   3.11844   3.12130   3.13974
 Alpha virt. eigenvalues --    3.20716   3.23461   3.27398   3.28573   3.31232
 Alpha virt. eigenvalues --    3.33583   3.33742   3.43519   3.46119   3.47864
 Alpha virt. eigenvalues --    3.49339   3.50936   3.56664   3.64893   3.67438
 Alpha virt. eigenvalues --    3.67757   3.92772   3.93696   3.94687   3.96169
 Alpha virt. eigenvalues --    4.03272   4.06929   4.07704   4.12518   4.35236
 Alpha virt. eigenvalues --    4.60904   4.70438   4.72338  23.45095  23.59602
 Alpha virt. eigenvalues --   23.82680  23.85052  23.88161  23.89937  23.90687
 Alpha virt. eigenvalues --   23.92491  23.98524  24.00818  24.01676  24.02058
 Alpha virt. eigenvalues --   24.11693  24.11927
          Condensed to atoms (all electrons):
               1          2          3          4          5          6
     1  C    8.467085   0.507320  -0.599373   1.702281   0.000114  -0.094624
     2  C    0.507320   7.017333   0.378169  -0.885718  -0.051332  -0.017311
     3  C   -0.599373   0.378169   6.631114   0.702973  -0.112795   0.018054
     4  C    1.702281  -0.885718   0.702973  10.426494  -0.206882  -0.116979
     5  C    0.000114  -0.051332  -0.112795  -0.206882  10.316305   0.716994
     6  C   -0.094624  -0.017311   0.018054  -0.116979   0.716994   6.640606
     7  C   -0.025626   0.008450  -0.017180  -0.049686  -0.882946   0.380961
     8  C    0.412613  -0.028436  -0.094791   0.012029   1.663009  -0.586664
     9  C   -1.406887  -0.633924   0.271048  -0.398609  -0.447356   0.269927
    10  C   -1.148180   0.166269  -0.357642  -2.410054  -2.389213  -0.378771
    11  C    0.248909  -0.987928   1.009777  -0.216913  -1.543388  -0.198668
    12  C   -1.705934   1.041601  -1.306593  -1.110656  -0.234070  -0.190965
    13  C    0.189480  -0.158981  -0.197225  -1.569459  -0.240925   1.027153
    14  C   -1.045992  -0.224700  -0.192705  -0.270119  -0.982517  -1.339256
    15  H    0.361807  -0.099715  -0.002953   0.023201   0.005847   0.001235
    16  H   -0.019647   0.378819  -0.014748   0.014118  -0.001662  -0.000360
    17  H   -0.019536  -0.020576   0.371640  -0.061597   0.000353   0.000408
    18  H    0.047335   0.004754  -0.087972   0.446974   0.009234  -0.004943
    19  H   -0.045608  -0.007843   0.050115  -0.064389  -0.060290   0.050644
    20  H    0.007804   0.001741  -0.004845   0.009398   0.444898  -0.086910
    21  H   -0.001326  -0.000394   0.000403   0.000364  -0.060668   0.371692
    22  H    0.000736   0.000376  -0.000355  -0.001680   0.013603  -0.013984
    23  H    0.005923  -0.002656   0.001203   0.006045   0.022720  -0.002628
    24  H    0.047334   0.013794  -0.000760  -0.012529  -0.010950  -0.001298
    25  H    0.020858   0.014884  -0.002746  -0.010949  -0.011776  -0.002074
               7          8          9         10         11         12
     1  C   -0.025626   0.412613  -1.406887  -1.148180   0.248909  -1.705934
     2  C    0.008450  -0.028436  -0.633924   0.166269  -0.987928   1.041601
     3  C   -0.017180  -0.094791   0.271048  -0.357642   1.009777  -1.306593
     4  C   -0.049686   0.012029  -0.398609  -2.410054  -0.216913  -1.110656
     5  C   -0.882946   1.663009  -0.447356  -2.389213  -1.543388  -0.234070
     6  C    0.380961  -0.586664   0.269927  -0.378771  -0.198668  -0.190965
     7  C    7.031870   0.516822  -0.628584   0.168563  -0.168567  -0.230034
     8  C    0.516822   8.469846  -1.447745  -1.144184   0.177021  -1.067087
     9  C   -0.628584  -1.447745   9.173048   0.444691   1.541484  -1.444508
    10  C    0.168563  -1.144184   0.444691   9.167136  -0.506557   2.198259
    11  C   -0.168567   0.177021   1.541484  -0.506557  14.162323  -3.723737
    12  C   -0.230034  -1.067087  -1.444508   2.198259  -3.723737  15.193447
    13  C   -0.994586   0.269741   1.565721  -0.532539   1.291220  -4.533808
    14  C    1.023967  -1.646531  -1.416395   2.150418  -4.555553   2.708969
    15  H   -0.002700   0.005892   0.084328  -0.008778  -0.020805  -0.020021
    16  H    0.000381   0.000840   0.004647  -0.010849   0.032096  -0.039664
    17  H   -0.000391  -0.001336  -0.003989   0.018798  -0.023600   0.081263
    18  H    0.001713   0.007963  -0.028046   0.020329  -0.010187  -0.048772
    19  H   -0.007861  -0.045586   0.074878   0.422257   0.064059  -0.061745
    20  H    0.004354   0.046550  -0.028332   0.021111  -0.009448  -0.011229
    21  H   -0.020059  -0.019359  -0.004046   0.018706  -0.006257   0.004606
    22  H    0.379551  -0.021430   0.004117  -0.010739   0.003240  -0.009456
    23  H   -0.099453   0.360488   0.082932  -0.008615  -0.000831   0.006990
    24  H    0.012420   0.043782   0.344746   0.004855   0.018711  -0.073714
    25  H    0.016428   0.025733   0.363473   0.004426   0.005161  -0.043230
              13         14         15         16         17         18
     1  C    0.189480  -1.045992   0.361807  -0.019647  -0.019536   0.047335
     2  C   -0.158981  -0.224700  -0.099715   0.378819  -0.020576   0.004754
     3  C   -0.197225  -0.192705  -0.002953  -0.014748   0.371640  -0.087972
     4  C   -1.569459  -0.270119   0.023201   0.014118  -0.061597   0.446974
     5  C   -0.240925  -0.982517   0.005847  -0.001662   0.000353   0.009234
     6  C    1.027153  -1.339256   0.001235  -0.000360   0.000408  -0.004943
     7  C   -0.994586   1.023967  -0.002700   0.000381  -0.000391   0.001713
     8  C    0.269741  -1.646531   0.005892   0.000840  -0.001336   0.007963
     9  C    1.565721  -1.416395   0.084328   0.004647  -0.003989  -0.028046
    10  C   -0.532539   2.150418  -0.008778  -0.010849   0.018798   0.020329
    11  C    1.291220  -4.555553  -0.020805   0.032096  -0.023600  -0.010187
    12  C   -4.533808   2.708969  -0.020021  -0.039664   0.081263  -0.048772
    13  C   14.153982  -3.729630  -0.000770   0.003184  -0.005984  -0.010104
    14  C   -3.729630  15.108969   0.007047  -0.009484   0.004599  -0.011419
    15  H   -0.000770   0.007047   0.438761  -0.009023   0.001376   0.000215
    16  H    0.003184  -0.009484  -0.009023   0.419331  -0.006575   0.001945
    17  H   -0.005984   0.004599   0.001376  -0.006575   0.421069  -0.009992
    18  H   -0.010104  -0.011419   0.000215   0.001945  -0.009992   0.454623
    19  H    0.068179  -0.060798   0.000349  -0.000527   0.001335  -0.005767
    20  H   -0.010503  -0.047670  -0.000119   0.000015  -0.000143   0.001287
    21  H   -0.024680   0.081305   0.000015  -0.000007   0.000010  -0.000143
    22  H    0.031657  -0.037620  -0.000127   0.000007  -0.000007   0.000014
    23  H   -0.020639  -0.018106   0.000624  -0.000124   0.000014  -0.000117
    24  H    0.021873  -0.075474  -0.000406   0.000468  -0.000084   0.000181
    25  H    0.002765  -0.042172  -0.001424   0.000810  -0.000196   0.000198
              19         20         21         22         23         24
     1  C   -0.045608   0.007804  -0.001326   0.000736   0.005923   0.047334
     2  C   -0.007843   0.001741  -0.000394   0.000376  -0.002656   0.013794
     3  C    0.050115  -0.004845   0.000403  -0.000355   0.001203  -0.000760
     4  C   -0.064389   0.009398   0.000364  -0.001680   0.006045  -0.012529
     5  C   -0.060290   0.444898  -0.060668   0.013603   0.022720  -0.010950
     6  C    0.050644  -0.086910   0.371692  -0.013984  -0.002628  -0.001298
     7  C   -0.007861   0.004354  -0.020059   0.379551  -0.099453   0.012420
     8  C   -0.045586   0.046550  -0.019359  -0.021430   0.360488   0.043782
     9  C    0.074878  -0.028332  -0.004046   0.004117   0.082932   0.344746
    10  C    0.422257   0.021111   0.018706  -0.010739  -0.008615   0.004855
    11  C    0.064059  -0.009448  -0.006257   0.003240  -0.000831   0.018711
    12  C   -0.061745  -0.011229   0.004606  -0.009456   0.006990  -0.073714
    13  C    0.068179  -0.010503  -0.024680   0.031657  -0.020639   0.021873
    14  C   -0.060798  -0.047670   0.081305  -0.037620  -0.018106  -0.075474
    15  H    0.000349  -0.000119   0.000015  -0.000127   0.000624  -0.000406
    16  H   -0.000527   0.000015  -0.000007   0.000007  -0.000124   0.000468
    17  H    0.001335  -0.000143   0.000010  -0.000007   0.000014  -0.000084
    18  H   -0.005767   0.001287  -0.000143   0.000014  -0.000117   0.000181
    19  H    0.441191  -0.005576   0.001320  -0.000520   0.000334   0.000557
    20  H   -0.005576   0.454605  -0.010034   0.001898   0.000212   0.000220
    21  H    0.001320  -0.010034   0.421301  -0.006615   0.001405  -0.000103
    22  H   -0.000520   0.001898  -0.006615   0.419442  -0.008971   0.000529
    23  H    0.000334   0.000212   0.001405  -0.008971   0.438436  -0.000474
    24  H    0.000557   0.000220  -0.000103   0.000529  -0.000474   0.495241
    25  H    0.000499   0.000167  -0.000184   0.000762  -0.001283  -0.079688
              25
     1  C    0.020858
     2  C    0.014884
     3  C   -0.002746
     4  C   -0.010949
     5  C   -0.011776
     6  C   -0.002074
     7  C    0.016428
     8  C    0.025733
     9  C    0.363473
    10  C    0.004426
    11  C    0.005161
    12  C   -0.043230
    13  C    0.002765
    14  C   -0.042172
    15  H   -0.001424
    16  H    0.000810
    17  H   -0.000196
    18  H    0.000198
    19  H    0.000499
    20  H    0.000167
    21  H   -0.000184
    22  H    0.000762
    23  H   -0.001283
    24  H   -0.079688
    25  H    0.494647
 Mulliken charges:
               1
     1  C    0.093133
     2  C   -0.413994
     3  C   -0.441811
     4  C    0.042346
     5  C    0.043693
     6  C   -0.442238
     7  C   -0.417808
     8  C    0.090821
     9  C   -0.336621
    10  C    0.100302
    11  C   -0.581562
    12  C    0.620089
    13  C   -0.595122
    14  C    0.620867
    15  H    0.236145
    16  H    0.256009
    17  H    0.253141
    18  H    0.220698
    19  H    0.190793
    20  H    0.220550
    21  H    0.252748
    22  H    0.255571
    23  H    0.236572
    24  H    0.250768
    25  H    0.244911
 Sum of Mulliken charges =   1.00000
 Mulliken charges with hydrogens summed into heavy atoms:
               1
     1  C    0.329278
     2  C   -0.157984
     3  C   -0.188670
     4  C    0.263044
     5  C    0.264243
     6  C   -0.189491
     7  C   -0.162237
     8  C    0.327393
     9  C    0.159059
    10  C    0.291095
    11  C   -0.581562
    12  C    0.620089
    13  C   -0.595122
    14  C    0.620867
 Electronic spatial extent (au):  <R**2>=           2846.2774
 Charge=              1.0000 electrons
 Dipole moment (field-independent basis, Debye):
    X=              0.0089    Y=              0.1816    Z=             -0.0011  Tot=              0.1819
 Quadrupole moment (field-independent basis, Debye-Ang):
   XX=            -31.3329   YY=            -56.2625   ZZ=            -84.0613
   XY=              0.0049   XZ=             -0.0085   YZ=              0.1188
 Traceless Quadrupole moment (field-independent basis, Debye-Ang):
   XX=             25.8860   YY=              0.9564   ZZ=            -26.8424
   XY=              0.0049   XZ=             -0.0085   YZ=              0.1188
 Octapole moment (field-independent basis, Debye-Ang**2):
  XXX=              0.3796  YYY=              5.1956  ZZZ=             -0.0412  XYY=             -0.0020
  XXY=             -5.9950  XXZ=              0.1961  XZZ=             -0.0486  YZZ=             -3.0965
  YYZ=              0.1464  XYZ=             -0.0425
 Hexadecapole moment (field-independent basis, Debye-Ang**3):
 XXXX=          -2118.4903 YYYY=           -609.3286 ZZZZ=            -99.1446 XXXY=              0.2177
 XXXZ=             -0.2368 YYYX=             -0.0928 YYYZ=              1.2933 ZZZX=             -0.0099
 ZZZY=              0.0549 XXYY=           -506.0715 XXZZ=           -588.0360 YYZZ=           -145.6019
 XXYZ=              1.2811 YYXZ=             -0.0012 ZZXY=              0.0042
 N-N= 7.823277329502D+02 E-N=-2.801059844491D+03  KE= 5.375796867731D+02
 Unable to Open any file for archive entry.
 1\1\GINC-GADI-CPU-CLX-0113\SP\RM062X TD-FC\6-311++G(d,p)\C14H11(1+)\TS
 1578\28-Jul-2022\0\\#n M062X/6-311++G(d,p) TD(NStates=1) EmpiricalDisp
 ersion=GD3 SP\\SP_-25\\1,1\C,0,-0.02045,2.494455,1.360431\C,0,-0.02222
 5,3.693308,0.671989\C,0,-0.0068,3.670111,-0.71383\C,0,0.019325,2.45213
 1,-1.407538\C,0,0.019675,-2.451431,-1.407538\C,0,-0.0047,-3.666611,-0.
 71383\C,0,-0.0189,-3.692083,0.671989\C,0,-0.0138,-2.492355,1.360431\C,
 0,-0.01085,-0.0077,1.453369\C,0,0.0305,0.00035,-1.429189\C,0,0.0043,1.
 27153,0.677065\C,0,0.0132,1.235446,-0.730804\C,0,0.004825,-1.271705,0.
 677065\C,0,0.0118,-1.236496,-0.730804\H,0,-0.0091,2.489771,2.443647\H,
 0,-0.022825,4.630878,1.211689\H,0,0.0031,4.612012,-1.272349\H,0,0.0096
 5,2.45675,-2.490059\H,0,0.028125,0.000175,-2.510266\H,0,0.0086,-2.4562
 25,-2.490059\H,0,0.00415,-4.607637,-1.272349\H,0,-0.0188,-4.628253,1.2
 11689\H,0,-0.0014,-2.487496,2.443647\H,0,-0.899585,-0.00175,2.147712\H
 ,0,0.819585,-0.00175,2.143862\\Version=ES64L-G16RevC.01\State=1-A\HF=-
 539.7588942\RMSD=4.926e-09\PG=C01 [X(C14H11)]\\@
 The archive entry for this job was punched.


 LOVE IS BLIND, THAT'S WHY ALL THE WORLD LOVES A LOUVER.
 Job cpu time:       0 days  1 hours 19 minutes 47.1 seconds.
 Elapsed time:       0 days  0 hours  1 minutes 39.9 seconds.
 File lengths (MBytes):  RWF=    460 Int=      0 D2E=      0 Chk=     15 Scr=      1
 Normal termination of Gaussian 16 at Thu Jul 28 14:37:18 2022.
