 Entering Gaussian System, Link 0=g16
 Initial command:
 /apps/gaussian/g16c01/g16/l1.exe "/jobfs/53002009.gadi-pbs/Gau-738318.inp" -scrdir="/jobfs/53002009.gadi-pbs/"
 Entering Link 1 = /apps/gaussian/g16c01/g16/l1.exe PID=    738319.
  
 Copyright (c) 1988-2019, Gaussian, Inc.  All Rights Reserved.
  
 This is part of the Gaussian(R) 16 program.  It is based on
 the Gaussian(R) 09 system (copyright 2009, Gaussian, Inc.),
 the Gaussian(R) 03 system (copyright 2003, Gaussian, Inc.),
 the Gaussian(R) 98 system (copyright 1998, Gaussian, Inc.),
 the Gaussian(R) 94 system (copyright 1995, Gaussian, Inc.),
 the Gaussian 92(TM) system (copyright 1992, Gaussian, Inc.),
 the Gaussian 90(TM) system (copyright 1990, Gaussian, Inc.),
 the Gaussian 88(TM) system (copyright 1988, Gaussian, Inc.),
 the Gaussian 86(TM) system (copyright 1986, Carnegie Mellon
 University), and the Gaussian 82(TM) system (copyright 1983,
 Carnegie Mellon University). Gaussian is a federally registered
 trademark of Gaussian, Inc.
  
 This software contains proprietary and confidential information,
 including trade secrets, belonging to Gaussian, Inc.
  
 This software is provided under written license and may be
 used, copied, transmitted, or stored only in accord with that
 written license.
  
 The following legend is applicable only to US Government
 contracts under FAR:
  
                    RESTRICTED RIGHTS LEGEND
  
 Use, reproduction and disclosure by the US Government is
 subject to restrictions as set forth in subparagraphs (a)
 and (c) of the Commercial Computer Software - Restricted
 Rights clause in FAR 52.227-19.
  
 Gaussian, Inc.
 340 Quinnipiac St., Bldg. 40, Wallingford CT 06492
  
  
 ---------------------------------------------------------------
 Warning -- This program may not be used in any manner that
 competes with the business of Gaussian, Inc. or will provide
 assistance to any competitor of Gaussian, Inc.  The licensee
 of this program is prohibited from giving any competitor of
 Gaussian, Inc. access to this program.  By using this program,
 the user acknowledges that Gaussian, Inc. is engaged in the
 business of creating and licensing software in the field of
 computational chemistry and represents and warrants to the
 licensee that it is not a competitor of Gaussian, Inc. and that
 it will not use this program in any manner prohibited above.
 ---------------------------------------------------------------
  

 Cite this work as:
 Gaussian 16, Revision C.01,
 M. J. Frisch, G. W. Trucks, H. B. Schlegel, G. E. Scuseria, 
 M. A. Robb, J. R. Cheeseman, G. Scalmani, V. Barone, 
 G. A. Petersson, H. Nakatsuji, X. Li, M. Caricato, A. V. Marenich, 
 J. Bloino, B. G. Janesko, R. Gomperts, B. Mennucci, H. P. Hratchian, 
 J. V. Ortiz, A. F. Izmaylov, J. L. Sonnenberg, D. Williams-Young, 
 F. Ding, F. Lipparini, F. Egidi, J. Goings, B. Peng, A. Petrone, 
 T. Henderson, D. Ranasinghe, V. G. Zakrzewski, J. Gao, N. Rega, 
 G. Zheng, W. Liang, M. Hada, M. Ehara, K. Toyota, R. Fukuda, 
 J. Hasegawa, M. Ishida, T. Nakajima, Y. Honda, O. Kitao, H. Nakai, 
 T. Vreven, K. Throssell, J. A. Montgomery, Jr., J. E. Peralta, 
 F. Ogliaro, M. J. Bearpark, J. J. Heyd, E. N. Brothers, K. N. Kudin, 
 V. N. Staroverov, T. A. Keith, R. Kobayashi, J. Normand, 
 K. Raghavachari, A. P. Rendell, J. C. Burant, S. S. Iyengar, 
 J. Tomasi, M. Cossi, J. M. Millam, M. Klene, C. Adamo, R. Cammi, 
 J. W. Ochterski, R. L. Martin, K. Morokuma, O. Farkas, 
 J. B. Foresman, and D. J. Fox, Gaussian, Inc., Wallingford CT, 2019.
 
 ******************************************
 Gaussian 16:  ES64L-G16RevC.01  3-Jul-2019
                28-Jul-2022 
 ******************************************
 %NProcShared=48
 Will use up to   48 processors via shared memory.
 %mem = 190GB
 ---------------------------------------------------------------
 #n M062X/6-311++G(d,p) TD(NStates=1) EmpiricalDispersion=GD3 SP
 ---------------------------------------------------------------
 1/38=1,172=1/1;
 2/12=2,17=6,18=5,40=1/2;
 3/5=4,6=6,7=1111,11=9,25=1,30=1,74=-55,124=31/1,2,3,8;
 4//1;
 5/5=2,38=5/2;
 8/6=1,10=2,108=1/1;
 9/41=1,42=1,70=2/14;
 6/7=2,8=2,9=2,10=2/1;
 99/5=1,9=1/99;
 ------
 SP_-75
 ------
 Symbolic Z-matrix:
 Charge =  1 Multiplicity = 1
 C                     0.01665   2.49206   1.36043 
 C                     0.02033   3.71041   0.67199 
 C                     0.0056    3.69961  -0.71383 
 C                    -0.01952   2.47458  -1.40754 
 C                    -0.01947  -2.47448  -1.40754 
 C                     0.0059   -3.69911  -0.71383 
 C                     0.0208   -3.71023   0.67199 
 C                     0.0176   -2.49176   1.36043 
 C                     0.01095  -0.0011    1.45337 
 C                    -0.0305    0.00005  -1.42919 
 C                    -0.0046    1.25248   0.67707 
 C                    -0.0124    1.2389   -0.7308 
 C                    -0.00453  -1.2525    0.67707 
 C                    -0.0126   -1.23905  -0.7308 
 H                     0.0047    2.48767   2.44365 
 H                     0.02053   4.64413   1.21169 
 H                    -0.0037    4.60901  -1.27235 
 H                    -0.00905   2.47865  -2.49006 
 H                    -0.02813   0.00003  -2.51027 
 H                    -0.0092   -2.47858  -2.49006 
 H                    -0.00355  -4.60839  -1.27235 
 H                     0.0211   -4.64375   1.21169 
 H                     0.0058   -2.48735   2.44365 
 H                    -0.81959  -0.00025   2.14606 
 H                     0.89959  -0.00025   2.14551 
 
                          Input orientation:                          
 ---------------------------------------------------------------------
 Center     Atomic      Atomic             Coordinates (Angstroms)
 Number     Number       Type             X           Y           Z
 ---------------------------------------------------------------------
      1          6           0        0.016650    2.492055    1.360431
      2          6           0        0.020325    3.710408    0.671989
      3          6           0        0.005600    3.699611   -0.713830
      4          6           0       -0.019525    2.474581   -1.407538
      5          6           0       -0.019475   -2.474481   -1.407538
      6          6           0        0.005900   -3.699111   -0.713830
      7          6           0        0.020800   -3.710233    0.671989
      8          6           0        0.017600   -2.491755    1.360431
      9          6           0        0.010950   -0.001100    1.453369
     10          6           0       -0.030500    0.000050   -1.429189
     11          6           0       -0.004600    1.252480    0.677065
     12          6           0       -0.012400    1.238896   -0.730804
     13          6           0       -0.004525   -1.252505    0.677065
     14          6           0       -0.012600   -1.239046   -0.730804
     15          1           0        0.004700    2.487671    2.443647
     16          1           0        0.020525    4.644128    1.211689
     17          1           0       -0.003700    4.609012   -1.272349
     18          1           0       -0.009050    2.478650   -2.490059
     19          1           0       -0.028125    0.000025   -2.510266
     20          1           0       -0.009200   -2.478575   -2.490059
     21          1           0       -0.003550   -4.608387   -1.272349
     22          1           0        0.021100   -4.643753    1.211689
     23          1           0        0.005800   -2.487346    2.443647
     24          1           0       -0.819585   -0.000250    2.146062
     25          1           0        0.899585   -0.000250    2.145512
 ---------------------------------------------------------------------
                    Distance matrix (angstroms):
                    1          2          3          4          5
     1  C    0.000000
     2  C    1.399411   0.000000
     3  C    2.400182   1.385939   0.000000
     4  C    2.768261   2.419357   1.408034   0.000000
     5  C    5.685898   6.525249   6.212992   4.949062   0.000000
     6  C    6.529411   7.538015   7.398722   6.212596   1.407691
     7  C    6.240380   7.420641   7.538336   6.525181   2.419326
     8  C    4.983810   6.240255   6.529603   5.685730   2.768271
     9  C    2.494893   3.792879   4.288594   3.783479   3.781974
    10  C    3.740895   4.264304   3.768261   2.474650   2.474650
    11  C    1.415622   2.458060   2.814808   2.416469   4.270366
    12  C    2.438138   2.842054   2.460839   1.408878   3.774545
    13  C    3.806464   4.962978   5.143748   4.270476   2.416406
    14  C    4.277293   5.144512   4.938720   3.774790   1.408657
    15  H    1.083291   2.152696   3.382079   3.851283   6.281334
    16  H    2.157211   1.078475   2.144751   3.401307   7.585285
    17  H    3.378380   2.142082   1.067258   2.138767   7.084800
    18  H    3.850599   3.393617   2.155447   1.082579   5.070056
    19  H    4.603750   4.888357   4.112816   2.709153   2.709108
    20  H    6.287615   6.950031   6.428467   5.070080   1.082578
    21  H    7.572860   8.543031   8.326756   7.084276   2.138243
    22  H    7.137359   8.371576   8.562686   7.585030   3.401138
    23  H    5.095872   6.446017   6.946085   6.281161   3.851289
    24  H    2.743736   4.080113   4.748567   4.403744   4.403415
    25  H    2.758172   4.088197   4.760674   4.426479   4.426133
                    6          7          8          9         10
     6  C    0.000000
     7  C    1.385944   0.000000
     8  C    2.400084   1.399518   0.000000
     9  C    4.286264   3.790557   2.492397   0.000000
    10  C    3.767871   4.264244   3.740773   2.882856   0.000000
    11  C    5.143243   4.962781   3.806150   1.474569   2.450624
    12  C    4.938070   5.144201   4.276906   2.511722   1.422255
    13  C    2.814352   2.457864   1.415351   1.472719   2.450689
    14  C    2.460193   2.841779   2.437920   2.510712   1.422470
    15  H    6.945929   6.446165   5.095901   2.678558   4.603081
    16  H    8.562562   8.371775   7.137434   4.651521   5.342687
    17  H    8.326881   8.543470   7.573168   5.355641   4.611708
    18  H    6.428059   6.949943   6.287441   4.658346   2.696176
    19  H    4.112414   4.888267   4.603624   3.963828   1.081080
    20  H    2.155209   3.393586   3.850606   4.657136   2.696197
    21  H    1.067153   2.141897   3.378181   5.353209   4.611184
    22  H    2.144808   1.078302   2.157135   4.648950   5.342453
    23  H    3.382016   2.152777   1.083289   2.676209   4.602968
    24  H    4.747840   4.079597   2.743299   1.081486   3.661294
    25  H    4.759841   4.087482   2.757145   1.126381   3.693717
                   11         12         13         14         15
    11  C    0.000000
    12  C    1.407956   0.000000
    13  C    2.504985   2.861684   0.000000
    14  C    2.861793   2.477942   1.407956   0.000000
    15  H    2.155596   3.411286   4.136401   4.895494   0.000000
    16  H    3.433618   3.920455   5.920872   6.195653   2.483602
    17  H    3.881562   3.413360   6.177184   5.873085   4.278877
    18  H    3.396202   2.152203   4.894100   4.112937   4.933733
    19  H    3.424657   2.168302   3.424685   2.168415   5.543529
    20  H    4.894024   4.112734   3.396166   2.152074   7.000375
    21  H    6.176567   5.872314   3.881000   3.412596   8.010164
    22  H    5.920477   6.195156   3.433226   3.920006   7.237071
    23  H    4.136087   4.895135   2.155400   3.411119   4.975017
    24  H    2.095587   3.234716   2.095332   3.234532   2.637755
    25  H    2.131483   3.261962   2.131172   3.261885   2.660724
                   16         17         18         19         20
    16  H    0.000000
    17  H    2.484404   0.000000
    18  H    4.288719   2.453831   0.000000
    19  H    5.951723   4.772399   2.478781   0.000000
    20  H    8.027249   7.191435   4.957225   2.478755   0.000000
    21  H    9.580191   9.217399   7.190893   4.771845   2.453355
    22  H    9.287881   9.580434   8.026984   5.951474   4.288572
    23  H    7.237117   8.010432   7.000199   5.543412   4.933737
    24  H    4.811350   5.796249   5.319354   4.723113   5.319064
    25  H    4.818197   5.808872   5.334705   4.747306   5.334464
                   21         22         23         24         25
    21  H    0.000000
    22  H    2.484412   0.000000
    23  H    4.278730   2.483555   0.000000
    24  H    5.795375   4.810605   2.637321   0.000000
    25  H    5.807956   4.817248   2.659583   1.719170   0.000000
 Stoichiometry    C14H11(1+)
 Framework group  C1[X(C14H11)]
 Deg. of freedom    69
 Full point group                 C1      NOp   1
 Largest Abelian subgroup         C1      NOp   1
 Largest concise Abelian subgroup C1      NOp   1
                         Standard orientation:                         
 ---------------------------------------------------------------------
 Center     Atomic      Atomic             Coordinates (Angstroms)
 Number     Number       Type             X           Y           Z
 ---------------------------------------------------------------------
      1          6           0       -2.492025   -1.360581    0.001375
      2          6           0       -3.710392   -0.672248    0.012693
      3          6           0       -3.699626    0.713650    0.013209
      4          6           0       -2.474612    1.407619   -0.004358
      5          6           0        2.474450    1.407726   -0.004601
      6          6           0        3.699096    0.713808    0.013071
      7          6           0        3.710249   -0.672091    0.012729
      8          6           0        2.491785   -1.360483    0.002030
      9          6           0        0.001132   -1.453396   -0.005494
     10          6           0       -0.000082    1.429443   -0.015240
     11          6           0       -1.252466   -0.676996   -0.012432
     12          6           0       -1.238912    0.730874   -0.004749
     13          6           0        1.252519   -0.676942   -0.012505
     14          6           0        1.239030    0.730930   -0.005095
     15          1           0       -2.487619   -2.443600   -0.022488
     16          1           0       -4.644101   -1.211938    0.007013
     17          1           0       -4.609039    1.272217    0.010106
     18          1           0       -2.478703    2.489959    0.018022
     19          1           0       -0.000080    2.510429   -0.000976
     20          1           0        2.478522    2.490069    0.017579
     21          1           0        4.608360    1.272417    0.009710
     22          1           0        4.643780   -1.211741    0.007038
     23          1           0        2.487398   -2.443504   -0.021682
     24          1           0        0.000247   -2.136914   -0.843597
     25          1           0        0.000349   -2.155271    0.875475
 ---------------------------------------------------------------------
 Rotational constants (GHZ):           2.1357836           0.4425510           0.3673941
 Standard basis: 6-311++G(d,p) (5D, 7F)
 There are   399 symmetry adapted cartesian basis functions of A   symmetry.
 There are   385 symmetry adapted basis functions of A   symmetry.
   385 basis functions,   603 primitive gaussians,   399 cartesian basis functions
    47 alpha electrons       47 beta electrons
       nuclear repulsion energy       780.0216917532 Hartrees.
 NAtoms=   25 NActive=   25 NUniq=   25 SFac= 1.00D+00 NAtFMM=   60 NAOKFM=F Big=F
 Integral buffers will be    131072 words long.
 Regular integral format.
 Two-electron integral symmetry is turned on.
 Nuclear repulsion after empirical dispersion term =      780.0207118402 Hartrees.
 One-electron integrals computed using PRISM.
 NBasis=   385 RedAO= T EigKep=  1.24D-06  NBF=   385
 NBsUse=   379 1.00D-06 EigRej=  8.76D-07 NBFU=   379
 ExpMin= 3.60D-02 ExpMax= 4.56D+03 ExpMxC= 6.82D+02 IAcc=3 IRadAn=         5 AccDes= 0.00D+00
 Harris functional with IExCor= 1009 and IRadAn=       5 diagonalized for initial guess.
 HarFok:  IExCor= 1009 AccDes= 0.00D+00 IRadAn=         5 IDoV= 1 UseB2=F ITyADJ=14
 ICtDFT=  3500011 ScaDFX=  1.000000  1.000000  1.000000  1.000000
 FoFCou: FMM=F IPFlag=           0 FMFlag=      100000 FMFlg1=           0
         NFxFlg=           0 DoJE=T BraDBF=F KetDBF=T FulRan=T
         wScrn=  0.000000 ICntrl=       500 IOpCl=  0 I1Cent=   200000004 NGrid=           0
         NMat0=    1 NMatS0=      1 NMatT0=    0 NMatD0=    1 NMtDS0=    0 NMtDT0=    0
 Petite list used in FoFCou.
 Requested convergence on RMS density matrix=1.00D-08 within 128 cycles.
 Requested convergence on MAX density matrix=1.00D-06.
 Requested convergence on             energy=1.00D-06.
 No special actions if energy rises.
 SCF Done:  E(RM062X) =  -539.758003799     A.U. after   15 cycles
            NFock= 15  Conv=0.48D-08     -V/T= 2.0043
 DoSCS=F DFT=T ScalE2(SS,OS)=  1.000000  1.000000
 ExpMin= 3.60D-02 ExpMax= 4.56D+03 ExpMxC= 6.82D+02 IAcc=3 IRadAn=         5 AccDes= 0.00D+00
 HarFok:  IExCor=  205 AccDes= 0.00D+00 IRadAn=         5 IDoV=-2 UseB2=F ITyADJ=14
 ICtDFT= 12500011 ScaDFX=  1.000000  1.000000  1.000000  1.000000
 Range of M.O.s used for correlation:    15   379
 NBasis=   385 NAE=    47 NBE=    47 NFC=    14 NFV=     0
 NROrb=    365 NOA=    33 NOB=    33 NVA=   332 NVB=   332

 **** Warning!!: The largest alpha MO coefficient is  0.14881773D+03

 Orbital symmetries:
       Occupied  (A) (A) (A) (A) (A) (A) (A) (A) (A) (A) (A) (A)
                 (A) (A) (A) (A) (A) (A) (A) (A) (A) (A) (A) (A)
                 (A) (A) (A) (A) (A) (A) (A) (A) (A) (A) (A) (A)
                 (A) (A) (A) (A) (A) (A) (A) (A) (A) (A) (A)
       Virtual   (A) (A) (A) (A) (A) (A) (A) (A) (A) (A) (A) (A)
                 (A) (A) (A) (A) (A) (A) (A) (A) (A) (A) (A) (A)
                 (A) (A) (A) (A) (A) (A) (A) (A) (A) (A) (A) (A)
                 (A) (A) (A) (A) (A) (A) (A) (A) (A) (A) (A) (A)
                 (A) (A) (A) (A) (A) (A) (A) (A) (A) (A) (A) (A)
                 (A) (A) (A) (A) (A) (A) (A) (A) (A) (A) (A) (A)
                 (A) (A) (A) (A) (A) (A) (A) (A) (A) (A) (A) (A)
                 (A) (A) (A) (A) (A) (A) (A) (A) (A) (A) (A) (A)
                 (A) (A) (A) (A) (A) (A) (A) (A) (A) (A) (A) (A)
                 (A) (A) (A) (A) (A) (A) (A) (A) (A) (A) (A) (A)
                 (A) (A) (A) (A) (A) (A) (A) (A) (A) (A) (A) (A)
                 (A) (A) (A) (A) (A) (A) (A) (A) (A) (A) (A) (A)
                 (A) (A) (A) (A) (A) (A) (A) (A) (A) (A) (A) (A)
                 (A) (A) (A) (A) (A) (A) (A) (A) (A) (A) (A) (A)
                 (A) (A) (A) (A) (A) (A) (A) (A) (A) (A) (A) (A)
                 (A) (A) (A) (A) (A) (A) (A) (A) (A) (A) (A) (A)
                 (A) (A) (A) (A) (A) (A) (A) (A) (A) (A) (A) (A)
                 (A) (A) (A) (A) (A) (A) (A) (A) (A) (A) (A) (A)
                 (A) (A) (A) (A) (A) (A) (A) (A) (A) (A) (A) (A)
                 (A) (A) (A) (A) (A) (A) (A) (A) (A) (A) (A) (A)
                 (A) (A) (A) (A) (A) (A) (A) (A) (A) (A) (A) (A)
                 (A) (A) (A) (A) (A) (A) (A) (A) (A) (A) (A) (A)
                 (A) (A) (A) (A) (A) (A) (A) (A) (A) (A) (A) (A)
                 (A) (A) (A) (A) (A) (A) (A) (A) (A) (A) (A) (A)
                 (A) (A) (A) (A) (A) (A) (A) (A) (A) (A) (A) (A)
                 (A) (A) (A) (A) (A) (A) (A) (A) (A) (A) (A) (A)
                 (A) (A) (A) (A) (A) (A) (A) (A) (A) (A) (A) (A)
                 (A) (A) (A) (A) (A) (A) (A) (A)
     4 initial guesses have been made.
 Convergence on wavefunction:    0.001000000000000
 Iteration     1 Dimension     4 NMult     0 NNew      4
 CISAX will form     4 AO SS matrices at one time.
 Iteration     2 Dimension     6 NMult     4 NNew      2
 Iteration     3 Dimension     8 NMult     6 NNew      2
 Iteration     4 Dimension    10 NMult     8 NNew      2
 Iteration     5 Dimension    12 NMult    10 NNew      2
 Iteration     6 Dimension    14 NMult    12 NNew      2
 ***********************************************************************
 Excited states from <AA,BB:AA,BB> singles matrix:
 ***********************************************************************
 
 Ground to excited state transition densities written to RWF  633
 Ground to excited state transition electric dipole moments (Au):
       state          X           Y           Z        Dip. S.      Osc.
         1         0.0015     -0.6357      0.0049      0.4041      0.0277
 Ground to excited state transition velocity dipole moments (Au):
       state          X           Y           Z        Dip. S.      Osc.
         1        -0.0002      0.0731     -0.0006      0.0053      0.0346
 Ground to excited state transition magnetic dipole moments (Au):
       state          X           Y           Z
         1        -0.0065      0.0001      0.0000
 Ground to excited state transition velocity quadrupole moments (Au):
       state          XX          YY          ZZ          XY          XZ          YZ
         1         0.3105      0.0318     -0.0095     -0.0002     -0.0000      0.0010
 <0|del|b> * <b|rxdel|0> + <0|del|b> * <b|delr+rdel|0>
 Rotatory Strengths (R) in cgs (10**-40 erg-esu-cm/Gauss)
       state          XX          YY          ZZ    R(velocity)    E-M Angle
         1         0.0360      0.0025      0.0261      0.0215       90.00
 1/2[<0|r|b>*<b|rxdel|0> + (<0|rxdel|b>*<b|r|0>)*]
 Rotatory Strengths (R) in cgs (10**-40 erg-esu-cm/Gauss)
       state          XX          YY          ZZ     R(length)
         1         0.0068      0.0516     -0.0000      0.0195
  1/2[<0|del|b>*<b|r|0> + (<0|r|b>*<b|del|0>)*] (Au)
       state          X           Y           Z        Dip. S.   Osc.(frdel)
         1        -0.0000     -0.0464     -0.0000      0.0465      0.0310

 Excitation energies and oscillator strengths:
 
 Excited State   1:      Singlet-A      2.8001 eV  442.78 nm  f=0.0277  <S**2>=0.000
      47 -> 48         0.70427
 This state for optimization and/or second-order correction.
 Total Energy, E(TD-HF/TD-DFT) =  -539.655101139    
 Copying the excited state density for this state as the 1-particle RhoCI density.
 SavETr:  write IOETrn=   770 NScale= 10 NData=  16 NLR=1 NState=    1 LETran=      28.

 **********************************************************************

            Population analysis using the SCF Density.

 **********************************************************************

 Orbital symmetries:
       Occupied  (A) (A) (A) (A) (A) (A) (A) (A) (A) (A) (A) (A)
                 (A) (A) (A) (A) (A) (A) (A) (A) (A) (A) (A) (A)
                 (A) (A) (A) (A) (A) (A) (A) (A) (A) (A) (A) (A)
                 (A) (A) (A) (A) (A) (A) (A) (A) (A) (A) (A)
       Virtual   (A) (A) (A) (A) (A) (A) (A) (A) (A) (A) (A) (A)
                 (A) (A) (A) (A) (A) (A) (A) (A) (A) (A) (A) (A)
                 (A) (A) (A) (A) (A) (A) (A) (A) (A) (A) (A) (A)
                 (A) (A) (A) (A) (A) (A) (A) (A) (A) (A) (A) (A)
                 (A) (A) (A) (A) (A) (A) (A) (A) (A) (A) (A) (A)
                 (A) (A) (A) (A) (A) (A) (A) (A) (A) (A) (A) (A)
                 (A) (A) (A) (A) (A) (A) (A) (A) (A) (A) (A) (A)
                 (A) (A) (A) (A) (A) (A) (A) (A) (A) (A) (A) (A)
                 (A) (A) (A) (A) (A) (A) (A) (A) (A) (A) (A) (A)
                 (A) (A) (A) (A) (A) (A) (A) (A) (A) (A) (A) (A)
                 (A) (A) (A) (A) (A) (A) (A) (A) (A) (A) (A) (A)
                 (A) (A) (A) (A) (A) (A) (A) (A) (A) (A) (A) (A)
                 (A) (A) (A) (A) (A) (A) (A) (A) (A) (A) (A) (A)
                 (A) (A) (A) (A) (A) (A) (A) (A) (A) (A) (A) (A)
                 (A) (A) (A) (A) (A) (A) (A) (A) (A) (A) (A) (A)
                 (A) (A) (A) (A) (A) (A) (A) (A) (A) (A) (A) (A)
                 (A) (A) (A) (A) (A) (A) (A) (A) (A) (A) (A) (A)
                 (A) (A) (A) (A) (A) (A) (A) (A) (A) (A) (A) (A)
                 (A) (A) (A) (A) (A) (A) (A) (A) (A) (A) (A) (A)
                 (A) (A) (A) (A) (A) (A) (A) (A) (A) (A) (A) (A)
                 (A) (A) (A) (A) (A) (A) (A) (A) (A) (A) (A) (A)
                 (A) (A) (A) (A) (A) (A) (A) (A) (A) (A) (A) (A)
                 (A) (A) (A) (A) (A) (A) (A) (A) (A) (A) (A) (A)
                 (A) (A) (A) (A) (A) (A) (A) (A) (A) (A) (A) (A)
                 (A) (A) (A) (A) (A) (A) (A) (A) (A) (A) (A) (A)
                 (A) (A) (A) (A) (A) (A) (A) (A) (A) (A) (A) (A)
                 (A) (A) (A) (A) (A) (A) (A) (A) (A) (A) (A) (A)
                 (A) (A) (A) (A) (A) (A) (A) (A)
 The electronic state is 1-A.
 Alpha  occ. eigenvalues --  -10.77657 -10.73289 -10.73276 -10.72543 -10.72541
 Alpha  occ. eigenvalues --  -10.71504 -10.71496 -10.71085 -10.71082 -10.70982
 Alpha  occ. eigenvalues --  -10.70117 -10.70111 -10.69593 -10.69586  -1.16363
 Alpha  occ. eigenvalues --   -1.12200  -1.06811  -1.05811  -1.01077  -1.00196
 Alpha  occ. eigenvalues --   -0.95685  -0.91078  -0.86408  -0.85857  -0.83804
 Alpha  occ. eigenvalues --   -0.78389  -0.76004  -0.74365  -0.69582  -0.69329
 Alpha  occ. eigenvalues --   -0.68627  -0.68255  -0.68128  -0.64545  -0.64118
 Alpha  occ. eigenvalues --   -0.63188  -0.62033  -0.59898  -0.59482  -0.59156
 Alpha  occ. eigenvalues --   -0.56933  -0.55274  -0.54913  -0.52336  -0.46465
 Alpha  occ. eigenvalues --   -0.46037  -0.44381
 Alpha virt. eigenvalues --   -0.26068  -0.14822  -0.14134  -0.12936  -0.11177
 Alpha virt. eigenvalues --   -0.10080  -0.09211  -0.08012  -0.07921  -0.07467
 Alpha virt. eigenvalues --   -0.07224  -0.07144  -0.05647  -0.05582  -0.05359
 Alpha virt. eigenvalues --   -0.03786  -0.03650  -0.03284  -0.03133  -0.02155
 Alpha virt. eigenvalues --   -0.01358  -0.00909   0.00192   0.00651   0.00714
 Alpha virt. eigenvalues --    0.01040   0.01512   0.01887   0.02200   0.02296
 Alpha virt. eigenvalues --    0.02421   0.02601   0.02736   0.03266   0.03397
 Alpha virt. eigenvalues --    0.04252   0.04499   0.04685   0.04961   0.05355
 Alpha virt. eigenvalues --    0.06009   0.06285   0.06600   0.07034   0.07213
 Alpha virt. eigenvalues --    0.07856   0.08040   0.08349   0.08482   0.08936
 Alpha virt. eigenvalues --    0.09562   0.09580   0.10026   0.10786   0.11003
 Alpha virt. eigenvalues --    0.11120   0.12232   0.12277   0.12875   0.13044
 Alpha virt. eigenvalues --    0.13402   0.13532   0.14030   0.14242   0.15997
 Alpha virt. eigenvalues --    0.16371   0.16602   0.17398   0.17489   0.17671
 Alpha virt. eigenvalues --    0.18088   0.18918   0.19165   0.19584   0.19715
 Alpha virt. eigenvalues --    0.21448   0.21482   0.22683   0.23132   0.23464
 Alpha virt. eigenvalues --    0.23573   0.24543   0.24881   0.26831   0.27469
 Alpha virt. eigenvalues --    0.28829   0.29279   0.29814   0.31199   0.35800
 Alpha virt. eigenvalues --    0.36214   0.37953   0.39142   0.41159   0.41485
 Alpha virt. eigenvalues --    0.41934   0.42363   0.43034   0.43551   0.44241
 Alpha virt. eigenvalues --    0.44722   0.44782   0.45376   0.46056   0.47912
 Alpha virt. eigenvalues --    0.48609   0.48914   0.49063   0.50463   0.51174
 Alpha virt. eigenvalues --    0.51384   0.51398   0.52128   0.52533   0.54003
 Alpha virt. eigenvalues --    0.54119   0.54492   0.55761   0.55762   0.57418
 Alpha virt. eigenvalues --    0.58182   0.58763   0.61376   0.62058   0.62307
 Alpha virt. eigenvalues --    0.62950   0.63620   0.64446   0.65131   0.67035
 Alpha virt. eigenvalues --    0.70430   0.70589   0.70953   0.72157   0.72739
 Alpha virt. eigenvalues --    0.75525   0.75687   0.76158   0.76586   0.76940
 Alpha virt. eigenvalues --    0.77472   0.77689   0.78114   0.80405   0.80490
 Alpha virt. eigenvalues --    0.81163   0.81533   0.82045   0.82841   0.84844
 Alpha virt. eigenvalues --    0.86806   0.87304   0.88021   0.89561   0.90464
 Alpha virt. eigenvalues --    0.90732   0.91443   0.93071   0.94709   0.96373
 Alpha virt. eigenvalues --    0.96706   1.00463   1.01277   1.01548   1.02635
 Alpha virt. eigenvalues --    1.02991   1.03910   1.04445   1.05911   1.08797
 Alpha virt. eigenvalues --    1.19798   1.23337   1.24083   1.25381   1.27967
 Alpha virt. eigenvalues --    1.29250   1.32090   1.33709   1.35400   1.35916
 Alpha virt. eigenvalues --    1.39061   1.40202   1.40526   1.42803   1.43126
 Alpha virt. eigenvalues --    1.43358   1.44999   1.45053   1.46503   1.46779
 Alpha virt. eigenvalues --    1.47563   1.47583   1.51589   1.53591   1.55536
 Alpha virt. eigenvalues --    1.55973   1.56129   1.56354   1.57602   1.61235
 Alpha virt. eigenvalues --    1.63457   1.63985   1.64076   1.65967   1.67989
 Alpha virt. eigenvalues --    1.68491   1.68602   1.69686   1.73973   1.75914
 Alpha virt. eigenvalues --    1.77022   1.77865   1.79559   1.79940   1.80177
 Alpha virt. eigenvalues --    1.83080   1.83149   1.83361   1.83547   1.84022
 Alpha virt. eigenvalues --    1.84323   1.85786   1.85791   1.88096   1.91503
 Alpha virt. eigenvalues --    1.91730   1.94122   1.95252   1.97416   1.97675
 Alpha virt. eigenvalues --    1.99293   2.02379   2.04047   2.07550   2.11622
 Alpha virt. eigenvalues --    2.11875   2.13614   2.15101   2.18511   2.20949
 Alpha virt. eigenvalues --    2.22189   2.28378   2.29636   2.34373   2.35335
 Alpha virt. eigenvalues --    2.35982   2.39147   2.40294   2.41800   2.42466
 Alpha virt. eigenvalues --    2.46008   2.48428   2.48654   2.52598   2.53738
 Alpha virt. eigenvalues --    2.54126   2.56874   2.57766   2.58289   2.59638
 Alpha virt. eigenvalues --    2.59654   2.61602   2.61730   2.63258   2.63787
 Alpha virt. eigenvalues --    2.64342   2.64543   2.64936   2.65237   2.67781
 Alpha virt. eigenvalues --    2.68825   2.70857   2.71337   2.73366   2.74808
 Alpha virt. eigenvalues --    2.76244   2.78305   2.79542   2.82338   2.82879
 Alpha virt. eigenvalues --    2.84303   2.86278   2.92037   2.96546   2.99349
 Alpha virt. eigenvalues --    2.99662   3.05685   3.10164   3.10651   3.11766
 Alpha virt. eigenvalues --    3.20922   3.23555   3.25978   3.27722   3.30270
 Alpha virt. eigenvalues --    3.31541   3.32896   3.43321   3.44947   3.45689
 Alpha virt. eigenvalues --    3.47506   3.49378   3.56210   3.65219   3.67216
 Alpha virt. eigenvalues --    3.67727   3.94410   3.95525   3.95784   3.96922
 Alpha virt. eigenvalues --    4.04527   4.06912   4.07131   4.12445   4.35647
 Alpha virt. eigenvalues --    4.61517   4.68936   4.70639  23.45582  23.61438
 Alpha virt. eigenvalues --   23.81566  23.86044  23.87207  23.89069  23.90434
 Alpha virt. eigenvalues --   23.92209  23.96753  23.97636  23.97769  23.99179
 Alpha virt. eigenvalues --   24.09417  24.09547
          Condensed to atoms (all electrons):
               1          2          3          4          5          6
     1  C    8.373701   0.478836  -0.574777   1.721895   0.004108  -0.087606
     2  C    0.478836   6.945544   0.360215  -0.883151  -0.035571  -0.014195
     3  C   -0.574777   0.360215   6.570350   0.632108  -0.114779   0.016347
     4  C    1.721895  -0.883151   0.632108  10.492895  -0.139377  -0.114972
     5  C    0.004108  -0.035571  -0.114779  -0.139377  10.496430   0.635362
     6  C   -0.087606  -0.014195   0.016347  -0.114972   0.635362   6.571058
     7  C   -0.028495   0.005354  -0.014168  -0.035401  -0.887065   0.361012
     8  C    0.387288  -0.028824  -0.087581   0.005397   1.719085  -0.573016
     9  C   -1.303123  -0.678019   0.285140  -0.354333  -0.354524   0.284738
    10  C   -1.147750   0.191635  -0.337574  -2.394885  -2.395541  -0.338733
    11  C    0.210726  -0.940458   1.078684  -0.566189  -1.579958  -0.146559
    12  C   -1.591617   1.120534  -1.332443  -0.975265  -0.194623  -0.210217
    13  C    0.110908  -0.202861  -0.145761  -1.578209  -0.562808   1.077706
    14  C   -1.023245  -0.205316  -0.210145  -0.193566  -0.973768  -1.335293
    15  H    0.360523  -0.102063  -0.000435   0.025329   0.005525   0.001120
    16  H   -0.021305   0.379992  -0.018258   0.013474  -0.001481  -0.000316
    17  H   -0.020445  -0.021086   0.380681  -0.062060   0.000006   0.000380
    18  H    0.045696   0.006918  -0.091355   0.445860   0.010163  -0.004769
    19  H   -0.045715  -0.008460   0.052155  -0.076263  -0.076221   0.052141
    20  H    0.007293   0.001739  -0.004766   0.010193   0.446167  -0.091226
    21  H   -0.001272  -0.000372   0.000379   0.000002  -0.062099   0.380704
    22  H    0.000642   0.000347  -0.000315  -0.001475   0.013415  -0.018204
    23  H    0.005648  -0.002612   0.001120   0.005517   0.025384  -0.000423
    24  H    0.019963   0.015266  -0.001686  -0.013241  -0.013038  -0.001752
    25  H    0.043714   0.012923  -0.000961  -0.012336  -0.012537  -0.000874
               7          8          9         10         11         12
     1  C   -0.028495   0.387288  -1.303123  -1.147750   0.210726  -1.591617
     2  C    0.005354  -0.028824  -0.678019   0.191635  -0.940458   1.120534
     3  C   -0.014168  -0.087581   0.285140  -0.337574   1.078684  -1.332443
     4  C   -0.035401   0.005397  -0.354333  -2.394885  -0.566189  -0.975265
     5  C   -0.887065   1.719085  -0.354524  -2.395541  -1.579958  -0.194623
     6  C    0.361012  -0.573016   0.284738  -0.338733  -0.146559  -0.210217
     7  C    6.951601   0.477793  -0.680868   0.192853  -0.204786  -0.205682
     8  C    0.477793   8.376406  -1.306251  -1.148001   0.109239  -1.026955
     9  C   -0.680868  -1.306251   9.150571   0.327121   1.631732  -1.626602
    10  C    0.192853  -1.148001   0.327121   9.057758  -0.385763   2.094059
    11  C   -0.204786   0.109239   1.631732  -0.385763  14.376529  -3.594534
    12  C   -0.205682  -1.026955  -1.626602   2.094059  -3.594534  15.170767
    13  C   -0.942087   0.217229   1.633198  -0.383395   1.304614  -4.719751
    14  C    1.124707  -1.590294  -1.626108   2.094052  -4.725073   2.665073
    15  H   -0.002629   0.005662   0.087500  -0.009552  -0.022976  -0.022385
    16  H    0.000349   0.000657   0.003785  -0.009881   0.026595  -0.031201
    17  H   -0.000372  -0.001276  -0.004232   0.019101  -0.024084   0.080403
    18  H    0.001741   0.007315  -0.026432   0.022877  -0.020188  -0.040539
    19  H   -0.008434  -0.045730   0.073276   0.423224   0.085306  -0.067770
    20  H    0.006778   0.045719  -0.026441   0.022720  -0.012346  -0.008595
    21  H   -0.021017  -0.020548  -0.004235   0.019111  -0.005790   0.004515
    22  H    0.380068  -0.021489   0.003694  -0.009828   0.002687  -0.008655
    23  H   -0.102294   0.360364   0.087512  -0.009570   0.000365   0.006372
    24  H    0.015058   0.019423   0.369473   0.006585   0.005397  -0.043629
    25  H    0.013195   0.044439   0.346444   0.005150   0.020764  -0.075339
              13         14         15         16         17         18
     1  C    0.110908  -1.023245   0.360523  -0.021305  -0.020445   0.045696
     2  C   -0.202861  -0.205316  -0.102063   0.379992  -0.021086   0.006918
     3  C   -0.145761  -0.210145  -0.000435  -0.018258   0.380681  -0.091355
     4  C   -1.578209  -0.193566   0.025329   0.013474  -0.062060   0.445860
     5  C   -0.562808  -0.973768   0.005525  -0.001481   0.000006   0.010163
     6  C    1.077706  -1.335293   0.001120  -0.000316   0.000380  -0.004769
     7  C   -0.942087   1.124707  -0.002629   0.000349  -0.000372   0.001741
     8  C    0.217229  -1.590294   0.005662   0.000657  -0.001276   0.007315
     9  C    1.633198  -1.626108   0.087500   0.003785  -0.004232  -0.026432
    10  C   -0.383395   2.094052  -0.009552  -0.009881   0.019101   0.022877
    11  C    1.304614  -4.725073  -0.022976   0.026595  -0.024084  -0.020188
    12  C   -4.719751   2.665073  -0.022385  -0.031201   0.080403  -0.040539
    13  C   14.356961  -3.597387   0.000319   0.002704  -0.005776  -0.012254
    14  C   -3.597387  15.167706   0.006347  -0.008682   0.004510  -0.008471
    15  H    0.000319   0.006347   0.440061  -0.009004   0.001557   0.000122
    16  H    0.002704  -0.008682  -0.009004   0.420064  -0.006936   0.001964
    17  H   -0.005776   0.004510   0.001557  -0.006936   0.424593  -0.010488
    18  H   -0.012254  -0.008471   0.000122   0.001964  -0.010488   0.454200
    19  H    0.085256  -0.067942   0.000335  -0.000571   0.001471  -0.006403
    20  H   -0.020128  -0.040501  -0.000126   0.000016  -0.000148   0.001312
    21  H   -0.024150   0.080560   0.000018  -0.000007   0.000011  -0.000148
    22  H    0.026463  -0.030888  -0.000127   0.000007  -0.000007   0.000016
    23  H   -0.022826  -0.022347   0.000579  -0.000127   0.000018  -0.000127
    24  H    0.005470  -0.043962  -0.001437   0.000740  -0.000190   0.000147
    25  H    0.020858  -0.074937  -0.000422   0.000495  -0.000102   0.000221
              19         20         21         22         23         24
     1  C   -0.045715   0.007293  -0.001272   0.000642   0.005648   0.019963
     2  C   -0.008460   0.001739  -0.000372   0.000347  -0.002612   0.015266
     3  C    0.052155  -0.004766   0.000379  -0.000315   0.001120  -0.001686
     4  C   -0.076263   0.010193   0.000002  -0.001475   0.005517  -0.013241
     5  C   -0.076221   0.446167  -0.062099   0.013415   0.025384  -0.013038
     6  C    0.052141  -0.091226   0.380704  -0.018204  -0.000423  -0.001752
     7  C   -0.008434   0.006778  -0.021017   0.380068  -0.102294   0.015058
     8  C   -0.045730   0.045719  -0.020548  -0.021489   0.360364   0.019423
     9  C    0.073276  -0.026441  -0.004235   0.003694   0.087512   0.369473
    10  C    0.423224   0.022720   0.019111  -0.009828  -0.009570   0.006585
    11  C    0.085306  -0.012346  -0.005790   0.002687   0.000365   0.005397
    12  C   -0.067770  -0.008595   0.004515  -0.008655   0.006372  -0.043629
    13  C    0.085256  -0.020128  -0.024150   0.026463  -0.022826   0.005470
    14  C   -0.067942  -0.040501   0.080560  -0.030888  -0.022347  -0.043962
    15  H    0.000335  -0.000126   0.000018  -0.000127   0.000579  -0.001437
    16  H   -0.000571   0.000016  -0.000007   0.000007  -0.000127   0.000740
    17  H    0.001471  -0.000148   0.000011  -0.000007   0.000018  -0.000190
    18  H   -0.006403   0.001312  -0.000148   0.000016  -0.000127   0.000147
    19  H    0.446073  -0.006404   0.001474  -0.000572   0.000334   0.000642
    20  H   -0.006404   0.454180  -0.010508   0.001960   0.000125   0.000151
    21  H    0.001474  -0.010508   0.424663  -0.006941   0.001556  -0.000191
    22  H   -0.000572   0.001960  -0.006941   0.420063  -0.009001   0.000749
    23  H    0.000334   0.000125   0.001556  -0.009001   0.440139  -0.001470
    24  H    0.000642   0.000151  -0.000191   0.000749  -0.001470   0.491924
    25  H    0.000573   0.000215  -0.000100   0.000487  -0.000390  -0.078677
              25
     1  C    0.043714
     2  C    0.012923
     3  C   -0.000961
     4  C   -0.012336
     5  C   -0.012537
     6  C   -0.000874
     7  C    0.013195
     8  C    0.044439
     9  C    0.346444
    10  C    0.005150
    11  C    0.020764
    12  C   -0.075339
    13  C    0.020858
    14  C   -0.074937
    15  H   -0.000422
    16  H    0.000495
    17  H   -0.000102
    18  H    0.000221
    19  H    0.000573
    20  H    0.000215
    21  H   -0.000100
    22  H    0.000487
    23  H   -0.000390
    24  H   -0.078677
    25  H    0.492033
 Mulliken charges:
               1
     1  C    0.074411
     2  C   -0.396316
     3  C   -0.442176
     4  C    0.048056
     5  C    0.047742
     6  C   -0.442414
     7  C   -0.397211
     8  C    0.073949
     9  C   -0.293015
    10  C    0.094229
    11  C   -0.623933
    12  C    0.634080
    13  C   -0.624293
    14  C    0.634973
    15  H    0.236160
    16  H    0.256926
    17  H    0.244472
    18  H    0.222622
    19  H    0.188223
    20  H    0.222621
    21  H    0.244384
    22  H    0.256906
    23  H    0.236155
    24  H    0.248285
    25  H    0.255166
 Sum of Mulliken charges =   1.00000
 Mulliken charges with hydrogens summed into heavy atoms:
               1
     1  C    0.310570
     2  C   -0.139390
     3  C   -0.197704
     4  C    0.270677
     5  C    0.270363
     6  C   -0.198030
     7  C   -0.140305
     8  C    0.310104
     9  C    0.210437
    10  C    0.282452
    11  C   -0.623933
    12  C    0.634080
    13  C   -0.624293
    14  C    0.634973
 Electronic spatial extent (au):  <R**2>=           2865.7991
 Charge=              1.0000 electrons
 Dipole moment (field-independent basis, Debye):
    X=             -0.0014    Y=              0.1915    Z=              0.0014  Tot=              0.1915
 Quadrupole moment (field-independent basis, Debye-Ang):
   XX=            -30.8990   YY=            -56.2598   ZZ=            -84.2228
   XY=             -0.0008   XZ=             -0.0012   YZ=              0.1206
 Traceless Quadrupole moment (field-independent basis, Debye-Ang):
   XX=             26.2282   YY=              0.8674   ZZ=            -27.0956
   XY=             -0.0008   XZ=             -0.0012   YZ=              0.1206
 Octapole moment (field-independent basis, Debye-Ang**2):
  XXX=             -0.0554  YYY=              5.2016  ZZZ=             -0.0293  XYY=              0.0007
  XXY=             -4.3787  XXZ=              0.2260  XZZ=              0.0064  YZZ=             -3.0870
  YYZ=              0.1425  XYZ=             -0.0062
 Hexadecapole moment (field-independent basis, Debye-Ang**3):
 XXXX=          -2126.4191 YYYY=           -609.3740 ZZZZ=            -99.6467 XXXY=             -0.0310
 XXXZ=             -0.0354 YYYX=              0.0127 YYYZ=              1.3310 ZZZX=             -0.0017
 ZZZY=              0.0500 XXYY=           -509.4605 XXZZ=           -593.5039 YYZZ=           -145.8116
 XXYZ=              1.3093 YYXZ=              0.0000 ZZXY=             -0.0007
 N-N= 7.800207118402D+02 E-N=-2.796316341833D+03  KE= 5.374333894151D+02
 Unable to Open any file for archive entry.
 1\1\GINC-GADI-CPU-CLX-0113\SP\RM062X TD-FC\6-311++G(d,p)\C14H11(1+)\TS
 1578\28-Jul-2022\0\\#n M062X/6-311++G(d,p) TD(NStates=1) EmpiricalDisp
 ersion=GD3 SP\\SP_-75\\1,1\C,0,0.01665,2.492055,1.360431\C,0,0.020325,
 3.710408,0.671989\C,0,0.0056,3.699611,-0.71383\C,0,-0.019525,2.474581,
 -1.407538\C,0,-0.019475,-2.474481,-1.407538\C,0,0.0059,-3.699111,-0.71
 383\C,0,0.0208,-3.710233,0.671989\C,0,0.0176,-2.491755,1.360431\C,0,0.
 01095,-0.0011,1.453369\C,0,-0.0305,0.00005,-1.429189\C,0,-0.0046,1.252
 48,0.677065\C,0,-0.0124,1.238896,-0.730804\C,0,-0.004525,-1.252505,0.6
 77065\C,0,-0.0126,-1.239046,-0.730804\H,0,0.0047,2.487671,2.443647\H,0
 ,0.020525,4.644128,1.211689\H,0,-0.0037,4.609012,-1.272349\H,0,-0.0090
 5,2.47865,-2.490059\H,0,-0.028125,0.000025,-2.510266\H,0,-0.0092,-2.47
 8575,-2.490059\H,0,-0.00355,-4.608387,-1.272349\H,0,0.0211,-4.643753,1
 .211689\H,0,0.0058,-2.487346,2.443647\H,0,-0.819585,-0.00025,2.146062\
 H,0,0.899585,-0.00025,2.145512\\Version=ES64L-G16RevC.01\State=1-A\HF=
 -539.7580038\RMSD=4.769e-09\PG=C01 [X(C14H11)]\\@
 The archive entry for this job was punched.


 THERE IS AN OLD, OLD RECIPE IN MAINE FOR STEWING COOT. PLACE THE
 BIRD IN A KETTLE OF WATER WITH A RED BUILDING BRICK FREE OF MORTAR AND
 BLEMISHES. PARBOIL THE COOT AND BRICK TOGETHER FOR THREE HOURS.
 POUR OFF THE WATER, REFILL THE KETTLE, AND AGAIN PARBOIL FOR THREE HOURS.
 ONCE AGAIN POUR OFF THE WATER, FOR THE LAST TIME ADD FRESH WATER,
 AND LET THE COOT AND BRICK SIMMER TOGETHER OVERNIGHT. IN THE MORNING,
 THROW AWAY THE COOT AND EAT THE BRICK.
 Job cpu time:       0 days  1 hours 19 minutes 54.3 seconds.
 Elapsed time:       0 days  0 hours  1 minutes 40.1 seconds.
 File lengths (MBytes):  RWF=    460 Int=      0 D2E=      0 Chk=     15 Scr=      1
 Normal termination of Gaussian 16 at Thu Jul 28 14:08:41 2022.
