 Entering Gaussian System, Link 0=g16
 Initial command:
 /apps/gaussian/g16c01/g16/l1.exe "/jobfs/53002009.gadi-pbs/Gau-745146.inp" -scrdir="/jobfs/53002009.gadi-pbs/"
 Entering Link 1 = /apps/gaussian/g16c01/g16/l1.exe PID=    745147.
  
 Copyright (c) 1988-2019, Gaussian, Inc.  All Rights Reserved.
  
 This is part of the Gaussian(R) 16 program.  It is based on
 the Gaussian(R) 09 system (copyright 2009, Gaussian, Inc.),
 the Gaussian(R) 03 system (copyright 2003, Gaussian, Inc.),
 the Gaussian(R) 98 system (copyright 1998, Gaussian, Inc.),
 the Gaussian(R) 94 system (copyright 1995, Gaussian, Inc.),
 the Gaussian 92(TM) system (copyright 1992, Gaussian, Inc.),
 the Gaussian 90(TM) system (copyright 1990, Gaussian, Inc.),
 the Gaussian 88(TM) system (copyright 1988, Gaussian, Inc.),
 the Gaussian 86(TM) system (copyright 1986, Carnegie Mellon
 University), and the Gaussian 82(TM) system (copyright 1983,
 Carnegie Mellon University). Gaussian is a federally registered
 trademark of Gaussian, Inc.
  
 This software contains proprietary and confidential information,
 including trade secrets, belonging to Gaussian, Inc.
  
 This software is provided under written license and may be
 used, copied, transmitted, or stored only in accord with that
 written license.
  
 The following legend is applicable only to US Government
 contracts under FAR:
  
                    RESTRICTED RIGHTS LEGEND
  
 Use, reproduction and disclosure by the US Government is
 subject to restrictions as set forth in subparagraphs (a)
 and (c) of the Commercial Computer Software - Restricted
 Rights clause in FAR 52.227-19.
  
 Gaussian, Inc.
 340 Quinnipiac St., Bldg. 40, Wallingford CT 06492
  
  
 ---------------------------------------------------------------
 Warning -- This program may not be used in any manner that
 competes with the business of Gaussian, Inc. or will provide
 assistance to any competitor of Gaussian, Inc.  The licensee
 of this program is prohibited from giving any competitor of
 Gaussian, Inc. access to this program.  By using this program,
 the user acknowledges that Gaussian, Inc. is engaged in the
 business of creating and licensing software in the field of
 computational chemistry and represents and warrants to the
 licensee that it is not a competitor of Gaussian, Inc. and that
 it will not use this program in any manner prohibited above.
 ---------------------------------------------------------------
  

 Cite this work as:
 Gaussian 16, Revision C.01,
 M. J. Frisch, G. W. Trucks, H. B. Schlegel, G. E. Scuseria, 
 M. A. Robb, J. R. Cheeseman, G. Scalmani, V. Barone, 
 G. A. Petersson, H. Nakatsuji, X. Li, M. Caricato, A. V. Marenich, 
 J. Bloino, B. G. Janesko, R. Gomperts, B. Mennucci, H. P. Hratchian, 
 J. V. Ortiz, A. F. Izmaylov, J. L. Sonnenberg, D. Williams-Young, 
 F. Ding, F. Lipparini, F. Egidi, J. Goings, B. Peng, A. Petrone, 
 T. Henderson, D. Ranasinghe, V. G. Zakrzewski, J. Gao, N. Rega, 
 G. Zheng, W. Liang, M. Hada, M. Ehara, K. Toyota, R. Fukuda, 
 J. Hasegawa, M. Ishida, T. Nakajima, Y. Honda, O. Kitao, H. Nakai, 
 T. Vreven, K. Throssell, J. A. Montgomery, Jr., J. E. Peralta, 
 F. Ogliaro, M. J. Bearpark, J. J. Heyd, E. N. Brothers, K. N. Kudin, 
 V. N. Staroverov, T. A. Keith, R. Kobayashi, J. Normand, 
 K. Raghavachari, A. P. Rendell, J. C. Burant, S. S. Iyengar, 
 J. Tomasi, M. Cossi, J. M. Millam, M. Klene, C. Adamo, R. Cammi, 
 J. W. Ochterski, R. L. Martin, K. Morokuma, O. Farkas, 
 J. B. Foresman, and D. J. Fox, Gaussian, Inc., Wallingford CT, 2019.
 
 ******************************************
 Gaussian 16:  ES64L-G16RevC.01  3-Jul-2019
                28-Jul-2022 
 ******************************************
 %NProcShared=48
 Will use up to   48 processors via shared memory.
 %mem = 190GB
 ---------------------------------------------------------------
 #n M062X/6-311++G(d,p) TD(NStates=1) EmpiricalDispersion=GD3 SP
 ---------------------------------------------------------------
 1/38=1,172=1/1;
 2/12=2,17=6,18=5,40=1/2;
 3/5=4,6=6,7=1111,11=9,25=1,30=1,74=-55,124=31/1,2,3,8;
 4//1;
 5/5=2,38=5/2;
 8/6=1,10=2,108=1/1;
 9/41=1,42=1,70=2/14;
 6/7=2,8=2,9=2,10=2/1;
 99/5=1,9=1/99;
 ------
 SP_-50
 ------
 Symbolic Z-matrix:
 Charge =  1 Multiplicity = 1
 C                     0.0059    2.49266   1.36043 
 C                     0.00775   3.70521   0.67199 
 C                     0.002     3.69056  -0.71383 
 C                    -0.00785   2.46781  -1.40754 
 C                    -0.00775  -2.46761  -1.40754 
 C                     0.0026   -3.68956  -0.71383 
 C                     0.0087   -3.70486   0.67199 
 C                     0.0078   -2.49206   1.36043 
 C                     0.0044   -0.0022    1.45337 
 C                    -0.0122    0.0001   -1.42919 
 C                    -0.0019    1.25821   0.67707 
 C                    -0.0048    1.23792  -0.7308 
 C                    -0.00175  -1.25826   0.67707 
 C                    -0.0052   -1.23822  -0.7308 
 H                     0.001     2.48817   2.44365 
 H                     0.00775   4.64      1.21169 
 H                    -0.0016    4.60966  -1.27235 
 H                    -0.0035    2.47205  -2.49006 
 H                    -0.01125   0.00005  -2.51027 
 H                    -0.0038   -2.4719   -2.49006 
 H                    -0.0013   -4.60841  -1.27235 
 H                     0.0089   -4.63925   1.21169 
 H                     0.0032   -2.48752   2.44365 
 H                    -0.84359  -0.0005    2.14634 
 H                     0.87559  -0.0005    2.14524 
 
                          Input orientation:                          
 ---------------------------------------------------------------------
 Center     Atomic      Atomic             Coordinates (Angstroms)
 Number     Number       Type             X           Y           Z
 ---------------------------------------------------------------------
      1          6           0        0.005900    2.492655    1.360431
      2          6           0        0.007750    3.705208    0.671989
      3          6           0        0.002000    3.690561   -0.713830
      4          6           0       -0.007850    2.467806   -1.407538
      5          6           0       -0.007750   -2.467606   -1.407538
      6          6           0        0.002600   -3.689561   -0.713830
      7          6           0        0.008700   -3.704858    0.671989
      8          6           0        0.007800   -2.492055    1.360431
      9          6           0        0.004400   -0.002200    1.453369
     10          6           0       -0.012200    0.000100   -1.429189
     11          6           0       -0.001900    1.258205    0.677065
     12          6           0       -0.004800    1.237921   -0.730804
     13          6           0       -0.001750   -1.258255    0.677065
     14          6           0       -0.005200   -1.238221   -0.730804
     15          1           0        0.001000    2.488171    2.443647
     16          1           0        0.007750    4.640003    1.211689
     17          1           0       -0.001600    4.609662   -1.272349
     18          1           0       -0.003500    2.472050   -2.490059
     19          1           0       -0.011250    0.000050   -2.510266
     20          1           0       -0.003800   -2.471900   -2.490059
     21          1           0       -0.001300   -4.608412   -1.272349
     22          1           0        0.008900   -4.639253    1.211689
     23          1           0        0.003200   -2.487521    2.443647
     24          1           0       -0.843585   -0.000500    2.146337
     25          1           0        0.875585   -0.000500    2.145237
 ---------------------------------------------------------------------
                    Distance matrix (angstroms):
                    1          2          3          4          5
     1  C    0.000000
     2  C    1.394360   0.000000
     3  C    2.395319   1.385908   0.000000
     4  C    2.768115   2.419884   1.405865   0.000000
     5  C    5.680319   6.513701   6.197124   4.935412   0.000000
     6  C    6.520917   7.523505   7.380122   6.196330   1.405173
     7  C    6.235634   7.410066   7.524145   6.513562   2.419813
     8  C    4.984710   6.235385   6.521298   5.679975   2.768121
     9  C    2.496586   3.788857   4.281733   3.779665   3.776660
    10  C    3.741008   4.259480   3.759181   2.467805   2.467805
    11  C    1.410998   2.447027   2.801956   2.410133   4.269341
    12  C    2.438798   2.838220   2.452708   1.403779   3.766817
    13  C    3.812660   4.963475   5.140562   4.269559   2.410007
    14  C    4.277011   5.138627   4.928816   3.767308   1.403340
    15  H    1.083236   2.149418   3.378669   3.851249   6.276259
    16  H    2.152494   1.079406   2.146881   3.402798   7.574873
    17  H    3.378358   2.144429   1.075501   2.146127   7.078562
    18  H    3.850557   3.394017   2.154017   1.082538   5.056884
    19  H    4.603875   4.884189   4.104538   2.702932   2.702841
    20  H    6.282768   6.939405   6.413341   5.056932   1.082537
    21  H    7.573423   8.537963   8.317747   7.077512   2.145080
    22  H    7.133460   8.361896   8.549472   7.574359   3.402452
    23  H    5.096618   6.441171   6.938181   6.275907   3.851252
    24  H    2.748653   4.078081   4.745472   4.406928   4.406275
    25  H    2.754650   4.081160   4.749879   4.415337   4.414646
                    6          7          8          9         10
     6  C    0.000000
     7  C    1.385917   0.000000
     8  C    2.395121   1.394577   0.000000
     9  C    4.277077   3.784211   2.491591   0.000000
    10  C    3.758398   4.259354   3.740751   2.882607   0.000000
    11  C    5.139552   4.963077   3.812025   1.480307   2.453414
    12  C    4.927517   5.138003   4.276230   2.511692   1.421266
    13  C    2.801046   2.446631   1.410441   1.476604   2.453543
    14  C    2.451411   2.837661   2.438346   2.509672   1.421700
    15  H    6.937870   6.441463   5.096671   2.680039   4.603209
    16  H    8.549227   8.362295   7.133609   4.648491   5.338851
    17  H    8.317996   8.538841   7.574035   5.357130   4.612242
    18  H    6.412525   6.939228   6.282415   4.655384   2.689992
    19  H    4.103730   4.884003   4.603612   3.963667   1.081077
    20  H    2.153539   3.393949   3.850560   4.652968   2.690037
    21  H    1.075289   2.144052   3.377955   5.352267   4.611193
    22  H    2.146993   1.079060   2.152344   4.643349   5.338378
    23  H    3.378544   2.149584   1.083235   2.675345   4.602972
    24  H    4.744023   4.077053   2.747790   1.095119   3.670911
    25  H    4.748214   4.079733   2.752602   1.112496   3.683026
                   11         12         13         14         15
    11  C    0.000000
    12  C    1.408018   0.000000
    13  C    2.516460   2.865833   0.000000
    14  C    2.866051   2.476142   1.408016   0.000000
    15  H    2.152588   3.411788   4.142044   4.895220   0.000000
    16  H    3.423810   3.917601   5.922445   6.190877   2.479546
    17  H    3.877174   3.414955   6.183257   5.872906   4.278943
    18  H    3.391769   2.148966   4.893450   4.106226   4.933734
    19  H    3.426678   2.167683   3.426733   2.167911   5.543659
    20  H    4.893298   4.105819   3.391698   2.148708   6.995983
    21  H    6.182023   5.871362   3.876050   3.413425   8.010626
    22  H    5.921651   6.189882   3.423023   3.916695   7.233115
    23  H    4.141413   4.894499   2.152192   3.411445   4.975692
    24  H    2.109865   3.242713   2.109359   3.242342   2.644844
    25  H    2.123640   3.252749   2.123015   3.252591   2.654700
                   16         17         18         19         20
    16  H    0.000000
    17  H    2.484241   0.000000
    18  H    4.289882   2.460123   0.000000
    19  H    5.948317   4.772950   2.472095   0.000000
    20  H    8.017620   7.185495   4.943950   2.472044   0.000000
    21  H    9.576205   9.218074   7.184411   4.771840   2.459168
    22  H    9.279256   9.576690   8.017089   5.947814   4.289583
    23  H    7.233211   8.011158   6.995630   5.543417   4.933736
    24  H    4.809637   5.800857   5.321223   4.730405   5.320641
    25  H    4.812371   5.805423   5.326562   4.739218   5.326078
                   21         22         23         24         25
    21  H    0.000000
    22  H    2.484250   0.000000
    23  H    4.278648   2.479456   0.000000
    24  H    5.799113   4.808152   2.643995   0.000000
    25  H    5.803592   4.810476   2.652429   1.719170   0.000000
 Stoichiometry    C14H11(1+)
 Framework group  C1[X(C14H11)]
 Deg. of freedom    69
 Full point group                 C1      NOp   1
 Largest Abelian subgroup         C1      NOp   1
 Largest concise Abelian subgroup C1      NOp   1
                         Standard orientation:                         
 ---------------------------------------------------------------------
 Center     Atomic      Atomic             Coordinates (Angstroms)
 Number     Number       Type             X           Y           Z
 ---------------------------------------------------------------------
      1          6           0       -2.492596   -1.360550    0.000032
      2          6           0       -3.705178   -0.672174    0.005051
      3          6           0       -3.690590    0.713657    0.005390
      4          6           0       -2.467866    1.407454   -0.001556
      5          6           0        2.467546    1.407665   -0.002042
      6          6           0        3.689532    0.713970    0.005114
      7          6           0        3.704888   -0.671861    0.005121
      8          6           0        2.492114   -1.360345    0.001340
      9          6           0        0.002262   -1.453373   -0.002173
     10          6           0       -0.000161    1.429230   -0.006104
     11          6           0       -1.258176   -0.677103   -0.004911
     12          6           0       -1.237952    0.730766   -0.001626
     13          6           0        1.258284   -0.676996   -0.005060
     14          6           0        1.238190    0.730874   -0.002320
     15          1           0       -2.488067   -2.443733   -0.009629
     16          1           0       -4.639950   -1.211909    0.002791
     17          1           0       -4.609715    1.272147    0.004354
     18          1           0       -2.472155    2.489945    0.007552
     19          1           0       -0.000157    2.510292   -0.000403
     20          1           0        2.471795    2.490158    0.006665
     21          1           0        4.608359    1.272540    0.003559
     22          1           0        4.639306   -1.211517    0.002839
     23          1           0        2.487625   -2.443530   -0.008020
     24          1           0        0.000491   -2.142608   -0.853195
     25          1           0        0.000695   -2.149063    0.865963
 ---------------------------------------------------------------------
 Rotational constants (GHZ):           2.1361558           0.4437970           0.3682553
 Standard basis: 6-311++G(d,p) (5D, 7F)
 There are   399 symmetry adapted cartesian basis functions of A   symmetry.
 There are   385 symmetry adapted basis functions of A   symmetry.
   385 basis functions,   603 primitive gaussians,   399 cartesian basis functions
    47 alpha electrons       47 beta electrons
       nuclear repulsion energy       780.7326089943 Hartrees.
 NAtoms=   25 NActive=   25 NUniq=   25 SFac= 1.00D+00 NAtFMM=   60 NAOKFM=F Big=F
 Integral buffers will be    131072 words long.
 Regular integral format.
 Two-electron integral symmetry is turned on.
 Nuclear repulsion after empirical dispersion term =      780.7316293425 Hartrees.
 One-electron integrals computed using PRISM.
 NBasis=   385 RedAO= T EigKep=  1.15D-06  NBF=   385
 NBsUse=   379 1.00D-06 EigRej=  8.51D-07 NBFU=   379
 ExpMin= 3.60D-02 ExpMax= 4.56D+03 ExpMxC= 6.82D+02 IAcc=3 IRadAn=         5 AccDes= 0.00D+00
 Harris functional with IExCor= 1009 and IRadAn=       5 diagonalized for initial guess.
 HarFok:  IExCor= 1009 AccDes= 0.00D+00 IRadAn=         5 IDoV= 1 UseB2=F ITyADJ=14
 ICtDFT=  3500011 ScaDFX=  1.000000  1.000000  1.000000  1.000000
 FoFCou: FMM=F IPFlag=           0 FMFlag=      100000 FMFlg1=           0
         NFxFlg=           0 DoJE=T BraDBF=F KetDBF=T FulRan=T
         wScrn=  0.000000 ICntrl=       500 IOpCl=  0 I1Cent=   200000004 NGrid=           0
         NMat0=    1 NMatS0=      1 NMatT0=    0 NMatD0=    1 NMtDS0=    0 NMtDT0=    0
 Petite list used in FoFCou.
 Requested convergence on RMS density matrix=1.00D-08 within 128 cycles.
 Requested convergence on MAX density matrix=1.00D-06.
 Requested convergence on             energy=1.00D-06.
 No special actions if energy rises.
 SCF Done:  E(RM062X) =  -539.759754735     A.U. after   15 cycles
            NFock= 15  Conv=0.46D-08     -V/T= 2.0042
 DoSCS=F DFT=T ScalE2(SS,OS)=  1.000000  1.000000
 ExpMin= 3.60D-02 ExpMax= 4.56D+03 ExpMxC= 6.82D+02 IAcc=3 IRadAn=         5 AccDes= 0.00D+00
 HarFok:  IExCor=  205 AccDes= 0.00D+00 IRadAn=         5 IDoV=-2 UseB2=F ITyADJ=14
 ICtDFT= 12500011 ScaDFX=  1.000000  1.000000  1.000000  1.000000
 Range of M.O.s used for correlation:    15   379
 NBasis=   385 NAE=    47 NBE=    47 NFC=    14 NFV=     0
 NROrb=    365 NOA=    33 NOB=    33 NVA=   332 NVB=   332

 **** Warning!!: The largest alpha MO coefficient is  0.14828453D+03

 Orbital symmetries:
       Occupied  (A) (A) (A) (A) (A) (A) (A) (A) (A) (A) (A) (A)
                 (A) (A) (A) (A) (A) (A) (A) (A) (A) (A) (A) (A)
                 (A) (A) (A) (A) (A) (A) (A) (A) (A) (A) (A) (A)
                 (A) (A) (A) (A) (A) (A) (A) (A) (A) (A) (A)
       Virtual   (A) (A) (A) (A) (A) (A) (A) (A) (A) (A) (A) (A)
                 (A) (A) (A) (A) (A) (A) (A) (A) (A) (A) (A) (A)
                 (A) (A) (A) (A) (A) (A) (A) (A) (A) (A) (A) (A)
                 (A) (A) (A) (A) (A) (A) (A) (A) (A) (A) (A) (A)
                 (A) (A) (A) (A) (A) (A) (A) (A) (A) (A) (A) (A)
                 (A) (A) (A) (A) (A) (A) (A) (A) (A) (A) (A) (A)
                 (A) (A) (A) (A) (A) (A) (A) (A) (A) (A) (A) (A)
                 (A) (A) (A) (A) (A) (A) (A) (A) (A) (A) (A) (A)
                 (A) (A) (A) (A) (A) (A) (A) (A) (A) (A) (A) (A)
                 (A) (A) (A) (A) (A) (A) (A) (A) (A) (A) (A) (A)
                 (A) (A) (A) (A) (A) (A) (A) (A) (A) (A) (A) (A)
                 (A) (A) (A) (A) (A) (A) (A) (A) (A) (A) (A) (A)
                 (A) (A) (A) (A) (A) (A) (A) (A) (A) (A) (A) (A)
                 (A) (A) (A) (A) (A) (A) (A) (A) (A) (A) (A) (A)
                 (A) (A) (A) (A) (A) (A) (A) (A) (A) (A) (A) (A)
                 (A) (A) (A) (A) (A) (A) (A) (A) (A) (A) (A) (A)
                 (A) (A) (A) (A) (A) (A) (A) (A) (A) (A) (A) (A)
                 (A) (A) (A) (A) (A) (A) (A) (A) (A) (A) (A) (A)
                 (A) (A) (A) (A) (A) (A) (A) (A) (A) (A) (A) (A)
                 (A) (A) (A) (A) (A) (A) (A) (A) (A) (A) (A) (A)
                 (A) (A) (A) (A) (A) (A) (A) (A) (A) (A) (A) (A)
                 (A) (A) (A) (A) (A) (A) (A) (A) (A) (A) (A) (A)
                 (A) (A) (A) (A) (A) (A) (A) (A) (A) (A) (A) (A)
                 (A) (A) (A) (A) (A) (A) (A) (A) (A) (A) (A) (A)
                 (A) (A) (A) (A) (A) (A) (A) (A) (A) (A) (A) (A)
                 (A) (A) (A) (A) (A) (A) (A) (A) (A) (A) (A) (A)
                 (A) (A) (A) (A) (A) (A) (A) (A) (A) (A) (A) (A)
                 (A) (A) (A) (A) (A) (A) (A) (A)
     4 initial guesses have been made.
 Convergence on wavefunction:    0.001000000000000
 Iteration     1 Dimension     4 NMult     0 NNew      4
 CISAX will form     4 AO SS matrices at one time.
 Iteration     2 Dimension     6 NMult     4 NNew      2
 Iteration     3 Dimension     8 NMult     6 NNew      2
 Iteration     4 Dimension    10 NMult     8 NNew      2
 Iteration     5 Dimension    12 NMult    10 NNew      2
 Iteration     6 Dimension    14 NMult    12 NNew      2
 ***********************************************************************
 Excited states from <AA,BB:AA,BB> singles matrix:
 ***********************************************************************
 
 Ground to excited state transition densities written to RWF  633
 Ground to excited state transition electric dipole moments (Au):
       state          X           Y           Z        Dip. S.      Osc.
         1         0.0029     -0.6409      0.0019      0.4108      0.0283
 Ground to excited state transition velocity dipole moments (Au):
       state          X           Y           Z        Dip. S.      Osc.
         1        -0.0003      0.0740     -0.0002      0.0055      0.0353
 Ground to excited state transition magnetic dipole moments (Au):
       state          X           Y           Z
         1        -0.0027      0.0002     -0.0000
 Ground to excited state transition velocity quadrupole moments (Au):
       state          XX          YY          ZZ          XY          XZ          YZ
         1         0.3030      0.0338     -0.0097     -0.0004     -0.0000      0.0003
 <0|del|b> * <b|rxdel|0> + <0|del|b> * <b|delr+rdel|0>
 Rotatory Strengths (R) in cgs (10**-40 erg-esu-cm/Gauss)
       state          XX          YY          ZZ    R(velocity)    E-M Angle
         1         0.0671      0.0022      0.0503      0.0399       90.00
 1/2[<0|r|b>*<b|rxdel|0> + (<0|rxdel|b>*<b|r|0>)*]
 Rotatory Strengths (R) in cgs (10**-40 erg-esu-cm/Gauss)
       state          XX          YY          ZZ     R(length)
         1         0.0055      0.1020      0.0001      0.0359
  1/2[<0|del|b>*<b|r|0> + (<0|r|b>*<b|del|0>)*] (Au)
       state          X           Y           Z        Dip. S.   Osc.(frdel)
         1        -0.0000     -0.0474     -0.0000      0.0474      0.0316

 Excitation energies and oscillator strengths:
 
 Excited State   1:      Singlet-A      2.8144 eV  440.53 nm  f=0.0283  <S**2>=0.000
      47 -> 48         0.70427
 This state for optimization and/or second-order correction.
 Total Energy, E(TD-HF/TD-DFT) =  -539.656325991    
 Copying the excited state density for this state as the 1-particle RhoCI density.
 SavETr:  write IOETrn=   770 NScale= 10 NData=  16 NLR=1 NState=    1 LETran=      28.

 **********************************************************************

            Population analysis using the SCF Density.

 **********************************************************************

 Orbital symmetries:
       Occupied  (A) (A) (A) (A) (A) (A) (A) (A) (A) (A) (A) (A)
                 (A) (A) (A) (A) (A) (A) (A) (A) (A) (A) (A) (A)
                 (A) (A) (A) (A) (A) (A) (A) (A) (A) (A) (A) (A)
                 (A) (A) (A) (A) (A) (A) (A) (A) (A) (A) (A)
       Virtual   (A) (A) (A) (A) (A) (A) (A) (A) (A) (A) (A) (A)
                 (A) (A) (A) (A) (A) (A) (A) (A) (A) (A) (A) (A)
                 (A) (A) (A) (A) (A) (A) (A) (A) (A) (A) (A) (A)
                 (A) (A) (A) (A) (A) (A) (A) (A) (A) (A) (A) (A)
                 (A) (A) (A) (A) (A) (A) (A) (A) (A) (A) (A) (A)
                 (A) (A) (A) (A) (A) (A) (A) (A) (A) (A) (A) (A)
                 (A) (A) (A) (A) (A) (A) (A) (A) (A) (A) (A) (A)
                 (A) (A) (A) (A) (A) (A) (A) (A) (A) (A) (A) (A)
                 (A) (A) (A) (A) (A) (A) (A) (A) (A) (A) (A) (A)
                 (A) (A) (A) (A) (A) (A) (A) (A) (A) (A) (A) (A)
                 (A) (A) (A) (A) (A) (A) (A) (A) (A) (A) (A) (A)
                 (A) (A) (A) (A) (A) (A) (A) (A) (A) (A) (A) (A)
                 (A) (A) (A) (A) (A) (A) (A) (A) (A) (A) (A) (A)
                 (A) (A) (A) (A) (A) (A) (A) (A) (A) (A) (A) (A)
                 (A) (A) (A) (A) (A) (A) (A) (A) (A) (A) (A) (A)
                 (A) (A) (A) (A) (A) (A) (A) (A) (A) (A) (A) (A)
                 (A) (A) (A) (A) (A) (A) (A) (A) (A) (A) (A) (A)
                 (A) (A) (A) (A) (A) (A) (A) (A) (A) (A) (A) (A)
                 (A) (A) (A) (A) (A) (A) (A) (A) (A) (A) (A) (A)
                 (A) (A) (A) (A) (A) (A) (A) (A) (A) (A) (A) (A)
                 (A) (A) (A) (A) (A) (A) (A) (A) (A) (A) (A) (A)
                 (A) (A) (A) (A) (A) (A) (A) (A) (A) (A) (A) (A)
                 (A) (A) (A) (A) (A) (A) (A) (A) (A) (A) (A) (A)
                 (A) (A) (A) (A) (A) (A) (A) (A) (A) (A) (A) (A)
                 (A) (A) (A) (A) (A) (A) (A) (A) (A) (A) (A) (A)
                 (A) (A) (A) (A) (A) (A) (A) (A) (A) (A) (A) (A)
                 (A) (A) (A) (A) (A) (A) (A) (A) (A) (A) (A) (A)
                 (A) (A) (A) (A) (A) (A) (A) (A)
 The electronic state is 1-A.
 Alpha  occ. eigenvalues --  -10.77661 -10.73270 -10.73243 -10.72478 -10.72476
 Alpha  occ. eigenvalues --  -10.71428 -10.71413 -10.71038 -10.71034 -10.70981
 Alpha  occ. eigenvalues --  -10.70034 -10.70023 -10.69619 -10.69606  -1.16410
 Alpha  occ. eigenvalues --   -1.12360  -1.06890  -1.05764  -1.01214  -1.00195
 Alpha  occ. eigenvalues --   -0.95743  -0.91066  -0.86413  -0.85884  -0.83811
 Alpha  occ. eigenvalues --   -0.78393  -0.76020  -0.74397  -0.69566  -0.69271
 Alpha  occ. eigenvalues --   -0.68537  -0.68222  -0.68132  -0.64661  -0.64217
 Alpha  occ. eigenvalues --   -0.63122  -0.61934  -0.59964  -0.59601  -0.59119
 Alpha  occ. eigenvalues --   -0.56910  -0.55239  -0.54872  -0.52397  -0.46555
 Alpha  occ. eigenvalues --   -0.46056  -0.44455
 Alpha virt. eigenvalues --   -0.26079  -0.14726  -0.14112  -0.12837  -0.11178
 Alpha virt. eigenvalues --   -0.10083  -0.09222  -0.07990  -0.07954  -0.07472
 Alpha virt. eigenvalues --   -0.07208  -0.07148  -0.05644  -0.05582  -0.05342
 Alpha virt. eigenvalues --   -0.03810  -0.03639  -0.03281  -0.03134  -0.02163
 Alpha virt. eigenvalues --   -0.01363  -0.00920   0.00191   0.00615   0.00675
 Alpha virt. eigenvalues --    0.01050   0.01513   0.01924   0.02213   0.02289
 Alpha virt. eigenvalues --    0.02440   0.02678   0.02700   0.03321   0.03381
 Alpha virt. eigenvalues --    0.04245   0.04503   0.04691   0.05002   0.05360
 Alpha virt. eigenvalues --    0.06036   0.06291   0.06595   0.07042   0.07242
 Alpha virt. eigenvalues --    0.07879   0.08116   0.08363   0.08511   0.08931
 Alpha virt. eigenvalues --    0.09554   0.09564   0.10036   0.10844   0.11021
 Alpha virt. eigenvalues --    0.11114   0.12189   0.12257   0.12900   0.13001
 Alpha virt. eigenvalues --    0.13403   0.13533   0.14021   0.14330   0.16187
 Alpha virt. eigenvalues --    0.16274   0.16453   0.17366   0.17609   0.17759
 Alpha virt. eigenvalues --    0.18112   0.19024   0.19205   0.19617   0.19717
 Alpha virt. eigenvalues --    0.21518   0.21550   0.22731   0.23121   0.23564
 Alpha virt. eigenvalues --    0.23717   0.24564   0.25230   0.26899   0.27554
 Alpha virt. eigenvalues --    0.28842   0.29293   0.29851   0.31305   0.35815
 Alpha virt. eigenvalues --    0.36347   0.38122   0.39226   0.41162   0.41438
 Alpha virt. eigenvalues --    0.41957   0.42261   0.43002   0.43625   0.44297
 Alpha virt. eigenvalues --    0.44855   0.44946   0.45970   0.46090   0.47945
 Alpha virt. eigenvalues --    0.48559   0.48881   0.49049   0.50440   0.51142
 Alpha virt. eigenvalues --    0.51523   0.51580   0.52116   0.52771   0.53987
 Alpha virt. eigenvalues --    0.54106   0.54589   0.55696   0.55759   0.57472
 Alpha virt. eigenvalues --    0.58221   0.58799   0.61421   0.62150   0.62337
 Alpha virt. eigenvalues --    0.63128   0.63538   0.64881   0.65142   0.67224
 Alpha virt. eigenvalues --    0.70404   0.70618   0.70998   0.72344   0.72831
 Alpha virt. eigenvalues --    0.75764   0.75925   0.76233   0.76850   0.77057
 Alpha virt. eigenvalues --    0.77749   0.77801   0.78197   0.80040   0.80405
 Alpha virt. eigenvalues --    0.81205   0.81627   0.82102   0.82960   0.85113
 Alpha virt. eigenvalues --    0.87073   0.88155   0.88211   0.89302   0.90416
 Alpha virt. eigenvalues --    0.90945   0.91325   0.93115   0.94638   0.96452
 Alpha virt. eigenvalues --    0.96644   1.00449   1.01282   1.01627   1.02635
 Alpha virt. eigenvalues --    1.03143   1.03843   1.04655   1.05527   1.08738
 Alpha virt. eigenvalues --    1.19663   1.23309   1.24059   1.25279   1.27974
 Alpha virt. eigenvalues --    1.29534   1.31899   1.34109   1.35641   1.35959
 Alpha virt. eigenvalues --    1.39258   1.40188   1.40818   1.42909   1.43338
 Alpha virt. eigenvalues --    1.43469   1.45133   1.45219   1.46396   1.46713
 Alpha virt. eigenvalues --    1.47598   1.47839   1.51681   1.53602   1.55697
 Alpha virt. eigenvalues --    1.55876   1.56202   1.56514   1.57703   1.61354
 Alpha virt. eigenvalues --    1.63325   1.63706   1.63881   1.66054   1.68185
 Alpha virt. eigenvalues --    1.68425   1.68652   1.69721   1.74229   1.75969
 Alpha virt. eigenvalues --    1.77120   1.77994   1.79918   1.80011   1.80492
 Alpha virt. eigenvalues --    1.83151   1.83176   1.83563   1.83706   1.84174
 Alpha virt. eigenvalues --    1.84237   1.85821   1.85950   1.88167   1.91433
 Alpha virt. eigenvalues --    1.91955   1.94133   1.95214   1.97573   1.97959
 Alpha virt. eigenvalues --    1.99556   2.02428   2.04265   2.07407   2.11737
 Alpha virt. eigenvalues --    2.12000   2.13970   2.15175   2.18849   2.21184
 Alpha virt. eigenvalues --    2.22564   2.28520   2.29974   2.34581   2.35030
 Alpha virt. eigenvalues --    2.36143   2.38911   2.39908   2.42251   2.43988
 Alpha virt. eigenvalues --    2.46323   2.46824   2.49131   2.52771   2.53789
 Alpha virt. eigenvalues --    2.54218   2.56851   2.57799   2.58263   2.59630
 Alpha virt. eigenvalues --    2.59738   2.61641   2.61986   2.63452   2.63766
 Alpha virt. eigenvalues --    2.64689   2.64987   2.65169   2.65193   2.67900
 Alpha virt. eigenvalues --    2.68652   2.70907   2.71397   2.73335   2.74815
 Alpha virt. eigenvalues --    2.76267   2.78597   2.79643   2.82635   2.82993
 Alpha virt. eigenvalues --    2.84645   2.86269   2.92079   2.96916   2.99424
 Alpha virt. eigenvalues --    2.99897   3.05353   3.10738   3.11138   3.12578
 Alpha virt. eigenvalues --    3.21005   3.23716   3.26426   3.28031   3.30574
 Alpha virt. eigenvalues --    3.32333   3.33381   3.43370   3.45676   3.46113
 Alpha virt. eigenvalues --    3.48143   3.49825   3.56385   3.65784   3.67015
 Alpha virt. eigenvalues --    3.67352   3.94522   3.94754   3.95576   3.96352
 Alpha virt. eigenvalues --    4.04260   4.06947   4.07295   4.12519   4.35597
 Alpha virt. eigenvalues --    4.61464   4.69503   4.71269  23.45439  23.60897
 Alpha virt. eigenvalues --   23.82002  23.85784  23.87686  23.89157  23.90468
 Alpha virt. eigenvalues --   23.92219  23.97403  23.98839  23.99006  23.99746
 Alpha virt. eigenvalues --   24.10072  24.10195
          Condensed to atoms (all electrons):
               1          2          3          4          5          6
     1  C    8.535993   0.345930  -0.550300   1.937240  -0.023672  -0.093438
     2  C    0.345930   7.087712   0.353708  -1.038595  -0.020531  -0.014172
     3  C   -0.550300   0.353708   6.576419   0.727750  -0.121754   0.016666
     4  C    1.937240  -1.038595   0.727750  10.922642  -0.313068  -0.122456
     5  C   -0.023672  -0.020531  -0.121754  -0.313068  10.917426   0.733690
     6  C   -0.093438  -0.014172   0.016666  -0.122456   0.733690   6.577987
     7  C   -0.020166   0.002026  -0.014133  -0.020074  -1.043865   0.355189
     8  C    0.399884  -0.021232  -0.093363  -0.019992   1.928008  -0.546811
     9  C   -1.176038  -0.784863   0.294647  -0.232661  -0.239733   0.293705
    10  C   -1.257808   0.239835  -0.345596  -2.542399  -2.542567  -0.349048
    11  C    0.270276  -0.911372   1.029493  -0.357576  -1.518695  -0.164569
    12  C   -1.981845   1.317215  -1.383096  -1.483171  -0.299307  -0.203203
    13  C    0.184909  -0.238374  -0.163459  -1.519332  -0.353476   1.029270
    14  C   -1.061314  -0.195593  -0.203376  -0.302542  -1.466889  -1.389492
    15  H    0.366141  -0.105463  -0.001007   0.027233   0.005668   0.001096
    16  H   -0.019520   0.379147  -0.017463   0.013601  -0.001515  -0.000322
    17  H   -0.024089  -0.017411   0.376890  -0.066981   0.000223   0.000394
    18  H    0.049138   0.004035  -0.086565   0.455264   0.007203  -0.005016
    19  H   -0.046666  -0.007905   0.051592  -0.072837  -0.072367   0.051618
    20  H    0.007183   0.001984  -0.005001   0.007251   0.455510  -0.086264
    21  H   -0.001300  -0.000392   0.000393   0.000218  -0.066975   0.376943
    22  H    0.000674   0.000357  -0.000321  -0.001510   0.013471  -0.017306
    23  H    0.005683  -0.002638   0.001093   0.005674   0.027254  -0.000966
    24  H    0.027943   0.015052  -0.001604  -0.012746  -0.012274  -0.001746
    25  H    0.036624   0.013651  -0.001320  -0.012221  -0.012609  -0.001136
               7          8          9         10         11         12
     1  C   -0.020166   0.399884  -1.176038  -1.257808   0.270276  -1.981845
     2  C    0.002026  -0.021232  -0.784863   0.239835  -0.911372   1.317215
     3  C   -0.014133  -0.093363   0.294647  -0.345596   1.029493  -1.383096
     4  C   -0.020074  -0.019992  -0.232661  -2.542399  -0.357576  -1.483171
     5  C   -1.043865   1.928008  -0.239733  -2.542567  -1.518695  -0.299307
     6  C    0.355189  -0.546811   0.293705  -0.349048  -0.164569  -0.203203
     7  C    7.098539   0.345169  -0.788043   0.241941  -0.242794  -0.196910
     8  C    0.345169   8.537900  -1.185441  -1.257675   0.180135  -1.068091
     9  C   -0.788043  -1.185441   9.520138   0.256962   1.628882  -1.912346
    10  C    0.241941  -1.257675   0.256962   9.135504  -0.432001   2.365220
    11  C   -0.242794   0.180135   1.628882  -0.432001  14.524828  -3.727970
    12  C   -0.196910  -1.068091  -1.912346   2.365220  -3.727970  15.919060
    13  C   -0.914554   0.284829   1.635617  -0.431821   1.126706  -4.810916
    14  C    1.320969  -1.972132  -1.906462   2.360716  -4.820758   3.001813
    15  H   -0.002666   0.005708   0.091384  -0.009671  -0.029490  -0.024652
    16  H    0.000360   0.000703   0.003566  -0.009446   0.026360  -0.032463
    17  H   -0.000393  -0.001308  -0.005498   0.020314  -0.026779   0.089779
    18  H    0.001984   0.007239  -0.024955   0.015088  -0.010586  -0.050896
    19  H   -0.007881  -0.046676   0.075155   0.422260   0.081019  -0.066507
    20  H    0.003801   0.049097  -0.025016   0.014912  -0.012283  -0.012669
    21  H   -0.017254  -0.024240  -0.005506   0.020335  -0.006197   0.005162
    22  H    0.379369  -0.020001   0.003379  -0.009375   0.002937  -0.008915
    23  H   -0.105766   0.365731   0.091201  -0.009679   0.001485   0.006495
    24  H    0.014614   0.026951   0.361608   0.005734   0.009985  -0.053103
    25  H    0.014189   0.037998   0.352447   0.005381   0.017019  -0.067088
              13         14         15         16         17         18
     1  C    0.184909  -1.061314   0.366141  -0.019520  -0.024089   0.049138
     2  C   -0.238374  -0.195593  -0.105463   0.379147  -0.017411   0.004035
     3  C   -0.163459  -0.203376  -0.001007  -0.017463   0.376890  -0.086565
     4  C   -1.519332  -0.302542   0.027233   0.013601  -0.066981   0.455264
     5  C   -0.353476  -1.466889   0.005668  -0.001515   0.000223   0.007203
     6  C    1.029270  -1.389492   0.001096  -0.000322   0.000394  -0.005016
     7  C   -0.914554   1.320969  -0.002666   0.000360  -0.000393   0.001984
     8  C    0.284829  -1.972132   0.005708   0.000703  -0.001308   0.007239
     9  C    1.635617  -1.906462   0.091384   0.003566  -0.005498  -0.024955
    10  C   -0.431821   2.360716  -0.009671  -0.009446   0.020314   0.015088
    11  C    1.126706  -4.820758  -0.029490   0.026360  -0.026779  -0.010586
    12  C   -4.810916   3.001813  -0.024652  -0.032463   0.089779  -0.050896
    13  C   14.491365  -3.734844   0.001430   0.002952  -0.006150  -0.012212
    14  C   -3.734844  15.903694   0.006456  -0.008953   0.005153  -0.012517
    15  H    0.001430   0.006456   0.439318  -0.009019   0.001501   0.000154
    16  H    0.002952  -0.008953  -0.009019   0.419635  -0.006721   0.001939
    17  H   -0.006150   0.005153   0.001501  -0.006721   0.423160  -0.010339
    18  H   -0.012212  -0.012517   0.000154   0.001939  -0.010339   0.453629
    19  H    0.081304  -0.066682   0.000312  -0.000551   0.001444  -0.006347
    20  H   -0.010495  -0.050742  -0.000115   0.000015  -0.000145   0.001283
    21  H   -0.026991   0.090032   0.000015  -0.000007   0.000011  -0.000145
    22  H    0.026147  -0.031835  -0.000127   0.000007  -0.000007   0.000015
    23  H   -0.029181  -0.024352   0.000574  -0.000127   0.000015  -0.000116
    24  H    0.010344  -0.053719  -0.001107   0.000672  -0.000161   0.000166
    25  H    0.016977  -0.066462  -0.000725   0.000579  -0.000126   0.000195
              19         20         21         22         23         24
     1  C   -0.046666   0.007183  -0.001300   0.000674   0.005683   0.027943
     2  C   -0.007905   0.001984  -0.000392   0.000357  -0.002638   0.015052
     3  C    0.051592  -0.005001   0.000393  -0.000321   0.001093  -0.001604
     4  C   -0.072837   0.007251   0.000218  -0.001510   0.005674  -0.012746
     5  C   -0.072367   0.455510  -0.066975   0.013471   0.027254  -0.012274
     6  C    0.051618  -0.086264   0.376943  -0.017306  -0.000966  -0.001746
     7  C   -0.007881   0.003801  -0.017254   0.379369  -0.105766   0.014614
     8  C   -0.046676   0.049097  -0.024240  -0.020001   0.365731   0.026951
     9  C    0.075155  -0.025016  -0.005506   0.003379   0.091201   0.361608
    10  C    0.422260   0.014912   0.020335  -0.009375  -0.009679   0.005734
    11  C    0.081019  -0.012283  -0.006197   0.002937   0.001485   0.009985
    12  C   -0.066507  -0.012669   0.005162  -0.008915   0.006495  -0.053103
    13  C    0.081304  -0.010495  -0.026991   0.026147  -0.029181   0.010344
    14  C   -0.066682  -0.050742   0.090032  -0.031835  -0.024352  -0.053719
    15  H    0.000312  -0.000115   0.000015  -0.000127   0.000574  -0.001107
    16  H   -0.000551   0.000015  -0.000007   0.000007  -0.000127   0.000672
    17  H    0.001444  -0.000145   0.000011  -0.000007   0.000015  -0.000161
    18  H   -0.006347   0.001283  -0.000145   0.000015  -0.000116   0.000166
    19  H    0.443903  -0.006328   0.001447  -0.000551   0.000309   0.000607
    20  H   -0.006328   0.453599  -0.010373   0.001930   0.000158   0.000176
    21  H    0.001447  -0.010373   0.423276  -0.006733   0.001504  -0.000165
    22  H   -0.000551   0.001930  -0.006733   0.419647  -0.009010   0.000689
    23  H    0.000309   0.000158   0.001504  -0.009010   0.439404  -0.001154
    24  H    0.000607   0.000176  -0.000165   0.000689  -0.001154   0.493212
    25  H    0.000607   0.000184  -0.000121   0.000563  -0.000672  -0.079367
              25
     1  C    0.036624
     2  C    0.013651
     3  C   -0.001320
     4  C   -0.012221
     5  C   -0.012609
     6  C   -0.001136
     7  C    0.014189
     8  C    0.037998
     9  C    0.352447
    10  C    0.005381
    11  C    0.017019
    12  C   -0.067088
    13  C    0.016977
    14  C   -0.066462
    15  H   -0.000725
    16  H    0.000579
    17  H   -0.000126
    18  H    0.000195
    19  H    0.000607
    20  H    0.000184
    21  H   -0.000121
    22  H    0.000563
    23  H   -0.000672
    24  H   -0.079367
    25  H    0.493245
 Mulliken charges:
               1
     1  C    0.088537
     2  C   -0.402113
     3  C   -0.440291
     4  C    0.021285
     5  C    0.020845
     6  C   -0.440615
     7  C   -0.403652
     8  C    0.087611
     9  C   -0.322131
    10  C    0.092883
    11  C   -0.638055
    12  C    0.678403
    13  C   -0.640046
    14  C    0.679831
    15  H    0.237053
    16  H    0.256570
    17  H    0.247223
    18  H    0.222362
    19  H    0.189718
    20  H    0.222348
    21  H    0.247065
    22  H    0.256506
    23  H    0.237082
    24  H    0.249395
    25  H    0.252187
 Sum of Mulliken charges =   1.00000
 Mulliken charges with hydrogens summed into heavy atoms:
               1
     1  C    0.325590
     2  C   -0.145543
     3  C   -0.193068
     4  C    0.243647
     5  C    0.243193
     6  C   -0.193550
     7  C   -0.147146
     8  C    0.324693
     9  C    0.179451
    10  C    0.282601
    11  C   -0.638055
    12  C    0.678403
    13  C   -0.640046
    14  C    0.679831
 Electronic spatial extent (au):  <R**2>=           2859.8411
 Charge=              1.0000 electrons
 Dipole moment (field-independent basis, Debye):
    X=             -0.0027    Y=              0.1894    Z=              0.0004  Tot=              0.1894
 Quadrupole moment (field-independent basis, Debye-Ang):
   XX=            -31.0291   YY=            -56.2619   ZZ=            -84.1742
   XY=             -0.0015   XZ=             -0.0025   YZ=              0.0485
 Traceless Quadrupole moment (field-independent basis, Debye-Ang):
   XX=             26.1260   YY=              0.8932   ZZ=            -27.0191
   XY=             -0.0015   XZ=             -0.0025   YZ=              0.0485
 Octapole moment (field-independent basis, Debye-Ang**2):
  XXX=             -0.1100  YYY=              5.2097  ZZZ=             -0.0112  XYY=              0.0011
  XXY=             -4.8528  XXZ=              0.0863  XZZ=              0.0132  YZZ=             -3.0869
  YYZ=              0.0534  XYZ=             -0.0123
 Hexadecapole moment (field-independent basis, Debye-Ang**3):
 XXXX=          -2124.0230 YYYY=           -609.2715 ZZZZ=            -99.4408 XXXY=             -0.0622
 XXXZ=             -0.0697 YYYX=              0.0258 YYYZ=              0.5406 ZZZX=             -0.0033
 ZZZY=              0.0180 XXYY=           -508.3985 XXZZ=           -591.8483 YYZZ=           -145.7460
 XXYZ=              0.5183 YYXZ=             -0.0001 ZZXY=             -0.0013
 N-N= 7.807316293425D+02 E-N=-2.797778706739D+03  KE= 5.374765432551D+02
 Unable to Open any file for archive entry.
 1\1\GINC-GADI-CPU-CLX-0113\SP\RM062X TD-FC\6-311++G(d,p)\C14H11(1+)\TS
 1578\28-Jul-2022\0\\#n M062X/6-311++G(d,p) TD(NStates=1) EmpiricalDisp
 ersion=GD3 SP\\SP_-50\\1,1\C,0,0.0059,2.492655,1.360431\C,0,0.00775,3.
 705208,0.671989\C,0,0.002,3.690561,-0.71383\C,0,-0.00785,2.467806,-1.4
 07538\C,0,-0.00775,-2.467606,-1.407538\C,0,0.0026,-3.689561,-0.71383\C
 ,0,0.0087,-3.704858,0.671989\C,0,0.0078,-2.492055,1.360431\C,0,0.0044,
 -0.0022,1.453369\C,0,-0.0122,0.0001,-1.429189\C,0,-0.0019,1.258205,0.6
 77065\C,0,-0.0048,1.237921,-0.730804\C,0,-0.00175,-1.258255,0.677065\C
 ,0,-0.0052,-1.238221,-0.730804\H,0,0.001,2.488171,2.443647\H,0,0.00775
 ,4.640003,1.211689\H,0,-0.0016,4.609662,-1.272349\H,0,-0.0035,2.47205,
 -2.490059\H,0,-0.01125,0.00005,-2.510266\H,0,-0.0038,-2.4719,-2.490059
 \H,0,-0.0013,-4.608412,-1.272349\H,0,0.0089,-4.639253,1.211689\H,0,0.0
 032,-2.487521,2.443647\H,0,-0.843585,-0.0005,2.146337\H,0,0.875585,-0.
 0005,2.145237\\Version=ES64L-G16RevC.01\State=1-A\HF=-539.7597547\RMSD
 =4.598e-09\PG=C01 [X(C14H11)]\\@
 The archive entry for this job was punched.


 "THE TIME HAS COME", THE WALRUS SAID,
 "TO TALK OF MANY THINGS,
 OF SHOES AND SHIPS AND SEALING WAX,
 OF CABBAGES AND KINGS,
 AND WHY THE SEA IS BOILING HOT,
 AND WHETHER PIGS HAVE WINGS."
 Job cpu time:       0 days  1 hours 19 minutes 32.5 seconds.
 Elapsed time:       0 days  0 hours  1 minutes 39.6 seconds.
 File lengths (MBytes):  RWF=    460 Int=      0 D2E=      0 Chk=     15 Scr=      1
 Normal termination of Gaussian 16 at Thu Jul 28 14:26:22 2022.
