 Entering Gaussian System, Link 0=g16
 Initial command:
 /apps/gaussian/g16c01/g16/l1.exe "/jobfs/53002009.gadi-pbs/Gau-746394.inp" -scrdir="/jobfs/53002009.gadi-pbs/"
 Entering Link 1 = /apps/gaussian/g16c01/g16/l1.exe PID=    746395.
  
 Copyright (c) 1988-2019, Gaussian, Inc.  All Rights Reserved.
  
 This is part of the Gaussian(R) 16 program.  It is based on
 the Gaussian(R) 09 system (copyright 2009, Gaussian, Inc.),
 the Gaussian(R) 03 system (copyright 2003, Gaussian, Inc.),
 the Gaussian(R) 98 system (copyright 1998, Gaussian, Inc.),
 the Gaussian(R) 94 system (copyright 1995, Gaussian, Inc.),
 the Gaussian 92(TM) system (copyright 1992, Gaussian, Inc.),
 the Gaussian 90(TM) system (copyright 1990, Gaussian, Inc.),
 the Gaussian 88(TM) system (copyright 1988, Gaussian, Inc.),
 the Gaussian 86(TM) system (copyright 1986, Carnegie Mellon
 University), and the Gaussian 82(TM) system (copyright 1983,
 Carnegie Mellon University). Gaussian is a federally registered
 trademark of Gaussian, Inc.
  
 This software contains proprietary and confidential information,
 including trade secrets, belonging to Gaussian, Inc.
  
 This software is provided under written license and may be
 used, copied, transmitted, or stored only in accord with that
 written license.
  
 The following legend is applicable only to US Government
 contracts under FAR:
  
                    RESTRICTED RIGHTS LEGEND
  
 Use, reproduction and disclosure by the US Government is
 subject to restrictions as set forth in subparagraphs (a)
 and (c) of the Commercial Computer Software - Restricted
 Rights clause in FAR 52.227-19.
  
 Gaussian, Inc.
 340 Quinnipiac St., Bldg. 40, Wallingford CT 06492
  
  
 ---------------------------------------------------------------
 Warning -- This program may not be used in any manner that
 competes with the business of Gaussian, Inc. or will provide
 assistance to any competitor of Gaussian, Inc.  The licensee
 of this program is prohibited from giving any competitor of
 Gaussian, Inc. access to this program.  By using this program,
 the user acknowledges that Gaussian, Inc. is engaged in the
 business of creating and licensing software in the field of
 computational chemistry and represents and warrants to the
 licensee that it is not a competitor of Gaussian, Inc. and that
 it will not use this program in any manner prohibited above.
 ---------------------------------------------------------------
  

 Cite this work as:
 Gaussian 16, Revision C.01,
 M. J. Frisch, G. W. Trucks, H. B. Schlegel, G. E. Scuseria, 
 M. A. Robb, J. R. Cheeseman, G. Scalmani, V. Barone, 
 G. A. Petersson, H. Nakatsuji, X. Li, M. Caricato, A. V. Marenich, 
 J. Bloino, B. G. Janesko, R. Gomperts, B. Mennucci, H. P. Hratchian, 
 J. V. Ortiz, A. F. Izmaylov, J. L. Sonnenberg, D. Williams-Young, 
 F. Ding, F. Lipparini, F. Egidi, J. Goings, B. Peng, A. Petrone, 
 T. Henderson, D. Ranasinghe, V. G. Zakrzewski, J. Gao, N. Rega, 
 G. Zheng, W. Liang, M. Hada, M. Ehara, K. Toyota, R. Fukuda, 
 J. Hasegawa, M. Ishida, T. Nakajima, Y. Honda, O. Kitao, H. Nakai, 
 T. Vreven, K. Throssell, J. A. Montgomery, Jr., J. E. Peralta, 
 F. Ogliaro, M. J. Bearpark, J. J. Heyd, E. N. Brothers, K. N. Kudin, 
 V. N. Staroverov, T. A. Keith, R. Kobayashi, J. Normand, 
 K. Raghavachari, A. P. Rendell, J. C. Burant, S. S. Iyengar, 
 J. Tomasi, M. Cossi, J. M. Millam, M. Klene, C. Adamo, R. Cammi, 
 J. W. Ochterski, R. L. Martin, K. Morokuma, O. Farkas, 
 J. B. Foresman, and D. J. Fox, Gaussian, Inc., Wallingford CT, 2019.
 
 ******************************************
 Gaussian 16:  ES64L-G16RevC.01  3-Jul-2019
                28-Jul-2022 
 ******************************************
 %NProcShared=48
 Will use up to   48 processors via shared memory.
 %mem = 190GB
 ---------------------------------------------------------------
 #n M062X/6-311++G(d,p) TD(NStates=1) EmpiricalDispersion=GD3 SP
 ---------------------------------------------------------------
 1/38=1,172=1/1;
 2/12=2,17=6,18=5,40=1/2;
 3/5=4,6=6,7=1111,11=9,25=1,30=1,74=-55,124=31/1,2,3,8;
 4//1;
 5/5=2,38=5/2;
 8/6=1,10=2,108=1/1;
 9/41=1,42=1,70=2/14;
 6/7=2,8=2,9=2,10=2/1;
 99/5=1,9=1/99;
 ------
 SP_-50
 ------
 Symbolic Z-matrix:
 Charge =  1 Multiplicity = 1
 C                     0.0137    2.49206   1.36043 
 C                     0.01645   3.70856   0.67199 
 C                     0.0046    3.69626  -0.71383 
 C                    -0.0156    2.47226  -1.40754 
 C                    -0.0156   -2.47226  -1.40754 
 C                     0.0046   -3.69626  -0.71383 
 C                     0.01645  -3.70856   0.67199 
 C                     0.0137   -2.49206   1.36043 
 C                     0.00875   0.        1.45337 
 C                    -0.0244    0.       -1.42919 
 C                    -0.00365   1.2544    0.67707 
 C                    -0.01      1.23867  -0.7308 
 C                    -0.00365  -1.2544    0.67707 
 C                    -0.01     -1.23867  -0.7308 
 H                     0.0042    2.48762   2.44365 
 H                     0.01665   4.6425    1.21169 
 H                    -0.0029    4.60881  -1.27235 
 H                    -0.0073    2.4764   -2.49006 
 H                    -0.0225    0.       -2.51027 
 H                    -0.0073   -2.4764   -2.49006 
 H                    -0.0029   -4.60881  -1.27235 
 H                     0.01665  -4.6425    1.21169 
 H                     0.0042   -2.48762   2.44365 
 H                    -0.82759   0.        2.14579 
 H                     0.89159   0.        2.14579 
 
                          Input orientation:                          
 ---------------------------------------------------------------------
 Center     Atomic      Atomic             Coordinates (Angstroms)
 Number     Number       Type             X           Y           Z
 ---------------------------------------------------------------------
      1          6           0        0.013700    2.492055    1.360431
      2          6           0        0.016450    3.708558    0.671989
      3          6           0        0.004600    3.696261   -0.713830
      4          6           0       -0.015600    2.472256   -1.407538
      5          6           0       -0.015600   -2.472256   -1.407538
      6          6           0        0.004600   -3.696261   -0.713830
      7          6           0        0.016450   -3.708558    0.671989
      8          6           0        0.013700   -2.492055    1.360431
      9          6           0        0.008750    0.000000    1.453369
     10          6           0       -0.024400    0.000000   -1.429189
     11          6           0       -0.003650    1.254405    0.677065
     12          6           0       -0.010000    1.238671   -0.730804
     13          6           0       -0.003650   -1.254405    0.677065
     14          6           0       -0.010000   -1.238671   -0.730804
     15          1           0        0.004200    2.487621    2.443647
     16          1           0        0.016650    4.642503    1.211689
     17          1           0       -0.002900    4.608812   -1.272349
     18          1           0       -0.007300    2.476400   -2.490059
     19          1           0       -0.022500    0.000000   -2.510266
     20          1           0       -0.007300   -2.476400   -2.490059
     21          1           0       -0.002900   -4.608812   -1.272349
     22          1           0        0.016650   -4.642503    1.211689
     23          1           0        0.004200   -2.487621    2.443647
     24          1           0       -0.827585    0.000000    2.145787
     25          1           0        0.891585    0.000000    2.145787
 ---------------------------------------------------------------------
                    Distance matrix (angstroms):
                    1          2          3          4          5
     1  C    0.000000
     2  C    1.397798   0.000000
     3  C    2.398490   1.385924   0.000000
     4  C    2.768195   2.419484   1.407063   0.000000
     5  C    5.683915   6.521344   6.207434   4.944512   0.000000
     6  C    6.526706   7.533391   7.392522   6.207434   1.407063
     7  C    6.238715   7.417116   7.533391   6.521344   2.419484
     8  C    4.984110   6.238715   6.526706   5.683915   2.768195
     9  C    2.493792   3.789989   4.284754   3.781194   3.781194
    10  C    3.740825   4.262631   3.764960   2.472366   2.472366
    11  C    1.413884   2.454241   2.810217   2.414306   4.270095
    12  C    2.438195   2.840576   2.457692   1.407030   3.772132
    13  C    3.808314   4.963006   5.142349   4.270095   2.414306
    14  C    4.276931   5.142334   4.934983   3.772132   1.407030
    15  H    1.083267   2.151653   3.380898   3.851267   6.279522
    16  H    2.155588   1.078670   2.145494   3.401670   7.581635
    17  H    3.378234   2.142728   1.069929   2.140866   7.082370
    18  H    3.850579   3.393718   2.154807   1.082561   5.065680
    19  H    4.603688   4.886887   4.109776   2.707048   2.707048
    20  H    6.285878   6.946425   6.423151   5.065680   1.082561
    21  H    7.573250   8.541631   8.323835   7.082370   2.140866
    22  H    7.136109   8.368482   8.558198   7.581635   3.401670
    23  H    5.096138   6.444498   6.943346   6.279522   3.851267
    24  H    2.744974   4.078956   4.746819   4.404258   4.404258
    25  H    2.756411   4.085504   4.756732   4.422799   4.422799
                    6          7          8          9         10
     6  C    0.000000
     7  C    1.385924   0.000000
     8  C    2.398490   1.397798   0.000000
     9  C    4.284754   3.789989   2.493792   0.000000
    10  C    3.764960   4.262631   3.740825   2.882749   0.000000
    11  C    5.142349   4.963006   3.808314   1.475240   2.451585
    12  C    4.934983   5.142334   4.276931   2.511029   1.422060
    13  C    2.810217   2.454241   1.413884   1.475240   2.451585
    14  C    2.457692   2.840576   2.438195   2.511029   1.422060
    15  H    6.943346   6.444498   5.096138   2.677486   4.603035
    16  H    8.558198   8.368482   7.136109   4.648796   5.341232
    17  H    8.323835   8.541631   7.573250   5.354514   4.611530
    18  H    6.423151   6.946425   6.285878   4.656548   2.694122
    19  H    4.109776   4.886887   4.603688   3.963758   1.081079
    20  H    2.154807   3.393718   3.850579   4.656548   2.694122
    21  H    1.069929   2.142728   3.378234   5.354514   4.611530
    22  H    2.145494   1.078670   2.155588   4.648796   5.341232
    23  H    3.380898   2.151653   1.083267   2.677486   4.603035
    24  H    4.746819   4.078956   2.744974   1.085771   3.664091
    25  H    4.756732   4.085504   2.756411   1.121981   3.690458
                   11         12         13         14         15
    11  C    0.000000
    12  C    1.407971   0.000000
    13  C    2.508810   2.863139   0.000000
    14  C    2.863139   2.477342   1.407971   0.000000
    15  H    2.154459   3.411337   4.138071   4.895160   0.000000
    16  H    3.430079   3.919191   5.921128   6.193722   2.482215
    17  H    3.879724   3.413381   6.178797   5.872510   4.278800
    18  H    3.394696   2.151037   4.893832   4.110564   4.933732
    19  H    3.425342   2.168167   3.425342   2.168167   5.543485
    20  H    4.893832   4.110564   3.394696   2.151037   6.998792
    21  H    6.178797   5.872510   3.879724   3.413381   8.010495
    22  H    5.921128   6.193722   3.430079   3.919191   7.235782
    23  H    4.138071   4.895160   2.154459   3.411337   4.975242
    24  H    2.099892   3.236901   2.099892   3.236901   2.639857
    25  H    2.128878   3.259131   2.128878   3.259131   2.657900
                   16         17         18         19         20
    16  H    0.000000
    17  H    2.484343   0.000000
    18  H    4.288999   2.455609   0.000000
    19  H    5.950405   4.772208   2.476529   0.000000
    20  H    8.023858   7.189094   4.952800   2.476529   0.000000
    21  H    9.579022   9.217624   7.189094   4.772208   2.455609
    22  H    9.285006   9.579022   8.023858   5.950405   4.288999
    23  H    7.235782   8.010495   6.998792   5.543485   4.933732
    24  H    4.810209   5.796974   5.319445   4.725145   5.319445
    25  H    4.815691   5.807315   5.332131   4.744932   5.332131
                   21         22         23         24         25
    21  H    0.000000
    22  H    2.484343   0.000000
    23  H    4.278800   2.482215   0.000000
    24  H    5.796974   4.810209   2.639857   0.000000
    25  H    5.807315   4.815691   2.657900   1.719170   0.000000
 Stoichiometry    C14H11(1+)
 Framework group  CS[SG(C2H3),X(C12H8)]
 Deg. of freedom    37
 Full point group                 CS      NOp   2
 Largest Abelian subgroup         CS      NOp   2
 Largest concise Abelian subgroup CS      NOp   2
                         Standard orientation:                         
 ---------------------------------------------------------------------
 Center     Atomic      Atomic             Coordinates (Angstroms)
 Number     Number       Type             X           Y           Z
 ---------------------------------------------------------------------
      1          6           0        1.360496    0.001360    2.492055
      2          6           0        0.672105    0.010168    3.708558
      3          6           0       -0.713765    0.010514    3.696261
      4          6           0       -1.407624   -0.003580    2.472256
      5          6           0       -1.407624   -0.003580   -2.472256
      6          6           0       -0.713765    0.010514   -3.696261
      7          6           0        0.672105    0.010168   -3.708558
      8          6           0        1.360496    0.001360   -2.492055
      9          6           0        1.453386   -0.004408    0.000000
     10          6           0       -1.429352   -0.012189   -0.000000
     11          6           0        0.677003   -0.009976    1.254405
     12          6           0       -0.730867   -0.003936    1.238671
     13          6           0        0.677003   -0.009976   -1.254405
     14          6           0       -0.730867   -0.003936   -1.238671
     15          1           0        2.443586   -0.017672    2.487621
     16          1           0        1.211785    0.005619    4.642503
     17          1           0       -1.272328    0.007930    4.608812
     18          1           0       -2.490030    0.014246    2.476400
     19          1           0       -2.510370   -0.000776   -0.000000
     20          1           0       -2.490030    0.014246   -2.476400
     21          1           0       -1.272328    0.007930   -4.608812
     22          1           0        1.211785    0.005619   -4.642503
     23          1           0        2.443586   -0.017672   -2.487621
     24          1           0        2.138418   -0.846804    0.000000
     25          1           0        2.153547    0.872300    0.000000
 ---------------------------------------------------------------------
 Rotational constants (GHZ):           2.1359432           0.4429666           0.3676817
 Standard basis: 6-311++G(d,p) (5D, 7F)
 There are   218 symmetry adapted cartesian basis functions of A'  symmetry.
 There are   181 symmetry adapted cartesian basis functions of A"  symmetry.
 There are   210 symmetry adapted basis functions of A'  symmetry.
 There are   175 symmetry adapted basis functions of A"  symmetry.
   385 basis functions,   603 primitive gaussians,   399 cartesian basis functions
    47 alpha electrons       47 beta electrons
       nuclear repulsion energy       780.2605267452 Hartrees.
 NAtoms=   25 NActive=   25 NUniq=   15 SFac= 2.78D+00 NAtFMM=   60 NAOKFM=F Big=F
 Integral buffers will be    131072 words long.
 Regular integral format.
 Two-electron integral symmetry is turned on.
 Nuclear repulsion after empirical dispersion term =      780.2595469220 Hartrees.
 One-electron integrals computed using PRISM.
 NBasis=   385 RedAO= T EigKep=  1.20D-06  NBF=   210   175
 NBsUse=   379 1.00D-06 EigRej=  8.67D-07 NBFU=   207   172
 ExpMin= 3.60D-02 ExpMax= 4.56D+03 ExpMxC= 6.82D+02 IAcc=3 IRadAn=         5 AccDes= 0.00D+00
 Harris functional with IExCor= 1009 and IRadAn=       5 diagonalized for initial guess.
 HarFok:  IExCor= 1009 AccDes= 0.00D+00 IRadAn=         5 IDoV= 1 UseB2=F ITyADJ=14
 ICtDFT=  3500011 ScaDFX=  1.000000  1.000000  1.000000  1.000000
 FoFCou: FMM=F IPFlag=           0 FMFlag=      100000 FMFlg1=           0
         NFxFlg=           0 DoJE=T BraDBF=F KetDBF=T FulRan=T
         wScrn=  0.000000 ICntrl=       500 IOpCl=  0 I1Cent=   200000004 NGrid=           0
         NMat0=    1 NMatS0=      1 NMatT0=    0 NMatD0=    1 NMtDS0=    0 NMtDT0=    0
 Petite list used in FoFCou.
 Initial guess orbital symmetries:
       Occupied  (A') (A") (A') (A") (A') (A") (A') (A") (A') (A')
                 (A") (A') (A") (A') (A') (A") (A') (A') (A") (A")
                 (A') (A') (A") (A') (A") (A') (A") (A') (A') (A")
                 (A") (A') (A') (A") (A") (A') (A') (A') (A") (A")
                 (A') (A") (A') (A') (A") (A") (A')
       Virtual   (A') (A') (A") (A") (A') (A') (A") (A') (A') (A")
                 (A') (A") (A') (A") (A') (A') (A') (A") (A") (A")
                 (A') (A') (A') (A") (A') (A') (A") (A") (A') (A')
                 (A') (A") (A") (A") (A') (A') (A") (A') (A') (A')
                 (A') (A") (A") (A') (A') (A") (A') (A") (A") (A")
                 (A") (A") (A') (A') (A') (A') (A') (A') (A') (A")
                 (A") (A") (A') (A') (A') (A') (A") (A") (A') (A")
                 (A") (A') (A') (A") (A") (A') (A') (A') (A") (A')
                 (A") (A') (A") (A") (A') (A") (A') (A') (A') (A")
                 (A") (A') (A") (A') (A') (A") (A") (A') (A') (A")
                 (A") (A') (A') (A') (A') (A') (A") (A") (A') (A")
                 (A") (A') (A") (A') (A') (A') (A") (A") (A') (A')
                 (A") (A') (A') (A") (A') (A") (A") (A") (A') (A')
                 (A') (A") (A') (A') (A') (A") (A") (A') (A") (A")
                 (A') (A") (A") (A') (A') (A") (A") (A') (A") (A')
                 (A') (A") (A') (A") (A") (A") (A') (A') (A") (A')
                 (A') (A") (A') (A") (A') (A') (A") (A") (A') (A")
                 (A') (A') (A") (A') (A") (A') (A") (A") (A') (A')
                 (A') (A") (A') (A") (A") (A') (A") (A') (A") (A')
                 (A') (A") (A') (A') (A') (A") (A") (A') (A') (A")
                 (A') (A") (A') (A') (A") (A") (A") (A') (A') (A')
                 (A") (A") (A') (A') (A") (A") (A') (A") (A') (A")
                 (A') (A') (A") (A") (A') (A') (A") (A") (A") (A')
                 (A') (A") (A') (A") (A") (A') (A') (A") (A") (A')
                 (A') (A') (A") (A') (A") (A") (A') (A") (A') (A')
                 (A") (A') (A") (A') (A") (A') (A") (A') (A') (A')
                 (A') (A") (A') (A") (A') (A") (A') (A') (A") (A')
                 (A") (A") (A") (A') (A') (A') (A') (A") (A") (A')
                 (A") (A") (A') (A") (A') (A') (A") (A") (A') (A')
                 (A") (A') (A") (A') (A") (A') (A') (A') (A") (A")
                 (A') (A") (A') (A') (A") (A') (A') (A') (A") (A")
                 (A') (A') (A") (A') (A") (A") (A") (A') (A') (A")
                 (A') (A') (A") (A") (A') (A') (A") (A') (A") (A')
                 (A') (A")
 The electronic state of the initial guess is 1-A'.
 Requested convergence on RMS density matrix=1.00D-08 within 128 cycles.
 Requested convergence on MAX density matrix=1.00D-06.
 Requested convergence on             energy=1.00D-06.
 No special actions if energy rises.
 SCF Done:  E(RM062X) =  -539.758719364     A.U. after   15 cycles
            NFock= 15  Conv=0.47D-08     -V/T= 2.0043
 DoSCS=F DFT=T ScalE2(SS,OS)=  1.000000  1.000000
 ExpMin= 3.60D-02 ExpMax= 4.56D+03 ExpMxC= 6.82D+02 IAcc=3 IRadAn=         5 AccDes= 0.00D+00
 HarFok:  IExCor=  205 AccDes= 0.00D+00 IRadAn=         5 IDoV=-2 UseB2=F ITyADJ=14
 ICtDFT= 12500011 ScaDFX=  1.000000  1.000000  1.000000  1.000000
 Range of M.O.s used for correlation:    15   379
 NBasis=   385 NAE=    47 NBE=    47 NFC=    14 NFV=     0
 NROrb=    365 NOA=    33 NOB=    33 NVA=   332 NVB=   332

 **** Warning!!: The largest alpha MO coefficient is  0.14836366D+03

 Orbital symmetries:
       Occupied  (A') (A") (A') (A") (A') (A") (A') (A") (A') (A')
                 (A") (A') (A") (A') (A') (A") (A') (A') (A") (A")
                 (A') (A') (A') (A") (A") (A') (A") (A') (A') (A")
                 (A') (A") (A') (A") (A') (A") (A') (A') (A") (A')
                 (A") (A') (A") (A') (A") (A") (A')
       Virtual   (A') (A') (A") (A") (A') (A') (A") (A') (A') (A")
                 (A') (A') (A") (A') (A') (A") (A") (A') (A") (A')
                 (A') (A") (A') (A') (A") (A') (A') (A') (A") (A')
                 (A") (A") (A") (A") (A') (A") (A") (A') (A') (A')
                 (A") (A') (A") (A') (A') (A') (A") (A') (A') (A")
                 (A") (A') (A') (A') (A") (A') (A") (A') (A') (A")
                 (A') (A") (A") (A') (A') (A") (A') (A') (A") (A")
                 (A') (A") (A') (A') (A") (A') (A") (A") (A') (A")
                 (A') (A') (A") (A") (A') (A') (A") (A') (A") (A')
                 (A") (A') (A") (A') (A') (A') (A') (A") (A") (A')
                 (A') (A") (A") (A') (A') (A") (A') (A") (A') (A")
                 (A') (A") (A') (A") (A') (A") (A') (A") (A") (A')
                 (A') (A') (A") (A") (A') (A') (A') (A") (A') (A")
                 (A') (A") (A') (A') (A') (A") (A') (A") (A') (A")
                 (A") (A') (A") (A") (A') (A") (A") (A') (A") (A')
                 (A") (A') (A") (A') (A") (A') (A') (A") (A') (A')
                 (A") (A") (A') (A') (A") (A") (A") (A') (A') (A")
                 (A') (A') (A") (A') (A") (A') (A") (A") (A') (A')
                 (A') (A") (A') (A') (A") (A") (A") (A') (A") (A')
                 (A") (A') (A') (A') (A') (A') (A") (A") (A') (A")
                 (A') (A") (A') (A') (A") (A") (A") (A') (A') (A')
                 (A') (A") (A") (A") (A') (A") (A") (A') (A') (A")
                 (A') (A') (A") (A") (A') (A") (A') (A") (A") (A')
                 (A') (A') (A") (A") (A') (A") (A") (A') (A") (A')
                 (A') (A') (A") (A") (A") (A') (A') (A") (A') (A')
                 (A") (A') (A") (A') (A") (A') (A') (A") (A') (A')
                 (A") (A') (A') (A") (A') (A") (A') (A") (A') (A')
                 (A") (A") (A') (A') (A") (A') (A") (A') (A') (A")
                 (A") (A") (A') (A') (A') (A") (A") (A') (A') (A")
                 (A") (A') (A") (A') (A') (A") (A') (A') (A") (A")
                 (A') (A") (A') (A') (A") (A') (A') (A') (A") (A")
                 (A') (A") (A') (A') (A") (A") (A") (A') (A') (A")
                 (A') (A') (A") (A") (A') (A') (A") (A') (A") (A')
                 (A') (A")
     4 initial guesses have been made.
 Convergence on wavefunction:    0.001000000000000
 Iteration     1 Dimension     4 NMult     0 NNew      4
 CISAX will form     4 AO SS matrices at one time.
 Iteration     2 Dimension     6 NMult     4 NNew      2
 Iteration     3 Dimension     8 NMult     6 NNew      2
 Iteration     4 Dimension    10 NMult     8 NNew      2
 Iteration     5 Dimension    12 NMult    10 NNew      2
 Iteration     6 Dimension    14 NMult    12 NNew      2
 ***********************************************************************
 Excited states from <AA,BB:AA,BB> singles matrix:
 ***********************************************************************
 
 Ground to excited state transition densities written to RWF  633
 Ground to excited state transition electric dipole moments (Au):
       state          X           Y           Z        Dip. S.      Osc.
         1         0.6374      0.0039      0.0000      0.4063      0.0279
 Ground to excited state transition velocity dipole moments (Au):
       state          X           Y           Z        Dip. S.      Osc.
         1        -0.0734     -0.0005     -0.0000      0.0054      0.0348
 Ground to excited state transition magnetic dipole moments (Au):
       state          X           Y           Z
         1         0.0000      0.0000      0.0053
 Ground to excited state transition velocity quadrupole moments (Au):
       state          XX          YY          ZZ          XY          XZ          YZ
         1         0.0325     -0.0096      0.3081     -0.0008      0.0000     -0.0000
 <0|del|b> * <b|rxdel|0> + <0|del|b> * <b|delr+rdel|0>
 Rotatory Strengths (R) in cgs (10**-40 erg-esu-cm/Gauss)
       state          XX          YY          ZZ    R(velocity)    E-M Angle
         1        -0.0000     -0.0000     -0.0000     -0.0000       90.00
 1/2[<0|r|b>*<b|rxdel|0> + (<0|rxdel|b>*<b|r|0>)*]
 Rotatory Strengths (R) in cgs (10**-40 erg-esu-cm/Gauss)
       state          XX          YY          ZZ     R(length)
         1        -0.0000     -0.0000     -0.0000     -0.0000
  1/2[<0|del|b>*<b|r|0> + (<0|r|b>*<b|del|0>)*] (Au)
       state          X           Y           Z        Dip. S.   Osc.(frdel)
         1        -0.0468     -0.0000     -0.0000      0.0468      0.0312

 Excitation energies and oscillator strengths:
 
 Excited State   1:      Singlet-A'     2.8051 eV  441.99 nm  f=0.0279  <S**2>=0.000
      47 -> 48         0.70427
 This state for optimization and/or second-order correction.
 Total Energy, E(TD-HF/TD-DFT) =  -539.655633020    
 Copying the excited state density for this state as the 1-particle RhoCI density.
 SavETr:  write IOETrn=   770 NScale= 10 NData=  16 NLR=1 NState=    1 LETran=      28.

 **********************************************************************

            Population analysis using the SCF Density.

 **********************************************************************

 Orbital symmetries:
       Occupied  (A') (A") (A') (A") (A') (A") (A') (A") (A') (A')
                 (A") (A') (A") (A') (A') (A") (A') (A') (A") (A")
                 (A') (A') (A') (A") (A") (A') (A") (A') (A') (A")
                 (A') (A") (A') (A") (A') (A") (A') (A') (A") (A')
                 (A") (A') (A") (A') (A") (A") (A')
       Virtual   (A') (A') (A") (A") (A') (A') (A") (A') (A') (A")
                 (A') (A') (A") (A') (A') (A") (A") (A') (A") (A')
                 (A') (A") (A') (A') (A") (A') (A') (A') (A") (A')
                 (A") (A") (A") (A") (A') (A") (A") (A') (A') (A')
                 (A") (A') (A") (A') (A') (A') (A") (A') (A') (A")
                 (A") (A') (A') (A') (A") (A') (A") (A') (A') (A")
                 (A') (A") (A") (A') (A') (A") (A') (A') (A") (A")
                 (A') (A") (A') (A') (A") (A') (A") (A") (A') (A")
                 (A') (A') (A") (A") (A') (A') (A") (A') (A") (A')
                 (A") (A') (A") (A') (A') (A') (A') (A") (A") (A')
                 (A') (A") (A") (A') (A') (A") (A') (A") (A') (A")
                 (A') (A") (A') (A") (A') (A") (A') (A") (A") (A')
                 (A') (A') (A") (A") (A') (A') (A') (A") (A') (A")
                 (A') (A") (A') (A') (A') (A") (A') (A") (A') (A")
                 (A") (A') (A") (A") (A') (A") (A") (A') (A") (A')
                 (A") (A') (A") (A') (A") (A') (A') (A") (A') (A')
                 (A") (A") (A') (A') (A") (A") (A") (A') (A') (A")
                 (A') (A') (A") (A') (A") (A') (A") (A") (A') (A')
                 (A') (A") (A') (A') (A") (A") (A") (A') (A") (A')
                 (A") (A') (A') (A') (A') (A') (A") (A") (A') (A")
                 (A') (A") (A') (A') (A") (A") (A") (A') (A') (A')
                 (A') (A") (A") (A") (A') (A") (A") (A') (A') (A")
                 (A') (A') (A") (A") (A') (A") (A') (A") (A") (A')
                 (A') (A') (A") (A") (A') (A") (A") (A') (A") (A')
                 (A') (A') (A") (A") (A") (A') (A') (A") (A') (A')
                 (A") (A') (A") (A') (A") (A') (A') (A") (A') (A')
                 (A") (A') (A') (A") (A') (A") (A') (A") (A') (A')
                 (A") (A") (A') (A') (A") (A') (A") (A') (A') (A")
                 (A") (A") (A') (A') (A') (A") (A") (A') (A') (A")
                 (A") (A') (A") (A') (A') (A") (A') (A') (A") (A")
                 (A') (A") (A') (A') (A") (A') (A') (A') (A") (A")
                 (A') (A") (A') (A') (A") (A") (A") (A') (A') (A")
                 (A') (A') (A") (A") (A') (A') (A") (A') (A") (A')
                 (A') (A")
 The electronic state is 1-A'.
 Alpha  occ. eigenvalues --  -10.77658 -10.73274 -10.73273 -10.72521 -10.72519
 Alpha  occ. eigenvalues --  -10.71474 -10.71474 -10.71068 -10.71068 -10.70981
 Alpha  occ. eigenvalues --  -10.70085 -10.70085 -10.69597 -10.69597  -1.16378
 Alpha  occ. eigenvalues --   -1.12253  -1.06837  -1.05796  -1.01120  -1.00198
 Alpha  occ. eigenvalues --   -0.95705  -0.91074  -0.86409  -0.85866  -0.83806
 Alpha  occ. eigenvalues --   -0.78390  -0.76010  -0.74376  -0.69576  -0.69307
 Alpha  occ. eigenvalues --   -0.68593  -0.68245  -0.68134  -0.64583  -0.64151
 Alpha  occ. eigenvalues --   -0.63168  -0.62001  -0.59921  -0.59522  -0.59144
 Alpha  occ. eigenvalues --   -0.56924  -0.55262  -0.54901  -0.52356  -0.46492
 Alpha  occ. eigenvalues --   -0.46046  -0.44406
 Alpha virt. eigenvalues --   -0.26071  -0.14789  -0.14126  -0.12902  -0.11177
 Alpha virt. eigenvalues --   -0.10081  -0.09214  -0.08004  -0.07932  -0.07469
 Alpha virt. eigenvalues --   -0.07217  -0.07146  -0.05646  -0.05582  -0.05353
 Alpha virt. eigenvalues --   -0.03794  -0.03644  -0.03283  -0.03134  -0.02158
 Alpha virt. eigenvalues --   -0.01359  -0.00912   0.00191   0.00639   0.00700
 Alpha virt. eigenvalues --    0.01044   0.01513   0.01900   0.02204   0.02294
 Alpha virt. eigenvalues --    0.02428   0.02630   0.02719   0.03287   0.03392
 Alpha virt. eigenvalues --    0.04249   0.04500   0.04687   0.04974   0.05357
 Alpha virt. eigenvalues --    0.06022   0.06287   0.06598   0.07037   0.07224
 Alpha virt. eigenvalues --    0.07864   0.08066   0.08357   0.08490   0.08934
 Alpha virt. eigenvalues --    0.09560   0.09574   0.10030   0.10809   0.11008
 Alpha virt. eigenvalues --    0.11117   0.12217   0.12270   0.12883   0.13030
 Alpha virt. eigenvalues --    0.13402   0.13534   0.14027   0.14272   0.16061
 Alpha virt. eigenvalues --    0.16337   0.16557   0.17387   0.17553   0.17693
 Alpha virt. eigenvalues --    0.18097   0.18957   0.19178   0.19595   0.19715
 Alpha virt. eigenvalues --    0.21472   0.21505   0.22709   0.23129   0.23560
 Alpha virt. eigenvalues --    0.23570   0.24551   0.25009   0.26857   0.27499
 Alpha virt. eigenvalues --    0.28834   0.29285   0.29829   0.31235   0.35806
 Alpha virt. eigenvalues --    0.36260   0.38020   0.39171   0.41161   0.41470
 Alpha virt. eigenvalues --    0.41942   0.42328   0.43023   0.43575   0.44271
 Alpha virt. eigenvalues --    0.44760   0.44847   0.45611   0.46067   0.47926
 Alpha virt. eigenvalues --    0.48592   0.48901   0.49063   0.50456   0.51167
 Alpha virt. eigenvalues --    0.51443   0.51453   0.52124   0.52615   0.54000
 Alpha virt. eigenvalues --    0.54117   0.54524   0.55734   0.55760   0.57443
 Alpha virt. eigenvalues --    0.58197   0.58778   0.61393   0.62089   0.62320
 Alpha virt. eigenvalues --    0.63013   0.63593   0.64637   0.65135   0.67109
 Alpha virt. eigenvalues --    0.70418   0.70603   0.70970   0.72235   0.72772
 Alpha virt. eigenvalues --    0.75688   0.75722   0.76184   0.76698   0.76985
 Alpha virt. eigenvalues --    0.77567   0.77731   0.78143   0.80344   0.80407
 Alpha virt. eigenvalues --    0.81177   0.81559   0.82066   0.82885   0.84954
 Alpha virt. eigenvalues --    0.86911   0.87615   0.88080   0.89512   0.90445
 Alpha virt. eigenvalues --    0.90780   0.91413   0.93076   0.94682   0.96408
 Alpha virt. eigenvalues --    0.96680   1.00467   1.01282   1.01568   1.02622
 Alpha virt. eigenvalues --    1.03047   1.03876   1.04525   1.05760   1.08765
 Alpha virt. eigenvalues --    1.19760   1.23333   1.24075   1.25334   1.27966
 Alpha virt. eigenvalues --    1.29347   1.32031   1.33847   1.35487   1.35928
 Alpha virt. eigenvalues --    1.39135   1.40200   1.40631   1.42833   1.43200
 Alpha virt. eigenvalues --    1.43398   1.45047   1.45109   1.46460   1.46756
 Alpha virt. eigenvalues --    1.47572   1.47668   1.51622   1.53592   1.55590
 Alpha virt. eigenvalues --    1.56028   1.56050   1.56416   1.57635   1.61273
 Alpha virt. eigenvalues --    1.63414   1.63890   1.64013   1.65996   1.68056
 Alpha virt. eigenvalues --    1.68480   1.68610   1.69700   1.74061   1.75937
 Alpha virt. eigenvalues --    1.77058   1.77915   1.79682   1.79975   1.80281
 Alpha virt. eigenvalues --    1.83101   1.83164   1.83439   1.83603   1.84073
 Alpha virt. eigenvalues --    1.84300   1.85792   1.85838   1.88119   1.91480
 Alpha virt. eigenvalues --    1.91811   1.94129   1.95239   1.97466   1.97769
 Alpha virt. eigenvalues --    1.99380   2.02401   2.04121   2.07514   2.11662
 Alpha virt. eigenvalues --    2.11919   2.13745   2.15127   2.18620   2.21046
 Alpha virt. eigenvalues --    2.22313   2.28424   2.29757   2.34446   2.35223
 Alpha virt. eigenvalues --    2.36041   2.39086   2.40177   2.42013   2.42902
 Alpha virt. eigenvalues --    2.46117   2.47931   2.48830   2.52645   2.53759
 Alpha virt. eigenvalues --    2.54162   2.56875   2.57773   2.58273   2.59640
 Alpha virt. eigenvalues --    2.59669   2.61662   2.61784   2.63332   2.63783
 Alpha virt. eigenvalues --    2.64490   2.64700   2.65010   2.65219   2.67824
 Alpha virt. eigenvalues --    2.68766   2.70872   2.71360   2.73352   2.74811
 Alpha virt. eigenvalues --    2.76248   2.78404   2.79573   2.82431   2.82921
 Alpha virt. eigenvalues --    2.84413   2.86269   2.92051   2.96699   2.99368
 Alpha virt. eigenvalues --    2.99739   3.05580   3.10362   3.10818   3.12045
 Alpha virt. eigenvalues --    3.20967   3.23625   3.26130   3.27830   3.30373
 Alpha virt. eigenvalues --    3.31812   3.33079   3.43336   3.45236   3.45804
 Alpha virt. eigenvalues --    3.47726   3.49526   3.56271   3.65420   3.67259
 Alpha virt. eigenvalues --    3.67483   3.94453   3.95270   3.95759   3.96695
 Alpha virt. eigenvalues --    4.04456   4.07050   4.07053   4.12472   4.35637
 Alpha virt. eigenvalues --    4.61512   4.69136   4.70860  23.45534  23.61259
 Alpha virt. eigenvalues --   23.81719  23.85972  23.87376  23.89091  23.90448
 Alpha virt. eigenvalues --   23.92198  23.96983  23.98042  23.98169  23.99372
 Alpha virt. eigenvalues --   24.09635  24.09753
          Condensed to atoms (all electrons):
               1          2          3          4          5          6
     1  C    8.428817   0.430637  -0.564473   1.797231  -0.003838  -0.089707
     2  C    0.430637   7.002908   0.358262  -0.944555  -0.029724  -0.014115
     3  C   -0.564473   0.358262   6.572203   0.670973  -0.117654   0.016432
     4  C    1.797231  -0.944555   0.670973  10.653396  -0.203489  -0.117654
     5  C   -0.003838  -0.029724  -0.117654  -0.203489  10.653396   0.670973
     6  C   -0.089707  -0.014115   0.016432  -0.117654   0.670973   6.572203
     7  C   -0.025991   0.004064  -0.014115  -0.029724  -0.944555   0.358262
     8  C    0.392361  -0.025991  -0.089707  -0.003838   1.797231  -0.564473
     9  C   -1.258680  -0.722417   0.289314  -0.307878  -0.307878   0.289314
    10  C   -1.189463   0.212118  -0.342430  -2.453619  -2.453619  -0.342430
    11  C    0.240108  -0.933155   1.062210  -0.481650  -1.557930  -0.152485
    12  C   -1.728770   1.200238  -1.355437  -1.160714  -0.235921  -0.208225
    13  C    0.134050  -0.218663  -0.152485  -1.557930  -0.481650   1.062210
    14  C   -1.038897  -0.202145  -0.208225  -0.235921  -1.160714  -1.355437
    15  H    0.362478  -0.103522  -0.000615   0.026109   0.005592   0.001108
    16  H   -0.020692   0.379676  -0.017967   0.013517  -0.001492  -0.000317
    17  H   -0.021891  -0.019611   0.379317  -0.063989   0.000082   0.000385
    18  H    0.046896   0.005760  -0.089456   0.449411   0.009115  -0.004861
    19  H   -0.046140  -0.008231   0.051978  -0.075129  -0.075129   0.051978
    20  H    0.007286   0.001831  -0.004861   0.009115   0.449411  -0.089456
    21  H   -0.001287  -0.000380   0.000385   0.000082  -0.063989   0.379317
    22  H    0.000663   0.000352  -0.000317  -0.001492   0.013517  -0.017967
    23  H    0.005670  -0.002639   0.001108   0.005592   0.026109  -0.000615
    24  H    0.022350   0.015082  -0.001736  -0.012894  -0.012894  -0.001736
    25  H    0.041707   0.013354  -0.000990  -0.012484  -0.012484  -0.000990
               7          8          9         10         11         12
     1  C   -0.025991   0.392361  -1.258680  -1.189463   0.240108  -1.728770
     2  C    0.004064  -0.025991  -0.722417   0.212118  -0.933155   1.200238
     3  C   -0.014115  -0.089707   0.289314  -0.342430   1.062210  -1.355437
     4  C   -0.029724  -0.003838  -0.307878  -2.453619  -0.481650  -1.160714
     5  C   -0.944555   1.797231  -0.307878  -2.453619  -1.557930  -0.235921
     6  C    0.358262  -0.564473   0.289314  -0.342430  -0.152485  -0.208225
     7  C    7.002908   0.430637  -0.722417   0.212118  -0.218663  -0.202145
     8  C    0.430637   8.428817  -1.258680  -1.189463   0.134050  -1.038897
     9  C   -0.722417  -1.258680   9.300316   0.294120   1.642598  -1.745588
    10  C    0.212118  -1.189463   0.294120   9.095997  -0.408960   2.202617
    11  C   -0.218663   0.134050   1.642598  -0.408960  14.442989  -3.660448
    12  C   -0.202145  -1.038897  -1.745588   2.202617  -3.660448  15.468325
    13  C   -0.933155   0.240108   1.642598  -0.408960   1.239203  -4.771614
    14  C    1.200238  -1.728770  -1.745588   2.202617  -4.771614   2.793589
    15  H   -0.002639   0.005670   0.089126  -0.009620  -0.025412  -0.023265
    16  H    0.000352   0.000663   0.003676  -0.009696   0.026430  -0.031517
    17  H   -0.000380  -0.001287  -0.004755   0.019664  -0.025361   0.084230
    18  H    0.001831   0.007286  -0.025876   0.019926  -0.016664  -0.044081
    19  H   -0.008231  -0.046140   0.074046   0.422846   0.084155  -0.067555
    20  H    0.005760   0.046896  -0.025876   0.019926  -0.012380  -0.010015
    21  H   -0.019611  -0.021891  -0.004755   0.019664  -0.005934   0.004778
    22  H    0.379676  -0.020692   0.003676  -0.009696   0.002798  -0.008773
    23  H   -0.103522   0.362478   0.089126  -0.009620   0.000790   0.006412
    24  H    0.015082   0.022350   0.366732   0.006230   0.007040  -0.047065
    25  H    0.013354   0.041707   0.348623   0.005312   0.019669  -0.072483
              13         14         15         16         17         18
     1  C    0.134050  -1.038897   0.362478  -0.020692  -0.021891   0.046896
     2  C   -0.218663  -0.202145  -0.103522   0.379676  -0.019611   0.005760
     3  C   -0.152485  -0.208225  -0.000615  -0.017967   0.379317  -0.089456
     4  C   -1.557930  -0.235921   0.026109   0.013517  -0.063989   0.449411
     5  C   -0.481650  -1.160714   0.005592  -0.001492   0.000082   0.009115
     6  C    1.062210  -1.355437   0.001108  -0.000317   0.000385  -0.004861
     7  C   -0.933155   1.200238  -0.002639   0.000352  -0.000380   0.001831
     8  C    0.240108  -1.728770   0.005670   0.000663  -0.001287   0.007286
     9  C    1.642598  -1.745588   0.089126   0.003676  -0.004755  -0.025876
    10  C   -0.408960   2.202617  -0.009620  -0.009696   0.019664   0.019926
    11  C    1.239203  -4.771614  -0.025412   0.026430  -0.025361  -0.016664
    12  C   -4.771614   2.793589  -0.023265  -0.031517   0.084230  -0.044081
    13  C   14.442989  -3.660448   0.000790   0.002798  -0.005934  -0.012380
    14  C   -3.660448  15.468325   0.006412  -0.008773   0.004778  -0.010015
    15  H    0.000790   0.006412   0.439793  -0.009010   0.001540   0.000136
    16  H    0.002798  -0.008773  -0.009010   0.419906  -0.006863   0.001953
    17  H   -0.005934   0.004778   0.001540  -0.006863   0.424124  -0.010445
    18  H   -0.012380  -0.010015   0.000136   0.001953  -0.010445   0.453883
    19  H    0.084155  -0.067555   0.000324  -0.000564   0.001466  -0.006402
    20  H   -0.016664  -0.044081  -0.000122   0.000015  -0.000147   0.001307
    21  H   -0.025361   0.084230   0.000016  -0.000007   0.000011  -0.000147
    22  H    0.026430  -0.031517  -0.000127   0.000007  -0.000007   0.000015
    23  H   -0.025412  -0.023265   0.000577  -0.000127   0.000016  -0.000122
    24  H    0.007040  -0.047065  -0.001342   0.000725  -0.000182   0.000159
    25  H    0.019669  -0.072483  -0.000506   0.000516  -0.000107   0.000205
              19         20         21         22         23         24
     1  C   -0.046140   0.007286  -0.001287   0.000663   0.005670   0.022350
     2  C   -0.008231   0.001831  -0.000380   0.000352  -0.002639   0.015082
     3  C    0.051978  -0.004861   0.000385  -0.000317   0.001108  -0.001736
     4  C   -0.075129   0.009115   0.000082  -0.001492   0.005592  -0.012894
     5  C   -0.075129   0.449411  -0.063989   0.013517   0.026109  -0.012894
     6  C    0.051978  -0.089456   0.379317  -0.017967  -0.000615  -0.001736
     7  C   -0.008231   0.005760  -0.019611   0.379676  -0.103522   0.015082
     8  C   -0.046140   0.046896  -0.021891  -0.020692   0.362478   0.022350
     9  C    0.074046  -0.025876  -0.004755   0.003676   0.089126   0.366732
    10  C    0.422846   0.019926   0.019664  -0.009696  -0.009620   0.006230
    11  C    0.084155  -0.012380  -0.005934   0.002798   0.000790   0.007040
    12  C   -0.067555  -0.010015   0.004778  -0.008773   0.006412  -0.047065
    13  C    0.084155  -0.016664  -0.025361   0.026430  -0.025412   0.007040
    14  C   -0.067555  -0.044081   0.084230  -0.031517  -0.023265  -0.047065
    15  H    0.000324  -0.000122   0.000016  -0.000127   0.000577  -0.001342
    16  H   -0.000564   0.000015  -0.000007   0.000007  -0.000127   0.000725
    17  H    0.001466  -0.000147   0.000011  -0.000007   0.000016  -0.000182
    18  H   -0.006402   0.001307  -0.000147   0.000015  -0.000122   0.000159
    19  H    0.445309  -0.006402   0.001466  -0.000564   0.000324   0.000625
    20  H   -0.006402   0.453883  -0.010445   0.001953   0.000136   0.000159
    21  H    0.001466  -0.010445   0.424124  -0.006863   0.001540  -0.000182
    22  H   -0.000564   0.001953  -0.006863   0.419906  -0.009010   0.000725
    23  H    0.000324   0.000136   0.001540  -0.009010   0.439793  -0.001342
    24  H    0.000625   0.000159  -0.000182   0.000725  -0.001342   0.492358
    25  H    0.000594   0.000205  -0.000107   0.000516  -0.000506  -0.078938
              25
     1  C    0.041707
     2  C    0.013354
     3  C   -0.000990
     4  C   -0.012484
     5  C   -0.012484
     6  C   -0.000990
     7  C    0.013354
     8  C    0.041707
     9  C    0.348623
    10  C    0.005312
    11  C    0.019669
    12  C   -0.072483
    13  C    0.019669
    14  C   -0.072483
    15  H   -0.000506
    16  H    0.000516
    17  H   -0.000107
    18  H    0.000205
    19  H    0.000594
    20  H    0.000205
    21  H   -0.000107
    22  H    0.000516
    23  H   -0.000506
    24  H   -0.078938
    25  H    0.492503
 Mulliken charges:
               1
     1  C    0.079575
     2  C   -0.399135
     3  C   -0.441713
     4  C    0.037532
     5  C    0.037532
     6  C   -0.441713
     7  C   -0.399135
     8  C    0.079575
     9  C   -0.302875
    10  C    0.094423
    11  C   -0.631383
    12  C    0.652322
    13  C   -0.631383
    14  C    0.652322
    15  H    0.236509
    16  H    0.256790
    17  H    0.245346
    18  H    0.222566
    19  H    0.188775
    20  H    0.222566
    21  H    0.245346
    22  H    0.256790
    23  H    0.236509
    24  H    0.248719
    25  H    0.254144
 Sum of Mulliken charges =   1.00000
 Mulliken charges with hydrogens summed into heavy atoms:
               1
     1  C    0.316083
     2  C   -0.142345
     3  C   -0.196368
     4  C    0.260098
     5  C    0.260098
     6  C   -0.196368
     7  C   -0.142345
     8  C    0.316083
     9  C    0.199987
    10  C    0.283198
    11  C   -0.631383
    12  C    0.652322
    13  C   -0.631383
    14  C    0.652322
 Electronic spatial extent (au):  <R**2>=           2863.8033
 Charge=              1.0000 electrons
 Dipole moment (field-independent basis, Debye):
    X=             -0.1909    Y=              0.0009    Z=             -0.0000  Tot=              0.1909
 Quadrupole moment (field-independent basis, Debye-Ang):
   XX=            -56.2606   YY=            -84.2066   ZZ=            -30.9422
   XY=             -0.0963   XZ=              0.0000   YZ=              0.0000
 Traceless Quadrupole moment (field-independent basis, Debye-Ang):
   XX=              0.8759   YY=            -27.0701   ZZ=             26.1943
   XY=             -0.0963   XZ=              0.0000   YZ=              0.0000
 Octapole moment (field-independent basis, Debye-Ang**2):
  XXX=             -5.2052  YYY=             -0.0245  ZZZ=             -0.0000  XYY=              3.0867
  XXY=              0.1146  XXZ=             -0.0000  XZZ=              4.5356  YZZ=              0.1779
  YYZ=             -0.0000  XYZ=             -0.0000
 Hexadecapole moment (field-independent basis, Debye-Ang**3):
 XXXX=           -609.3313 YYYY=            -99.5728 ZZZZ=          -2125.6164 XXXY=             -1.0613
 XXXZ=             -0.0000 YYYX=             -0.0405 YYYZ=             -0.0000 ZZZX=              0.0000
 ZZZY=              0.0000 XXYY=           -145.7894 XXZZ=           -509.1021 YYZZ=           -592.9505
 XXYZ=              0.0000 YYXZ=              0.0000 ZZXY=             -1.0457
 N-N= 7.802595469220D+02 E-N=-2.796807685682D+03  KE= 5.374477368194D+02
 Symmetry A'   KE= 3.037551404585D+02
 Symmetry A"   KE= 2.336925963608D+02
 Unable to Open any file for archive entry.
 1\1\GINC-GADI-CPU-CLX-0113\SP\RM062X TD-FC\6-311++G(d,p)\C14H11(1+)\TS
 1578\28-Jul-2022\0\\#n M062X/6-311++G(d,p) TD(NStates=1) EmpiricalDisp
 ersion=GD3 SP\\SP_-50\\1,1\C,0,0.0137,2.492055,1.360431\C,0,0.01645,3.
 708558,0.671989\C,0,0.0046,3.696261,-0.71383\C,0,-0.0156,2.472256,-1.4
 07538\C,0,-0.0156,-2.472256,-1.407538\C,0,0.0046,-3.696261,-0.71383\C,
 0,0.01645,-3.708558,0.671989\C,0,0.0137,-2.492055,1.360431\C,0,0.00875
 ,0.,1.453369\C,0,-0.0244,0.,-1.429189\C,0,-0.00365,1.254405,0.677065\C
 ,0,-0.01,1.238671,-0.730804\C,0,-0.00365,-1.254405,0.677065\C,0,-0.01,
 -1.238671,-0.730804\H,0,0.0042,2.487621,2.443647\H,0,0.01665,4.642503,
 1.211689\H,0,-0.0029,4.608812,-1.272349\H,0,-0.0073,2.4764,-2.490059\H
 ,0,-0.0225,0.,-2.510266\H,0,-0.0073,-2.4764,-2.490059\H,0,-0.0029,-4.6
 08812,-1.272349\H,0,0.01665,-4.642503,1.211689\H,0,0.0042,-2.487621,2.
 443647\H,0,-0.827585,0.,2.145787\H,0,0.891585,0.,2.145787\\Version=ES6
 4L-G16RevC.01\State=1-A'\HF=-539.7587194\RMSD=4.694e-09\PG=CS [SG(C2H3
 ),X(C12H8)]\\@
 The archive entry for this job was punched.


 ALL SCIENCE IS EITHER PHYSICS, OR STAMP COLLECTING.
   --ERNEST RUTHERFORD, 1871-1937.
 Job cpu time:       0 days  0 hours 42 minutes  6.5 seconds.
 Elapsed time:       0 days  0 hours  0 minutes 52.7 seconds.
 File lengths (MBytes):  RWF=    460 Int=      0 D2E=      0 Chk=     15 Scr=      1
 Normal termination of Gaussian 16 at Thu Jul 28 14:28:55 2022.
