 Entering Gaussian System, Link 0=g16
 Initial command:
 /apps/gaussian/g16c01/g16/l1.exe "/jobfs/53002009.gadi-pbs/Gau-738932.inp" -scrdir="/jobfs/53002009.gadi-pbs/"
 Entering Link 1 = /apps/gaussian/g16c01/g16/l1.exe PID=    738933.
  
 Copyright (c) 1988-2019, Gaussian, Inc.  All Rights Reserved.
  
 This is part of the Gaussian(R) 16 program.  It is based on
 the Gaussian(R) 09 system (copyright 2009, Gaussian, Inc.),
 the Gaussian(R) 03 system (copyright 2003, Gaussian, Inc.),
 the Gaussian(R) 98 system (copyright 1998, Gaussian, Inc.),
 the Gaussian(R) 94 system (copyright 1995, Gaussian, Inc.),
 the Gaussian 92(TM) system (copyright 1992, Gaussian, Inc.),
 the Gaussian 90(TM) system (copyright 1990, Gaussian, Inc.),
 the Gaussian 88(TM) system (copyright 1988, Gaussian, Inc.),
 the Gaussian 86(TM) system (copyright 1986, Carnegie Mellon
 University), and the Gaussian 82(TM) system (copyright 1983,
 Carnegie Mellon University). Gaussian is a federally registered
 trademark of Gaussian, Inc.
  
 This software contains proprietary and confidential information,
 including trade secrets, belonging to Gaussian, Inc.
  
 This software is provided under written license and may be
 used, copied, transmitted, or stored only in accord with that
 written license.
  
 The following legend is applicable only to US Government
 contracts under FAR:
  
                    RESTRICTED RIGHTS LEGEND
  
 Use, reproduction and disclosure by the US Government is
 subject to restrictions as set forth in subparagraphs (a)
 and (c) of the Commercial Computer Software - Restricted
 Rights clause in FAR 52.227-19.
  
 Gaussian, Inc.
 340 Quinnipiac St., Bldg. 40, Wallingford CT 06492
  
  
 ---------------------------------------------------------------
 Warning -- This program may not be used in any manner that
 competes with the business of Gaussian, Inc. or will provide
 assistance to any competitor of Gaussian, Inc.  The licensee
 of this program is prohibited from giving any competitor of
 Gaussian, Inc. access to this program.  By using this program,
 the user acknowledges that Gaussian, Inc. is engaged in the
 business of creating and licensing software in the field of
 computational chemistry and represents and warrants to the
 licensee that it is not a competitor of Gaussian, Inc. and that
 it will not use this program in any manner prohibited above.
 ---------------------------------------------------------------
  

 Cite this work as:
 Gaussian 16, Revision C.01,
 M. J. Frisch, G. W. Trucks, H. B. Schlegel, G. E. Scuseria, 
 M. A. Robb, J. R. Cheeseman, G. Scalmani, V. Barone, 
 G. A. Petersson, H. Nakatsuji, X. Li, M. Caricato, A. V. Marenich, 
 J. Bloino, B. G. Janesko, R. Gomperts, B. Mennucci, H. P. Hratchian, 
 J. V. Ortiz, A. F. Izmaylov, J. L. Sonnenberg, D. Williams-Young, 
 F. Ding, F. Lipparini, F. Egidi, J. Goings, B. Peng, A. Petrone, 
 T. Henderson, D. Ranasinghe, V. G. Zakrzewski, J. Gao, N. Rega, 
 G. Zheng, W. Liang, M. Hada, M. Ehara, K. Toyota, R. Fukuda, 
 J. Hasegawa, M. Ishida, T. Nakajima, Y. Honda, O. Kitao, H. Nakai, 
 T. Vreven, K. Throssell, J. A. Montgomery, Jr., J. E. Peralta, 
 F. Ogliaro, M. J. Bearpark, J. J. Heyd, E. N. Brothers, K. N. Kudin, 
 V. N. Staroverov, T. A. Keith, R. Kobayashi, J. Normand, 
 K. Raghavachari, A. P. Rendell, J. C. Burant, S. S. Iyengar, 
 J. Tomasi, M. Cossi, J. M. Millam, M. Klene, C. Adamo, R. Cammi, 
 J. W. Ochterski, R. L. Martin, K. Morokuma, O. Farkas, 
 J. B. Foresman, and D. J. Fox, Gaussian, Inc., Wallingford CT, 2019.
 
 ******************************************
 Gaussian 16:  ES64L-G16RevC.01  3-Jul-2019
                28-Jul-2022 
 ******************************************
 %NProcShared=48
 Will use up to   48 processors via shared memory.
 %mem = 190GB
 ---------------------------------------------------------------
 #n M062X/6-311++G(d,p) TD(NStates=1) EmpiricalDispersion=GD3 SP
 ---------------------------------------------------------------
 1/38=1,172=1/1;
 2/12=2,17=6,18=5,40=1/2;
 3/5=4,6=6,7=1111,11=9,25=1,30=1,74=-55,124=31/1,2,3,8;
 4//1;
 5/5=2,38=5/2;
 8/6=1,10=2,108=1/1;
 9/41=1,42=1,70=2/14;
 6/7=2,8=2,9=2,10=2/1;
 99/5=1,9=1/99;
 ------
 SP_-75
 ------
 Symbolic Z-matrix:
 Charge =  1 Multiplicity = 1
 C                     0.02055   2.49176   1.36043 
 C                     0.02468   3.71208   0.67199 
 C                     0.0069    3.70246  -0.71383 
 C                    -0.0234    2.47681  -1.40754 
 C                    -0.0234   -2.47681  -1.40754 
 C                     0.0069   -3.70246  -0.71383 
 C                     0.02468  -3.71208   0.67199 
 C                     0.02055  -2.49176   1.36043 
 C                     0.01313   0.        1.45337 
 C                    -0.0366    0.       -1.42919 
 C                    -0.00548   1.25058   0.67707 
 C                    -0.015     1.23927  -0.7308 
 C                    -0.00548  -1.25058   0.67707 
 C                    -0.015    -1.23927  -0.7308 
 H                     0.0063    2.4874    2.44365 
 H                     0.02498   4.64538   1.21169 
 H                    -0.00435   4.60859  -1.27235 
 H                    -0.01095   2.48083  -2.49006 
 H                    -0.03375   0.       -2.51027 
 H                    -0.01095  -2.48083  -2.49006 
 H                    -0.00435  -4.60859  -1.27235 
 H                     0.02498  -4.64538   1.21169 
 H                     0.0063   -2.4874    2.44365 
 H                    -0.81159   0.        2.14579 
 H                     0.90759   0.        2.14579 
 
                          Input orientation:                          
 ---------------------------------------------------------------------
 Center     Atomic      Atomic             Coordinates (Angstroms)
 Number     Number       Type             X           Y           Z
 ---------------------------------------------------------------------
      1          6           0        0.020550    2.491755    1.360431
      2          6           0        0.024675    3.712083    0.671989
      3          6           0        0.006900    3.702461   -0.713830
      4          6           0       -0.023400    2.476806   -1.407538
      5          6           0       -0.023400   -2.476806   -1.407538
      6          6           0        0.006900   -3.702461   -0.713830
      7          6           0        0.024675   -3.712083    0.671989
      8          6           0        0.020550   -2.491755    1.360431
      9          6           0        0.013125    0.000000    1.453369
     10          6           0       -0.036600    0.000000   -1.429189
     11          6           0       -0.005475    1.250580    0.677065
     12          6           0       -0.015000    1.239271   -0.730804
     13          6           0       -0.005475   -1.250580    0.677065
     14          6           0       -0.015000   -1.239271   -0.730804
     15          1           0        0.006300    2.487396    2.443647
     16          1           0        0.024975    4.645378    1.211689
     17          1           0       -0.004350    4.608587   -1.272349
     18          1           0       -0.010950    2.480825   -2.490059
     19          1           0       -0.033750    0.000000   -2.510266
     20          1           0       -0.010950   -2.480825   -2.490059
     21          1           0       -0.004350   -4.608587   -1.272349
     22          1           0        0.024975   -4.645378    1.211689
     23          1           0        0.006300   -2.487396    2.443647
     24          1           0       -0.811585    0.000000    2.145787
     25          1           0        0.907585    0.000000    2.145787
 ---------------------------------------------------------------------
                    Distance matrix (angstroms):
                    1          2          3          4          5
     1  C    0.000000
     2  C    1.401132   0.000000
     3  C    2.401781   1.385966   0.000000
     4  C    2.768358   2.419226   1.408680   0.000000
     5  C    5.687722   6.529096   6.218158   4.953612   0.000000
     6  C    6.532309   7.542962   7.404922   6.218158   1.408680
     7  C    6.241921   7.424166   7.542962   6.529096   2.419226
     8  C    4.983510   6.241921   6.532309   5.687722   2.768358
     9  C    2.493499   3.793448   4.290106   3.784269   3.784269
    10  C    3.740867   4.265942   3.771187   2.476936   2.476936
    11  C    1.417103   2.461693   2.818947   2.418578   4.270749
    12  C    2.437877   2.843273   2.463346   1.410508   3.777204
    13  C    3.804305   4.962757   5.144644   4.270749   2.418578
    14  C    4.277275   5.146388   4.941810   3.777204   1.410508
    15  H    1.083318   2.153826   3.383200   3.851314   6.282978
    16  H    2.158758   1.078107   2.144071   3.400793   7.588689
    17  H    3.378332   2.141264   1.064488   2.136148   7.086708
    18  H    3.850634   3.393496   2.155853   1.082600   5.074457
    19  H    4.603704   4.889757   4.115465   2.711215   2.711215
    20  H    6.289183   6.953555   6.433377   5.074457   1.082600
    21  H    7.572781   8.544872   8.329801   7.086708   2.136148
    22  H    7.138684   8.374869   8.567051   7.588689   3.400793
    23  H    5.095636   6.447686   6.948668   6.282978   3.851314
    24  H    2.741911   4.080560   4.749268   4.402490   4.402490
    25  H    2.759068   4.090375   4.764122   4.430284   4.430284
                    6          7          8          9         10
     6  C    0.000000
     7  C    1.385966   0.000000
     8  C    2.401781   1.401132   0.000000
     9  C    4.290106   3.793448   2.493499   0.000000
    10  C    3.771187   4.265942   3.740867   2.882987   0.000000
    11  C    5.144644   4.962757   3.804305   1.472054   2.449740
    12  C    4.941810   5.146388   4.277275   2.511413   1.422674
    13  C    2.818947   2.461693   1.417103   1.472054   2.449740
    14  C    2.463346   2.843273   2.437877   2.511413   1.422674
    15  H    6.948668   6.447686   5.095636   2.677281   4.603025
    16  H    8.567051   8.374869   7.138684   4.651676   5.343928
    17  H    8.329801   8.544872   7.572781   5.354336   4.611368
    18  H    6.433377   6.953555   6.289183   4.658937   2.698258
    19  H    4.115465   4.889757   4.603704   3.963912   1.081081
    20  H    2.155853   3.393496   3.850634   4.658937   2.698258
    21  H    1.064488   2.141264   3.378332   5.354336   4.611368
    22  H    2.144071   1.078107   2.158758   4.651676   5.343928
    23  H    3.383200   2.153826   1.083318   2.677281   4.603025
    24  H    4.749268   4.080560   2.741911   1.076842   3.658012
    25  H    4.764122   4.090375   2.759068   1.131150   3.697558
                   11         12         13         14         15
    11  C    0.000000
    12  C    1.407947   0.000000
    13  C    2.501160   2.860340   0.000000
    14  C    2.860340   2.478542   1.407947   0.000000
    15  H    2.156540   3.411072   4.134418   4.895471   0.000000
    16  H    3.436772   3.921281   5.920226   6.197094   2.484946
    17  H    3.882838   3.412576   6.174954   5.872889   4.278807
    18  H    3.397677   2.153242   4.894291   4.115107   4.933741
    19  H    3.424008   2.168555   3.424008   2.168555   5.543464
    20  H    4.894291   4.115107   3.397677   2.153242   7.001784
    21  H    6.174954   5.872889   3.882838   3.412576   8.010101
    22  H    5.920226   6.197094   3.436772   3.921281   7.238407
    23  H    4.134418   4.895471   2.156540   3.411072   4.974792
    24  H    2.090672   3.231890   2.090672   3.231890   2.635298
    25  H    2.134191   3.265231   2.134191   3.265231   2.662363
                   16         17         18         19         20
    16  H    0.000000
    17  H    2.484484   0.000000
    18  H    4.288300   2.451578   0.000000
    19  H    5.952809   4.772041   2.481012   0.000000
    20  H    8.030380   7.193235   4.961650   2.481012   0.000000
    21  H    9.581606   9.217174   7.193235   4.772041   2.451578
    22  H    9.290756   9.581606   8.030380   5.952809   4.288300
    23  H    7.238407   8.010101   7.001784   5.543464   4.933741
    24  H    4.811643   5.794338   5.318513   4.720578   5.318513
    25  H    4.819863   5.809850   5.337534   4.750257   5.337534
                   21         22         23         24         25
    21  H    0.000000
    22  H    2.484484   0.000000
    23  H    4.278807   2.484946   0.000000
    24  H    5.794338   4.811643   2.635298   0.000000
    25  H    5.809850   4.819863   2.662363   1.719170   0.000000
 Stoichiometry    C14H11(1+)
 Framework group  CS[SG(C2H3),X(C12H8)]
 Deg. of freedom    37
 Full point group                 CS      NOp   2
 Largest Abelian subgroup         CS      NOp   2
 Largest concise Abelian subgroup CS      NOp   2
                         Standard orientation:                         
 ---------------------------------------------------------------------
 Center     Atomic      Atomic             Coordinates (Angstroms)
 Number     Number       Type             X           Y           Z
 ---------------------------------------------------------------------
      1          6           0        1.360576    0.002039    2.491755
      2          6           0        0.672249    0.015251    3.712083
      3          6           0       -0.713684    0.015771    3.702461
      4          6           0       -1.407732   -0.005369    2.476806
      5          6           0       -1.407732   -0.005369   -2.476806
      6          6           0       -0.713684    0.015771   -3.702461
      7          6           0        0.672249    0.015251   -3.712083
      8          6           0        1.360576    0.002039   -2.491755
      9          6           0        1.453408   -0.006612   -0.000000
     10          6           0       -1.429555   -0.018282    0.000000
     11          6           0        0.676926   -0.014963    1.250580
     12          6           0       -0.730946   -0.005903    1.239271
     13          6           0        0.676926   -0.014963   -1.250580
     14          6           0       -0.730946   -0.005903   -1.239271
     15          1           0        2.443510   -0.026509    2.487396
     16          1           0        1.211906    0.008427    4.645378
     17          1           0       -1.272303    0.011895    4.608587
     18          1           0       -2.489994    0.021370    2.480825
     19          1           0       -2.510500   -0.001161    0.000000
     20          1           0       -2.489994    0.021370   -2.480825
     21          1           0       -1.272303    0.011895   -4.608587
     22          1           0        1.211906    0.008427   -4.645378
     23          1           0        2.443510   -0.026509   -2.487396
     24          1           0        2.134879   -0.840391   -0.000000
     25          1           0        2.157573    0.878630   -0.000000
 ---------------------------------------------------------------------
 Rotational constants (GHZ):           2.1355887           0.4421352           0.3671060
 Standard basis: 6-311++G(d,p) (5D, 7F)
 There are   218 symmetry adapted cartesian basis functions of A'  symmetry.
 There are   181 symmetry adapted cartesian basis functions of A"  symmetry.
 There are   210 symmetry adapted basis functions of A'  symmetry.
 There are   175 symmetry adapted basis functions of A"  symmetry.
   385 basis functions,   603 primitive gaussians,   399 cartesian basis functions
    47 alpha electrons       47 beta electrons
       nuclear repulsion energy       779.7812094888 Hartrees.
 NAtoms=   25 NActive=   25 NUniq=   15 SFac= 2.78D+00 NAtFMM=   60 NAOKFM=F Big=F
 Integral buffers will be    131072 words long.
 Regular integral format.
 Two-electron integral symmetry is turned on.
 Nuclear repulsion after empirical dispersion term =      779.7802294829 Hartrees.
 One-electron integrals computed using PRISM.
 NBasis=   385 RedAO= T EigKep=  1.29D-06  NBF=   210   175
 NBsUse=   379 1.00D-06 EigRej=  8.86D-07 NBFU=   207   172
 ExpMin= 3.60D-02 ExpMax= 4.56D+03 ExpMxC= 6.82D+02 IAcc=3 IRadAn=         5 AccDes= 0.00D+00
 Harris functional with IExCor= 1009 and IRadAn=       5 diagonalized for initial guess.
 HarFok:  IExCor= 1009 AccDes= 0.00D+00 IRadAn=         5 IDoV= 1 UseB2=F ITyADJ=14
 ICtDFT=  3500011 ScaDFX=  1.000000  1.000000  1.000000  1.000000
 FoFCou: FMM=F IPFlag=           0 FMFlag=      100000 FMFlg1=           0
         NFxFlg=           0 DoJE=T BraDBF=F KetDBF=T FulRan=T
         wScrn=  0.000000 ICntrl=       500 IOpCl=  0 I1Cent=   200000004 NGrid=           0
         NMat0=    1 NMatS0=      1 NMatT0=    0 NMatD0=    1 NMtDS0=    0 NMtDT0=    0
 Petite list used in FoFCou.
 Initial guess orbital symmetries:
       Occupied  (A') (A") (A') (A") (A') (A") (A') (A") (A') (A')
                 (A") (A') (A") (A') (A') (A") (A') (A') (A") (A")
                 (A') (A') (A") (A') (A") (A') (A") (A') (A') (A")
                 (A") (A') (A') (A") (A") (A') (A') (A') (A") (A")
                 (A') (A") (A') (A') (A") (A") (A')
       Virtual   (A') (A') (A") (A") (A') (A') (A") (A') (A') (A")
                 (A') (A") (A') (A") (A') (A') (A') (A") (A") (A")
                 (A') (A') (A') (A") (A') (A') (A") (A") (A') (A')
                 (A') (A") (A") (A") (A') (A') (A") (A') (A') (A')
                 (A') (A") (A") (A') (A') (A") (A') (A") (A") (A")
                 (A") (A") (A') (A') (A') (A') (A') (A') (A') (A")
                 (A") (A") (A') (A') (A') (A') (A") (A") (A') (A")
                 (A") (A') (A') (A") (A") (A') (A') (A') (A") (A')
                 (A") (A') (A") (A") (A') (A") (A') (A') (A') (A")
                 (A") (A') (A") (A') (A') (A") (A") (A') (A") (A')
                 (A") (A') (A') (A') (A') (A') (A") (A") (A") (A')
                 (A") (A') (A") (A') (A') (A') (A") (A") (A') (A')
                 (A") (A') (A") (A') (A') (A") (A") (A") (A') (A')
                 (A') (A") (A') (A') (A') (A") (A") (A') (A") (A')
                 (A") (A") (A') (A") (A') (A") (A") (A') (A") (A')
                 (A') (A") (A') (A") (A") (A") (A') (A') (A') (A")
                 (A') (A") (A') (A") (A') (A') (A") (A") (A') (A")
                 (A') (A') (A") (A') (A") (A') (A") (A") (A') (A')
                 (A') (A") (A') (A") (A") (A') (A") (A') (A") (A')
                 (A') (A") (A') (A') (A") (A') (A") (A') (A') (A")
                 (A') (A") (A') (A') (A") (A") (A") (A') (A') (A')
                 (A") (A") (A') (A') (A") (A") (A') (A") (A') (A")
                 (A') (A") (A') (A") (A') (A') (A") (A") (A") (A')
                 (A') (A") (A') (A") (A") (A') (A') (A") (A") (A')
                 (A') (A') (A") (A') (A") (A") (A') (A") (A') (A')
                 (A") (A') (A") (A') (A") (A') (A") (A') (A') (A')
                 (A") (A') (A') (A") (A') (A") (A') (A") (A') (A')
                 (A") (A") (A") (A') (A') (A') (A') (A") (A") (A')
                 (A") (A") (A') (A") (A') (A') (A") (A") (A') (A')
                 (A") (A') (A") (A') (A") (A') (A') (A') (A") (A")
                 (A') (A") (A') (A') (A") (A') (A') (A") (A') (A")
                 (A') (A') (A") (A') (A") (A") (A") (A') (A') (A")
                 (A') (A') (A") (A") (A') (A') (A") (A') (A") (A')
                 (A') (A")
 The electronic state of the initial guess is 1-A'.
 Requested convergence on RMS density matrix=1.00D-08 within 128 cycles.
 Requested convergence on MAX density matrix=1.00D-06.
 Requested convergence on             energy=1.00D-06.
 No special actions if energy rises.
 SCF Done:  E(RM062X) =  -539.757132854     A.U. after   15 cycles
            NFock= 15  Conv=0.49D-08     -V/T= 2.0044
 DoSCS=F DFT=T ScalE2(SS,OS)=  1.000000  1.000000
 ExpMin= 3.60D-02 ExpMax= 4.56D+03 ExpMxC= 6.82D+02 IAcc=3 IRadAn=         5 AccDes= 0.00D+00
 HarFok:  IExCor=  205 AccDes= 0.00D+00 IRadAn=         5 IDoV=-2 UseB2=F ITyADJ=14
 ICtDFT= 12500011 ScaDFX=  1.000000  1.000000  1.000000  1.000000
 Range of M.O.s used for correlation:    15   379
 NBasis=   385 NAE=    47 NBE=    47 NFC=    14 NFV=     0
 NROrb=    365 NOA=    33 NOB=    33 NVA=   332 NVB=   332

 **** Warning!!: The largest alpha MO coefficient is  0.14873816D+03

 Orbital symmetries:
       Occupied  (A') (A") (A') (A") (A') (A") (A') (A") (A') (A')
                 (A") (A') (A") (A') (A') (A") (A') (A') (A") (A")
                 (A') (A') (A') (A") (A") (A') (A") (A') (A') (A")
                 (A') (A") (A') (A") (A') (A") (A') (A') (A") (A')
                 (A") (A') (A") (A') (A") (A") (A')
       Virtual   (A') (A') (A") (A") (A') (A') (A") (A') (A') (A")
                 (A') (A') (A") (A') (A') (A") (A") (A') (A") (A')
                 (A') (A") (A') (A') (A") (A') (A') (A') (A") (A')
                 (A") (A") (A") (A") (A') (A") (A") (A') (A') (A')
                 (A") (A') (A") (A') (A') (A') (A") (A') (A') (A")
                 (A") (A') (A') (A') (A") (A') (A") (A') (A') (A")
                 (A') (A") (A") (A') (A') (A") (A') (A") (A') (A")
                 (A') (A") (A') (A') (A") (A') (A") (A") (A') (A")
                 (A') (A') (A") (A") (A') (A') (A") (A') (A") (A')
                 (A") (A') (A") (A') (A') (A') (A') (A") (A") (A')
                 (A") (A') (A") (A') (A') (A") (A') (A") (A') (A")
                 (A") (A') (A') (A") (A') (A") (A') (A") (A") (A')
                 (A') (A') (A") (A") (A') (A') (A') (A") (A') (A")
                 (A') (A") (A') (A') (A') (A") (A') (A") (A') (A")
                 (A") (A') (A") (A') (A") (A") (A") (A') (A") (A')
                 (A") (A') (A") (A') (A") (A') (A') (A") (A') (A')
                 (A") (A") (A') (A') (A") (A") (A") (A') (A') (A")
                 (A') (A') (A") (A') (A") (A') (A") (A") (A') (A')
                 (A') (A") (A') (A') (A") (A") (A") (A') (A") (A')
                 (A') (A") (A') (A') (A') (A") (A') (A") (A') (A")
                 (A') (A") (A') (A') (A") (A") (A") (A') (A') (A')
                 (A') (A") (A") (A") (A') (A") (A") (A') (A') (A")
                 (A') (A") (A') (A") (A') (A") (A') (A") (A") (A')
                 (A') (A') (A") (A") (A') (A") (A") (A') (A") (A')
                 (A') (A') (A") (A") (A") (A') (A') (A") (A') (A')
                 (A") (A") (A') (A') (A") (A') (A') (A") (A') (A")
                 (A') (A') (A') (A") (A') (A") (A') (A") (A') (A')
                 (A") (A") (A') (A') (A") (A') (A") (A') (A') (A")
                 (A") (A") (A') (A') (A') (A") (A") (A') (A') (A")
                 (A") (A') (A") (A') (A') (A") (A') (A') (A") (A")
                 (A') (A") (A') (A') (A") (A') (A') (A') (A") (A")
                 (A') (A") (A') (A') (A") (A") (A") (A') (A') (A")
                 (A') (A') (A") (A") (A') (A') (A") (A') (A") (A')
                 (A') (A")
     4 initial guesses have been made.
 Convergence on wavefunction:    0.001000000000000
 Iteration     1 Dimension     4 NMult     0 NNew      4
 CISAX will form     4 AO SS matrices at one time.
 Iteration     2 Dimension     6 NMult     4 NNew      2
 Iteration     3 Dimension     8 NMult     6 NNew      2
 Iteration     4 Dimension    10 NMult     8 NNew      2
 Iteration     5 Dimension    12 NMult    10 NNew      2
 Iteration     6 Dimension    14 NMult    12 NNew      2
 ***********************************************************************
 Excited states from <AA,BB:AA,BB> singles matrix:
 ***********************************************************************
 
 Ground to excited state transition densities written to RWF  633
 Ground to excited state transition electric dipole moments (Au):
       state          X           Y           Z        Dip. S.      Osc.
         1         0.6339      0.0059     -0.0000      0.4018      0.0275
 Ground to excited state transition velocity dipole moments (Au):
       state          X           Y           Z        Dip. S.      Osc.
         1        -0.0727     -0.0007      0.0000      0.0053      0.0343
 Ground to excited state transition magnetic dipole moments (Au):
       state          X           Y           Z
         1         0.0000     -0.0000      0.0078
 Ground to excited state transition velocity quadrupole moments (Au):
       state          XX          YY          ZZ          XY          XZ          YZ
         1         0.0310     -0.0095      0.3129     -0.0012     -0.0000     -0.0000
 <0|del|b> * <b|rxdel|0> + <0|del|b> * <b|delr+rdel|0>
 Rotatory Strengths (R) in cgs (10**-40 erg-esu-cm/Gauss)
       state          XX          YY          ZZ    R(velocity)    E-M Angle
         1         0.0000     -0.0000     -0.0000     -0.0000       90.00
 1/2[<0|r|b>*<b|rxdel|0> + (<0|rxdel|b>*<b|r|0>)*]
 Rotatory Strengths (R) in cgs (10**-40 erg-esu-cm/Gauss)
       state          XX          YY          ZZ     R(length)
         1        -0.0000      0.0000      0.0000     -0.0000
  1/2[<0|del|b>*<b|r|0> + (<0|r|b>*<b|del|0>)*] (Au)
       state          X           Y           Z        Dip. S.   Osc.(frdel)
         1        -0.0461     -0.0000     -0.0000      0.0461      0.0307

 Excitation energies and oscillator strengths:
 
 Excited State   1:      Singlet-A'     2.7949 eV  443.61 nm  f=0.0275  <S**2>=0.000
      47 -> 48         0.70427
 This state for optimization and/or second-order correction.
 Total Energy, E(TD-HF/TD-DFT) =  -539.654422317    
 Copying the excited state density for this state as the 1-particle RhoCI density.
 SavETr:  write IOETrn=   770 NScale= 10 NData=  16 NLR=1 NState=    1 LETran=      28.

 **********************************************************************

            Population analysis using the SCF Density.

 **********************************************************************

 Orbital symmetries:
       Occupied  (A') (A") (A') (A") (A') (A") (A') (A") (A') (A')
                 (A") (A') (A") (A') (A') (A") (A') (A') (A") (A")
                 (A') (A') (A') (A") (A") (A') (A") (A') (A') (A")
                 (A') (A") (A') (A") (A') (A") (A') (A') (A") (A')
                 (A") (A') (A") (A') (A") (A") (A')
       Virtual   (A') (A') (A") (A") (A') (A') (A") (A') (A') (A")
                 (A') (A') (A") (A') (A') (A") (A") (A') (A") (A')
                 (A') (A") (A') (A') (A") (A') (A') (A') (A") (A')
                 (A") (A") (A") (A") (A') (A") (A") (A') (A') (A')
                 (A") (A') (A") (A') (A') (A') (A") (A') (A') (A")
                 (A") (A') (A') (A') (A") (A') (A") (A') (A') (A")
                 (A') (A") (A") (A') (A') (A") (A') (A") (A') (A")
                 (A') (A") (A') (A') (A") (A') (A") (A") (A') (A")
                 (A') (A') (A") (A") (A') (A') (A") (A') (A") (A')
                 (A") (A') (A") (A') (A') (A') (A') (A") (A") (A')
                 (A") (A') (A") (A') (A') (A") (A') (A") (A') (A")
                 (A") (A') (A') (A") (A') (A") (A') (A") (A") (A')
                 (A') (A') (A") (A") (A') (A') (A') (A") (A') (A")
                 (A') (A") (A') (A') (A') (A") (A') (A") (A') (A")
                 (A") (A') (A") (A') (A") (A") (A") (A') (A") (A')
                 (A") (A') (A") (A') (A") (A') (A') (A") (A') (A')
                 (A") (A") (A') (A') (A") (A") (A") (A') (A') (A")
                 (A') (A') (A") (A') (A") (A') (A") (A") (A') (A')
                 (A') (A") (A') (A') (A") (A") (A") (A') (A") (A')
                 (A') (A") (A') (A') (A') (A") (A') (A") (A') (A")
                 (A') (A") (A') (A') (A") (A") (A") (A') (A') (A')
                 (A') (A") (A") (A") (A') (A") (A") (A') (A') (A")
                 (A') (A") (A') (A") (A') (A") (A') (A") (A") (A')
                 (A') (A') (A") (A") (A') (A") (A") (A') (A") (A')
                 (A') (A') (A") (A") (A") (A') (A') (A") (A') (A')
                 (A") (A") (A') (A') (A") (A') (A') (A") (A') (A")
                 (A') (A') (A') (A") (A') (A") (A') (A") (A') (A')
                 (A") (A") (A') (A') (A") (A') (A") (A') (A') (A")
                 (A") (A") (A') (A') (A') (A") (A") (A') (A') (A")
                 (A") (A') (A") (A') (A') (A") (A') (A') (A") (A")
                 (A') (A") (A') (A') (A") (A') (A') (A') (A") (A")
                 (A') (A") (A') (A') (A") (A") (A") (A') (A') (A")
                 (A') (A') (A") (A") (A') (A') (A") (A') (A") (A')
                 (A') (A")
 The electronic state is 1-A'.
 Alpha  occ. eigenvalues --  -10.77656 -10.73292 -10.73291 -10.72565 -10.72563
 Alpha  occ. eigenvalues --  -10.71527 -10.71527 -10.71100 -10.71100 -10.70981
 Alpha  occ. eigenvalues --  -10.70143 -10.70143 -10.69583 -10.69583  -1.16348
 Alpha  occ. eigenvalues --   -1.12147  -1.06786  -1.05826  -1.01035  -1.00191
 Alpha  occ. eigenvalues --   -0.95667  -0.91082  -0.86406  -0.85849  -0.83801
 Alpha  occ. eigenvalues --   -0.78390  -0.75998  -0.74354  -0.69589  -0.69353
 Alpha  occ. eigenvalues --   -0.68665  -0.68263  -0.68117  -0.64508  -0.64085
 Alpha  occ. eigenvalues --   -0.63205  -0.62065  -0.59873  -0.59441  -0.59168
 Alpha  occ. eigenvalues --   -0.56942  -0.55284  -0.54924  -0.52315  -0.46441
 Alpha  occ. eigenvalues --   -0.46024  -0.44355
 Alpha virt. eigenvalues --   -0.26065  -0.14856  -0.14142  -0.12970  -0.11177
 Alpha virt. eigenvalues --   -0.10079  -0.09207  -0.08021  -0.07910  -0.07465
 Alpha virt. eigenvalues --   -0.07231  -0.07141  -0.05647  -0.05583  -0.05365
 Alpha virt. eigenvalues --   -0.03778  -0.03658  -0.03285  -0.03133  -0.02152
 Alpha virt. eigenvalues --   -0.01357  -0.00907   0.00192   0.00662   0.00728
 Alpha virt. eigenvalues --    0.01037   0.01512   0.01872   0.02197   0.02299
 Alpha virt. eigenvalues --    0.02413   0.02573   0.02755   0.03247   0.03402
 Alpha virt. eigenvalues --    0.04254   0.04498   0.04682   0.04949   0.05354
 Alpha virt. eigenvalues --    0.05994   0.06283   0.06603   0.07030   0.07201
 Alpha virt. eigenvalues --    0.07847   0.08015   0.08339   0.08476   0.08937
 Alpha virt. eigenvalues --    0.09565   0.09586   0.10022   0.10761   0.10997
 Alpha virt. eigenvalues --    0.11123   0.12247   0.12283   0.12867   0.13058
 Alpha virt. eigenvalues --    0.13403   0.13528   0.14034   0.14210   0.15931
 Alpha virt. eigenvalues --    0.16401   0.16645   0.17400   0.17410   0.17658
 Alpha virt. eigenvalues --    0.18078   0.18875   0.19153   0.19573   0.19714
 Alpha virt. eigenvalues --    0.21424   0.21459   0.22646   0.23133   0.23369
 Alpha virt. eigenvalues --    0.23577   0.24536   0.24756   0.26803   0.27439
 Alpha virt. eigenvalues --    0.28823   0.29271   0.29795   0.31163   0.35793
 Alpha virt. eigenvalues --    0.36167   0.37876   0.39113   0.41156   0.41499
 Alpha virt. eigenvalues --    0.41925   0.42399   0.43044   0.43526   0.44199
 Alpha virt. eigenvalues --    0.44693   0.44695   0.45127   0.46046   0.47893
 Alpha virt. eigenvalues --    0.48626   0.48926   0.49055   0.50470   0.51164
 Alpha virt. eigenvalues --    0.51324   0.51351   0.52133   0.52450   0.54004
 Alpha virt. eigenvalues --    0.54120   0.54461   0.55764   0.55791   0.57383
 Alpha virt. eigenvalues --    0.58166   0.58746   0.61356   0.62031   0.62292
 Alpha virt. eigenvalues --    0.62884   0.63645   0.64209   0.65128   0.66962
 Alpha virt. eigenvalues --    0.70450   0.70573   0.70933   0.72063   0.72706
 Alpha virt. eigenvalues --    0.75345   0.75639   0.76131   0.76455   0.76889
 Alpha virt. eigenvalues --    0.77378   0.77645   0.78086   0.80401   0.80599
 Alpha virt. eigenvalues --    0.81138   0.81539   0.82022   0.82794   0.84715
 Alpha virt. eigenvalues --    0.86689   0.86991   0.87950   0.89563   0.90482
 Alpha virt. eigenvalues --    0.90721   0.91462   0.93074   0.94737   0.96331
 Alpha virt. eigenvalues --    0.96736   1.00449   1.01264   1.01540   1.02649
 Alpha virt. eigenvalues --    1.02945   1.03954   1.04363   1.06080   1.08840
 Alpha virt. eigenvalues --    1.19832   1.23334   1.24091   1.25443   1.27971
 Alpha virt. eigenvalues --    1.29150   1.32143   1.33578   1.35308   1.35904
 Alpha virt. eigenvalues --    1.38977   1.40204   1.40416   1.42782   1.43048
 Alpha virt. eigenvalues --    1.43316   1.44953   1.44992   1.46551   1.46803
 Alpha virt. eigenvalues --    1.47497   1.47556   1.51553   1.53593   1.55481
 Alpha virt. eigenvalues --    1.55894   1.56240   1.56286   1.57570   1.61197
 Alpha virt. eigenvalues --    1.63499   1.64081   1.64138   1.65937   1.67918
 Alpha virt. eigenvalues --    1.68482   1.68611   1.69670   1.73884   1.75886
 Alpha virt. eigenvalues --    1.76984   1.77807   1.79432   1.79893   1.80073
 Alpha virt. eigenvalues --    1.83053   1.83132   1.83274   1.83487   1.83970
 Alpha virt. eigenvalues --    1.84339   1.85743   1.85800   1.88074   1.91523
 Alpha virt. eigenvalues --    1.91645   1.94114   1.95266   1.97368   1.97583
 Alpha virt. eigenvalues --    1.99210   2.02348   2.03971   2.07571   2.11583
 Alpha virt. eigenvalues --    2.11827   2.13483   2.15075   2.18405   2.20826
 Alpha virt. eigenvalues --    2.22064   2.28333   2.29504   2.34298   2.35458
 Alpha virt. eigenvalues --    2.35916   2.39178   2.40398   2.41439   2.42157
 Alpha virt. eigenvalues --    2.45894   2.48461   2.48914   2.52587   2.53714
 Alpha virt. eigenvalues --    2.54083   2.56862   2.57761   2.58316   2.59610
 Alpha virt. eigenvalues --    2.59675   2.61474   2.61735   2.63174   2.63755
 Alpha virt. eigenvalues --    2.64166   2.64413   2.64869   2.65261   2.67736
 Alpha virt. eigenvalues --    2.68885   2.70842   2.71312   2.73383   2.74801
 Alpha virt. eigenvalues --    2.76245   2.78209   2.79512   2.82250   2.82830
 Alpha virt. eigenvalues --    2.84199   2.86291   2.92024   2.96368   2.99332
 Alpha virt. eigenvalues --    2.99585   3.05787   3.09962   3.10479   3.11485
 Alpha virt. eigenvalues --    3.20865   3.23460   3.25825   3.27608   3.30166
 Alpha virt. eigenvalues --    3.31265   3.32698   3.43306   3.44629   3.45580
 Alpha virt. eigenvalues --    3.47279   3.49229   3.56147   3.64993   3.67175
 Alpha virt. eigenvalues --    3.68000   3.94364   3.95775   3.95786   3.97163
 Alpha virt. eigenvalues --    4.04582   4.06767   4.07229   4.12417   4.35653
 Alpha virt. eigenvalues --    4.61510   4.68726   4.70407  23.45630  23.61617
 Alpha virt. eigenvalues --   23.81407  23.86113  23.87023  23.89048  23.90415
 Alpha virt. eigenvalues --   23.92242  23.96508  23.97241  23.97367  23.98981
 Alpha virt. eigenvalues --   24.09207  24.09343
          Condensed to atoms (all electrons):
               1          2          3          4          5          6
     1  C    8.328178   0.521775  -0.582465   1.648450   0.011295  -0.085441
     2  C    0.521775   6.893061   0.362702  -0.824623  -0.041018  -0.014278
     3  C   -0.582465   0.362702   6.569071   0.593746  -0.112018   0.016284
     4  C    1.648450  -0.824623   0.593746  10.341742  -0.075766  -0.112018
     5  C    0.011295  -0.041018  -0.112018  -0.075766  10.341742   0.593746
     6  C   -0.085441  -0.014278   0.016284  -0.112018   0.593746   6.569071
     7  C   -0.030924   0.006635  -0.014278  -0.041018  -0.824623   0.362702
     8  C    0.381513  -0.030924  -0.085441   0.011295   1.648450  -0.582465
     9  C   -1.346200  -0.633774   0.279281  -0.401836  -0.401836   0.279281
    10  C   -1.106439   0.170452  -0.331686  -2.333375  -2.333375  -0.331686
    11  C    0.186346  -0.944666   1.091283  -0.658324  -1.598616  -0.139354
    12  C   -1.464168   1.041873  -1.309506  -0.791986  -0.148961  -0.211510
    13  C    0.089892  -0.188565  -0.139354  -1.598616  -0.658324   1.091283
    14  C   -1.012352  -0.208139  -0.211510  -0.148961  -0.791986  -1.309506
    15  H    0.358452  -0.100826  -0.000233   0.024578   0.005421   0.001135
    16  H   -0.022253   0.380510  -0.018485   0.013311  -0.001459  -0.000314
    17  H   -0.019117  -0.022568   0.382185  -0.060109  -0.000073   0.000373
    18  H    0.044620   0.007969  -0.093175   0.442807   0.011174  -0.004667
    19  H   -0.045207  -0.008691   0.052295  -0.077236  -0.077236   0.052295
    20  H    0.007285   0.001650  -0.004667   0.011174   0.442807  -0.093175
    21  H   -0.001257  -0.000364   0.000373  -0.000073  -0.060109   0.382185
    22  H    0.000633   0.000344  -0.000314  -0.001459   0.013311  -0.018485
    23  H    0.005640  -0.002591   0.001135   0.005421   0.024578  -0.000233
    24  H    0.017191   0.015215  -0.001680  -0.013410  -0.013410  -0.001680
    25  H    0.046359   0.012767  -0.000874  -0.012345  -0.012345  -0.000874
               7          8          9         10         11         12
     1  C   -0.030924   0.381513  -1.346200  -1.106439   0.186346  -1.464168
     2  C    0.006635  -0.030924  -0.633774   0.170452  -0.944666   1.041873
     3  C   -0.014278  -0.085441   0.279281  -0.331686   1.091283  -1.309506
     4  C   -0.041018   0.011295  -0.401836  -2.333375  -0.658324  -0.791986
     5  C   -0.824623   1.648450  -0.401836  -2.333375  -1.598616  -0.148961
     6  C    0.362702  -0.582465   0.279281  -0.331686  -0.139354  -0.211510
     7  C    6.893061   0.521775  -0.633774   0.170452  -0.188565  -0.208139
     8  C    0.521775   8.328178  -1.346200  -1.106439   0.089892  -1.012352
     9  C   -0.633774  -1.346200   8.985411   0.367374   1.607734  -1.492777
    10  C    0.170452  -1.106439   0.367374   9.003449  -0.346707   1.973715
    11  C   -0.188565   0.089892   1.607734  -0.346707  14.257846  -3.508112
    12  C   -0.208139  -1.012352  -1.492777   1.973715  -3.508112  14.841443
    13  C   -0.944666   0.186346   1.607734  -0.346707   1.364997  -4.655145
    14  C    1.041873  -1.464168  -1.492777   1.973715  -4.655145   2.533758
    15  H   -0.002591   0.005640   0.085687  -0.009488  -0.020315  -0.021396
    16  H    0.000344   0.000633   0.003725  -0.009977   0.026476  -0.030308
    17  H   -0.000364  -0.001257  -0.003656   0.018407  -0.022565   0.076439
    18  H    0.001650   0.007285  -0.026961   0.025517  -0.023525  -0.037286
    19  H   -0.008691  -0.045207   0.072368   0.423664   0.086107  -0.067998
    20  H    0.007969   0.044620  -0.026961   0.025517  -0.012123  -0.007114
    21  H   -0.022568  -0.019117  -0.003656   0.018407  -0.005622   0.004213
    22  H    0.380510  -0.022253   0.003725  -0.009977   0.002564  -0.008538
    23  H   -0.100826   0.358452   0.085687  -0.009488  -0.000118   0.006271
    24  H    0.015215   0.017191   0.372052   0.006948   0.003967  -0.040727
    25  H    0.012767   0.046359   0.344362   0.004959   0.021638  -0.077412
              13         14         15         16         17         18
     1  C    0.089892  -1.012352   0.358452  -0.022253  -0.019117   0.044620
     2  C   -0.188565  -0.208139  -0.100826   0.380510  -0.022568   0.007969
     3  C   -0.139354  -0.211510  -0.000233  -0.018485   0.382185  -0.093175
     4  C   -1.598616  -0.148961   0.024578   0.013311  -0.060109   0.442807
     5  C   -0.658324  -0.791986   0.005421  -0.001459  -0.000073   0.011174
     6  C    1.091283  -1.309506   0.001135  -0.000314   0.000373  -0.004667
     7  C   -0.944666   1.041873  -0.002591   0.000344  -0.000364   0.001650
     8  C    0.186346  -1.464168   0.005640   0.000633  -0.001257   0.007285
     9  C    1.607734  -1.492777   0.085687   0.003725  -0.003656  -0.026961
    10  C   -0.346707   1.973715  -0.009488  -0.009977   0.018407   0.025517
    11  C    1.364997  -4.655145  -0.020315   0.026476  -0.022565  -0.023525
    12  C   -4.655145   2.533758  -0.021396  -0.030308   0.076439  -0.037286
    13  C   14.257846  -3.508112  -0.000118   0.002564  -0.005622  -0.012123
    14  C   -3.508112  14.841443   0.006271  -0.008538   0.004213  -0.007114
    15  H   -0.000118   0.006271   0.440487  -0.008991   0.001571   0.000110
    16  H    0.002564  -0.008538  -0.008991   0.420231  -0.007015   0.001969
    17  H   -0.005622   0.004213   0.001571  -0.007015   0.425164  -0.010563
    18  H   -0.012123  -0.007114   0.000110   0.001969  -0.010563   0.454639
    19  H    0.086107  -0.067998   0.000348  -0.000579   0.001476  -0.006379
    20  H   -0.023525  -0.037286  -0.000132   0.000016  -0.000148   0.001308
    21  H   -0.022565   0.076439   0.000019  -0.000007   0.000011  -0.000148
    22  H    0.026476  -0.030308  -0.000127   0.000007  -0.000007   0.000016
    23  H   -0.020315  -0.021396   0.000578  -0.000127   0.000019  -0.000132
    24  H    0.003967  -0.040727  -0.001557   0.000763  -0.000198   0.000139
    25  H    0.021638  -0.077412  -0.000316   0.000467  -0.000096   0.000233
              19         20         21         22         23         24
     1  C   -0.045207   0.007285  -0.001257   0.000633   0.005640   0.017191
     2  C   -0.008691   0.001650  -0.000364   0.000344  -0.002591   0.015215
     3  C    0.052295  -0.004667   0.000373  -0.000314   0.001135  -0.001680
     4  C   -0.077236   0.011174  -0.000073  -0.001459   0.005421  -0.013410
     5  C   -0.077236   0.442807  -0.060109   0.013311   0.024578  -0.013410
     6  C    0.052295  -0.093175   0.382185  -0.018485  -0.000233  -0.001680
     7  C   -0.008691   0.007969  -0.022568   0.380510  -0.100826   0.015215
     8  C   -0.045207   0.044620  -0.019117  -0.022253   0.358452   0.017191
     9  C    0.072368  -0.026961  -0.003656   0.003725   0.085687   0.372052
    10  C    0.423664   0.025517   0.018407  -0.009977  -0.009488   0.006948
    11  C    0.086107  -0.012123  -0.005622   0.002564  -0.000118   0.003967
    12  C   -0.067998  -0.007114   0.004213  -0.008538   0.006271  -0.040727
    13  C    0.086107  -0.023525  -0.022565   0.026476  -0.020315   0.003967
    14  C   -0.067998  -0.037286   0.076439  -0.030308  -0.021396  -0.040727
    15  H    0.000348  -0.000132   0.000019  -0.000127   0.000578  -0.001557
    16  H   -0.000579   0.000016  -0.000007   0.000007  -0.000127   0.000763
    17  H    0.001476  -0.000148   0.000011  -0.000007   0.000019  -0.000198
    18  H   -0.006379   0.001308  -0.000148   0.000016  -0.000132   0.000139
    19  H    0.446859  -0.006379   0.001476  -0.000579   0.000348   0.000660
    20  H   -0.006379   0.454639  -0.010563   0.001969   0.000110   0.000139
    21  H    0.001476  -0.010563   0.425164  -0.007015   0.001571  -0.000198
    22  H   -0.000579   0.001969  -0.007015   0.420231  -0.008991   0.000763
    23  H    0.000348   0.000110   0.001571  -0.008991   0.440487  -0.001557
    24  H    0.000660   0.000139  -0.000198   0.000763  -0.001557   0.491465
    25  H    0.000544   0.000233  -0.000096   0.000467  -0.000316  -0.078395
              25
     1  C    0.046359
     2  C    0.012767
     3  C   -0.000874
     4  C   -0.012345
     5  C   -0.012345
     6  C   -0.000874
     7  C    0.012767
     8  C    0.046359
     9  C    0.344362
    10  C    0.004959
    11  C    0.021638
    12  C   -0.077412
    13  C    0.021638
    14  C   -0.077412
    15  H   -0.000316
    16  H    0.000467
    17  H   -0.000096
    18  H    0.000233
    19  H    0.000544
    20  H    0.000233
    21  H   -0.000096
    22  H    0.000467
    23  H   -0.000316
    24  H   -0.078395
    25  H    0.491587
 Mulliken charges:
               1
     1  C    0.068194
     2  C   -0.393926
     3  C   -0.442671
     4  C    0.058633
     5  C    0.058633
     6  C   -0.442671
     7  C   -0.393926
     8  C    0.068194
     9  C   -0.284016
    10  C    0.092769
    11  C   -0.615095
    12  C    0.615723
    13  C   -0.615095
    14  C    0.615723
    15  H    0.235792
    16  H    0.257037
    17  H    0.243500
    18  H    0.222637
    19  H    0.187634
    20  H    0.222637
    21  H    0.243500
    22  H    0.257037
    23  H    0.235792
    24  H    0.247866
    25  H    0.256101
 Sum of Mulliken charges =   1.00000
 Mulliken charges with hydrogens summed into heavy atoms:
               1
     1  C    0.303985
     2  C   -0.136889
     3  C   -0.199171
     4  C    0.281270
     5  C    0.281270
     6  C   -0.199171
     7  C   -0.136889
     8  C    0.303985
     9  C    0.219951
    10  C    0.280403
    11  C   -0.615095
    12  C    0.615723
    13  C   -0.615095
    14  C    0.615723
 Electronic spatial extent (au):  <R**2>=           2867.8043
 Charge=              1.0000 electrons
 Dipole moment (field-independent basis, Debye):
    X=             -0.1920    Y=              0.0019    Z=              0.0000  Tot=              0.1920
 Quadrupole moment (field-independent basis, Debye-Ang):
   XX=            -56.2589   YY=            -84.2390   ZZ=            -30.8557
   XY=             -0.1444   XZ=             -0.0000   YZ=              0.0000
 Traceless Quadrupole moment (field-independent basis, Debye-Ang):
   XX=              0.8590   YY=            -27.1211   ZZ=             26.2621
   XY=             -0.1444   XZ=             -0.0000   YZ=              0.0000
 Octapole moment (field-independent basis, Debye-Ang**2):
  XXX=             -5.1968  YYY=             -0.0353  ZZZ=              0.0000  XYY=              3.0877
  XXY=              0.1740  XXZ=              0.0000  XZZ=              4.2232  YZZ=              0.2755
  YYZ=              0.0000  XYZ=              0.0000
 Hexadecapole moment (field-independent basis, Debye-Ang**3):
 XXXX=           -609.4246 YYYY=            -99.7256 ZZZZ=          -2127.2272 XXXY=             -1.5904
 XXXZ=             -0.0000 YYYX=             -0.0617 YYYZ=             -0.0000 ZZZX=             -0.0000
 ZZZY=              0.0000 XXYY=           -145.8341 XXZZ=           -509.8230 YYZZ=           -594.0586
 XXYZ=              0.0000 YYXZ=             -0.0000 ZZXY=             -1.5759
 N-N= 7.797802294829D+02 E-N=-2.795821565416D+03  KE= 5.374191807389D+02
 Symmetry A'   KE= 3.037406691826D+02
 Symmetry A"   KE= 2.336785115563D+02
 Unable to Open any file for archive entry.
 1\1\GINC-GADI-CPU-CLX-0113\SP\RM062X TD-FC\6-311++G(d,p)\C14H11(1+)\TS
 1578\28-Jul-2022\0\\#n M062X/6-311++G(d,p) TD(NStates=1) EmpiricalDisp
 ersion=GD3 SP\\SP_-75\\1,1\C,0,0.02055,2.491755,1.360431\C,0,0.024675,
 3.712083,0.671989\C,0,0.0069,3.702461,-0.71383\C,0,-0.0234,2.476806,-1
 .407538\C,0,-0.0234,-2.476806,-1.407538\C,0,0.0069,-3.702461,-0.71383\
 C,0,0.024675,-3.712083,0.671989\C,0,0.02055,-2.491755,1.360431\C,0,0.0
 13125,0.,1.453369\C,0,-0.0366,0.,-1.429189\C,0,-0.005475,1.25058,0.677
 065\C,0,-0.015,1.239271,-0.730804\C,0,-0.005475,-1.25058,0.677065\C,0,
 -0.015,-1.239271,-0.730804\H,0,0.0063,2.487396,2.443647\H,0,0.024975,4
 .645378,1.211689\H,0,-0.00435,4.608587,-1.272349\H,0,-0.01095,2.480825
 ,-2.490059\H,0,-0.03375,0.,-2.510266\H,0,-0.01095,-2.480825,-2.490059\
 H,0,-0.00435,-4.608587,-1.272349\H,0,0.024975,-4.645378,1.211689\H,0,0
 .0063,-2.487396,2.443647\H,0,-0.811585,0.,2.145787\H,0,0.907585,0.,2.1
 45787\\Version=ES64L-G16RevC.01\State=1-A'\HF=-539.7571329\RMSD=4.921e
 -09\PG=CS [SG(C2H3),X(C12H8)]\\@
 The archive entry for this job was punched.


 MUD THROWN IS GROUND LOST -- FROM A TEA BAG
 Job cpu time:       0 days  0 hours 42 minutes 45.5 seconds.
 Elapsed time:       0 days  0 hours  0 minutes 53.8 seconds.
 File lengths (MBytes):  RWF=    460 Int=      0 D2E=      0 Chk=     15 Scr=      1
 Normal termination of Gaussian 16 at Thu Jul 28 14:09:35 2022.
