 Entering Gaussian System, Link 0=g16
 Initial command:
 /apps/gaussian/g16c01/g16/l1.exe "/jobfs/53002009.gadi-pbs/Gau-747007.inp" -scrdir="/jobfs/53002009.gadi-pbs/"
 Entering Link 1 = /apps/gaussian/g16c01/g16/l1.exe PID=    747008.
  
 Copyright (c) 1988-2019, Gaussian, Inc.  All Rights Reserved.
  
 This is part of the Gaussian(R) 16 program.  It is based on
 the Gaussian(R) 09 system (copyright 2009, Gaussian, Inc.),
 the Gaussian(R) 03 system (copyright 2003, Gaussian, Inc.),
 the Gaussian(R) 98 system (copyright 1998, Gaussian, Inc.),
 the Gaussian(R) 94 system (copyright 1995, Gaussian, Inc.),
 the Gaussian 92(TM) system (copyright 1992, Gaussian, Inc.),
 the Gaussian 90(TM) system (copyright 1990, Gaussian, Inc.),
 the Gaussian 88(TM) system (copyright 1988, Gaussian, Inc.),
 the Gaussian 86(TM) system (copyright 1986, Carnegie Mellon
 University), and the Gaussian 82(TM) system (copyright 1983,
 Carnegie Mellon University). Gaussian is a federally registered
 trademark of Gaussian, Inc.
  
 This software contains proprietary and confidential information,
 including trade secrets, belonging to Gaussian, Inc.
  
 This software is provided under written license and may be
 used, copied, transmitted, or stored only in accord with that
 written license.
  
 The following legend is applicable only to US Government
 contracts under FAR:
  
                    RESTRICTED RIGHTS LEGEND
  
 Use, reproduction and disclosure by the US Government is
 subject to restrictions as set forth in subparagraphs (a)
 and (c) of the Commercial Computer Software - Restricted
 Rights clause in FAR 52.227-19.
  
 Gaussian, Inc.
 340 Quinnipiac St., Bldg. 40, Wallingford CT 06492
  
  
 ---------------------------------------------------------------
 Warning -- This program may not be used in any manner that
 competes with the business of Gaussian, Inc. or will provide
 assistance to any competitor of Gaussian, Inc.  The licensee
 of this program is prohibited from giving any competitor of
 Gaussian, Inc. access to this program.  By using this program,
 the user acknowledges that Gaussian, Inc. is engaged in the
 business of creating and licensing software in the field of
 computational chemistry and represents and warrants to the
 licensee that it is not a competitor of Gaussian, Inc. and that
 it will not use this program in any manner prohibited above.
 ---------------------------------------------------------------
  

 Cite this work as:
 Gaussian 16, Revision C.01,
 M. J. Frisch, G. W. Trucks, H. B. Schlegel, G. E. Scuseria, 
 M. A. Robb, J. R. Cheeseman, G. Scalmani, V. Barone, 
 G. A. Petersson, H. Nakatsuji, X. Li, M. Caricato, A. V. Marenich, 
 J. Bloino, B. G. Janesko, R. Gomperts, B. Mennucci, H. P. Hratchian, 
 J. V. Ortiz, A. F. Izmaylov, J. L. Sonnenberg, D. Williams-Young, 
 F. Ding, F. Lipparini, F. Egidi, J. Goings, B. Peng, A. Petrone, 
 T. Henderson, D. Ranasinghe, V. G. Zakrzewski, J. Gao, N. Rega, 
 G. Zheng, W. Liang, M. Hada, M. Ehara, K. Toyota, R. Fukuda, 
 J. Hasegawa, M. Ishida, T. Nakajima, Y. Honda, O. Kitao, H. Nakai, 
 T. Vreven, K. Throssell, J. A. Montgomery, Jr., J. E. Peralta, 
 F. Ogliaro, M. J. Bearpark, J. J. Heyd, E. N. Brothers, K. N. Kudin, 
 V. N. Staroverov, T. A. Keith, R. Kobayashi, J. Normand, 
 K. Raghavachari, A. P. Rendell, J. C. Burant, S. S. Iyengar, 
 J. Tomasi, M. Cossi, J. M. Millam, M. Klene, C. Adamo, R. Cammi, 
 J. W. Ochterski, R. L. Martin, K. Morokuma, O. Farkas, 
 J. B. Foresman, and D. J. Fox, Gaussian, Inc., Wallingford CT, 2019.
 
 ******************************************
 Gaussian 16:  ES64L-G16RevC.01  3-Jul-2019
                28-Jul-2022 
 ******************************************
 %NProcShared=48
 Will use up to   48 processors via shared memory.
 %mem = 190GB
 ---------------------------------------------------------------
 #n M062X/6-311++G(d,p) TD(NStates=1) EmpiricalDispersion=GD3 SP
 ---------------------------------------------------------------
 1/38=1,172=1/1;
 2/12=2,17=6,18=5,40=1/2;
 3/5=4,6=6,7=1111,11=9,25=1,30=1,74=-55,124=31/1,2,3,8;
 4//1;
 5/5=2,38=5/2;
 8/6=1,10=2,108=1/1;
 9/41=1,42=1,70=2/14;
 6/7=2,8=2,9=2,10=2/1;
 99/5=1,9=1/99;
 ------
 SP_-50
 ------
 Symbolic Z-matrix:
 Charge =  1 Multiplicity = 1
 C                     0.0176    2.49176   1.36043 
 C                     0.0208    3.71023   0.67199 
 C                     0.0059    3.69911  -0.71383 
 C                    -0.01947   2.47448  -1.40754 
 C                    -0.01952  -2.47458  -1.40754 
 C                     0.0056   -3.69961  -0.71383 
 C                     0.02033  -3.71041   0.67199 
 C                     0.01665  -2.49206   1.36043 
 C                     0.01093   0.0011    1.45337 
 C                    -0.0305   -0.00005  -1.42919 
 C                    -0.00453   1.2525    0.67707 
 C                    -0.0126    1.23905  -0.7308 
 C                    -0.0046   -1.25248   0.67707 
 C                    -0.0124   -1.2389   -0.7308 
 H                     0.0058    2.48735   2.44365 
 H                     0.0211    4.64375   1.21169 
 H                    -0.00355   4.60839  -1.27235 
 H                    -0.0092    2.47858  -2.49006 
 H                    -0.02813  -0.00003  -2.51027 
 H                    -0.00905  -2.47865  -2.49006 
 H                    -0.0037   -4.60901  -1.27235 
 H                     0.02053  -4.64413   1.21169 
 H                     0.0047   -2.48767   2.44365 
 H                    -0.81959   0.00025   2.14551 
 H                     0.89959   0.00025   2.14606 
 
                          Input orientation:                          
 ---------------------------------------------------------------------
 Center     Atomic      Atomic             Coordinates (Angstroms)
 Number     Number       Type             X           Y           Z
 ---------------------------------------------------------------------
      1          6           0        0.017600    2.491755    1.360431
      2          6           0        0.020800    3.710233    0.671989
      3          6           0        0.005900    3.699111   -0.713830
      4          6           0       -0.019475    2.474481   -1.407538
      5          6           0       -0.019525   -2.474581   -1.407538
      6          6           0        0.005600   -3.699611   -0.713830
      7          6           0        0.020325   -3.710408    0.671989
      8          6           0        0.016650   -2.492055    1.360431
      9          6           0        0.010925    0.001100    1.453369
     10          6           0       -0.030500   -0.000050   -1.429189
     11          6           0       -0.004525    1.252505    0.677065
     12          6           0       -0.012600    1.239046   -0.730804
     13          6           0       -0.004600   -1.252480    0.677065
     14          6           0       -0.012400   -1.238896   -0.730804
     15          1           0        0.005800    2.487346    2.443647
     16          1           0        0.021100    4.643753    1.211689
     17          1           0       -0.003550    4.608387   -1.272349
     18          1           0       -0.009200    2.478575   -2.490059
     19          1           0       -0.028125   -0.000025   -2.510266
     20          1           0       -0.009050   -2.478650   -2.490059
     21          1           0       -0.003700   -4.609012   -1.272349
     22          1           0        0.020525   -4.644128    1.211689
     23          1           0        0.004700   -2.487671    2.443647
     24          1           0       -0.819585    0.000250    2.145512
     25          1           0        0.899585    0.000250    2.146062
 ---------------------------------------------------------------------
                    Distance matrix (angstroms):
                    1          2          3          4          5
     1  C    0.000000
     2  C    1.399518   0.000000
     3  C    2.400084   1.385944   0.000000
     4  C    2.768271   2.419326   1.407691   0.000000
     5  C    5.685730   6.525181   6.212596   4.949062   0.000000
     6  C    6.529603   7.538336   7.398722   6.212992   1.408034
     7  C    6.240255   7.420641   7.538015   6.525249   2.419357
     8  C    4.983810   6.240380   6.529411   5.685898   2.768261
     9  C    2.492397   3.790557   4.286264   3.781974   3.783479
    10  C    3.740773   4.264244   3.767871   2.474650   2.474650
    11  C    1.415351   2.457864   2.814352   2.416406   4.270476
    12  C    2.437920   2.841779   2.460193   1.408657   3.774790
    13  C    3.806150   4.962781   5.143243   4.270366   2.416469
    14  C    4.276906   5.144201   4.938070   3.774545   1.408878
    15  H    1.083289   2.152777   3.382016   3.851289   6.281161
    16  H    2.157135   1.078302   2.144808   3.401138   7.585030
    17  H    3.378181   2.141897   1.067153   2.138243   7.084276
    18  H    3.850606   3.393586   2.155209   1.082578   5.070080
    19  H    4.603624   4.888267   4.112414   2.709108   2.709153
    20  H    6.287441   6.949943   6.428059   5.070056   1.082579
    21  H    7.573168   8.543470   8.326881   7.084800   2.138767
    22  H    7.137434   8.371775   8.562562   7.585285   3.401307
    23  H    5.095901   6.446165   6.945929   6.281334   3.851283
    24  H    2.743142   4.079398   4.747508   4.402972   4.403300
    25  H    2.757301   4.087680   4.760171   4.426575   4.426920
                    6          7          8          9         10
     6  C    0.000000
     7  C    1.385939   0.000000
     8  C    2.400182   1.399411   0.000000
     9  C    4.288594   3.792879   2.494893   0.000000
    10  C    3.768261   4.264304   3.740895   2.882856   0.000000
    11  C    5.143748   4.962978   3.806464   1.472719   2.450689
    12  C    4.938720   5.144512   4.277293   2.510712   1.422470
    13  C    2.814808   2.458060   1.415622   1.474568   2.450624
    14  C    2.460839   2.842054   2.438138   2.511722   1.422255
    15  H    6.946085   6.446017   5.095872   2.676209   4.602968
    16  H    8.562686   8.371576   7.137359   4.648950   5.342453
    17  H    8.326756   8.543031   7.572860   5.353209   4.611184
    18  H    6.428467   6.950031   6.287615   4.657136   2.696197
    19  H    4.112816   4.888357   4.603750   3.963828   1.081080
    20  H    2.155447   3.393617   3.850599   4.658346   2.696176
    21  H    1.067258   2.142082   3.378380   5.355640   4.611708
    22  H    2.144751   1.078475   2.157211   4.651521   5.342687
    23  H    3.382079   2.152696   1.083291   2.678558   4.603081
    24  H    4.748235   4.079914   2.743579   1.081115   3.660757
    25  H    4.761004   4.088395   2.758328   1.126739   3.694249
                   11         12         13         14         15
    11  C    0.000000
    12  C    1.407956   0.000000
    13  C    2.504985   2.861793   0.000000
    14  C    2.861684   2.477942   1.407956   0.000000
    15  H    2.155400   3.411119   4.136087   4.895135   0.000000
    16  H    3.433226   3.920006   5.920477   6.195156   2.483555
    17  H    3.881000   3.412596   6.176567   5.872314   4.278730
    18  H    3.396166   2.152074   4.894024   4.112734   4.933737
    19  H    3.424685   2.168415   3.424657   2.168302   5.543412
    20  H    4.894100   4.112937   3.396202   2.152203   7.000199
    21  H    6.177184   5.873085   3.881562   3.413360   8.010432
    22  H    5.920872   6.195653   3.433618   3.920455   7.237117
    23  H    4.136401   4.895494   2.155596   3.411286   4.975017
    24  H    2.094947   3.234043   2.095202   3.234227   2.637383
    25  H    2.131551   3.262370   2.131862   3.262447   2.659522
                   16         17         18         19         20
    16  H    0.000000
    17  H    2.484412   0.000000
    18  H    4.288572   2.453355   0.000000
    19  H    5.951474   4.771845   2.478755   0.000000
    20  H    8.026984   7.190893   4.957225   2.478781   0.000000
    21  H    9.580434   9.217399   7.191435   4.772399   2.453831
    22  H    9.287881   9.580191   8.027249   5.951723   4.288719
    23  H    7.237071   8.010164   7.000375   5.543529   4.933733
    24  H    4.810499   5.795051   5.318584   4.722571   5.318875
    25  H    4.817355   5.808280   5.334942   4.747845   5.335183
                   21         22         23         24         25
    21  H    0.000000
    22  H    2.484404   0.000000
    23  H    4.278877   2.483602   0.000000
    24  H    5.795924   4.811243   2.637817   0.000000
    25  H    5.809196   4.818303   2.660663   1.719170   0.000000
 Stoichiometry    C14H11(1+)
 Framework group  C1[X(C14H11)]
 Deg. of freedom    69
 Full point group                 C1      NOp   1
 Largest Abelian subgroup         C1      NOp   1
 Largest concise Abelian subgroup C1      NOp   1
                         Standard orientation:                         
 ---------------------------------------------------------------------
 Center     Atomic      Atomic             Coordinates (Angstroms)
 Number     Number       Type             X           Y           Z
 ---------------------------------------------------------------------
      1          6           0       -2.491785   -1.360483    0.002024
      2          6           0       -3.710249   -0.672091    0.012727
      3          6           0       -3.699096    0.713808    0.013077
      4          6           0       -2.474450    1.407726   -0.004592
      5          6           0        2.474612    1.407619   -0.004349
      6          6           0        3.699626    0.713649    0.013214
      7          6           0        3.710392   -0.672248    0.012691
      8          6           0        2.492025   -1.360581    0.001369
      9          6           0       -0.001132   -1.453396   -0.005525
     10          6           0        0.000082    1.429443   -0.015231
     11          6           0       -1.252519   -0.676942   -0.012507
     12          6           0       -1.239030    0.730930   -0.005090
     13          6           0        1.252466   -0.676996   -0.012434
     14          6           0        1.238912    0.730874   -0.004743
     15          1           0       -2.487398   -2.443504   -0.021693
     16          1           0       -4.643780   -1.211741    0.007033
     17          1           0       -4.608360    1.272417    0.009719
     18          1           0       -2.478522    2.490069    0.017593
     19          1           0        0.000080    2.510429   -0.000961
     20          1           0        2.478703    2.489959    0.018037
     21          1           0        4.609039    1.272217    0.010114
     22          1           0        4.644101   -1.211938    0.007008
     23          1           0        2.487619   -2.443600   -0.022499
     24          1           0       -0.000247   -2.136359   -0.843601
     25          1           0       -0.000349   -2.155825    0.875459
 ---------------------------------------------------------------------
 Rotational constants (GHZ):           2.1357837           0.4425510           0.3673941
 Standard basis: 6-311++G(d,p) (5D, 7F)
 There are   399 symmetry adapted cartesian basis functions of A   symmetry.
 There are   385 symmetry adapted basis functions of A   symmetry.
   385 basis functions,   603 primitive gaussians,   399 cartesian basis functions
    47 alpha electrons       47 beta electrons
       nuclear repulsion energy       780.0218568737 Hartrees.
 NAtoms=   25 NActive=   25 NUniq=   25 SFac= 1.00D+00 NAtFMM=   60 NAOKFM=F Big=F
 Integral buffers will be    131072 words long.
 Regular integral format.
 Two-electron integral symmetry is turned on.
 Nuclear repulsion after empirical dispersion term =      780.0208769606 Hartrees.
 One-electron integrals computed using PRISM.
 NBasis=   385 RedAO= T EigKep=  1.24D-06  NBF=   385
 NBsUse=   379 1.00D-06 EigRej=  8.76D-07 NBFU=   379
 ExpMin= 3.60D-02 ExpMax= 4.56D+03 ExpMxC= 6.82D+02 IAcc=3 IRadAn=         5 AccDes= 0.00D+00
 Harris functional with IExCor= 1009 and IRadAn=       5 diagonalized for initial guess.
 HarFok:  IExCor= 1009 AccDes= 0.00D+00 IRadAn=         5 IDoV= 1 UseB2=F ITyADJ=14
 ICtDFT=  3500011 ScaDFX=  1.000000  1.000000  1.000000  1.000000
 FoFCou: FMM=F IPFlag=           0 FMFlag=      100000 FMFlg1=           0
         NFxFlg=           0 DoJE=T BraDBF=F KetDBF=T FulRan=T
         wScrn=  0.000000 ICntrl=       500 IOpCl=  0 I1Cent=   200000004 NGrid=           0
         NMat0=    1 NMatS0=      1 NMatT0=    0 NMatD0=    1 NMtDS0=    0 NMtDT0=    0
 Petite list used in FoFCou.
 Requested convergence on RMS density matrix=1.00D-08 within 128 cycles.
 Requested convergence on MAX density matrix=1.00D-06.
 Requested convergence on             energy=1.00D-06.
 No special actions if energy rises.
 SCF Done:  E(RM062X) =  -539.757984061     A.U. after   15 cycles
            NFock= 15  Conv=0.48D-08     -V/T= 2.0043
 DoSCS=F DFT=T ScalE2(SS,OS)=  1.000000  1.000000
 ExpMin= 3.60D-02 ExpMax= 4.56D+03 ExpMxC= 6.82D+02 IAcc=3 IRadAn=         5 AccDes= 0.00D+00
 HarFok:  IExCor=  205 AccDes= 0.00D+00 IRadAn=         5 IDoV=-2 UseB2=F ITyADJ=14
 ICtDFT= 12500011 ScaDFX=  1.000000  1.000000  1.000000  1.000000
 Range of M.O.s used for correlation:    15   379
 NBasis=   385 NAE=    47 NBE=    47 NFC=    14 NFV=     0
 NROrb=    365 NOA=    33 NOB=    33 NVA=   332 NVB=   332

 **** Warning!!: The largest alpha MO coefficient is  0.14881907D+03

 Orbital symmetries:
       Occupied  (A) (A) (A) (A) (A) (A) (A) (A) (A) (A) (A) (A)
                 (A) (A) (A) (A) (A) (A) (A) (A) (A) (A) (A) (A)
                 (A) (A) (A) (A) (A) (A) (A) (A) (A) (A) (A) (A)
                 (A) (A) (A) (A) (A) (A) (A) (A) (A) (A) (A)
       Virtual   (A) (A) (A) (A) (A) (A) (A) (A) (A) (A) (A) (A)
                 (A) (A) (A) (A) (A) (A) (A) (A) (A) (A) (A) (A)
                 (A) (A) (A) (A) (A) (A) (A) (A) (A) (A) (A) (A)
                 (A) (A) (A) (A) (A) (A) (A) (A) (A) (A) (A) (A)
                 (A) (A) (A) (A) (A) (A) (A) (A) (A) (A) (A) (A)
                 (A) (A) (A) (A) (A) (A) (A) (A) (A) (A) (A) (A)
                 (A) (A) (A) (A) (A) (A) (A) (A) (A) (A) (A) (A)
                 (A) (A) (A) (A) (A) (A) (A) (A) (A) (A) (A) (A)
                 (A) (A) (A) (A) (A) (A) (A) (A) (A) (A) (A) (A)
                 (A) (A) (A) (A) (A) (A) (A) (A) (A) (A) (A) (A)
                 (A) (A) (A) (A) (A) (A) (A) (A) (A) (A) (A) (A)
                 (A) (A) (A) (A) (A) (A) (A) (A) (A) (A) (A) (A)
                 (A) (A) (A) (A) (A) (A) (A) (A) (A) (A) (A) (A)
                 (A) (A) (A) (A) (A) (A) (A) (A) (A) (A) (A) (A)
                 (A) (A) (A) (A) (A) (A) (A) (A) (A) (A) (A) (A)
                 (A) (A) (A) (A) (A) (A) (A) (A) (A) (A) (A) (A)
                 (A) (A) (A) (A) (A) (A) (A) (A) (A) (A) (A) (A)
                 (A) (A) (A) (A) (A) (A) (A) (A) (A) (A) (A) (A)
                 (A) (A) (A) (A) (A) (A) (A) (A) (A) (A) (A) (A)
                 (A) (A) (A) (A) (A) (A) (A) (A) (A) (A) (A) (A)
                 (A) (A) (A) (A) (A) (A) (A) (A) (A) (A) (A) (A)
                 (A) (A) (A) (A) (A) (A) (A) (A) (A) (A) (A) (A)
                 (A) (A) (A) (A) (A) (A) (A) (A) (A) (A) (A) (A)
                 (A) (A) (A) (A) (A) (A) (A) (A) (A) (A) (A) (A)
                 (A) (A) (A) (A) (A) (A) (A) (A) (A) (A) (A) (A)
                 (A) (A) (A) (A) (A) (A) (A) (A) (A) (A) (A) (A)
                 (A) (A) (A) (A) (A) (A) (A) (A) (A) (A) (A) (A)
                 (A) (A) (A) (A) (A) (A) (A) (A)
     4 initial guesses have been made.
 Convergence on wavefunction:    0.001000000000000
 Iteration     1 Dimension     4 NMult     0 NNew      4
 CISAX will form     4 AO SS matrices at one time.
 Iteration     2 Dimension     6 NMult     4 NNew      2
 Iteration     3 Dimension     8 NMult     6 NNew      2
 Iteration     4 Dimension    10 NMult     8 NNew      2
 Iteration     5 Dimension    12 NMult    10 NNew      2
 Iteration     6 Dimension    14 NMult    12 NNew      2
 ***********************************************************************
 Excited states from <AA,BB:AA,BB> singles matrix:
 ***********************************************************************
 
 Ground to excited state transition densities written to RWF  633
 Ground to excited state transition electric dipole moments (Au):
       state          X           Y           Z        Dip. S.      Osc.
         1        -0.0015     -0.6357      0.0049      0.4041      0.0277
 Ground to excited state transition velocity dipole moments (Au):
       state          X           Y           Z        Dip. S.      Osc.
         1         0.0002      0.0731     -0.0006      0.0053      0.0346
 Ground to excited state transition magnetic dipole moments (Au):
       state          X           Y           Z
         1        -0.0065     -0.0001      0.0000
 Ground to excited state transition velocity quadrupole moments (Au):
       state          XX          YY          ZZ          XY          XZ          YZ
         1         0.3106      0.0318     -0.0095      0.0002      0.0000      0.0010
 <0|del|b> * <b|rxdel|0> + <0|del|b> * <b|delr+rdel|0>
 Rotatory Strengths (R) in cgs (10**-40 erg-esu-cm/Gauss)
       state          XX          YY          ZZ    R(velocity)    E-M Angle
         1        -0.0349     -0.0024     -0.0261     -0.0211       90.00
 1/2[<0|r|b>*<b|rxdel|0> + (<0|rxdel|b>*<b|r|0>)*]
 Rotatory Strengths (R) in cgs (10**-40 erg-esu-cm/Gauss)
       state          XX          YY          ZZ     R(length)
         1        -0.0068     -0.0506     -0.0000     -0.0191
  1/2[<0|del|b>*<b|r|0> + (<0|r|b>*<b|del|0>)*] (Au)
       state          X           Y           Z        Dip. S.   Osc.(frdel)
         1        -0.0000     -0.0465     -0.0000      0.0465      0.0310

 Excitation energies and oscillator strengths:
 
 Excited State   1:      Singlet-A      2.8001 eV  442.78 nm  f=0.0277  <S**2>=0.000
      47 -> 48         0.70427
 This state for optimization and/or second-order correction.
 Total Energy, E(TD-HF/TD-DFT) =  -539.655081654    
 Copying the excited state density for this state as the 1-particle RhoCI density.
 SavETr:  write IOETrn=   770 NScale= 10 NData=  16 NLR=1 NState=    1 LETran=      28.

 **********************************************************************

            Population analysis using the SCF Density.

 **********************************************************************

 Orbital symmetries:
       Occupied  (A) (A) (A) (A) (A) (A) (A) (A) (A) (A) (A) (A)
                 (A) (A) (A) (A) (A) (A) (A) (A) (A) (A) (A) (A)
                 (A) (A) (A) (A) (A) (A) (A) (A) (A) (A) (A) (A)
                 (A) (A) (A) (A) (A) (A) (A) (A) (A) (A) (A)
       Virtual   (A) (A) (A) (A) (A) (A) (A) (A) (A) (A) (A) (A)
                 (A) (A) (A) (A) (A) (A) (A) (A) (A) (A) (A) (A)
                 (A) (A) (A) (A) (A) (A) (A) (A) (A) (A) (A) (A)
                 (A) (A) (A) (A) (A) (A) (A) (A) (A) (A) (A) (A)
                 (A) (A) (A) (A) (A) (A) (A) (A) (A) (A) (A) (A)
                 (A) (A) (A) (A) (A) (A) (A) (A) (A) (A) (A) (A)
                 (A) (A) (A) (A) (A) (A) (A) (A) (A) (A) (A) (A)
                 (A) (A) (A) (A) (A) (A) (A) (A) (A) (A) (A) (A)
                 (A) (A) (A) (A) (A) (A) (A) (A) (A) (A) (A) (A)
                 (A) (A) (A) (A) (A) (A) (A) (A) (A) (A) (A) (A)
                 (A) (A) (A) (A) (A) (A) (A) (A) (A) (A) (A) (A)
                 (A) (A) (A) (A) (A) (A) (A) (A) (A) (A) (A) (A)
                 (A) (A) (A) (A) (A) (A) (A) (A) (A) (A) (A) (A)
                 (A) (A) (A) (A) (A) (A) (A) (A) (A) (A) (A) (A)
                 (A) (A) (A) (A) (A) (A) (A) (A) (A) (A) (A) (A)
                 (A) (A) (A) (A) (A) (A) (A) (A) (A) (A) (A) (A)
                 (A) (A) (A) (A) (A) (A) (A) (A) (A) (A) (A) (A)
                 (A) (A) (A) (A) (A) (A) (A) (A) (A) (A) (A) (A)
                 (A) (A) (A) (A) (A) (A) (A) (A) (A) (A) (A) (A)
                 (A) (A) (A) (A) (A) (A) (A) (A) (A) (A) (A) (A)
                 (A) (A) (A) (A) (A) (A) (A) (A) (A) (A) (A) (A)
                 (A) (A) (A) (A) (A) (A) (A) (A) (A) (A) (A) (A)
                 (A) (A) (A) (A) (A) (A) (A) (A) (A) (A) (A) (A)
                 (A) (A) (A) (A) (A) (A) (A) (A) (A) (A) (A) (A)
                 (A) (A) (A) (A) (A) (A) (A) (A) (A) (A) (A) (A)
                 (A) (A) (A) (A) (A) (A) (A) (A) (A) (A) (A) (A)
                 (A) (A) (A) (A) (A) (A) (A) (A) (A) (A) (A) (A)
                 (A) (A) (A) (A) (A) (A) (A) (A)
 The electronic state is 1-A.
 Alpha  occ. eigenvalues --  -10.77657 -10.73289 -10.73276 -10.72543 -10.72541
 Alpha  occ. eigenvalues --  -10.71504 -10.71496 -10.71085 -10.71082 -10.70981
 Alpha  occ. eigenvalues --  -10.70117 -10.70111 -10.69593 -10.69586  -1.16363
 Alpha  occ. eigenvalues --   -1.12200  -1.06811  -1.05812  -1.01077  -1.00196
 Alpha  occ. eigenvalues --   -0.95686  -0.91079  -0.86408  -0.85857  -0.83804
 Alpha  occ. eigenvalues --   -0.78390  -0.76004  -0.74365  -0.69582  -0.69329
 Alpha  occ. eigenvalues --   -0.68628  -0.68255  -0.68127  -0.64545  -0.64118
 Alpha  occ. eigenvalues --   -0.63188  -0.62033  -0.59897  -0.59482  -0.59156
 Alpha  occ. eigenvalues --   -0.56933  -0.55274  -0.54913  -0.52336  -0.46465
 Alpha  occ. eigenvalues --   -0.46037  -0.44381
 Alpha virt. eigenvalues --   -0.26068  -0.14822  -0.14134  -0.12936  -0.11177
 Alpha virt. eigenvalues --   -0.10080  -0.09211  -0.08012  -0.07921  -0.07467
 Alpha virt. eigenvalues --   -0.07223  -0.07144  -0.05647  -0.05582  -0.05359
 Alpha virt. eigenvalues --   -0.03786  -0.03650  -0.03284  -0.03133  -0.02155
 Alpha virt. eigenvalues --   -0.01358  -0.00909   0.00191   0.00651   0.00714
 Alpha virt. eigenvalues --    0.01040   0.01512   0.01887   0.02200   0.02296
 Alpha virt. eigenvalues --    0.02421   0.02601   0.02736   0.03266   0.03397
 Alpha virt. eigenvalues --    0.04252   0.04499   0.04685   0.04961   0.05355
 Alpha virt. eigenvalues --    0.06009   0.06285   0.06600   0.07034   0.07213
 Alpha virt. eigenvalues --    0.07856   0.08040   0.08349   0.08482   0.08936
 Alpha virt. eigenvalues --    0.09562   0.09580   0.10026   0.10786   0.11003
 Alpha virt. eigenvalues --    0.11120   0.12232   0.12277   0.12875   0.13044
 Alpha virt. eigenvalues --    0.13402   0.13532   0.14030   0.14242   0.15995
 Alpha virt. eigenvalues --    0.16371   0.16604   0.17398   0.17489   0.17671
 Alpha virt. eigenvalues --    0.18088   0.18918   0.19165   0.19584   0.19715
 Alpha virt. eigenvalues --    0.21448   0.21482   0.22683   0.23132   0.23465
 Alpha virt. eigenvalues --    0.23573   0.24544   0.24882   0.26831   0.27470
 Alpha virt. eigenvalues --    0.28829   0.29279   0.29814   0.31199   0.35800
 Alpha virt. eigenvalues --    0.36214   0.37953   0.39142   0.41159   0.41485
 Alpha virt. eigenvalues --    0.41934   0.42364   0.43034   0.43551   0.44241
 Alpha virt. eigenvalues --    0.44723   0.44782   0.45377   0.46056   0.47911
 Alpha virt. eigenvalues --    0.48609   0.48913   0.49063   0.50463   0.51174
 Alpha virt. eigenvalues --    0.51385   0.51398   0.52129   0.52533   0.54003
 Alpha virt. eigenvalues --    0.54119   0.54492   0.55761   0.55762   0.57415
 Alpha virt. eigenvalues --    0.58182   0.58764   0.61376   0.62058   0.62307
 Alpha virt. eigenvalues --    0.62950   0.63620   0.64446   0.65132   0.67036
 Alpha virt. eigenvalues --    0.70433   0.70589   0.70953   0.72158   0.72739
 Alpha virt. eigenvalues --    0.75525   0.75687   0.76158   0.76586   0.76940
 Alpha virt. eigenvalues --    0.77472   0.77689   0.78115   0.80405   0.80490
 Alpha virt. eigenvalues --    0.81163   0.81534   0.82045   0.82841   0.84844
 Alpha virt. eigenvalues --    0.86806   0.87302   0.88022   0.89562   0.90464
 Alpha virt. eigenvalues --    0.90733   0.91443   0.93071   0.94709   0.96373
 Alpha virt. eigenvalues --    0.96706   1.00463   1.01276   1.01548   1.02635
 Alpha virt. eigenvalues --    1.02991   1.03910   1.04447   1.05910   1.08797
 Alpha virt. eigenvalues --    1.19800   1.23337   1.24084   1.25382   1.27967
 Alpha virt. eigenvalues --    1.29249   1.32090   1.33710   1.35400   1.35915
 Alpha virt. eigenvalues --    1.39060   1.40202   1.40525   1.42806   1.43126
 Alpha virt. eigenvalues --    1.43358   1.45000   1.45053   1.46502   1.46779
 Alpha virt. eigenvalues --    1.47563   1.47583   1.51588   1.53592   1.55536
 Alpha virt. eigenvalues --    1.55973   1.56127   1.56354   1.57602   1.61235
 Alpha virt. eigenvalues --    1.63457   1.63985   1.64076   1.65967   1.67989
 Alpha virt. eigenvalues --    1.68491   1.68602   1.69685   1.73973   1.75914
 Alpha virt. eigenvalues --    1.77022   1.77865   1.79558   1.79940   1.80176
 Alpha virt. eigenvalues --    1.83077   1.83151   1.83361   1.83547   1.84022
 Alpha virt. eigenvalues --    1.84323   1.85787   1.85791   1.88096   1.91502
 Alpha virt. eigenvalues --    1.91731   1.94123   1.95253   1.97416   1.97675
 Alpha virt. eigenvalues --    1.99295   2.02378   2.04047   2.07549   2.11622
 Alpha virt. eigenvalues --    2.11875   2.13615   2.15101   2.18512   2.20946
 Alpha virt. eigenvalues --    2.22186   2.28379   2.29635   2.34373   2.35337
 Alpha virt. eigenvalues --    2.35982   2.39145   2.40294   2.41783   2.42450
 Alpha virt. eigenvalues --    2.46008   2.48465   2.48655   2.52603   2.53738
 Alpha virt. eigenvalues --    2.54123   2.56871   2.57766   2.58293   2.59638
 Alpha virt. eigenvalues --    2.59655   2.61603   2.61731   2.63258   2.63788
 Alpha virt. eigenvalues --    2.64342   2.64543   2.64937   2.65239   2.67781
 Alpha virt. eigenvalues --    2.68825   2.70857   2.71337   2.73366   2.74807
 Alpha virt. eigenvalues --    2.76245   2.78305   2.79542   2.82339   2.82879
 Alpha virt. eigenvalues --    2.84303   2.86278   2.92037   2.96546   2.99348
 Alpha virt. eigenvalues --    2.99662   3.05685   3.10165   3.10651   3.11766
 Alpha virt. eigenvalues --    3.20922   3.23555   3.25978   3.27721   3.30270
 Alpha virt. eigenvalues --    3.31541   3.32897   3.43321   3.44947   3.45689
 Alpha virt. eigenvalues --    3.47506   3.49378   3.56210   3.65204   3.67216
 Alpha virt. eigenvalues --    3.67747   3.94410   3.95525   3.95784   3.96922
 Alpha virt. eigenvalues --    4.04528   4.06912   4.07132   4.12445   4.35648
 Alpha virt. eigenvalues --    4.61518   4.68936   4.70639  23.45583  23.61438
 Alpha virt. eigenvalues --   23.81566  23.86046  23.87207  23.89069  23.90436
 Alpha virt. eigenvalues --   23.92213  23.96753  23.97636  23.97769  23.99179
 Alpha virt. eigenvalues --   24.09417  24.09547
          Condensed to atoms (all electrons):
               1          2          3          4          5          6
     1  C    8.376284   0.477827  -0.573067   1.719052   0.005409  -0.087576
     2  C    0.477827   6.951661   0.361107  -0.887150  -0.035384  -0.014169
     3  C   -0.573067   0.361107   6.570944   0.635304  -0.114975   0.016347
     4  C    1.719052  -0.887150   0.635304  10.497102  -0.139478  -0.114783
     5  C    0.005409  -0.035384  -0.114975  -0.139478  10.493572   0.632049
     6  C   -0.087576  -0.014169   0.016347  -0.114783   0.632049   6.570235
     7  C   -0.028833   0.005349  -0.014196  -0.035554  -0.883237   0.360309
     8  C    0.387265  -0.028504  -0.087602   0.004119   1.721864  -0.574827
     9  C   -1.306138  -0.681036   0.284693  -0.354305  -0.354110   0.285094
    10  C   -1.147958   0.192867  -0.338656  -2.395827  -2.395170  -0.337497
    11  C    0.217291  -0.942187   1.077658  -0.562486  -1.578259  -0.145749
    12  C   -1.590227   1.124941  -1.335178  -0.974380  -0.193542  -0.210137
    13  C    0.109180  -0.204859  -0.146548  -1.580007  -0.565868   1.078637
    14  C   -1.026968  -0.205685  -0.210208  -0.194597  -0.975889  -1.332331
    15  H    0.360363  -0.102298  -0.000423   0.025386   0.005517   0.001120
    16  H   -0.021487   0.380065  -0.018203   0.013418  -0.001475  -0.000315
    17  H   -0.020553  -0.021013   0.380702  -0.062108   0.000003   0.000379
    18  H    0.045718   0.006774  -0.091217   0.446183   0.010190  -0.004766
    19  H   -0.045729  -0.008435   0.052141  -0.076231  -0.076273   0.052155
    20  H    0.007315   0.001741  -0.004769   0.010160   0.445876  -0.091346
    21  H   -0.001276  -0.000372   0.000380   0.000007  -0.062070   0.380680
    22  H    0.000657   0.000349  -0.000316  -0.001481   0.013476  -0.018257
    23  H    0.005661  -0.002629   0.001120   0.005525   0.025331  -0.000436
    24  H    0.019557   0.015060  -0.001760  -0.013031  -0.013234  -0.001693
    25  H    0.044327   0.013202  -0.000869  -0.012547  -0.012346  -0.000957
               7          8          9         10         11         12
     1  C   -0.028833   0.387265  -1.306138  -1.147958   0.217291  -1.590227
     2  C    0.005349  -0.028504  -0.681036   0.192867  -0.942187   1.124941
     3  C   -0.014196  -0.087602   0.284693  -0.338656   1.077658  -1.335178
     4  C   -0.035554   0.004119  -0.354305  -2.395827  -0.562486  -0.974380
     5  C   -0.883237   1.721864  -0.354110  -2.395170  -1.578259  -0.193542
     6  C    0.360309  -0.574827   0.285094  -0.337497  -0.145749  -0.210137
     7  C    6.945606   0.478871  -0.678190   0.191648  -0.202933  -0.205320
     8  C    0.478871   8.373580  -1.303013  -1.147708   0.110849  -1.023258
     9  C   -0.678190  -1.303013   9.151038   0.326898   1.633487  -1.626699
    10  C    0.191648  -1.147708   0.326898   9.057977  -0.383501   2.094321
    11  C   -0.202933   0.110849   1.633487  -0.383501  14.357666  -3.597873
    12  C   -0.205320  -1.023258  -1.626699   2.094321  -3.597873  15.168827
    13  C   -0.940557   0.210786   1.632021  -0.385868   1.304408  -4.725378
    14  C    1.120769  -1.591550  -1.627198   2.094332  -4.720046   2.665254
    15  H   -0.002612   0.005647   0.087528  -0.009570  -0.022824  -0.022359
    16  H    0.000347   0.000642   0.003695  -0.009829   0.026464  -0.030893
    17  H   -0.000372  -0.001272  -0.004239   0.019116  -0.024162   0.080579
    18  H    0.001740   0.007293  -0.026436   0.022708  -0.020113  -0.040517
    19  H   -0.008461  -0.045715   0.073278   0.423230   0.085259  -0.067941
    20  H    0.006915   0.045695  -0.026427   0.022865  -0.012258  -0.008475
    21  H   -0.021082  -0.020449  -0.004236   0.019106  -0.005776   0.004511
    22  H    0.379990  -0.021303   0.003786  -0.009882   0.002704  -0.008682
    23  H   -0.102068   0.360522   0.087516  -0.009552   0.000323   0.006346
    24  H    0.015268   0.020097   0.369315   0.006547   0.005561  -0.044112
    25  H    0.012929   0.043601   0.346604   0.005187   0.020757  -0.074805
              13         14         15         16         17         18
     1  C    0.109180  -1.026968   0.360363  -0.021487  -0.020553   0.045718
     2  C   -0.204859  -0.205685  -0.102298   0.380065  -0.021013   0.006774
     3  C   -0.146548  -0.210208  -0.000423  -0.018203   0.380702  -0.091217
     4  C   -1.580007  -0.194597   0.025386   0.013418  -0.062108   0.446183
     5  C   -0.565868  -0.975889   0.005517  -0.001475   0.000003   0.010190
     6  C    1.078637  -1.332331   0.001120  -0.000315   0.000379  -0.004766
     7  C   -0.940557   1.120769  -0.002612   0.000347  -0.000372   0.001740
     8  C    0.210786  -1.591550   0.005647   0.000642  -0.001272   0.007293
     9  C    1.632021  -1.627198   0.087528   0.003695  -0.004239  -0.026436
    10  C   -0.385868   2.094332  -0.009570  -0.009829   0.019116   0.022708
    11  C    1.304408  -4.720046  -0.022824   0.026464  -0.024162  -0.020113
    12  C   -4.725378   2.665254  -0.022359  -0.030893   0.080579  -0.040517
    13  C   14.377245  -3.595021   0.000370   0.002687  -0.005791  -0.012351
    14  C   -3.595021  15.171892   0.006370  -0.008655   0.004516  -0.008598
    15  H    0.000370   0.006370   0.440136  -0.009002   0.001557   0.000125
    16  H    0.002687  -0.008655  -0.009002   0.420063  -0.006941   0.001960
    17  H   -0.005791   0.004516   0.001557  -0.006941   0.424663  -0.010508
    18  H   -0.012351  -0.008598   0.000125   0.001960  -0.010508   0.454178
    19  H    0.085310  -0.067768   0.000334  -0.000572   0.001474  -0.006404
    20  H   -0.020174  -0.040555  -0.000127   0.000016  -0.000148   0.001312
    21  H   -0.024095   0.080422   0.000018  -0.000007   0.000011  -0.000148
    22  H    0.026595  -0.031205  -0.000127   0.000007  -0.000007   0.000016
    23  H   -0.022974  -0.022397   0.000579  -0.000127   0.000018  -0.000126
    24  H    0.005488  -0.043778  -0.001464   0.000749  -0.000192   0.000153
    25  H    0.020663  -0.075208  -0.000397   0.000487  -0.000100   0.000214
              19         20         21         22         23         24
     1  C   -0.045729   0.007315  -0.001276   0.000657   0.005661   0.019557
     2  C   -0.008435   0.001741  -0.000372   0.000349  -0.002629   0.015060
     3  C    0.052141  -0.004769   0.000380  -0.000316   0.001120  -0.001760
     4  C   -0.076231   0.010160   0.000007  -0.001481   0.005525  -0.013031
     5  C   -0.076273   0.445876  -0.062070   0.013476   0.025331  -0.013234
     6  C    0.052155  -0.091346   0.380680  -0.018257  -0.000436  -0.001693
     7  C   -0.008461   0.006915  -0.021082   0.379990  -0.102068   0.015268
     8  C   -0.045715   0.045695  -0.020449  -0.021303   0.360522   0.020097
     9  C    0.073278  -0.026427  -0.004236   0.003786   0.087516   0.369315
    10  C    0.423230   0.022865   0.019106  -0.009882  -0.009552   0.006547
    11  C    0.085259  -0.012258  -0.005776   0.002704   0.000323   0.005561
    12  C   -0.067941  -0.008475   0.004511  -0.008682   0.006346  -0.044112
    13  C    0.085310  -0.020174  -0.024095   0.026595  -0.022974   0.005488
    14  C   -0.067768  -0.040555   0.080422  -0.031205  -0.022397  -0.043778
    15  H    0.000334  -0.000127   0.000018  -0.000127   0.000579  -0.001464
    16  H   -0.000572   0.000016  -0.000007   0.000007  -0.000127   0.000749
    17  H    0.001474  -0.000148   0.000011  -0.000007   0.000018  -0.000192
    18  H   -0.006404   0.001312  -0.000148   0.000016  -0.000126   0.000153
    19  H    0.446073  -0.006403   0.001471  -0.000571   0.000336   0.000640
    20  H   -0.006403   0.454199  -0.010488   0.001964   0.000122   0.000148
    21  H    0.001471  -0.010488   0.424593  -0.006936   0.001557  -0.000190
    22  H   -0.000571   0.001964  -0.006936   0.420065  -0.009004   0.000741
    23  H    0.000336   0.000122   0.001557  -0.009004   0.440057  -0.001430
    24  H    0.000640   0.000148  -0.000190   0.000741  -0.001430   0.491909
    25  H    0.000574   0.000220  -0.000102   0.000495  -0.000429  -0.078680
              25
     1  C    0.044327
     2  C    0.013202
     3  C   -0.000869
     4  C   -0.012547
     5  C   -0.012346
     6  C   -0.000957
     7  C    0.012929
     8  C    0.043601
     9  C    0.346604
    10  C    0.005187
    11  C    0.020757
    12  C   -0.074805
    13  C    0.020663
    14  C   -0.075208
    15  H   -0.000397
    16  H    0.000487
    17  H   -0.000100
    18  H    0.000214
    19  H    0.000574
    20  H    0.000220
    21  H   -0.000102
    22  H    0.000495
    23  H   -0.000429
    24  H   -0.078680
    25  H    0.492083
 Mulliken charges:
               1
     1  C    0.073905
     2  C   -0.397223
     3  C   -0.442409
     4  C    0.047710
     5  C    0.048024
     6  C   -0.442171
     7  C   -0.396328
     8  C    0.074369
     9  C   -0.292927
    10  C    0.094213
    11  C   -0.624260
    12  C    0.634996
    13  C   -0.623900
    14  C    0.634101
    15  H    0.236156
    16  H    0.256906
    17  H    0.244384
    18  H    0.222621
    19  H    0.188226
    20  H    0.222621
    21  H    0.244472
    22  H    0.256926
    23  H    0.236160
    24  H    0.248330
    25  H    0.255097
 Sum of Mulliken charges =   1.00000
 Mulliken charges with hydrogens summed into heavy atoms:
               1
     1  C    0.310061
     2  C   -0.140317
     3  C   -0.198025
     4  C    0.270330
     5  C    0.270645
     6  C   -0.197699
     7  C   -0.139402
     8  C    0.310529
     9  C    0.210501
    10  C    0.282439
    11  C   -0.624260
    12  C    0.634996
    13  C   -0.623900
    14  C    0.634101
 Electronic spatial extent (au):  <R**2>=           2865.7989
 Charge=              1.0000 electrons
 Dipole moment (field-independent basis, Debye):
    X=              0.0014    Y=              0.1915    Z=              0.0013  Tot=              0.1915
 Quadrupole moment (field-independent basis, Debye-Ang):
   XX=            -30.8989   YY=            -56.2598   ZZ=            -84.2228
   XY=              0.0008   XZ=              0.0012   YZ=              0.1202
 Traceless Quadrupole moment (field-independent basis, Debye-Ang):
   XX=             26.2283   YY=              0.8674   ZZ=            -27.0957
   XY=              0.0008   XZ=              0.0012   YZ=              0.1202
 Octapole moment (field-independent basis, Debye-Ang**2):
  XXX=              0.0554  YYY=              5.2014  ZZZ=             -0.0308  XYY=             -0.0007
  XXY=             -4.3788  XXZ=              0.2260  XZZ=             -0.0064  YZZ=             -3.0870
  YYZ=              0.1458  XYZ=              0.0062
 Hexadecapole moment (field-independent basis, Debye-Ang**3):
 XXXX=          -2126.4184 YYYY=           -609.3736 ZZZZ=            -99.6466 XXXY=              0.0310
 XXXZ=              0.0354 YYYX=             -0.0127 YYYZ=              1.3212 ZZZX=              0.0017
 ZZZY=              0.0520 XXYY=           -509.4603 XXZZ=           -593.5038 YYZZ=           -145.8115
 XXYZ=              1.3112 YYXZ=             -0.0000 ZZXY=              0.0007
 N-N= 7.800208769606D+02 E-N=-2.796316690616D+03  KE= 5.374334675867D+02
 Unable to Open any file for archive entry.
 1\1\GINC-GADI-CPU-CLX-0113\SP\RM062X TD-FC\6-311++G(d,p)\C14H11(1+)\TS
 1578\28-Jul-2022\0\\#n M062X/6-311++G(d,p) TD(NStates=1) EmpiricalDisp
 ersion=GD3 SP\\SP_-50\\1,1\C,0,0.0176,2.491755,1.360431\C,0,0.0208,3.7
 10233,0.671989\C,0,0.0059,3.699111,-0.71383\C,0,-0.019475,2.474481,-1.
 407538\C,0,-0.019525,-2.474581,-1.407538\C,0,0.0056,-3.699611,-0.71383
 \C,0,0.020325,-3.710408,0.671989\C,0,0.01665,-2.492055,1.360431\C,0,0.
 010925,0.0011,1.453369\C,0,-0.0305,-0.00005,-1.429189\C,0,-0.004525,1.
 252505,0.677065\C,0,-0.0126,1.239046,-0.730804\C,0,-0.0046,-1.25248,0.
 677065\C,0,-0.0124,-1.238896,-0.730804\H,0,0.0058,2.487346,2.443647\H,
 0,0.0211,4.643753,1.211689\H,0,-0.00355,4.608387,-1.272349\H,0,-0.0092
 ,2.478575,-2.490059\H,0,-0.028125,-0.000025,-2.510266\H,0,-0.00905,-2.
 47865,-2.490059\H,0,-0.0037,-4.609012,-1.272349\H,0,0.020525,-4.644128
 ,1.211689\H,0,0.0047,-2.487671,2.443647\H,0,-0.819585,0.00025,2.145512
 \H,0,0.899585,0.00025,2.146062\\Version=ES64L-G16RevC.01\State=1-A\HF=
 -539.7579841\RMSD=4.849e-09\PG=C01 [X(C14H11)]\\@
 The archive entry for this job was punched.


 DO YOU KNOW THAT THE LETTERS IN "EPISCOPAL", WHEN
 REARRANGED, SPELL "PEPSI COLA"?
 Job cpu time:       0 days  1 hours 20 minutes  6.4 seconds.
 Elapsed time:       0 days  0 hours  1 minutes 40.4 seconds.
 File lengths (MBytes):  RWF=    460 Int=      0 D2E=      0 Chk=     15 Scr=      1
 Normal termination of Gaussian 16 at Thu Jul 28 14:30:36 2022.
