 Entering Gaussian System, Link 0=g16
 Initial command:
 /apps/gaussian/g16c01/g16/l1.exe "/jobfs/53002009.gadi-pbs/Gau-717803.inp" -scrdir="/jobfs/53002009.gadi-pbs/"
 Entering Link 1 = /apps/gaussian/g16c01/g16/l1.exe PID=    717804.
  
 Copyright (c) 1988-2019, Gaussian, Inc.  All Rights Reserved.
  
 This is part of the Gaussian(R) 16 program.  It is based on
 the Gaussian(R) 09 system (copyright 2009, Gaussian, Inc.),
 the Gaussian(R) 03 system (copyright 2003, Gaussian, Inc.),
 the Gaussian(R) 98 system (copyright 1998, Gaussian, Inc.),
 the Gaussian(R) 94 system (copyright 1995, Gaussian, Inc.),
 the Gaussian 92(TM) system (copyright 1992, Gaussian, Inc.),
 the Gaussian 90(TM) system (copyright 1990, Gaussian, Inc.),
 the Gaussian 88(TM) system (copyright 1988, Gaussian, Inc.),
 the Gaussian 86(TM) system (copyright 1986, Carnegie Mellon
 University), and the Gaussian 82(TM) system (copyright 1983,
 Carnegie Mellon University). Gaussian is a federally registered
 trademark of Gaussian, Inc.
  
 This software contains proprietary and confidential information,
 including trade secrets, belonging to Gaussian, Inc.
  
 This software is provided under written license and may be
 used, copied, transmitted, or stored only in accord with that
 written license.
  
 The following legend is applicable only to US Government
 contracts under FAR:
  
                    RESTRICTED RIGHTS LEGEND
  
 Use, reproduction and disclosure by the US Government is
 subject to restrictions as set forth in subparagraphs (a)
 and (c) of the Commercial Computer Software - Restricted
 Rights clause in FAR 52.227-19.
  
 Gaussian, Inc.
 340 Quinnipiac St., Bldg. 40, Wallingford CT 06492
  
  
 ---------------------------------------------------------------
 Warning -- This program may not be used in any manner that
 competes with the business of Gaussian, Inc. or will provide
 assistance to any competitor of Gaussian, Inc.  The licensee
 of this program is prohibited from giving any competitor of
 Gaussian, Inc. access to this program.  By using this program,
 the user acknowledges that Gaussian, Inc. is engaged in the
 business of creating and licensing software in the field of
 computational chemistry and represents and warrants to the
 licensee that it is not a competitor of Gaussian, Inc. and that
 it will not use this program in any manner prohibited above.
 ---------------------------------------------------------------
  

 Cite this work as:
 Gaussian 16, Revision C.01,
 M. J. Frisch, G. W. Trucks, H. B. Schlegel, G. E. Scuseria, 
 M. A. Robb, J. R. Cheeseman, G. Scalmani, V. Barone, 
 G. A. Petersson, H. Nakatsuji, X. Li, M. Caricato, A. V. Marenich, 
 J. Bloino, B. G. Janesko, R. Gomperts, B. Mennucci, H. P. Hratchian, 
 J. V. Ortiz, A. F. Izmaylov, J. L. Sonnenberg, D. Williams-Young, 
 F. Ding, F. Lipparini, F. Egidi, J. Goings, B. Peng, A. Petrone, 
 T. Henderson, D. Ranasinghe, V. G. Zakrzewski, J. Gao, N. Rega, 
 G. Zheng, W. Liang, M. Hada, M. Ehara, K. Toyota, R. Fukuda, 
 J. Hasegawa, M. Ishida, T. Nakajima, Y. Honda, O. Kitao, H. Nakai, 
 T. Vreven, K. Throssell, J. A. Montgomery, Jr., J. E. Peralta, 
 F. Ogliaro, M. J. Bearpark, J. J. Heyd, E. N. Brothers, K. N. Kudin, 
 V. N. Staroverov, T. A. Keith, R. Kobayashi, J. Normand, 
 K. Raghavachari, A. P. Rendell, J. C. Burant, S. S. Iyengar, 
 J. Tomasi, M. Cossi, J. M. Millam, M. Klene, C. Adamo, R. Cammi, 
 J. W. Ochterski, R. L. Martin, K. Morokuma, O. Farkas, 
 J. B. Foresman, and D. J. Fox, Gaussian, Inc., Wallingford CT, 2019.
 
 ******************************************
 Gaussian 16:  ES64L-G16RevC.01  3-Jul-2019
                28-Jul-2022 
 ******************************************
 %NProcShared=48
 Will use up to   48 processors via shared memory.
 %mem = 190GB
 ---------------------------------------------------------------
 #n M062X/6-311++G(d,p) TD(NStates=1) EmpiricalDispersion=GD3 SP
 ---------------------------------------------------------------
 1/38=1,172=1/1;
 2/12=2,17=6,18=5,40=1/2;
 3/5=4,6=6,7=1111,11=9,25=1,30=1,74=-55,124=31/1,2,3,8;
 4//1;
 5/5=2,38=5/2;
 8/6=1,10=2,108=1/1;
 9/41=1,42=1,70=2/14;
 6/7=2,8=2,9=2,10=2/1;
 99/5=1,9=1/99;
 -------
 SP_-125
 -------
 Symbolic Z-matrix:
 Charge =  1 Multiplicity = 1
 C                    -0.00475   2.49416   1.36043 
 C                    -0.00238   3.70238   0.67199 
 C                    -0.0015    3.68636  -0.71383 
 C                    -0.00025   2.46366  -1.40754 
 C                     0.00025  -2.46266  -1.40754 
 C                     0.0015   -3.68136  -0.71383 
 C                     0.00238  -3.70063   0.67199 
 C                     0.00475  -2.49116   1.36043 
 C                     0.00013  -0.011     1.45337 
 C                     0.        0.0005   -1.42919 
 C                    -0.00037   1.26193   0.67707 
 C                     0.001     1.23672  -0.7308 
 C                     0.00037  -1.26218   0.67707 
 C                    -0.001    -1.23822  -0.7308 
 H                    -0.0055    2.4897    2.44365 
 H                    -0.00287   4.63863   1.21169 
 H                    -0.00075   4.61239  -1.27235 
 H                     0.00075   2.46793  -2.49006 
 H                     0.        0.00025  -2.51027 
 H                    -0.00075  -2.46717  -2.49006 
 H                     0.00075  -4.60614  -1.27235 
 H                     0.00287  -4.63488   1.21169 
 H                     0.0055   -2.48645   2.44365 
 H                    -0.85959  -0.0025    2.14854 
 H                     0.85959  -0.0025    2.14304 
 
                          Input orientation:                          
 ---------------------------------------------------------------------
 Center     Atomic      Atomic             Coordinates (Angstroms)
 Number     Number       Type             X           Y           Z
 ---------------------------------------------------------------------
      1          6           0       -0.004750    2.494155    1.360431
      2          6           0       -0.002375    3.702383    0.671989
      3          6           0       -0.001500    3.686361   -0.713830
      4          6           0       -0.000250    2.463656   -1.407538
      5          6           0        0.000250   -2.462656   -1.407538
      6          6           0        0.001500   -3.681361   -0.713830
      7          6           0        0.002375   -3.700633    0.671989
      8          6           0        0.004750   -2.491155    1.360431
      9          6           0        0.000125   -0.011000    1.453369
     10          6           0        0.000000    0.000500   -1.429189
     11          6           0       -0.000375    1.261930    0.677065
     12          6           0        0.001000    1.236721   -0.730804
     13          6           0        0.000375   -1.262180    0.677065
     14          6           0       -0.001000   -1.238221   -0.730804
     15          1           0       -0.005500    2.489696    2.443647
     16          1           0       -0.002875    4.638628    1.211689
     17          1           0       -0.000750    4.612387   -1.272349
     18          1           0        0.000750    2.467925   -2.490059
     19          1           0        0.000000    0.000250   -2.510266
     20          1           0       -0.000750   -2.467175   -2.490059
     21          1           0        0.000750   -4.606137   -1.272349
     22          1           0        0.002875   -4.634878    1.211689
     23          1           0        0.005500   -2.486446    2.443647
     24          1           0       -0.859585   -0.002500    2.148537
     25          1           0        0.859585   -0.002500    2.143037
 ---------------------------------------------------------------------
                    Distance matrix (angstroms):
                    1          2          3          4          5
     1  C    0.000000
     2  C    1.390602   0.000000
     3  C    2.392472   1.385912   0.000000
     4  C    2.768141   2.420513   1.405788   0.000000
     5  C    5.677293   6.506316   6.188024   4.926312   0.000000
     6  C    6.514568   7.512668   7.367723   6.184049   1.402310
     7  C    6.232929   7.403018   7.515863   6.505605   2.420129
     8  C    4.985319   6.231686   6.516464   5.675547   2.768119
     9  C    2.506883   3.794703   4.285701   3.782686   3.767679
    10  C    3.741700   4.256629   3.754639   2.463251   2.463251
    11  C    1.409038   2.440459   2.795077   2.406183   4.268268
    12  C    2.440172   2.836781   2.449700   1.401192   3.760766
    13  C    3.817993   4.964566   5.140297   4.269359   2.405559
    14  C    4.278307   5.135893   4.924611   3.763225   1.399004
    15  H    1.083225   2.146949   3.376638   3.851277   6.273552
    16  H    2.149626   1.080662   2.148124   3.404535   7.568923
    17  H    3.379120   2.146756   1.081420   2.152980   7.076335
    18  H    3.850583   3.394473   2.153969   1.082530   5.048018
    19  H    4.604550   4.881858   4.100561   2.698959   2.698502
    20  H    6.280214   6.932676   6.404763   5.048262   1.082531
    21  H    7.572695   8.532993   8.311286   7.071085   2.147740
    22  H    7.130589   8.354713   8.541116   7.566343   3.402779
    23  H    5.097043   6.437425   6.933488   6.271776   3.851262
    24  H    2.754113   4.079358   4.747331   4.412035   4.408781
    25  H    2.755510   4.078372   4.744560   4.407701   4.404249
                    6          7          8          9         10
     6  C    0.000000
     7  C    1.385953   0.000000
     8  C    2.391476   1.391688   0.000000
     9  C    4.262429   3.771465   2.481900   0.000000
    10  C    3.750712   4.255977   3.740367   2.882581   0.000000
    11  C    5.135243   4.962566   3.814795   1.490972   2.455099
    12  C    4.918111   5.132767   4.274382   2.515436   1.419854
    13  C    2.790524   2.438459   1.406196   1.472447   2.455742
    14  C    2.443200   2.833957   2.437856   2.505331   1.422031
    15  H    6.931930   6.438867   5.097287   2.689640   4.603801
    16  H    8.539898   8.356709   7.131338   4.655906   5.337272
    17  H    8.312533   8.537374   7.575742   5.367052   4.614553
    18  H    6.400680   6.931786   6.278436   4.657864   2.685821
    19  H    4.096516   4.880911   4.603196   3.963651   1.081077
    20  H    2.151567   3.394109   3.850569   4.645796   2.686050
    21  H    1.080349   2.144852   3.377084   5.342736   4.609306
    22  H    2.148679   1.078930   2.148878   4.630191   5.334883
    23  H    3.376018   2.147797   1.083226   2.666179   4.602585
    24  H    4.740109   4.074231   2.749834   1.105637   3.679541
    25  H    4.736245   4.071238   2.745290   1.101992   3.674193
                   11         12         13         14         15
    11  C    0.000000
    12  C    1.408095   0.000000
    13  C    2.524110   2.868205   0.000000
    14  C    2.869294   2.474943   1.408074   0.000000
    15  H    2.151336   3.412789   4.146977   4.896379   0.000000
    16  H    3.418760   3.917431   5.924978   6.189559   2.477022
    17  H    3.876310   3.418829   6.189568   5.875618   4.279540
    18  H    3.388967   2.147287   4.893297   4.102499   4.933758
    19  H    3.427961   2.166875   3.428237   2.168017   5.544243
    20  H    4.892535   4.100467   3.388612   2.145998   6.993715
    21  H    6.183399   5.867901   3.870693   3.411178   8.009963
    22  H    5.920995   6.184574   3.414809   3.912873   7.230307
    23  H    4.143811   4.892763   2.149341   3.411048   4.976154
    24  H    2.121852   3.250674   2.119329   3.248812   2.650961
    25  H    2.118346   3.245273   2.115209   3.244468   2.655142
                   16         17         18         19         20
    16  H    0.000000
    17  H    2.484178   0.000000
    18  H    4.291259   2.466077   0.000000
    19  H    5.947059   4.775379   2.467758   0.000000
    20  H    8.012202   7.183524   4.935100   2.467508   0.000000
    21  H    9.572677   9.218524   7.178104   4.769826   2.461296
    22  H    9.273508   9.575091   8.009541   5.944524   4.289742
    23  H    7.230800   8.012621   6.991943   5.543008   4.933748
    24  H    4.811622   5.808377   5.325387   4.737440   5.322480
    25  H    4.811581   5.805361   5.320355   4.732032   5.317930
                   21         22         23         24         25
    21  H    0.000000
    22  H    2.484205   0.000000
    23  H    4.278053   2.476588   0.000000
    24  H    5.799665   4.804211   2.646781   0.000000
    25  H    5.796200   4.802113   2.643826   1.719179   0.000000
 Stoichiometry    C14H11(1+)
 Framework group  C1[X(C14H11)]
 Deg. of freedom    69
 Full point group                 C1      NOp   1
 Largest Abelian subgroup         C1      NOp   1
 Largest concise Abelian subgroup C1      NOp   1
                         Standard orientation:                         
 ---------------------------------------------------------------------
 Center     Atomic      Atomic             Coordinates (Angstroms)
 Number     Number       Type             X           Y           Z
 ---------------------------------------------------------------------
      1          6           0       -2.493868   -1.360957   -0.003237
      2          6           0       -3.702239   -0.672770   -0.000162
      3          6           0       -3.686509    0.713052    0.000667
      4          6           0       -2.463950    1.407018    0.001171
      5          6           0        2.462361    1.408058   -0.001261
      6          6           0        3.681213    0.714607   -0.000718
      7          6           0        3.700778   -0.671208    0.000183
      8          6           0        2.491447   -1.359905    0.003296
      9          6           0        0.011309   -1.453367    0.000149
     10          6           0       -0.000799    1.429189   -0.000046
     11          6           0       -1.261784   -0.677331    0.000386
     12          6           0       -1.236872    0.730543    0.001709
     13          6           0        1.262325   -0.676799   -0.000366
     14          6           0        1.238069    0.731065   -0.001764
     15          1           0       -2.489181   -2.444172   -0.003961
     16          1           0       -4.638371   -1.212668   -0.000090
     17          1           0       -4.612652    1.271376    0.001953
     18          1           0       -2.468447    2.489538    0.002144
     19          1           0       -0.000777    2.510266   -0.000075
     20          1           0        2.466651    2.490579   -0.002292
     21          1           0        4.605871    1.273321   -0.002033
     22          1           0        4.635137   -1.210711    0.000141
     23          1           0        2.486967   -2.443122    0.004078
     24          1           0        0.002444   -2.148559   -0.859537
     25          1           0        0.003466   -2.143013    0.859633
 ---------------------------------------------------------------------
 Rotational constants (GHZ):           2.1362233           0.4446258           0.3688264
 Standard basis: 6-311++G(d,p) (5D, 7F)
 There are   399 symmetry adapted cartesian basis functions of A   symmetry.
 There are   385 symmetry adapted basis functions of A   symmetry.
   385 basis functions,   603 primitive gaussians,   399 cartesian basis functions
    47 alpha electrons       47 beta electrons
       nuclear repulsion energy       781.1983566758 Hartrees.
 NAtoms=   25 NActive=   25 NUniq=   25 SFac= 1.00D+00 NAtFMM=   60 NAOKFM=F Big=F
 Integral buffers will be    131072 words long.
 Regular integral format.
 Two-electron integral symmetry is turned on.
 Nuclear repulsion after empirical dispersion term =      781.1973771870 Hartrees.
 One-electron integrals computed using PRISM.
 NBasis=   385 RedAO= T EigKep=  1.12D-06  NBF=   385
 NBsUse=   379 1.00D-06 EigRej=  8.40D-07 NBFU=   379
 ExpMin= 3.60D-02 ExpMax= 4.56D+03 ExpMxC= 6.82D+02 IAcc=3 IRadAn=         5 AccDes= 0.00D+00
 Harris functional with IExCor= 1009 and IRadAn=       5 diagonalized for initial guess.
 HarFok:  IExCor= 1009 AccDes= 0.00D+00 IRadAn=         5 IDoV= 1 UseB2=F ITyADJ=14
 ICtDFT=  3500011 ScaDFX=  1.000000  1.000000  1.000000  1.000000
 FoFCou: FMM=F IPFlag=           0 FMFlag=      100000 FMFlg1=           0
         NFxFlg=           0 DoJE=T BraDBF=F KetDBF=T FulRan=T
         wScrn=  0.000000 ICntrl=       500 IOpCl=  0 I1Cent=   200000004 NGrid=           0
         NMat0=    1 NMatS0=      1 NMatT0=    0 NMatD0=    1 NMtDS0=    0 NMtDT0=    0
 Petite list used in FoFCou.
 Requested convergence on RMS density matrix=1.00D-08 within 128 cycles.
 Requested convergence on MAX density matrix=1.00D-06.
 Requested convergence on             energy=1.00D-06.
 No special actions if energy rises.
 SCF Done:  E(RM062X) =  -539.760094014     A.U. after   15 cycles
            NFock= 15  Conv=0.47D-08     -V/T= 2.0042
 DoSCS=F DFT=T ScalE2(SS,OS)=  1.000000  1.000000
 ExpMin= 3.60D-02 ExpMax= 4.56D+03 ExpMxC= 6.82D+02 IAcc=3 IRadAn=         5 AccDes= 0.00D+00
 HarFok:  IExCor=  205 AccDes= 0.00D+00 IRadAn=         5 IDoV=-2 UseB2=F ITyADJ=14
 ICtDFT= 12500011 ScaDFX=  1.000000  1.000000  1.000000  1.000000
 Range of M.O.s used for correlation:    15   379
 NBasis=   385 NAE=    47 NBE=    47 NFC=    14 NFV=     0
 NROrb=    365 NOA=    33 NOB=    33 NVA=   332 NVB=   332

 **** Warning!!: The largest alpha MO coefficient is  0.15161107D+03

 Orbital symmetries:
       Occupied  (A) (A) (A) (A) (A) (A) (A) (A) (A) (A) (A) (A)
                 (A) (A) (A) (A) (A) (A) (A) (A) (A) (A) (A) (A)
                 (A) (A) (A) (A) (A) (A) (A) (A) (A) (A) (A) (A)
                 (A) (A) (A) (A) (A) (A) (A) (A) (A) (A) (A)
       Virtual   (A) (A) (A) (A) (A) (A) (A) (A) (A) (A) (A) (A)
                 (A) (A) (A) (A) (A) (A) (A) (A) (A) (A) (A) (A)
                 (A) (A) (A) (A) (A) (A) (A) (A) (A) (A) (A) (A)
                 (A) (A) (A) (A) (A) (A) (A) (A) (A) (A) (A) (A)
                 (A) (A) (A) (A) (A) (A) (A) (A) (A) (A) (A) (A)
                 (A) (A) (A) (A) (A) (A) (A) (A) (A) (A) (A) (A)
                 (A) (A) (A) (A) (A) (A) (A) (A) (A) (A) (A) (A)
                 (A) (A) (A) (A) (A) (A) (A) (A) (A) (A) (A) (A)
                 (A) (A) (A) (A) (A) (A) (A) (A) (A) (A) (A) (A)
                 (A) (A) (A) (A) (A) (A) (A) (A) (A) (A) (A) (A)
                 (A) (A) (A) (A) (A) (A) (A) (A) (A) (A) (A) (A)
                 (A) (A) (A) (A) (A) (A) (A) (A) (A) (A) (A) (A)
                 (A) (A) (A) (A) (A) (A) (A) (A) (A) (A) (A) (A)
                 (A) (A) (A) (A) (A) (A) (A) (A) (A) (A) (A) (A)
                 (A) (A) (A) (A) (A) (A) (A) (A) (A) (A) (A) (A)
                 (A) (A) (A) (A) (A) (A) (A) (A) (A) (A) (A) (A)
                 (A) (A) (A) (A) (A) (A) (A) (A) (A) (A) (A) (A)
                 (A) (A) (A) (A) (A) (A) (A) (A) (A) (A) (A) (A)
                 (A) (A) (A) (A) (A) (A) (A) (A) (A) (A) (A) (A)
                 (A) (A) (A) (A) (A) (A) (A) (A) (A) (A) (A) (A)
                 (A) (A) (A) (A) (A) (A) (A) (A) (A) (A) (A) (A)
                 (A) (A) (A) (A) (A) (A) (A) (A) (A) (A) (A) (A)
                 (A) (A) (A) (A) (A) (A) (A) (A) (A) (A) (A) (A)
                 (A) (A) (A) (A) (A) (A) (A) (A) (A) (A) (A) (A)
                 (A) (A) (A) (A) (A) (A) (A) (A) (A) (A) (A) (A)
                 (A) (A) (A) (A) (A) (A) (A) (A) (A) (A) (A) (A)
                 (A) (A) (A) (A) (A) (A) (A) (A) (A) (A) (A) (A)
                 (A) (A) (A) (A) (A) (A) (A) (A)
     4 initial guesses have been made.
 Convergence on wavefunction:    0.001000000000000
 Iteration     1 Dimension     4 NMult     0 NNew      4
 CISAX will form     4 AO SS matrices at one time.
 Iteration     2 Dimension     6 NMult     4 NNew      2
 Iteration     3 Dimension     8 NMult     6 NNew      2
 Iteration     4 Dimension    10 NMult     8 NNew      2
 Iteration     5 Dimension    12 NMult    10 NNew      2
 Iteration     6 Dimension    14 NMult    12 NNew      2
 ***********************************************************************
 Excited states from <AA,BB:AA,BB> singles matrix:
 ***********************************************************************
 
 Ground to excited state transition densities written to RWF  633
 Ground to excited state transition electric dipole moments (Au):
       state          X           Y           Z        Dip. S.      Osc.
         1         0.0144     -0.6443     -0.0003      0.4153      0.0287
 Ground to excited state transition velocity dipole moments (Au):
       state          X           Y           Z        Dip. S.      Osc.
         1        -0.0015      0.0746      0.0000      0.0056      0.0357
 Ground to excited state transition magnetic dipole moments (Au):
       state          X           Y           Z
         1        -0.0002      0.0011     -0.0006
 Ground to excited state transition velocity quadrupole moments (Au):
       state          XX          YY          ZZ          XY          XZ          YZ
         1         0.2975      0.0351     -0.0098     -0.0022     -0.0001     -0.0002
 <0|del|b> * <b|rxdel|0> + <0|del|b> * <b|delr+rdel|0>
 Rotatory Strengths (R) in cgs (10**-40 erg-esu-cm/Gauss)
       state          XX          YY          ZZ    R(velocity)    E-M Angle
         1         0.3024      0.0022      0.2423      0.1823       90.00
 1/2[<0|r|b>*<b|rxdel|0> + (<0|rxdel|b>*<b|r|0>)*]
 Rotatory Strengths (R) in cgs (10**-40 erg-esu-cm/Gauss)
       state          XX          YY          ZZ     R(length)
         1         0.0017      0.4888     -0.0001      0.1635
  1/2[<0|del|b>*<b|r|0> + (<0|r|b>*<b|del|0>)*] (Au)
       state          X           Y           Z        Dip. S.   Osc.(frdel)
         1        -0.0000     -0.0480     -0.0000      0.0481      0.0320

 Excitation energies and oscillator strengths:
 
 Excited State   1:      Singlet-A      2.8227 eV  439.23 nm  f=0.0287  <S**2>=0.000
      47 -> 48         0.70425
 This state for optimization and/or second-order correction.
 Total Energy, E(TD-HF/TD-DFT) =  -539.656360058    
 Copying the excited state density for this state as the 1-particle RhoCI density.
 SavETr:  write IOETrn=   770 NScale= 10 NData=  16 NLR=1 NState=    1 LETran=      28.

 **********************************************************************

            Population analysis using the SCF Density.

 **********************************************************************

 Orbital symmetries:
       Occupied  (A) (A) (A) (A) (A) (A) (A) (A) (A) (A) (A) (A)
                 (A) (A) (A) (A) (A) (A) (A) (A) (A) (A) (A) (A)
                 (A) (A) (A) (A) (A) (A) (A) (A) (A) (A) (A) (A)
                 (A) (A) (A) (A) (A) (A) (A) (A) (A) (A) (A)
       Virtual   (A) (A) (A) (A) (A) (A) (A) (A) (A) (A) (A) (A)
                 (A) (A) (A) (A) (A) (A) (A) (A) (A) (A) (A) (A)
                 (A) (A) (A) (A) (A) (A) (A) (A) (A) (A) (A) (A)
                 (A) (A) (A) (A) (A) (A) (A) (A) (A) (A) (A) (A)
                 (A) (A) (A) (A) (A) (A) (A) (A) (A) (A) (A) (A)
                 (A) (A) (A) (A) (A) (A) (A) (A) (A) (A) (A) (A)
                 (A) (A) (A) (A) (A) (A) (A) (A) (A) (A) (A) (A)
                 (A) (A) (A) (A) (A) (A) (A) (A) (A) (A) (A) (A)
                 (A) (A) (A) (A) (A) (A) (A) (A) (A) (A) (A) (A)
                 (A) (A) (A) (A) (A) (A) (A) (A) (A) (A) (A) (A)
                 (A) (A) (A) (A) (A) (A) (A) (A) (A) (A) (A) (A)
                 (A) (A) (A) (A) (A) (A) (A) (A) (A) (A) (A) (A)
                 (A) (A) (A) (A) (A) (A) (A) (A) (A) (A) (A) (A)
                 (A) (A) (A) (A) (A) (A) (A) (A) (A) (A) (A) (A)
                 (A) (A) (A) (A) (A) (A) (A) (A) (A) (A) (A) (A)
                 (A) (A) (A) (A) (A) (A) (A) (A) (A) (A) (A) (A)
                 (A) (A) (A) (A) (A) (A) (A) (A) (A) (A) (A) (A)
                 (A) (A) (A) (A) (A) (A) (A) (A) (A) (A) (A) (A)
                 (A) (A) (A) (A) (A) (A) (A) (A) (A) (A) (A) (A)
                 (A) (A) (A) (A) (A) (A) (A) (A) (A) (A) (A) (A)
                 (A) (A) (A) (A) (A) (A) (A) (A) (A) (A) (A) (A)
                 (A) (A) (A) (A) (A) (A) (A) (A) (A) (A) (A) (A)
                 (A) (A) (A) (A) (A) (A) (A) (A) (A) (A) (A) (A)
                 (A) (A) (A) (A) (A) (A) (A) (A) (A) (A) (A) (A)
                 (A) (A) (A) (A) (A) (A) (A) (A) (A) (A) (A) (A)
                 (A) (A) (A) (A) (A) (A) (A) (A) (A) (A) (A) (A)
                 (A) (A) (A) (A) (A) (A) (A) (A) (A) (A) (A) (A)
                 (A) (A) (A) (A) (A) (A) (A) (A)
 The electronic state is 1-A.
 Alpha  occ. eigenvalues --  -10.77665 -10.73309 -10.73171 -10.72439 -10.72432
 Alpha  occ. eigenvalues --  -10.71405 -10.71331 -10.71017 -10.70993 -10.70980
 Alpha  occ. eigenvalues --  -10.69999 -10.69946 -10.69663 -10.69596  -1.16444
 Alpha  occ. eigenvalues --   -1.12466  -1.06945  -1.05735  -1.01313  -1.00183
 Alpha  occ. eigenvalues --   -0.95782  -0.91056  -0.86420  -0.85900  -0.83816
 Alpha  occ. eigenvalues --   -0.78399  -0.76029  -0.74418  -0.69564  -0.69245
 Alpha  occ. eigenvalues --   -0.68504  -0.68194  -0.68102  -0.64739  -0.64286
 Alpha  occ. eigenvalues --   -0.63071  -0.61860  -0.60004  -0.59678  -0.59093
 Alpha  occ. eigenvalues --   -0.56896  -0.55226  -0.54822  -0.52438  -0.46625
 Alpha  occ. eigenvalues --   -0.46056  -0.44501
 Alpha virt. eigenvalues --   -0.26088  -0.14669  -0.14098  -0.12774  -0.11179
 Alpha virt. eigenvalues --   -0.10086  -0.09230  -0.07983  -0.07970  -0.07476
 Alpha virt. eigenvalues --   -0.07203  -0.07146  -0.05643  -0.05581  -0.05332
 Alpha virt. eigenvalues --   -0.03826  -0.03646  -0.03279  -0.03133  -0.02165
 Alpha virt. eigenvalues --   -0.01368  -0.00930   0.00191   0.00590   0.00664
 Alpha virt. eigenvalues --    0.01055   0.01513   0.01940   0.02219   0.02286
 Alpha virt. eigenvalues --    0.02450   0.02670   0.02745   0.03316   0.03373
 Alpha virt. eigenvalues --    0.04240   0.04505   0.04695   0.05031   0.05364
 Alpha virt. eigenvalues --    0.06034   0.06296   0.06596   0.07044   0.07254
 Alpha virt. eigenvalues --    0.07891   0.08164   0.08362   0.08537   0.08929
 Alpha virt. eigenvalues --    0.09546   0.09558   0.10034   0.10814   0.11077
 Alpha virt. eigenvalues --    0.11116   0.12164   0.12252   0.12917   0.12971
 Alpha virt. eigenvalues --    0.13414   0.13524   0.14018   0.14385   0.16214
 Alpha virt. eigenvalues --    0.16285   0.16374   0.17346   0.17627   0.17798
 Alpha virt. eigenvalues --    0.18122   0.19073   0.19236   0.19637   0.19732
 Alpha virt. eigenvalues --    0.21555   0.21597   0.22725   0.23107   0.23555
 Alpha virt. eigenvalues --    0.23805   0.24575   0.25331   0.26920   0.27603
 Alpha virt. eigenvalues --    0.28846   0.29290   0.29861   0.31359   0.35811
 Alpha virt. eigenvalues --    0.36436   0.38184   0.39274   0.41158   0.41405
 Alpha virt. eigenvalues --    0.41967   0.42201   0.42984   0.43678   0.44293
 Alpha virt. eigenvalues --    0.44960   0.45015   0.46116   0.46142   0.47947
 Alpha virt. eigenvalues --    0.48530   0.48867   0.49026   0.50423   0.51156
 Alpha virt. eigenvalues --    0.51585   0.51677   0.52115   0.52911   0.53969
 Alpha virt. eigenvalues --    0.54089   0.54649   0.55685   0.55760   0.57470
 Alpha virt. eigenvalues --    0.58240   0.58812   0.61441   0.62187   0.62352
 Alpha virt. eigenvalues --    0.63213   0.63489   0.64968   0.65152   0.67252
 Alpha virt. eigenvalues --    0.70407   0.70614   0.71019   0.72409   0.72862
 Alpha virt. eigenvalues --    0.75773   0.76017   0.76283   0.76900   0.77091
 Alpha virt. eigenvalues --    0.77823   0.77883   0.78237   0.79892   0.80391
 Alpha virt. eigenvalues --    0.81244   0.81657   0.82133   0.83015   0.85182
 Alpha virt. eigenvalues --    0.87161   0.88172   0.88603   0.89124   0.90400
 Alpha virt. eigenvalues --    0.91087   0.91255   0.93197   0.94635   0.96448
 Alpha virt. eigenvalues --    0.96630   1.00397   1.01277   1.01685   1.02715
 Alpha virt. eigenvalues --    1.03195   1.03860   1.04737   1.05402   1.08773
 Alpha virt. eigenvalues --    1.19553   1.23274   1.24049   1.25275   1.27995
 Alpha virt. eigenvalues --    1.29703   1.31756   1.34304   1.35767   1.36003
 Alpha virt. eigenvalues --    1.39349   1.40167   1.40946   1.43021   1.43451
 Alpha virt. eigenvalues --    1.43532   1.45158   1.45366   1.46361   1.46682
 Alpha virt. eigenvalues --    1.47637   1.48020   1.51726   1.53629   1.55772
 Alpha virt. eigenvalues --    1.55823   1.56349   1.56574   1.57775   1.61443
 Alpha virt. eigenvalues --    1.63230   1.63546   1.63745   1.66110   1.68303
 Alpha virt. eigenvalues --    1.68359   1.68693   1.69734   1.74387   1.75986
 Alpha virt. eigenvalues --    1.77162   1.78050   1.80009   1.80129   1.80698
 Alpha virt. eigenvalues --    1.83152   1.83222   1.83623   1.83818   1.84156
 Alpha virt. eigenvalues --    1.84286   1.85882   1.86056   1.88218   1.91385
 Alpha virt. eigenvalues --    1.92064   1.94128   1.95197   1.97688   1.98153
 Alpha virt. eigenvalues --    1.99743   2.02423   2.04412   2.07258   2.11762
 Alpha virt. eigenvalues --    2.12111   2.14104   2.15219   2.19099   2.21252
 Alpha virt. eigenvalues --    2.22792   2.28622   2.30157   2.34642   2.34945
 Alpha virt. eigenvalues --    2.36221   2.38678   2.39601   2.42373   2.44645
 Alpha virt. eigenvalues --    2.46195   2.46504   2.49357   2.52903   2.53802
 Alpha virt. eigenvalues --    2.54243   2.56789   2.57845   2.58306   2.59644
 Alpha virt. eigenvalues --    2.59815   2.61600   2.62121   2.63527   2.63801
 Alpha virt. eigenvalues --    2.64778   2.65116   2.65232   2.65309   2.67948
 Alpha virt. eigenvalues --    2.68555   2.70957   2.71410   2.73342   2.74822
 Alpha virt. eigenvalues --    2.76304   2.78740   2.79724   2.82883   2.83059
 Alpha virt. eigenvalues --    2.84888   2.86296   2.92113   2.97003   2.99502
 Alpha virt. eigenvalues --    3.00065   3.05062   3.11086   3.11430   3.13067
 Alpha virt. eigenvalues --    3.20858   3.23904   3.26708   3.28215   3.30761
 Alpha virt. eigenvalues --    3.32830   3.33581   3.43404   3.45905   3.46566
 Alpha virt. eigenvalues --    3.48529   3.50137   3.56492   3.65852   3.66735
 Alpha virt. eigenvalues --    3.67546   3.94181   3.94586   3.95168   3.96225
 Alpha virt. eigenvalues --    4.03990   4.06867   4.07508   4.12549   4.35514
 Alpha virt. eigenvalues --    4.61347   4.69812   4.71639  23.45340  23.60517
 Alpha virt. eigenvalues --   23.82240  23.85449  23.88060  23.89298  23.90532
 Alpha virt. eigenvalues --   23.92306  23.97769  23.99471  24.00006  24.00135
 Alpha virt. eigenvalues --   24.10428  24.10759
          Condensed to atoms (all electrons):
               1          2          3          4          5          6
     1  C    8.593340   0.316366  -0.554021   2.008271  -0.038922  -0.095852
     2  C    0.316366   7.113339   0.351568  -1.069043  -0.019615  -0.014615
     3  C   -0.554021   0.351568   6.584215   0.748776  -0.121839   0.016951
     4  C    2.008271  -1.069043   0.748776  11.043070  -0.364677  -0.126229
     5  C   -0.038922  -0.019615  -0.121839  -0.364677  10.967152   0.776155
     6  C   -0.095852  -0.014615   0.016951  -0.126229   0.776155   6.592625
     7  C   -0.015446   0.001634  -0.014457  -0.017063  -1.083661   0.357988
     8  C    0.405904  -0.021250  -0.095501  -0.019110   1.949181  -0.536156
     9  C   -1.139390  -0.799692   0.296404  -0.191845  -0.247094   0.291930
    10  C   -1.283358   0.243911  -0.342861  -2.575302  -2.574432  -0.364109
    11  C    0.260064  -0.904188   1.007290  -0.277062  -1.492500  -0.176479
    12  C   -2.115541   1.348964  -1.378662  -1.661729  -0.317342  -0.198275
    13  C    0.220685  -0.231771  -0.172674  -1.510150  -0.259412   1.012543
    14  C   -1.063632  -0.192290  -0.200288  -0.348750  -1.535592  -1.413867
    15  H    0.368389  -0.105629  -0.001542   0.027460   0.005682   0.001114
    16  H   -0.017966   0.378346  -0.017147   0.013936  -0.001545  -0.000331
    17  H   -0.024643  -0.016826   0.374772  -0.068098   0.000328   0.000402
    18  H    0.050428   0.003436  -0.085583   0.457807   0.006240  -0.005127
    19  H   -0.046838  -0.007706   0.051066  -0.071705  -0.067889   0.051395
    20  H    0.007099   0.002047  -0.005032   0.006475   0.457478  -0.084017
    21  H   -0.001299  -0.000399   0.000397   0.000312  -0.067724   0.375040
    22  H    0.000644   0.000360  -0.000327  -0.001542   0.013305  -0.016229
    23  H    0.005698  -0.002607   0.001094   0.005805   0.027188  -0.001279
    24  H    0.034581   0.015586  -0.001151  -0.013503  -0.011008  -0.001879
    25  H    0.030089   0.013170  -0.002031  -0.011280  -0.013040  -0.001091
               7          8          9         10         11         12
     1  C   -0.015446   0.405904  -1.139390  -1.283358   0.260064  -2.115541
     2  C    0.001634  -0.021250  -0.799692   0.243911  -0.904188   1.348964
     3  C   -0.014457  -0.095501   0.296404  -0.342861   1.007290  -1.378662
     4  C   -0.017063  -0.019110  -0.191845  -2.575302  -0.277062  -1.661729
     5  C   -1.083661   1.949181  -0.247094  -2.574432  -1.492500  -0.317342
     6  C    0.357988  -0.536156   0.291930  -0.364109  -0.176479  -0.198275
     7  C    7.158172   0.320507  -0.805856   0.253229  -0.254068  -0.200047
     8  C    0.320507   8.592254  -1.196187  -1.280955   0.196506  -1.095980
     9  C   -0.805856  -1.196187   9.597735   0.259306   1.594375  -1.961142
    10  C    0.253229  -1.280955   0.259306   9.161733  -0.448051   2.448339
    11  C   -0.254068   0.196506   1.594375  -0.448051  14.557921  -3.751575
    12  C   -0.200047  -1.095980  -1.961142   2.448339  -3.751575  16.113349
    13  C   -0.922654   0.333220   1.638464  -0.463888   1.092793  -4.778398
    14  C    1.351481  -2.045910  -1.919693   2.412177  -4.826924   3.084957
    15  H   -0.002715   0.005772   0.092272  -0.009621  -0.031088  -0.025581
    16  H    0.000370   0.000791   0.003961  -0.009543   0.027312  -0.034928
    17  H   -0.000401  -0.001333  -0.005727   0.020477  -0.026808   0.091581
    18  H    0.002039   0.007383  -0.024644   0.013094  -0.007163  -0.055070
    19  H   -0.007702  -0.046758   0.075674   0.421874   0.076094  -0.065095
    20  H    0.002480   0.049832  -0.025105   0.012735  -0.011792  -0.014117
    21  H   -0.016018  -0.025118  -0.005761   0.020555  -0.006448   0.005334
    22  H    0.379567  -0.020578   0.003056  -0.009294   0.003070  -0.009027
    23  H   -0.106489   0.366039   0.090746  -0.009549   0.001575   0.006644
    24  H    0.013369   0.029801   0.357083   0.005492   0.011785  -0.057855
    25  H    0.015733   0.036893   0.355528   0.005144   0.014534  -0.062061
              13         14         15         16         17         18
     1  C    0.220685  -1.063632   0.368389  -0.017966  -0.024643   0.050428
     2  C   -0.231771  -0.192290  -0.105629   0.378346  -0.016826   0.003436
     3  C   -0.172674  -0.200288  -0.001542  -0.017147   0.374772  -0.085583
     4  C   -1.510150  -0.348750   0.027460   0.013936  -0.068098   0.457807
     5  C   -0.259412  -1.535592   0.005682  -0.001545   0.000328   0.006240
     6  C    1.012543  -1.413867   0.001114  -0.000331   0.000402  -0.005127
     7  C   -0.922654   1.351481  -0.002715   0.000370  -0.000401   0.002039
     8  C    0.333220  -2.045910   0.005772   0.000791  -0.001333   0.007383
     9  C    1.638464  -1.919693   0.092272   0.003961  -0.005727  -0.024644
    10  C   -0.463888   2.412177  -0.009621  -0.009543   0.020477   0.013094
    11  C    1.092793  -4.826924  -0.031088   0.027312  -0.026808  -0.007163
    12  C   -4.778398   3.084957  -0.025581  -0.034928   0.091581  -0.055070
    13  C   14.418014  -3.788581   0.001475   0.003082  -0.006155  -0.011864
    14  C   -3.788581  16.011144   0.006516  -0.009167   0.005308  -0.013733
    15  H    0.001475   0.006516   0.438952  -0.009046   0.001456   0.000170
    16  H    0.003082  -0.009167  -0.009046   0.419414  -0.006607   0.001948
    17  H   -0.006155   0.005308   0.001456  -0.006607   0.422212  -0.010198
    18  H   -0.011864  -0.013733   0.000170   0.001948  -0.010198   0.453673
    19  H    0.078796  -0.065507   0.000317  -0.000539   0.001416  -0.006290
    20  H   -0.006835  -0.053750  -0.000112   0.000015  -0.000142   0.001266
    21  H   -0.028101   0.092518   0.000014  -0.000007   0.000010  -0.000144
    22  H    0.026386  -0.031862  -0.000128   0.000008  -0.000007   0.000015
    23  H   -0.029556  -0.023389   0.000579  -0.000126   0.000014  -0.000113
    24  H    0.014282  -0.060819  -0.000852   0.000587  -0.000129   0.000149
    25  H    0.013292  -0.059495  -0.000995   0.000669  -0.000154   0.000214
              19         20         21         22         23         24
     1  C   -0.046838   0.007099  -0.001299   0.000644   0.005698   0.034581
     2  C   -0.007706   0.002047  -0.000399   0.000360  -0.002607   0.015586
     3  C    0.051066  -0.005032   0.000397  -0.000327   0.001094  -0.001151
     4  C   -0.071705   0.006475   0.000312  -0.001542   0.005805  -0.013503
     5  C   -0.067889   0.457478  -0.067724   0.013305   0.027188  -0.011008
     6  C    0.051395  -0.084017   0.375040  -0.016229  -0.001279  -0.001879
     7  C   -0.007702   0.002480  -0.016018   0.379567  -0.106489   0.013369
     8  C   -0.046758   0.049832  -0.025118  -0.020578   0.366039   0.029801
     9  C    0.075674  -0.025105  -0.005761   0.003056   0.090746   0.357083
    10  C    0.421874   0.012735   0.020555  -0.009294  -0.009549   0.005492
    11  C    0.076094  -0.011792  -0.006448   0.003070   0.001575   0.011785
    12  C   -0.065095  -0.014117   0.005334  -0.009027   0.006644  -0.057855
    13  C    0.078796  -0.006835  -0.028101   0.026386  -0.029556   0.014282
    14  C   -0.065507  -0.053750   0.092518  -0.031862  -0.023389  -0.060819
    15  H    0.000317  -0.000112   0.000014  -0.000128   0.000579  -0.000852
    16  H   -0.000539   0.000015  -0.000007   0.000008  -0.000126   0.000587
    17  H    0.001416  -0.000142   0.000010  -0.000007   0.000014  -0.000129
    18  H   -0.006290   0.001266  -0.000144   0.000015  -0.000113   0.000149
    19  H    0.442731  -0.006120   0.001419  -0.000540   0.000299   0.000601
    20  H   -0.006120   0.453542  -0.010336   0.001896   0.000180   0.000201
    21  H    0.001419  -0.010336   0.422710  -0.006667   0.001480  -0.000154
    22  H   -0.000540   0.001896  -0.006667   0.419512  -0.008989   0.000675
    23  H    0.000299   0.000180   0.001480  -0.008989   0.439128  -0.001037
    24  H    0.000601   0.000201  -0.000154   0.000675  -0.001037   0.494064
    25  H    0.000588   0.000161  -0.000132   0.000593  -0.000749  -0.079645
              25
     1  C    0.030089
     2  C    0.013170
     3  C   -0.002031
     4  C   -0.011280
     5  C   -0.013040
     6  C   -0.001091
     7  C    0.015733
     8  C    0.036893
     9  C    0.355528
    10  C    0.005144
    11  C    0.014534
    12  C   -0.062061
    13  C    0.013292
    14  C   -0.059495
    15  H   -0.000995
    16  H    0.000669
    17  H   -0.000154
    18  H    0.000214
    19  H    0.000588
    20  H    0.000161
    21  H   -0.000132
    22  H    0.000593
    23  H   -0.000749
    24  H   -0.079645
    25  H    0.493702
 Mulliken charges:
               1
     1  C    0.095349
     2  C   -0.403098
     3  C   -0.439417
     4  C    0.015175
     5  C    0.013582
     6  C   -0.440607
     7  C   -0.409994
     8  C    0.090752
     9  C   -0.334399
    10  C    0.092900
    11  C   -0.629171
    12  C    0.683257
    13  C   -0.642993
    14  C    0.689148
    15  H    0.237139
    16  H    0.256512
    17  H    0.249252
    18  H    0.222065
    19  H    0.190419
    20  H    0.221950
    21  H    0.248520
    22  H    0.256104
    23  H    0.237415
    24  H    0.249778
    25  H    0.250363
 Sum of Mulliken charges =   1.00000
 Mulliken charges with hydrogens summed into heavy atoms:
               1
     1  C    0.332488
     2  C   -0.146586
     3  C   -0.190165
     4  C    0.237240
     5  C    0.235533
     6  C   -0.192087
     7  C   -0.153890
     8  C    0.328167
     9  C    0.165742
    10  C    0.283319
    11  C   -0.629171
    12  C    0.683257
    13  C   -0.642993
    14  C    0.689148
 Electronic spatial extent (au):  <R**2>=           2855.9218
 Charge=              1.0000 electrons
 Dipole moment (field-independent basis, Debye):
    X=             -0.0131    Y=              0.1875    Z=              0.0006  Tot=              0.1879
 Quadrupole moment (field-independent basis, Debye-Ang):
   XX=            -31.1162   YY=            -56.2625   ZZ=            -84.1418
   XY=             -0.0073   XZ=             -0.0123   YZ=              0.0018
 Traceless Quadrupole moment (field-independent basis, Debye-Ang):
   XX=             26.0573   YY=              0.9110   ZZ=            -26.9683
   XY=             -0.0073   XZ=             -0.0123   YZ=              0.0018
 Octapole moment (field-independent basis, Debye-Ang**2):
  XXX=             -0.5474  YYY=              5.2096  ZZZ=              0.0077  XYY=              0.0048
  XXY=             -5.1739  XXZ=              0.0004  XZZ=              0.0669  YZZ=             -3.0883
  YYZ=             -0.0160  XYZ=             -0.0614
 Hexadecapole moment (field-independent basis, Debye-Ang**3):
 XXXX=          -2122.4412 YYYY=           -609.2452 ZZZZ=            -99.3312 XXXY=             -0.3112
 XXXZ=             -0.3455 YYYX=              0.1298 YYYZ=              0.0479 ZZZX=             -0.0157
 ZZZY=             -0.0101 XXYY=           -507.7141 XXZZ=           -590.7530 YYZZ=           -145.7037
 XXYZ=             -0.0095 YYXZ=             -0.0009 ZZXY=             -0.0062
 N-N= 7.811973771870D+02 E-N=-2.798736533236D+03  KE= 5.375060436734D+02
 Unable to Open any file for archive entry.
 1\1\GINC-GADI-CPU-CLX-0113\SP\RM062X TD-FC\6-311++G(d,p)\C14H11(1+)\TS
 1578\28-Jul-2022\0\\#n M062X/6-311++G(d,p) TD(NStates=1) EmpiricalDisp
 ersion=GD3 SP\\SP_-125\\1,1\C,0,-0.00475,2.494155,1.360431\C,0,-0.0023
 75,3.702383,0.671989\C,0,-0.0015,3.686361,-0.71383\C,0,-0.00025,2.4636
 56,-1.407538\C,0,0.00025,-2.462656,-1.407538\C,0,0.0015,-3.681361,-0.7
 1383\C,0,0.002375,-3.700633,0.671989\C,0,0.00475,-2.491155,1.360431\C,
 0,0.000125,-0.011,1.453369\C,0,0.,0.0005,-1.429189\C,0,-0.000375,1.261
 93,0.677065\C,0,0.001,1.236721,-0.730804\C,0,0.000375,-1.26218,0.67706
 5\C,0,-0.001,-1.238221,-0.730804\H,0,-0.0055,2.489696,2.443647\H,0,-0.
 002875,4.638628,1.211689\H,0,-0.00075,4.612387,-1.272349\H,0,0.00075,2
 .467925,-2.490059\H,0,0.,0.00025,-2.510266\H,0,-0.00075,-2.467175,-2.4
 90059\H,0,0.00075,-4.606137,-1.272349\H,0,0.002875,-4.634878,1.211689\
 H,0,0.0055,-2.486446,2.443647\H,0,-0.859585,-0.0025,2.148537\H,0,0.859
 585,-0.0025,2.143037\\Version=ES64L-G16RevC.01\State=1-A\HF=-539.76009
 4\RMSD=4.715e-09\PG=C01 [X(C14H11)]\\@
 The archive entry for this job was punched.


 TRUST EVERYONE, BUT CUT THE CARDS.
 Job cpu time:       0 days  1 hours 19 minutes 34.8 seconds.
 Elapsed time:       0 days  0 hours  1 minutes 39.9 seconds.
 File lengths (MBytes):  RWF=    460 Int=      0 D2E=      0 Chk=     15 Scr=      1
 Normal termination of Gaussian 16 at Thu Jul 28 13:14:37 2022.
