 Entering Gaussian System, Link 0=g16
 Initial command:
 /apps/gaussian/g16c01/g16/l1.exe "/jobfs/53002009.gadi-pbs/Gau-762544.inp" -scrdir="/jobfs/53002009.gadi-pbs/"
 Entering Link 1 = /apps/gaussian/g16c01/g16/l1.exe PID=    762545.
  
 Copyright (c) 1988-2019, Gaussian, Inc.  All Rights Reserved.
  
 This is part of the Gaussian(R) 16 program.  It is based on
 the Gaussian(R) 09 system (copyright 2009, Gaussian, Inc.),
 the Gaussian(R) 03 system (copyright 2003, Gaussian, Inc.),
 the Gaussian(R) 98 system (copyright 1998, Gaussian, Inc.),
 the Gaussian(R) 94 system (copyright 1995, Gaussian, Inc.),
 the Gaussian 92(TM) system (copyright 1992, Gaussian, Inc.),
 the Gaussian 90(TM) system (copyright 1990, Gaussian, Inc.),
 the Gaussian 88(TM) system (copyright 1988, Gaussian, Inc.),
 the Gaussian 86(TM) system (copyright 1986, Carnegie Mellon
 University), and the Gaussian 82(TM) system (copyright 1983,
 Carnegie Mellon University). Gaussian is a federally registered
 trademark of Gaussian, Inc.
  
 This software contains proprietary and confidential information,
 including trade secrets, belonging to Gaussian, Inc.
  
 This software is provided under written license and may be
 used, copied, transmitted, or stored only in accord with that
 written license.
  
 The following legend is applicable only to US Government
 contracts under FAR:
  
                    RESTRICTED RIGHTS LEGEND
  
 Use, reproduction and disclosure by the US Government is
 subject to restrictions as set forth in subparagraphs (a)
 and (c) of the Commercial Computer Software - Restricted
 Rights clause in FAR 52.227-19.
  
 Gaussian, Inc.
 340 Quinnipiac St., Bldg. 40, Wallingford CT 06492
  
  
 ---------------------------------------------------------------
 Warning -- This program may not be used in any manner that
 competes with the business of Gaussian, Inc. or will provide
 assistance to any competitor of Gaussian, Inc.  The licensee
 of this program is prohibited from giving any competitor of
 Gaussian, Inc. access to this program.  By using this program,
 the user acknowledges that Gaussian, Inc. is engaged in the
 business of creating and licensing software in the field of
 computational chemistry and represents and warrants to the
 licensee that it is not a competitor of Gaussian, Inc. and that
 it will not use this program in any manner prohibited above.
 ---------------------------------------------------------------
  

 Cite this work as:
 Gaussian 16, Revision C.01,
 M. J. Frisch, G. W. Trucks, H. B. Schlegel, G. E. Scuseria, 
 M. A. Robb, J. R. Cheeseman, G. Scalmani, V. Barone, 
 G. A. Petersson, H. Nakatsuji, X. Li, M. Caricato, A. V. Marenich, 
 J. Bloino, B. G. Janesko, R. Gomperts, B. Mennucci, H. P. Hratchian, 
 J. V. Ortiz, A. F. Izmaylov, J. L. Sonnenberg, D. Williams-Young, 
 F. Ding, F. Lipparini, F. Egidi, J. Goings, B. Peng, A. Petrone, 
 T. Henderson, D. Ranasinghe, V. G. Zakrzewski, J. Gao, N. Rega, 
 G. Zheng, W. Liang, M. Hada, M. Ehara, K. Toyota, R. Fukuda, 
 J. Hasegawa, M. Ishida, T. Nakajima, Y. Honda, O. Kitao, H. Nakai, 
 T. Vreven, K. Throssell, J. A. Montgomery, Jr., J. E. Peralta, 
 F. Ogliaro, M. J. Bearpark, J. J. Heyd, E. N. Brothers, K. N. Kudin, 
 V. N. Staroverov, T. A. Keith, R. Kobayashi, J. Normand, 
 K. Raghavachari, A. P. Rendell, J. C. Burant, S. S. Iyengar, 
 J. Tomasi, M. Cossi, J. M. Millam, M. Klene, C. Adamo, R. Cammi, 
 J. W. Ochterski, R. L. Martin, K. Morokuma, O. Farkas, 
 J. B. Foresman, and D. J. Fox, Gaussian, Inc., Wallingford CT, 2019.
 
 ******************************************
 Gaussian 16:  ES64L-G16RevC.01  3-Jul-2019
                28-Jul-2022 
 ******************************************
 %NProcShared=48
 Will use up to   48 processors via shared memory.
 %mem = 190GB
 ---------------------------------------------------------------
 #n M062X/6-311++G(d,p) TD(NStates=1) EmpiricalDispersion=GD3 SP
 ---------------------------------------------------------------
 1/38=1,172=1/1;
 2/12=2,17=6,18=5,40=1/2;
 3/5=4,6=6,7=1111,11=9,25=1,30=1,74=-55,124=31/1,2,3,8;
 4//1;
 5/5=2,38=5/2;
 8/6=1,10=2,108=1/1;
 9/41=1,42=1,70=2/14;
 6/7=2,8=2,9=2,10=2/1;
 99/5=1,9=1/99;
 ----
 SP_0
 ----
 Symbolic Z-matrix:
 Charge =  1 Multiplicity = 1
 C                     0.0078    2.49206   1.36043 
 C                     0.0087    3.70486   0.67199 
 C                     0.0026    3.68956  -0.71383 
 C                    -0.00775   2.46761  -1.40754 
 C                    -0.00785  -2.46781  -1.40754 
 C                     0.002    -3.69056  -0.71383 
 C                     0.00775  -3.70521   0.67199 
 C                     0.0059   -2.49266   1.36043 
 C                     0.00435   0.0022    1.45337 
 C                    -0.0122   -0.0001   -1.42919 
 C                    -0.00175   1.25826   0.67707 
 C                    -0.0052    1.23822  -0.7308 
 C                    -0.0019   -1.25821   0.67707 
 C                    -0.0048   -1.23792  -0.7308 
 H                     0.0032    2.48752   2.44365 
 H                     0.0089    4.63925   1.21169 
 H                    -0.0013    4.60841  -1.27235 
 H                    -0.0038    2.4719   -2.49006 
 H                    -0.01125  -0.00005  -2.51027 
 H                    -0.0035   -2.47205  -2.49006 
 H                    -0.0016   -4.60966  -1.27235 
 H                     0.00775  -4.64      1.21169 
 H                     0.001    -2.48817   2.44365 
 H                    -0.84359   0.0005    2.14524 
 H                     0.87559   0.0005    2.14634 
 
                          Input orientation:                          
 ---------------------------------------------------------------------
 Center     Atomic      Atomic             Coordinates (Angstroms)
 Number     Number       Type             X           Y           Z
 ---------------------------------------------------------------------
      1          6           0        0.007800    2.492055    1.360431
      2          6           0        0.008700    3.704858    0.671989
      3          6           0        0.002600    3.689561   -0.713830
      4          6           0       -0.007750    2.467606   -1.407538
      5          6           0       -0.007850   -2.467806   -1.407538
      6          6           0        0.002000   -3.690561   -0.713830
      7          6           0        0.007750   -3.705208    0.671989
      8          6           0        0.005900   -2.492655    1.360431
      9          6           0        0.004350    0.002200    1.453369
     10          6           0       -0.012200   -0.000100   -1.429189
     11          6           0       -0.001750    1.258255    0.677065
     12          6           0       -0.005200    1.238221   -0.730804
     13          6           0       -0.001900   -1.258205    0.677065
     14          6           0       -0.004800   -1.237921   -0.730804
     15          1           0        0.003200    2.487521    2.443647
     16          1           0        0.008900    4.639253    1.211689
     17          1           0       -0.001300    4.608412   -1.272349
     18          1           0       -0.003800    2.471900   -2.490059
     19          1           0       -0.011250   -0.000050   -2.510266
     20          1           0       -0.003500   -2.472050   -2.490059
     21          1           0       -0.001600   -4.609662   -1.272349
     22          1           0        0.007750   -4.640003    1.211689
     23          1           0        0.001000   -2.488171    2.443647
     24          1           0       -0.843585    0.000500    2.145237
     25          1           0        0.875585    0.000500    2.146337
 ---------------------------------------------------------------------
                    Distance matrix (angstroms):
                    1          2          3          4          5
     1  C    0.000000
     2  C    1.394577   0.000000
     3  C    2.395121   1.385917   0.000000
     4  C    2.768121   2.419813   1.405173   0.000000
     5  C    5.679975   6.513562   6.196330   4.935412   0.000000
     6  C    6.521298   7.524145   7.380122   6.197124   1.405865
     7  C    6.235385   7.410066   7.523505   6.513701   2.419884
     8  C    4.984710   6.235634   6.520917   5.680319   2.768115
     9  C    2.491591   3.784211   4.277077   3.776660   3.779665
    10  C    3.740751   4.259354   3.758398   2.467805   2.467805
    11  C    1.410441   2.446631   2.801046   2.410007   4.269559
    12  C    2.438346   2.837661   2.451411   1.403340   3.767308
    13  C    3.812025   4.963077   5.139552   4.269341   2.410133
    14  C    4.276230   5.138003   4.927517   3.766817   1.403779
    15  H    1.083235   2.149584   3.378544   3.851252   6.275907
    16  H    2.152344   1.079060   2.146993   3.402452   7.574359
    17  H    3.377955   2.144052   1.075289   2.145080   7.077512
    18  H    3.850560   3.393949   2.153539   1.082537   5.056932
    19  H    4.603612   4.884003   4.103730   2.702841   2.702932
    20  H    6.282415   6.939228   6.412525   5.056884   1.082538
    21  H    7.574035   8.538841   8.317996   7.078562   2.146127
    22  H    7.133609   8.362295   8.549227   7.574873   3.402798
    23  H    5.096671   6.441463   6.937870   6.276259   3.851249
    24  H    2.747476   4.076655   4.743360   4.405388   4.406041
    25  H    2.752916   4.080130   4.748877   4.415532   4.416222
                    6          7          8          9         10
     6  C    0.000000
     7  C    1.385908   0.000000
     8  C    2.395319   1.394360   0.000000
     9  C    4.281733   3.788857   2.496586   0.000000
    10  C    3.759181   4.259480   3.741008   2.882606   0.000000
    11  C    5.140562   4.963475   3.812660   1.476604   2.453543
    12  C    4.928816   5.138627   4.277011   2.509671   1.421700
    13  C    2.801956   2.447027   1.410998   1.480307   2.453414
    14  C    2.452708   2.838220   2.438798   2.511692   1.421266
    15  H    6.938181   6.441171   5.096618   2.675345   4.602972
    16  H    8.549472   8.361896   7.133460   4.643349   5.338378
    17  H    8.317747   8.537963   7.573423   5.352267   4.611193
    18  H    6.413341   6.939405   6.282768   4.652968   2.690037
    19  H    4.104538   4.884189   4.603875   3.963666   1.081077
    20  H    2.154017   3.394017   3.850557   4.655384   2.689992
    21  H    1.075501   2.144429   3.378358   5.357130   4.612242
    22  H    2.146881   1.079406   2.152494   4.648491   5.338851
    23  H    3.378669   2.149418   1.083236   2.680039   4.603209
    24  H    4.744809   4.077684   2.748339   1.094385   3.669840
    25  H    4.750541   4.081557   2.754963   1.113220   3.684094
                   11         12         13         14         15
    11  C    0.000000
    12  C    1.408016   0.000000
    13  C    2.516460   2.866051   0.000000
    14  C    2.865833   2.476142   1.408018   0.000000
    15  H    2.152192   3.411445   4.141413   4.894499   0.000000
    16  H    3.423023   3.916695   5.921651   6.189882   2.479456
    17  H    3.876050   3.413425   6.182023   5.871362   4.278648
    18  H    3.391698   2.148708   4.893298   4.105819   4.933736
    19  H    3.426733   2.167911   3.426678   2.167683   5.543417
    20  H    4.893450   4.106226   3.391769   2.148966   6.995630
    21  H    6.183257   5.872906   3.877174   3.414955   8.011158
    22  H    5.922445   6.190877   3.423810   3.917601   7.233211
    23  H    4.142044   4.895220   2.152588   3.411788   4.975692
    24  H    2.108593   3.241366   2.109100   3.241737   2.644119
    25  H    2.123776   3.253564   2.124401   3.253722   2.652305
                   16         17         18         19         20
    16  H    0.000000
    17  H    2.484250   0.000000
    18  H    4.289583   2.459168   0.000000
    19  H    5.947814   4.771840   2.472044   0.000000
    20  H    8.017089   7.184411   4.943950   2.472095   0.000000
    21  H    9.576690   9.218074   7.185495   4.772950   2.460123
    22  H    9.279256   9.576205   8.017620   5.948317   4.289882
    23  H    7.233115   8.010626   6.995983   5.543659   4.933734
    24  H    4.807938   5.798465   5.319683   4.729322   5.320265
    25  H    4.810690   5.804239   5.327035   4.740298   5.327519
                   21         22         23         24         25
    21  H    0.000000
    22  H    2.484241   0.000000
    23  H    4.278943   2.479546   0.000000
    24  H    5.800209   4.809423   2.644968   0.000000
    25  H    5.806071   4.812585   2.654576   1.719170   0.000000
 Stoichiometry    C14H11(1+)
 Framework group  C1[X(C14H11)]
 Deg. of freedom    69
 Full point group                 C1      NOp   1
 Largest Abelian subgroup         C1      NOp   1
 Largest concise Abelian subgroup C1      NOp   1
                         Standard orientation:                         
 ---------------------------------------------------------------------
 Center     Atomic      Atomic             Coordinates (Angstroms)
 Number     Number       Type             X           Y           Z
 ---------------------------------------------------------------------
      1          6           0       -2.492114   -1.360345    0.001329
      2          6           0       -3.704888   -0.671862    0.005118
      3          6           0       -3.689532    0.713970    0.005124
      4          6           0       -2.467546    1.407665   -0.002024
      5          6           0        2.467866    1.407454   -0.001538
      6          6           0        3.690590    0.713657    0.005401
      7          6           0        3.705178   -0.672174    0.005047
      8          6           0        2.492596   -1.360550    0.000021
      9          6           0       -0.002262   -1.453373   -0.002235
     10          6           0        0.000161    1.429230   -0.006086
     11          6           0       -1.258284   -0.676996   -0.005064
     12          6           0       -1.238190    0.730874   -0.002310
     13          6           0        1.258176   -0.677103   -0.004915
     14          6           0        1.237952    0.730766   -0.001616
     15          1           0       -2.487625   -2.443530   -0.008043
     16          1           0       -4.639306   -1.211517    0.002829
     17          1           0       -4.608359    1.272540    0.003576
     18          1           0       -2.471795    2.490158    0.006694
     19          1           0        0.000157    2.510292   -0.000374
     20          1           0        2.472155    2.489945    0.007581
     21          1           0        4.609715    1.272147    0.004370
     22          1           0        4.639950   -1.211909    0.002781
     23          1           0        2.488067   -2.443733   -0.009652
     24          1           0       -0.000491   -2.141499   -0.853209
     25          1           0       -0.000695   -2.150173    0.865939
 ---------------------------------------------------------------------
 Rotational constants (GHZ):           2.1361559           0.4437971           0.3682553
 Standard basis: 6-311++G(d,p) (5D, 7F)
 There are   399 symmetry adapted cartesian basis functions of A   symmetry.
 There are   385 symmetry adapted basis functions of A   symmetry.
   385 basis functions,   603 primitive gaussians,   399 cartesian basis functions
    47 alpha electrons       47 beta electrons
       nuclear repulsion energy       780.7327408602 Hartrees.
 NAtoms=   25 NActive=   25 NUniq=   25 SFac= 1.00D+00 NAtFMM=   60 NAOKFM=F Big=F
 Integral buffers will be    131072 words long.
 Regular integral format.
 Two-electron integral symmetry is turned on.
 Nuclear repulsion after empirical dispersion term =      780.7317612084 Hartrees.
 One-electron integrals computed using PRISM.
 NBasis=   385 RedAO= T EigKep=  1.15D-06  NBF=   385
 NBsUse=   379 1.00D-06 EigRej=  8.51D-07 NBFU=   379
 ExpMin= 3.60D-02 ExpMax= 4.56D+03 ExpMxC= 6.82D+02 IAcc=3 IRadAn=         5 AccDes= 0.00D+00
 Harris functional with IExCor= 1009 and IRadAn=       5 diagonalized for initial guess.
 HarFok:  IExCor= 1009 AccDes= 0.00D+00 IRadAn=         5 IDoV= 1 UseB2=F ITyADJ=14
 ICtDFT=  3500011 ScaDFX=  1.000000  1.000000  1.000000  1.000000
 FoFCou: FMM=F IPFlag=           0 FMFlag=      100000 FMFlg1=           0
         NFxFlg=           0 DoJE=T BraDBF=F KetDBF=T FulRan=T
         wScrn=  0.000000 ICntrl=       500 IOpCl=  0 I1Cent=   200000004 NGrid=           0
         NMat0=    1 NMatS0=      1 NMatT0=    0 NMatD0=    1 NMtDS0=    0 NMtDT0=    0
 Petite list used in FoFCou.
 Requested convergence on RMS density matrix=1.00D-08 within 128 cycles.
 Requested convergence on MAX density matrix=1.00D-06.
 Requested convergence on             energy=1.00D-06.
 No special actions if energy rises.
 SCF Done:  E(RM062X) =  -539.759738988     A.U. after   15 cycles
            NFock= 15  Conv=0.46D-08     -V/T= 2.0042
 DoSCS=F DFT=T ScalE2(SS,OS)=  1.000000  1.000000
 ExpMin= 3.60D-02 ExpMax= 4.56D+03 ExpMxC= 6.82D+02 IAcc=3 IRadAn=         5 AccDes= 0.00D+00
 HarFok:  IExCor=  205 AccDes= 0.00D+00 IRadAn=         5 IDoV=-2 UseB2=F ITyADJ=14
 ICtDFT= 12500011 ScaDFX=  1.000000  1.000000  1.000000  1.000000
 Range of M.O.s used for correlation:    15   379
 NBasis=   385 NAE=    47 NBE=    47 NFC=    14 NFV=     0
 NROrb=    365 NOA=    33 NOB=    33 NVA=   332 NVB=   332

 **** Warning!!: The largest alpha MO coefficient is  0.14828556D+03

 Orbital symmetries:
       Occupied  (A) (A) (A) (A) (A) (A) (A) (A) (A) (A) (A) (A)
                 (A) (A) (A) (A) (A) (A) (A) (A) (A) (A) (A) (A)
                 (A) (A) (A) (A) (A) (A) (A) (A) (A) (A) (A) (A)
                 (A) (A) (A) (A) (A) (A) (A) (A) (A) (A) (A)
       Virtual   (A) (A) (A) (A) (A) (A) (A) (A) (A) (A) (A) (A)
                 (A) (A) (A) (A) (A) (A) (A) (A) (A) (A) (A) (A)
                 (A) (A) (A) (A) (A) (A) (A) (A) (A) (A) (A) (A)
                 (A) (A) (A) (A) (A) (A) (A) (A) (A) (A) (A) (A)
                 (A) (A) (A) (A) (A) (A) (A) (A) (A) (A) (A) (A)
                 (A) (A) (A) (A) (A) (A) (A) (A) (A) (A) (A) (A)
                 (A) (A) (A) (A) (A) (A) (A) (A) (A) (A) (A) (A)
                 (A) (A) (A) (A) (A) (A) (A) (A) (A) (A) (A) (A)
                 (A) (A) (A) (A) (A) (A) (A) (A) (A) (A) (A) (A)
                 (A) (A) (A) (A) (A) (A) (A) (A) (A) (A) (A) (A)
                 (A) (A) (A) (A) (A) (A) (A) (A) (A) (A) (A) (A)
                 (A) (A) (A) (A) (A) (A) (A) (A) (A) (A) (A) (A)
                 (A) (A) (A) (A) (A) (A) (A) (A) (A) (A) (A) (A)
                 (A) (A) (A) (A) (A) (A) (A) (A) (A) (A) (A) (A)
                 (A) (A) (A) (A) (A) (A) (A) (A) (A) (A) (A) (A)
                 (A) (A) (A) (A) (A) (A) (A) (A) (A) (A) (A) (A)
                 (A) (A) (A) (A) (A) (A) (A) (A) (A) (A) (A) (A)
                 (A) (A) (A) (A) (A) (A) (A) (A) (A) (A) (A) (A)
                 (A) (A) (A) (A) (A) (A) (A) (A) (A) (A) (A) (A)
                 (A) (A) (A) (A) (A) (A) (A) (A) (A) (A) (A) (A)
                 (A) (A) (A) (A) (A) (A) (A) (A) (A) (A) (A) (A)
                 (A) (A) (A) (A) (A) (A) (A) (A) (A) (A) (A) (A)
                 (A) (A) (A) (A) (A) (A) (A) (A) (A) (A) (A) (A)
                 (A) (A) (A) (A) (A) (A) (A) (A) (A) (A) (A) (A)
                 (A) (A) (A) (A) (A) (A) (A) (A) (A) (A) (A) (A)
                 (A) (A) (A) (A) (A) (A) (A) (A) (A) (A) (A) (A)
                 (A) (A) (A) (A) (A) (A) (A) (A) (A) (A) (A) (A)
                 (A) (A) (A) (A) (A) (A) (A) (A)
     4 initial guesses have been made.
 Convergence on wavefunction:    0.001000000000000
 Iteration     1 Dimension     4 NMult     0 NNew      4
 CISAX will form     4 AO SS matrices at one time.
 Iteration     2 Dimension     6 NMult     4 NNew      2
 Iteration     3 Dimension     8 NMult     6 NNew      2
 Iteration     4 Dimension    10 NMult     8 NNew      2
 Iteration     5 Dimension    12 NMult    10 NNew      2
 Iteration     6 Dimension    14 NMult    12 NNew      2
 ***********************************************************************
 Excited states from <AA,BB:AA,BB> singles matrix:
 ***********************************************************************
 
 Ground to excited state transition densities written to RWF  633
 Ground to excited state transition electric dipole moments (Au):
       state          X           Y           Z        Dip. S.      Osc.
         1        -0.0029     -0.6409      0.0020      0.4108      0.0283
 Ground to excited state transition velocity dipole moments (Au):
       state          X           Y           Z        Dip. S.      Osc.
         1         0.0003      0.0740     -0.0002      0.0055      0.0353
 Ground to excited state transition magnetic dipole moments (Au):
       state          X           Y           Z
         1        -0.0026     -0.0002      0.0000
 Ground to excited state transition velocity quadrupole moments (Au):
       state          XX          YY          ZZ          XY          XZ          YZ
         1         0.3030      0.0338     -0.0097      0.0004      0.0000      0.0004
 <0|del|b> * <b|rxdel|0> + <0|del|b> * <b|delr+rdel|0>
 Rotatory Strengths (R) in cgs (10**-40 erg-esu-cm/Gauss)
       state          XX          YY          ZZ    R(velocity)    E-M Angle
         1        -0.0703     -0.0020     -0.0503     -0.0409       90.00
 1/2[<0|r|b>*<b|rxdel|0> + (<0|rxdel|b>*<b|r|0>)*]
 Rotatory Strengths (R) in cgs (10**-40 erg-esu-cm/Gauss)
       state          XX          YY          ZZ     R(length)
         1        -0.0054     -0.1048     -0.0001     -0.0368
  1/2[<0|del|b>*<b|r|0> + (<0|r|b>*<b|del|0>)*] (Au)
       state          X           Y           Z        Dip. S.   Osc.(frdel)
         1        -0.0000     -0.0474     -0.0000      0.0474      0.0316

 Excitation energies and oscillator strengths:
 
 Excited State   1:      Singlet-A      2.8144 eV  440.53 nm  f=0.0283  <S**2>=0.000
      47 -> 48         0.70427
 This state for optimization and/or second-order correction.
 Total Energy, E(TD-HF/TD-DFT) =  -539.656310450    
 Copying the excited state density for this state as the 1-particle RhoCI density.
 SavETr:  write IOETrn=   770 NScale= 10 NData=  16 NLR=1 NState=    1 LETran=      28.

 **********************************************************************

            Population analysis using the SCF Density.

 **********************************************************************

 Orbital symmetries:
       Occupied  (A) (A) (A) (A) (A) (A) (A) (A) (A) (A) (A) (A)
                 (A) (A) (A) (A) (A) (A) (A) (A) (A) (A) (A) (A)
                 (A) (A) (A) (A) (A) (A) (A) (A) (A) (A) (A) (A)
                 (A) (A) (A) (A) (A) (A) (A) (A) (A) (A) (A)
       Virtual   (A) (A) (A) (A) (A) (A) (A) (A) (A) (A) (A) (A)
                 (A) (A) (A) (A) (A) (A) (A) (A) (A) (A) (A) (A)
                 (A) (A) (A) (A) (A) (A) (A) (A) (A) (A) (A) (A)
                 (A) (A) (A) (A) (A) (A) (A) (A) (A) (A) (A) (A)
                 (A) (A) (A) (A) (A) (A) (A) (A) (A) (A) (A) (A)
                 (A) (A) (A) (A) (A) (A) (A) (A) (A) (A) (A) (A)
                 (A) (A) (A) (A) (A) (A) (A) (A) (A) (A) (A) (A)
                 (A) (A) (A) (A) (A) (A) (A) (A) (A) (A) (A) (A)
                 (A) (A) (A) (A) (A) (A) (A) (A) (A) (A) (A) (A)
                 (A) (A) (A) (A) (A) (A) (A) (A) (A) (A) (A) (A)
                 (A) (A) (A) (A) (A) (A) (A) (A) (A) (A) (A) (A)
                 (A) (A) (A) (A) (A) (A) (A) (A) (A) (A) (A) (A)
                 (A) (A) (A) (A) (A) (A) (A) (A) (A) (A) (A) (A)
                 (A) (A) (A) (A) (A) (A) (A) (A) (A) (A) (A) (A)
                 (A) (A) (A) (A) (A) (A) (A) (A) (A) (A) (A) (A)
                 (A) (A) (A) (A) (A) (A) (A) (A) (A) (A) (A) (A)
                 (A) (A) (A) (A) (A) (A) (A) (A) (A) (A) (A) (A)
                 (A) (A) (A) (A) (A) (A) (A) (A) (A) (A) (A) (A)
                 (A) (A) (A) (A) (A) (A) (A) (A) (A) (A) (A) (A)
                 (A) (A) (A) (A) (A) (A) (A) (A) (A) (A) (A) (A)
                 (A) (A) (A) (A) (A) (A) (A) (A) (A) (A) (A) (A)
                 (A) (A) (A) (A) (A) (A) (A) (A) (A) (A) (A) (A)
                 (A) (A) (A) (A) (A) (A) (A) (A) (A) (A) (A) (A)
                 (A) (A) (A) (A) (A) (A) (A) (A) (A) (A) (A) (A)
                 (A) (A) (A) (A) (A) (A) (A) (A) (A) (A) (A) (A)
                 (A) (A) (A) (A) (A) (A) (A) (A) (A) (A) (A) (A)
                 (A) (A) (A) (A) (A) (A) (A) (A) (A) (A) (A) (A)
                 (A) (A) (A) (A) (A) (A) (A) (A)
 The electronic state is 1-A.
 Alpha  occ. eigenvalues --  -10.77661 -10.73270 -10.73243 -10.72478 -10.72476
 Alpha  occ. eigenvalues --  -10.71428 -10.71413 -10.71038 -10.71034 -10.70980
 Alpha  occ. eigenvalues --  -10.70034 -10.70023 -10.69619 -10.69606  -1.16410
 Alpha  occ. eigenvalues --   -1.12360  -1.06890  -1.05764  -1.01214  -1.00195
 Alpha  occ. eigenvalues --   -0.95743  -0.91066  -0.86413  -0.85884  -0.83811
 Alpha  occ. eigenvalues --   -0.78394  -0.76020  -0.74397  -0.69567  -0.69271
 Alpha  occ. eigenvalues --   -0.68538  -0.68222  -0.68131  -0.64661  -0.64217
 Alpha  occ. eigenvalues --   -0.63122  -0.61934  -0.59964  -0.59601  -0.59119
 Alpha  occ. eigenvalues --   -0.56910  -0.55239  -0.54872  -0.52397  -0.46555
 Alpha  occ. eigenvalues --   -0.46056  -0.44455
 Alpha virt. eigenvalues --   -0.26079  -0.14726  -0.14112  -0.12837  -0.11178
 Alpha virt. eigenvalues --   -0.10083  -0.09222  -0.07990  -0.07954  -0.07472
 Alpha virt. eigenvalues --   -0.07207  -0.07149  -0.05644  -0.05582  -0.05342
 Alpha virt. eigenvalues --   -0.03810  -0.03639  -0.03281  -0.03134  -0.02163
 Alpha virt. eigenvalues --   -0.01363  -0.00920   0.00191   0.00615   0.00675
 Alpha virt. eigenvalues --    0.01050   0.01513   0.01923   0.02213   0.02289
 Alpha virt. eigenvalues --    0.02440   0.02678   0.02700   0.03321   0.03381
 Alpha virt. eigenvalues --    0.04245   0.04503   0.04691   0.05002   0.05360
 Alpha virt. eigenvalues --    0.06036   0.06291   0.06595   0.07042   0.07241
 Alpha virt. eigenvalues --    0.07879   0.08116   0.08364   0.08511   0.08931
 Alpha virt. eigenvalues --    0.09554   0.09564   0.10036   0.10844   0.11021
 Alpha virt. eigenvalues --    0.11115   0.12189   0.12257   0.12900   0.13001
 Alpha virt. eigenvalues --    0.13403   0.13533   0.14021   0.14330   0.16184
 Alpha virt. eigenvalues --    0.16274   0.16457   0.17366   0.17610   0.17759
 Alpha virt. eigenvalues --    0.18112   0.19024   0.19205   0.19617   0.19717
 Alpha virt. eigenvalues --    0.21518   0.21550   0.22731   0.23122   0.23564
 Alpha virt. eigenvalues --    0.23717   0.24564   0.25231   0.26899   0.27554
 Alpha virt. eigenvalues --    0.28842   0.29293   0.29851   0.31306   0.35815
 Alpha virt. eigenvalues --    0.36347   0.38122   0.39226   0.41162   0.41438
 Alpha virt. eigenvalues --    0.41957   0.42262   0.43002   0.43625   0.44297
 Alpha virt. eigenvalues --    0.44855   0.44946   0.45971   0.46090   0.47945
 Alpha virt. eigenvalues --    0.48559   0.48881   0.49049   0.50440   0.51142
 Alpha virt. eigenvalues --    0.51523   0.51580   0.52116   0.52771   0.53987
 Alpha virt. eigenvalues --    0.54106   0.54589   0.55696   0.55759   0.57470
 Alpha virt. eigenvalues --    0.58221   0.58800   0.61421   0.62150   0.62337
 Alpha virt. eigenvalues --    0.63128   0.63538   0.64882   0.65143   0.67225
 Alpha virt. eigenvalues --    0.70407   0.70618   0.70998   0.72345   0.72831
 Alpha virt. eigenvalues --    0.75764   0.75925   0.76233   0.76850   0.77057
 Alpha virt. eigenvalues --    0.77749   0.77801   0.78198   0.80040   0.80405
 Alpha virt. eigenvalues --    0.81204   0.81627   0.82102   0.82960   0.85113
 Alpha virt. eigenvalues --    0.87073   0.88155   0.88208   0.89305   0.90416
 Alpha virt. eigenvalues --    0.90945   0.91325   0.93115   0.94638   0.96452
 Alpha virt. eigenvalues --    0.96644   1.00449   1.01282   1.01627   1.02635
 Alpha virt. eigenvalues --    1.03143   1.03843   1.04657   1.05527   1.08738
 Alpha virt. eigenvalues --    1.19665   1.23309   1.24059   1.25279   1.27974
 Alpha virt. eigenvalues --    1.29532   1.31900   1.34109   1.35642   1.35959
 Alpha virt. eigenvalues --    1.39257   1.40188   1.40817   1.42911   1.43337
 Alpha virt. eigenvalues --    1.43469   1.45133   1.45218   1.46396   1.46713
 Alpha virt. eigenvalues --    1.47598   1.47839   1.51681   1.53602   1.55699
 Alpha virt. eigenvalues --    1.55873   1.56202   1.56514   1.57704   1.61354
 Alpha virt. eigenvalues --    1.63325   1.63706   1.63881   1.66055   1.68185
 Alpha virt. eigenvalues --    1.68424   1.68652   1.69721   1.74229   1.75969
 Alpha virt. eigenvalues --    1.77120   1.77994   1.79918   1.80010   1.80492
 Alpha virt. eigenvalues --    1.83145   1.83181   1.83562   1.83707   1.84174
 Alpha virt. eigenvalues --    1.84237   1.85821   1.85951   1.88167   1.91432
 Alpha virt. eigenvalues --    1.91955   1.94134   1.95215   1.97573   1.97959
 Alpha virt. eigenvalues --    1.99557   2.02427   2.04264   2.07406   2.11737
 Alpha virt. eigenvalues --    2.12000   2.13971   2.15175   2.18850   2.21183
 Alpha virt. eigenvalues --    2.22561   2.28521   2.29974   2.34581   2.35033
 Alpha virt. eigenvalues --    2.36143   2.38910   2.39908   2.42246   2.43929
 Alpha virt. eigenvalues --    2.46323   2.46892   2.49131   2.52774   2.53789
 Alpha virt. eigenvalues --    2.54215   2.56848   2.57799   2.58266   2.59630
 Alpha virt. eigenvalues --    2.59738   2.61641   2.61986   2.63452   2.63766
 Alpha virt. eigenvalues --    2.64689   2.64985   2.65170   2.65196   2.67900
 Alpha virt. eigenvalues --    2.68652   2.70907   2.71397   2.73336   2.74814
 Alpha virt. eigenvalues --    2.76268   2.78598   2.79643   2.82635   2.82993
 Alpha virt. eigenvalues --    2.84645   2.86269   2.92079   2.96915   2.99423
 Alpha virt. eigenvalues --    2.99897   3.05353   3.10738   3.11137   3.12578
 Alpha virt. eigenvalues --    3.21006   3.23716   3.26426   3.28030   3.30574
 Alpha virt. eigenvalues --    3.32333   3.33382   3.43370   3.45676   3.46113
 Alpha virt. eigenvalues --    3.48143   3.49825   3.56385   3.65760   3.67042
 Alpha virt. eigenvalues --    3.67353   3.94522   3.94754   3.95576   3.96352
 Alpha virt. eigenvalues --    4.04260   4.06947   4.07295   4.12519   4.35597
 Alpha virt. eigenvalues --    4.61465   4.69503   4.71269  23.45439  23.60897
 Alpha virt. eigenvalues --   23.82002  23.85785  23.87686  23.89157  23.90471
 Alpha virt. eigenvalues --   23.92222  23.97404  23.98839  23.99006  23.99746
 Alpha virt. eigenvalues --   24.10072  24.10195
          Condensed to atoms (all electrons):
               1          2          3          4          5          6
     1  C    8.537889   0.345099  -0.546848   1.928140  -0.020006  -0.093360
     2  C    0.345099   7.098636   0.355270  -1.044019  -0.020048  -0.014133
     3  C   -0.546848   0.355270   6.577876   0.733653  -0.122459   0.016666
     4  C    1.928140  -1.044019   0.733653  10.918304  -0.313248  -0.121756
     5  C   -0.020006  -0.020048  -0.122459  -0.313248  10.923567   0.727709
     6  C   -0.093360  -0.014133   0.016666  -0.121756   0.727709   6.576302
     7  C   -0.021234   0.002021  -0.014172  -0.020506  -1.038755   0.353792
     8  C    0.399871  -0.020168  -0.093436  -0.023688   1.937382  -0.550336
     9  C   -1.185224  -0.788226   0.293660  -0.239480  -0.232380   0.294601
    10  C   -1.257702   0.241968  -0.348963  -2.542868  -2.542698  -0.345506
    11  C    0.284922  -0.914581   1.029189  -0.353194  -1.519340  -0.163450
    12  C   -1.972363   1.321263  -1.389386  -1.467733  -0.302542  -0.203358
    13  C    0.180137  -0.242877  -0.164562  -1.518698  -0.357290   1.029414
    14  C   -1.068114  -0.196904  -0.203183  -0.299297  -1.484085  -1.382995
    15  H    0.365734  -0.105772  -0.000967   0.027257   0.005674   0.001093
    16  H   -0.020000   0.379368  -0.017305   0.013473  -0.001510  -0.000321
    17  H   -0.024246  -0.017249   0.376943  -0.066987   0.000218   0.000393
    18  H    0.049099   0.003797  -0.086255   0.455531   0.007246  -0.005001
    19  H   -0.046675  -0.007882   0.051618  -0.072375  -0.072845   0.051591
    20  H    0.007238   0.001985  -0.005016   0.007198   0.455286  -0.086557
    21  H   -0.001308  -0.000393   0.000394   0.000223  -0.066993   0.376889
    22  H    0.000703   0.000360  -0.000322  -0.001515   0.013603  -0.017462
    23  H    0.005707  -0.002666   0.001096   0.005668   0.027236  -0.001007
    24  H    0.027210   0.014613  -0.001759  -0.012257  -0.012729  -0.001616
    25  H    0.037757   0.014197  -0.001125  -0.012629  -0.012240  -0.001309
               7          8          9         10         11         12
     1  C   -0.021234   0.399871  -1.185224  -1.257702   0.284922  -1.972363
     2  C    0.002021  -0.020168  -0.788226   0.241968  -0.914581   1.321263
     3  C   -0.014172  -0.093436   0.293660  -0.348963   1.029189  -1.389386
     4  C   -0.020506  -0.023688  -0.239480  -2.542868  -0.353194  -1.467733
     5  C   -1.038755   1.937382  -0.232380  -2.542698  -1.519340  -0.302542
     6  C    0.353792  -0.550336   0.294601  -0.345506  -0.163450  -0.203358
     7  C    7.087818   0.345865  -0.785061   0.239860  -0.238455  -0.195591
     8  C    0.345865   8.535988  -1.175831  -1.257836   0.184909  -1.061340
     9  C   -0.785061  -1.175831   9.520651   0.256774   1.635779  -1.907061
    10  C    0.239860  -1.257836   0.256774   9.135587  -0.431824   2.360996
    11  C   -0.238455   0.184909   1.635779  -0.431824  14.491863  -3.735178
    12  C   -0.195591  -1.061340  -1.907061   2.360996  -3.735178  15.904935
    13  C   -0.911394   0.270358   1.629041  -0.432000   1.126396  -4.821012
    14  C    1.317515  -1.982076  -1.912974   2.365516  -4.811129   3.002147
    15  H   -0.002638   0.005682   0.091216  -0.009679  -0.029184  -0.024364
    16  H    0.000357   0.000674   0.003380  -0.009375   0.026145  -0.031837
    17  H   -0.000392  -0.001300  -0.005509   0.020339  -0.027000   0.090052
    18  H    0.001984   0.007183  -0.025010   0.014897  -0.010478  -0.050763
    19  H   -0.007905  -0.046666   0.075157   0.422265   0.081307  -0.066681
    20  H    0.004031   0.049140  -0.024949   0.015072  -0.012215  -0.012522
    21  H   -0.017406  -0.024095  -0.005501   0.020319  -0.006150   0.005155
    22  H    0.379146  -0.019519   0.003567  -0.009446   0.002952  -0.008953
    23  H   -0.105470   0.366144   0.091399  -0.009671   0.001434   0.006455
    24  H    0.015052   0.028202   0.361281   0.005657   0.010538  -0.054014
    25  H    0.013659   0.036382   0.352774   0.005457   0.016774  -0.066181
              13         14         15         16         17         18
     1  C    0.180137  -1.068114   0.365734  -0.020000  -0.024246   0.049099
     2  C   -0.242877  -0.196904  -0.105772   0.379368  -0.017249   0.003797
     3  C   -0.164562  -0.203183  -0.000967  -0.017305   0.376943  -0.086255
     4  C   -1.518698  -0.299297   0.027257   0.013473  -0.066987   0.455531
     5  C   -0.357290  -1.484085   0.005674  -0.001510   0.000218   0.007246
     6  C    1.029414  -1.382995   0.001093  -0.000321   0.000393  -0.005001
     7  C   -0.911394   1.317515  -0.002638   0.000357  -0.000392   0.001984
     8  C    0.270358  -1.982076   0.005682   0.000674  -0.001300   0.007183
     9  C    1.629041  -1.912974   0.091216   0.003380  -0.005509  -0.025010
    10  C   -0.432000   2.365516  -0.009679  -0.009375   0.020339   0.014897
    11  C    1.126396  -4.811129  -0.029184   0.026145  -0.027000  -0.010478
    12  C   -4.821012   3.002147  -0.024364  -0.031837   0.090052  -0.050763
    13  C   14.525369  -3.728312   0.001489   0.002938  -0.006198  -0.012286
    14  C   -3.728312  15.920332   0.006493  -0.008914   0.005163  -0.012674
    15  H    0.001489   0.006493   0.439402  -0.009010   0.001504   0.000158
    16  H    0.002938  -0.008914  -0.009010   0.419647  -0.006733   0.001930
    17  H   -0.006198   0.005163   0.001504  -0.006733   0.423276  -0.010373
    18  H   -0.012286  -0.012674   0.000158   0.001930  -0.010373   0.453598
    19  H    0.081022  -0.066505   0.000309  -0.000551   0.001447  -0.006328
    20  H   -0.010569  -0.050917  -0.000116   0.000015  -0.000145   0.001282
    21  H   -0.026788   0.089799   0.000015  -0.000007   0.000011  -0.000145
    22  H    0.026358  -0.032465  -0.000127   0.000007  -0.000007   0.000015
    23  H   -0.029494  -0.024663   0.000574  -0.000127   0.000015  -0.000115
    24  H    0.010178  -0.053398  -0.001141   0.000689  -0.000166   0.000179
    25  H    0.016819  -0.066806  -0.000686   0.000563  -0.000121   0.000182
              19         20         21         22         23         24
     1  C   -0.046675   0.007238  -0.001308   0.000703   0.005707   0.027210
     2  C   -0.007882   0.001985  -0.000393   0.000360  -0.002666   0.014613
     3  C    0.051618  -0.005016   0.000394  -0.000322   0.001096  -0.001759
     4  C   -0.072375   0.007198   0.000223  -0.001515   0.005668  -0.012257
     5  C   -0.072845   0.455286  -0.066993   0.013603   0.027236  -0.012729
     6  C    0.051591  -0.086557   0.376889  -0.017462  -0.001007  -0.001616
     7  C   -0.007905   0.004031  -0.017406   0.379146  -0.105470   0.015052
     8  C   -0.046666   0.049140  -0.024095  -0.019519   0.366144   0.028202
     9  C    0.075157  -0.024949  -0.005501   0.003567   0.091399   0.361281
    10  C    0.422265   0.015072   0.020319  -0.009446  -0.009671   0.005657
    11  C    0.081307  -0.012215  -0.006150   0.002952   0.001434   0.010538
    12  C   -0.066681  -0.012522   0.005155  -0.008953   0.006455  -0.054014
    13  C    0.081022  -0.010569  -0.026788   0.026358  -0.029494   0.010178
    14  C   -0.066505  -0.050917   0.089799  -0.032465  -0.024663  -0.053398
    15  H    0.000309  -0.000116   0.000015  -0.000127   0.000574  -0.001141
    16  H   -0.000551   0.000015  -0.000007   0.000007  -0.000127   0.000689
    17  H    0.001447  -0.000145   0.000011  -0.000007   0.000015  -0.000166
    18  H   -0.006328   0.001282  -0.000145   0.000015  -0.000115   0.000179
    19  H    0.443902  -0.006347   0.001444  -0.000551   0.000313   0.000604
    20  H   -0.006347   0.453628  -0.010340   0.001939   0.000154   0.000169
    21  H    0.001444  -0.010340   0.423160  -0.006721   0.001501  -0.000161
    22  H   -0.000551   0.001939  -0.006721   0.419635  -0.009019   0.000672
    23  H    0.000313   0.000154   0.001501  -0.009019   0.439316  -0.001093
    24  H    0.000604   0.000169  -0.000161   0.000672  -0.001093   0.493161
    25  H    0.000610   0.000193  -0.000125   0.000579  -0.000740  -0.079370
              25
     1  C    0.037757
     2  C    0.014197
     3  C   -0.001125
     4  C   -0.012629
     5  C   -0.012240
     6  C   -0.001309
     7  C    0.013659
     8  C    0.036382
     9  C    0.352774
    10  C    0.005457
    11  C    0.016774
    12  C   -0.066181
    13  C    0.016819
    14  C   -0.066806
    15  H   -0.000686
    16  H    0.000563
    17  H   -0.000121
    18  H    0.000182
    19  H    0.000610
    20  H    0.000193
    21  H   -0.000125
    22  H    0.000579
    23  H   -0.000740
    24  H   -0.079370
    25  H    0.493325
 Mulliken charges:
               1
     1  C    0.087576
     2  C   -0.403659
     3  C   -0.440606
     4  C    0.020805
     5  C    0.021246
     6  C   -0.440283
     7  C   -0.402121
     8  C    0.088510
     9  C   -0.322076
    10  C    0.092861
    11  C   -0.640028
    12  C    0.679875
    13  C   -0.638037
    14  C    0.678445
    15  H    0.237083
    16  H    0.256505
    17  H    0.247065
    18  H    0.222348
    19  H    0.189720
    20  H    0.222361
    21  H    0.247223
    22  H    0.256570
    23  H    0.237054
    24  H    0.249502
    25  H    0.252062
 Sum of Mulliken charges =   1.00000
 Mulliken charges with hydrogens summed into heavy atoms:
               1
     1  C    0.324659
     2  C   -0.147154
     3  C   -0.193542
     4  C    0.243153
     5  C    0.243608
     6  C   -0.193060
     7  C   -0.145551
     8  C    0.325564
     9  C    0.179488
    10  C    0.282581
    11  C   -0.640028
    12  C    0.679875
    13  C   -0.638037
    14  C    0.678445
 Electronic spatial extent (au):  <R**2>=           2859.8410
 Charge=              1.0000 electrons
 Dipole moment (field-independent basis, Debye):
    X=              0.0027    Y=              0.1894    Z=              0.0002  Tot=              0.1894
 Quadrupole moment (field-independent basis, Debye-Ang):
   XX=            -31.0291   YY=            -56.2619   ZZ=            -84.1742
   XY=              0.0015   XZ=              0.0025   YZ=              0.0478
 Traceless Quadrupole moment (field-independent basis, Debye-Ang):
   XX=             26.1260   YY=              0.8932   ZZ=            -27.0192
   XY=              0.0015   XZ=              0.0025   YZ=              0.0478
 Octapole moment (field-independent basis, Debye-Ang**2):
  XXX=              0.1100  YYY=              5.2095  ZZZ=             -0.0143  XYY=             -0.0011
  XXY=             -4.8528  XXZ=              0.0862  XZZ=             -0.0132  YZZ=             -3.0869
  YYZ=              0.0598  XYZ=              0.0123
 Hexadecapole moment (field-independent basis, Debye-Ang**3):
 XXXX=          -2124.0224 YYYY=           -609.2712 ZZZZ=            -99.4408 XXXY=              0.0622
 XXXZ=              0.0697 YYYX=             -0.0258 YYYZ=              0.5213 ZZZX=              0.0033
 ZZZY=              0.0220 XXYY=           -508.3984 XXZZ=           -591.8482 YYZZ=           -145.7458
 XXYZ=              0.5222 YYXZ=              0.0001 ZZXY=              0.0013
 N-N= 7.807317612084D+02 E-N=-2.797778984621D+03  KE= 5.374766053994D+02
 Unable to Open any file for archive entry.
 1\1\GINC-GADI-CPU-CLX-0113\SP\RM062X TD-FC\6-311++G(d,p)\C14H11(1+)\TS
 1578\28-Jul-2022\0\\#n M062X/6-311++G(d,p) TD(NStates=1) EmpiricalDisp
 ersion=GD3 SP\\SP_0\\1,1\C,0,0.0078,2.492055,1.360431\C,0,0.0087,3.704
 858,0.671989\C,0,0.0026,3.689561,-0.71383\C,0,-0.00775,2.467606,-1.407
 538\C,0,-0.00785,-2.467806,-1.407538\C,0,0.002,-3.690561,-0.71383\C,0,
 0.00775,-3.705208,0.671989\C,0,0.0059,-2.492655,1.360431\C,0,0.00435,0
 .0022,1.453369\C,0,-0.0122,-0.0001,-1.429189\C,0,-0.00175,1.258255,0.6
 77065\C,0,-0.0052,1.238221,-0.730804\C,0,-0.0019,-1.258205,0.677065\C,
 0,-0.0048,-1.237921,-0.730804\H,0,0.0032,2.487521,2.443647\H,0,0.0089,
 4.639253,1.211689\H,0,-0.0013,4.608412,-1.272349\H,0,-0.0038,2.4719,-2
 .490059\H,0,-0.01125,-0.00005,-2.510266\H,0,-0.0035,-2.47205,-2.490059
 \H,0,-0.0016,-4.609662,-1.272349\H,0,0.00775,-4.640003,1.211689\H,0,0.
 001,-2.488171,2.443647\H,0,-0.843585,0.0005,2.145237\H,0,0.875585,0.00
 05,2.146337\\Version=ES64L-G16RevC.01\State=1-A\HF=-539.759739\RMSD=4.
 561e-09\PG=C01 [X(C14H11)]\\@
 The archive entry for this job was punched.


 IT'S WHAT YOU LEARN AFTER YOU KNOW IT ALL
 THAT COUNTS.
 Job cpu time:       0 days  1 hours 20 minutes 29.0 seconds.
 Elapsed time:       0 days  0 hours  1 minutes 41.2 seconds.
 File lengths (MBytes):  RWF=    460 Int=      0 D2E=      0 Chk=     15 Scr=      1
 Normal termination of Gaussian 16 at Thu Jul 28 15:10:43 2022.
