 Entering Gaussian System, Link 0=g16
 Initial command:
 /apps/gaussian/g16c01/g16/l1.exe "/jobfs/53002009.gadi-pbs/Gau-747630.inp" -scrdir="/jobfs/53002009.gadi-pbs/"
 Entering Link 1 = /apps/gaussian/g16c01/g16/l1.exe PID=    747631.
  
 Copyright (c) 1988-2019, Gaussian, Inc.  All Rights Reserved.
  
 This is part of the Gaussian(R) 16 program.  It is based on
 the Gaussian(R) 09 system (copyright 2009, Gaussian, Inc.),
 the Gaussian(R) 03 system (copyright 2003, Gaussian, Inc.),
 the Gaussian(R) 98 system (copyright 1998, Gaussian, Inc.),
 the Gaussian(R) 94 system (copyright 1995, Gaussian, Inc.),
 the Gaussian 92(TM) system (copyright 1992, Gaussian, Inc.),
 the Gaussian 90(TM) system (copyright 1990, Gaussian, Inc.),
 the Gaussian 88(TM) system (copyright 1988, Gaussian, Inc.),
 the Gaussian 86(TM) system (copyright 1986, Carnegie Mellon
 University), and the Gaussian 82(TM) system (copyright 1983,
 Carnegie Mellon University). Gaussian is a federally registered
 trademark of Gaussian, Inc.
  
 This software contains proprietary and confidential information,
 including trade secrets, belonging to Gaussian, Inc.
  
 This software is provided under written license and may be
 used, copied, transmitted, or stored only in accord with that
 written license.
  
 The following legend is applicable only to US Government
 contracts under FAR:
  
                    RESTRICTED RIGHTS LEGEND
  
 Use, reproduction and disclosure by the US Government is
 subject to restrictions as set forth in subparagraphs (a)
 and (c) of the Commercial Computer Software - Restricted
 Rights clause in FAR 52.227-19.
  
 Gaussian, Inc.
 340 Quinnipiac St., Bldg. 40, Wallingford CT 06492
  
  
 ---------------------------------------------------------------
 Warning -- This program may not be used in any manner that
 competes with the business of Gaussian, Inc. or will provide
 assistance to any competitor of Gaussian, Inc.  The licensee
 of this program is prohibited from giving any competitor of
 Gaussian, Inc. access to this program.  By using this program,
 the user acknowledges that Gaussian, Inc. is engaged in the
 business of creating and licensing software in the field of
 computational chemistry and represents and warrants to the
 licensee that it is not a competitor of Gaussian, Inc. and that
 it will not use this program in any manner prohibited above.
 ---------------------------------------------------------------
  

 Cite this work as:
 Gaussian 16, Revision C.01,
 M. J. Frisch, G. W. Trucks, H. B. Schlegel, G. E. Scuseria, 
 M. A. Robb, J. R. Cheeseman, G. Scalmani, V. Barone, 
 G. A. Petersson, H. Nakatsuji, X. Li, M. Caricato, A. V. Marenich, 
 J. Bloino, B. G. Janesko, R. Gomperts, B. Mennucci, H. P. Hratchian, 
 J. V. Ortiz, A. F. Izmaylov, J. L. Sonnenberg, D. Williams-Young, 
 F. Ding, F. Lipparini, F. Egidi, J. Goings, B. Peng, A. Petrone, 
 T. Henderson, D. Ranasinghe, V. G. Zakrzewski, J. Gao, N. Rega, 
 G. Zheng, W. Liang, M. Hada, M. Ehara, K. Toyota, R. Fukuda, 
 J. Hasegawa, M. Ishida, T. Nakajima, Y. Honda, O. Kitao, H. Nakai, 
 T. Vreven, K. Throssell, J. A. Montgomery, Jr., J. E. Peralta, 
 F. Ogliaro, M. J. Bearpark, J. J. Heyd, E. N. Brothers, K. N. Kudin, 
 V. N. Staroverov, T. A. Keith, R. Kobayashi, J. Normand, 
 K. Raghavachari, A. P. Rendell, J. C. Burant, S. S. Iyengar, 
 J. Tomasi, M. Cossi, J. M. Millam, M. Klene, C. Adamo, R. Cammi, 
 J. W. Ochterski, R. L. Martin, K. Morokuma, O. Farkas, 
 J. B. Foresman, and D. J. Fox, Gaussian, Inc., Wallingford CT, 2019.
 
 ******************************************
 Gaussian 16:  ES64L-G16RevC.01  3-Jul-2019
                28-Jul-2022 
 ******************************************
 %NProcShared=48
 Will use up to   48 processors via shared memory.
 %mem = 190GB
 ---------------------------------------------------------------
 #n M062X/6-311++G(d,p) TD(NStates=1) EmpiricalDispersion=GD3 SP
 ---------------------------------------------------------------
 1/38=1,172=1/1;
 2/12=2,17=6,18=5,40=1/2;
 3/5=4,6=6,7=1111,11=9,25=1,30=1,74=-55,124=31/1,2,3,8;
 4//1;
 5/5=2,38=5/2;
 8/6=1,10=2,108=1/1;
 9/41=1,42=1,70=2/14;
 6/7=2,8=2,9=2,10=2/1;
 99/5=1,9=1/99;
 ------
 SP_-50
 ------
 Symbolic Z-matrix:
 Charge =  1 Multiplicity = 1
 C                     0.0215    2.49146   1.36043 
 C                     0.02515   3.71191   0.67199 
 C                     0.0072    3.70196  -0.71383 
 C                    -0.02335   2.47671  -1.40754 
 C                    -0.02345  -2.47691  -1.40754 
 C                     0.0066   -3.70296  -0.71383 
 C                     0.0242   -3.71226   0.67199 
 C                     0.0196   -2.49206   1.36043 
 C                     0.0131    0.0022    1.45337 
 C                    -0.0366   -0.0001   -1.42919 
 C                    -0.0054    1.2506    0.67707 
 C                    -0.0152    1.23942  -0.7308 
 C                    -0.00555  -1.25056   0.67707 
 C                    -0.0148   -1.23912  -0.7308 
 H                     0.0074    2.48707   2.44365 
 H                     0.02555   4.645     1.21169 
 H                    -0.0042    4.60796  -1.27235 
 H                    -0.0111    2.48075  -2.49006 
 H                    -0.03375  -0.00005  -2.51027 
 H                    -0.0108   -2.4809   -2.49006 
 H                    -0.0045   -4.60921  -1.27235 
 H                     0.0244   -4.64575   1.21169 
 H                     0.0052   -2.48772   2.44365 
 H                    -0.81159   0.0005    2.14524 
 H                     0.90759   0.0005    2.14634 
 
                          Input orientation:                          
 ---------------------------------------------------------------------
 Center     Atomic      Atomic             Coordinates (Angstroms)
 Number     Number       Type             X           Y           Z
 ---------------------------------------------------------------------
      1          6           0        0.021500    2.491455    1.360431
      2          6           0        0.025150    3.711908    0.671989
      3          6           0        0.007200    3.701961   -0.713830
      4          6           0       -0.023350    2.476706   -1.407538
      5          6           0       -0.023450   -2.476906   -1.407538
      6          6           0        0.006600   -3.702961   -0.713830
      7          6           0        0.024200   -3.712258    0.671989
      8          6           0        0.019600   -2.492055    1.360431
      9          6           0        0.013100    0.002200    1.453369
     10          6           0       -0.036600   -0.000100   -1.429189
     11          6           0       -0.005400    1.250605    0.677065
     12          6           0       -0.015200    1.239421   -0.730804
     13          6           0       -0.005550   -1.250555    0.677065
     14          6           0       -0.014800   -1.239121   -0.730804
     15          1           0        0.007400    2.487071    2.443647
     16          1           0        0.025550    4.645003    1.211689
     17          1           0       -0.004200    4.607962   -1.272349
     18          1           0       -0.011100    2.480750   -2.490059
     19          1           0       -0.033750   -0.000050   -2.510266
     20          1           0       -0.010800   -2.480900   -2.490059
     21          1           0       -0.004500   -4.609212   -1.272349
     22          1           0        0.024400   -4.645753    1.211689
     23          1           0        0.005200   -2.487721    2.443647
     24          1           0       -0.811585    0.000500    2.145237
     25          1           0        0.907585    0.000500    2.146337
 ---------------------------------------------------------------------
                    Distance matrix (angstroms):
                    1          2          3          4          5
     1  C    0.000000
     2  C    1.401239   0.000000
     3  C    2.401684   1.385971   0.000000
     4  C    2.768372   2.419196   1.408337   0.000000
     5  C    5.687555   6.529029   6.217762   4.953612   0.000000
     6  C    6.532501   7.543283   7.404922   6.218554   1.409023
     7  C    6.241796   7.424166   7.542641   6.529163   2.419256
     8  C    4.983510   6.242046   6.532117   5.687889   2.768345
     9  C    2.491004   3.791126   4.287775   3.782763   3.785775
    10  C    3.740749   4.265884   3.770797   2.476936   2.476936
    11  C    1.416835   2.461498   2.818491   2.418515   4.270859
    12  C    2.437663   2.843000   2.462700   1.410287   3.777449
    13  C    3.803993   4.962561   5.144139   4.270639   2.418642
    14  C    4.276889   5.146077   4.941160   3.776958   1.410729
    15  H    1.083317   2.153906   3.383137   3.851322   6.282806
    16  H    2.158682   1.077934   2.144129   3.400625   7.588435
    17  H    3.378135   2.141080   1.064383   2.135625   7.086184
    18  H    3.850643   3.393466   2.155616   1.082598   5.074481
    19  H    4.603580   4.889668   4.115063   2.711169   2.711260
    20  H    6.289009   6.953468   6.432968   5.074433   1.082602
    21  H    7.573089   8.545313   8.329927   7.087233   2.136671
    22  H    7.138758   8.375069   8.566928   7.588943   3.400961
    23  H    5.095666   6.447835   6.948513   6.283150   3.851307
    24  H    2.741315   4.079845   4.748209   4.401718   4.402375
    25  H    2.758197   4.089859   4.763619   4.430380   4.431071
                    6          7          8          9         10
     6  C    0.000000
     7  C    1.385962   0.000000
     8  C    2.401879   1.401024   0.000000
     9  C    4.292437   3.795771   2.495994   0.000000
    10  C    3.771576   4.266001   3.740986   2.882987   0.000000
    11  C    5.145148   4.962954   3.804618   1.470206   2.449805
    12  C    4.942459   5.146699   4.277662   2.510404   1.422889
    13  C    2.819403   2.461888   1.417372   1.473903   2.449675
    14  C    2.463991   2.843546   2.438092   2.512423   1.422459
    15  H    6.948824   6.447537   5.095606   2.674933   4.602914
    16  H    8.567175   8.374670   7.138610   4.649106   5.343695
    17  H    8.329676   8.544432   7.572472   5.351904   4.610844
    18  H    6.433785   6.953642   6.289357   4.657727   2.698279
    19  H    4.115867   4.889846   4.603828   3.963913   1.081081
    20  H    2.156090   3.393525   3.850626   4.660148   2.698236
    21  H    1.064593   2.141448   3.378530   5.356769   4.611891
    22  H    2.144014   1.078281   2.158834   4.654246   5.344160
    23  H    3.383263   2.153746   1.083320   2.679630   4.603136
    24  H    4.749665   4.080878   2.742192   1.076471   3.657475
    25  H    4.765286   4.091289   2.760253   1.131508   3.698090
                   11         12         13         14         15
    11  C    0.000000
    12  C    1.407948   0.000000
    13  C    2.501160   2.860449   0.000000
    14  C    2.860231   2.478542   1.407946   0.000000
    15  H    2.156345   3.410906   4.134105   4.895114   0.000000
    16  H    3.436382   3.920833   5.919831   6.196598   2.484898
    17  H    3.882275   3.411812   6.174337   5.872117   4.278661
    18  H    3.397641   2.153112   4.894215   4.114904   4.933745
    19  H    3.424036   2.168667   3.423980   2.168442   5.543349
    20  H    4.894367   4.115311   3.397713   2.153372   7.001609
    21  H    6.175571   5.873661   3.883400   3.413340   8.010368
    22  H    5.920621   6.197590   3.437163   3.921729   7.238452
    23  H    4.134732   4.895829   2.156735   3.411237   4.974792
    24  H    2.090030   3.231217   2.090541   3.231585   2.634923
    25  H    2.134260   3.265639   2.134880   3.265792   2.661158
                   16         17         18         19         20
    16  H    0.000000
    17  H    2.484492   0.000000
    18  H    4.288155   2.451101   0.000000
    19  H    5.952561   4.771487   2.480986   0.000000
    20  H    8.030115   7.192693   4.961650   2.481038   0.000000
    21  H    9.581850   9.217174   7.193777   4.772596   2.452054
    22  H    9.290756   9.581362   8.030644   5.953057   4.288446
    23  H    7.238362   8.009833   7.001959   5.543580   4.933737
    24  H    4.810792   5.793140   5.317743   4.720036   5.318324
    25  H    4.819021   5.809257   5.337770   4.750796   5.338253
                   21         22         23         24         25
    21  H    0.000000
    22  H    2.484475   0.000000
    23  H    4.278954   2.484993   0.000000
    24  H    5.794888   4.812281   2.635798   0.000000
    25  H    5.811089   4.820918   2.663444   1.719170   0.000000
 Stoichiometry    C14H11(1+)
 Framework group  C1[X(C14H11)]
 Deg. of freedom    69
 Full point group                 C1      NOp   1
 Largest Abelian subgroup         C1      NOp   1
 Largest concise Abelian subgroup C1      NOp   1
                         Standard orientation:                         
 ---------------------------------------------------------------------
 Center     Atomic      Atomic             Coordinates (Angstroms)
 Number     Number       Type             X           Y           Z
 ---------------------------------------------------------------------
      1          6           0       -2.491516   -1.360480    0.002689
      2          6           0       -3.711940   -0.672092    0.015285
      3          6           0       -3.701932    0.713843    0.015639
      4          6           0       -2.476644    1.407840   -0.005603
      5          6           0        2.476968    1.407623   -0.005117
      6          6           0        3.702990    0.713525    0.015914
      7          6           0        3.712226   -0.672406    0.015213
      8          6           0        2.491995   -1.360673    0.001378
      9          6           0       -0.002264   -1.453408   -0.006644
     10          6           0        0.000164    1.429555   -0.018273
     11          6           0       -1.250633   -0.676872   -0.015038
     12          6           0       -1.239389    0.731003   -0.006244
     13          6           0        1.250527   -0.676980   -0.014892
     14          6           0        1.239153    0.730889   -0.005551
     15          1           0       -2.487176   -2.443415   -0.025714
     16          1           0       -4.645058   -1.211709    0.008448
     17          1           0       -4.607908    1.272503    0.011508
     18          1           0       -2.480644    2.490105    0.020941
     19          1           0        0.000160    2.510500   -0.001147
     20          1           0        2.481006    2.489883    0.021828
     21          1           0        4.609266    1.272102    0.012298
     22          1           0        4.645698   -1.212102    0.008397
     23          1           0        2.487616   -2.443605   -0.027326
     24          1           0       -0.000495   -2.134325   -0.840393
     25          1           0       -0.000699   -2.158128    0.878613
 ---------------------------------------------------------------------
 Rotational constants (GHZ):           2.1355886           0.4421352           0.3671060
 Standard basis: 6-311++G(d,p) (5D, 7F)
 There are   399 symmetry adapted cartesian basis functions of A   symmetry.
 There are   385 symmetry adapted basis functions of A   symmetry.
   385 basis functions,   603 primitive gaussians,   399 cartesian basis functions
    47 alpha electrons       47 beta electrons
       nuclear repulsion energy       779.7814416264 Hartrees.
 NAtoms=   25 NActive=   25 NUniq=   25 SFac= 1.00D+00 NAtFMM=   60 NAOKFM=F Big=F
 Integral buffers will be    131072 words long.
 Regular integral format.
 Two-electron integral symmetry is turned on.
 Nuclear repulsion after empirical dispersion term =      779.7804616206 Hartrees.
 One-electron integrals computed using PRISM.
 NBasis=   385 RedAO= T EigKep=  1.29D-06  NBF=   385
 NBsUse=   379 1.00D-06 EigRej=  8.86D-07 NBFU=   379
 ExpMin= 3.60D-02 ExpMax= 4.56D+03 ExpMxC= 6.82D+02 IAcc=3 IRadAn=         5 AccDes= 0.00D+00
 Harris functional with IExCor= 1009 and IRadAn=       5 diagonalized for initial guess.
 HarFok:  IExCor= 1009 AccDes= 0.00D+00 IRadAn=         5 IDoV= 1 UseB2=F ITyADJ=14
 ICtDFT=  3500011 ScaDFX=  1.000000  1.000000  1.000000  1.000000
 FoFCou: FMM=F IPFlag=           0 FMFlag=      100000 FMFlg1=           0
         NFxFlg=           0 DoJE=T BraDBF=F KetDBF=T FulRan=T
         wScrn=  0.000000 ICntrl=       500 IOpCl=  0 I1Cent=   200000004 NGrid=           0
         NMat0=    1 NMatS0=      1 NMatT0=    0 NMatD0=    1 NMtDS0=    0 NMtDT0=    0
 Petite list used in FoFCou.
 Requested convergence on RMS density matrix=1.00D-08 within 128 cycles.
 Requested convergence on MAX density matrix=1.00D-06.
 Requested convergence on             energy=1.00D-06.
 No special actions if energy rises.
 SCF Done:  E(RM062X) =  -539.757103376     A.U. after   15 cycles
            NFock= 15  Conv=0.49D-08     -V/T= 2.0044
 DoSCS=F DFT=T ScalE2(SS,OS)=  1.000000  1.000000
 ExpMin= 3.60D-02 ExpMax= 4.56D+03 ExpMxC= 6.82D+02 IAcc=3 IRadAn=         5 AccDes= 0.00D+00
 HarFok:  IExCor=  205 AccDes= 0.00D+00 IRadAn=         5 IDoV=-2 UseB2=F ITyADJ=14
 ICtDFT= 12500011 ScaDFX=  1.000000  1.000000  1.000000  1.000000
 Range of M.O.s used for correlation:    15   379
 NBasis=   385 NAE=    47 NBE=    47 NFC=    14 NFV=     0
 NROrb=    365 NOA=    33 NOB=    33 NVA=   332 NVB=   332

 **** Warning!!: The largest alpha MO coefficient is  0.14916973D+03

 Orbital symmetries:
       Occupied  (A) (A) (A) (A) (A) (A) (A) (A) (A) (A) (A) (A)
                 (A) (A) (A) (A) (A) (A) (A) (A) (A) (A) (A) (A)
                 (A) (A) (A) (A) (A) (A) (A) (A) (A) (A) (A) (A)
                 (A) (A) (A) (A) (A) (A) (A) (A) (A) (A) (A)
       Virtual   (A) (A) (A) (A) (A) (A) (A) (A) (A) (A) (A) (A)
                 (A) (A) (A) (A) (A) (A) (A) (A) (A) (A) (A) (A)
                 (A) (A) (A) (A) (A) (A) (A) (A) (A) (A) (A) (A)
                 (A) (A) (A) (A) (A) (A) (A) (A) (A) (A) (A) (A)
                 (A) (A) (A) (A) (A) (A) (A) (A) (A) (A) (A) (A)
                 (A) (A) (A) (A) (A) (A) (A) (A) (A) (A) (A) (A)
                 (A) (A) (A) (A) (A) (A) (A) (A) (A) (A) (A) (A)
                 (A) (A) (A) (A) (A) (A) (A) (A) (A) (A) (A) (A)
                 (A) (A) (A) (A) (A) (A) (A) (A) (A) (A) (A) (A)
                 (A) (A) (A) (A) (A) (A) (A) (A) (A) (A) (A) (A)
                 (A) (A) (A) (A) (A) (A) (A) (A) (A) (A) (A) (A)
                 (A) (A) (A) (A) (A) (A) (A) (A) (A) (A) (A) (A)
                 (A) (A) (A) (A) (A) (A) (A) (A) (A) (A) (A) (A)
                 (A) (A) (A) (A) (A) (A) (A) (A) (A) (A) (A) (A)
                 (A) (A) (A) (A) (A) (A) (A) (A) (A) (A) (A) (A)
                 (A) (A) (A) (A) (A) (A) (A) (A) (A) (A) (A) (A)
                 (A) (A) (A) (A) (A) (A) (A) (A) (A) (A) (A) (A)
                 (A) (A) (A) (A) (A) (A) (A) (A) (A) (A) (A) (A)
                 (A) (A) (A) (A) (A) (A) (A) (A) (A) (A) (A) (A)
                 (A) (A) (A) (A) (A) (A) (A) (A) (A) (A) (A) (A)
                 (A) (A) (A) (A) (A) (A) (A) (A) (A) (A) (A) (A)
                 (A) (A) (A) (A) (A) (A) (A) (A) (A) (A) (A) (A)
                 (A) (A) (A) (A) (A) (A) (A) (A) (A) (A) (A) (A)
                 (A) (A) (A) (A) (A) (A) (A) (A) (A) (A) (A) (A)
                 (A) (A) (A) (A) (A) (A) (A) (A) (A) (A) (A) (A)
                 (A) (A) (A) (A) (A) (A) (A) (A) (A) (A) (A) (A)
                 (A) (A) (A) (A) (A) (A) (A) (A) (A) (A) (A) (A)
                 (A) (A) (A) (A) (A) (A) (A) (A)
     4 initial guesses have been made.
 Convergence on wavefunction:    0.001000000000000
 Iteration     1 Dimension     4 NMult     0 NNew      4
 CISAX will form     4 AO SS matrices at one time.
 Iteration     2 Dimension     6 NMult     4 NNew      2
 Iteration     3 Dimension     8 NMult     6 NNew      2
 Iteration     4 Dimension    10 NMult     8 NNew      2
 Iteration     5 Dimension    12 NMult    10 NNew      2
 Iteration     6 Dimension    14 NMult    12 NNew      2
 ***********************************************************************
 Excited states from <AA,BB:AA,BB> singles matrix:
 ***********************************************************************
 
 Ground to excited state transition densities written to RWF  633
 Ground to excited state transition electric dipole moments (Au):
       state          X           Y           Z        Dip. S.      Osc.
         1        -0.0030     -0.6339      0.0059      0.4018      0.0275
 Ground to excited state transition velocity dipole moments (Au):
       state          X           Y           Z        Dip. S.      Osc.
         1         0.0003      0.0727     -0.0007      0.0053      0.0343
 Ground to excited state transition magnetic dipole moments (Au):
       state          X           Y           Z
         1        -0.0078     -0.0002     -0.0000
 Ground to excited state transition velocity quadrupole moments (Au):
       state          XX          YY          ZZ          XY          XZ          YZ
         1         0.3129      0.0310     -0.0095      0.0004      0.0000      0.0012
 <0|del|b> * <b|rxdel|0> + <0|del|b> * <b|delr+rdel|0>
 Rotatory Strengths (R) in cgs (10**-40 erg-esu-cm/Gauss)
       state          XX          YY          ZZ    R(velocity)    E-M Angle
         1        -0.0649     -0.0059     -0.0533     -0.0414       90.00
 1/2[<0|r|b>*<b|rxdel|0> + (<0|rxdel|b>*<b|r|0>)*]
 Rotatory Strengths (R) in cgs (10**-40 erg-esu-cm/Gauss)
       state          XX          YY          ZZ     R(length)
         1        -0.0163     -0.0964      0.0000     -0.0376
  1/2[<0|del|b>*<b|r|0> + (<0|r|b>*<b|del|0>)*] (Au)
       state          X           Y           Z        Dip. S.   Osc.(frdel)
         1        -0.0000     -0.0461     -0.0000      0.0461      0.0307

 Excitation energies and oscillator strengths:
 
 Excited State   1:      Singlet-A      2.7949 eV  443.61 nm  f=0.0275  <S**2>=0.000
      47 -> 48         0.70427
 This state for optimization and/or second-order correction.
 Total Energy, E(TD-HF/TD-DFT) =  -539.654393258    
 Copying the excited state density for this state as the 1-particle RhoCI density.
 SavETr:  write IOETrn=   770 NScale= 10 NData=  16 NLR=1 NState=    1 LETran=      28.

 **********************************************************************

            Population analysis using the SCF Density.

 **********************************************************************

 Orbital symmetries:
       Occupied  (A) (A) (A) (A) (A) (A) (A) (A) (A) (A) (A) (A)
                 (A) (A) (A) (A) (A) (A) (A) (A) (A) (A) (A) (A)
                 (A) (A) (A) (A) (A) (A) (A) (A) (A) (A) (A) (A)
                 (A) (A) (A) (A) (A) (A) (A) (A) (A) (A) (A)
       Virtual   (A) (A) (A) (A) (A) (A) (A) (A) (A) (A) (A) (A)
                 (A) (A) (A) (A) (A) (A) (A) (A) (A) (A) (A) (A)
                 (A) (A) (A) (A) (A) (A) (A) (A) (A) (A) (A) (A)
                 (A) (A) (A) (A) (A) (A) (A) (A) (A) (A) (A) (A)
                 (A) (A) (A) (A) (A) (A) (A) (A) (A) (A) (A) (A)
                 (A) (A) (A) (A) (A) (A) (A) (A) (A) (A) (A) (A)
                 (A) (A) (A) (A) (A) (A) (A) (A) (A) (A) (A) (A)
                 (A) (A) (A) (A) (A) (A) (A) (A) (A) (A) (A) (A)
                 (A) (A) (A) (A) (A) (A) (A) (A) (A) (A) (A) (A)
                 (A) (A) (A) (A) (A) (A) (A) (A) (A) (A) (A) (A)
                 (A) (A) (A) (A) (A) (A) (A) (A) (A) (A) (A) (A)
                 (A) (A) (A) (A) (A) (A) (A) (A) (A) (A) (A) (A)
                 (A) (A) (A) (A) (A) (A) (A) (A) (A) (A) (A) (A)
                 (A) (A) (A) (A) (A) (A) (A) (A) (A) (A) (A) (A)
                 (A) (A) (A) (A) (A) (A) (A) (A) (A) (A) (A) (A)
                 (A) (A) (A) (A) (A) (A) (A) (A) (A) (A) (A) (A)
                 (A) (A) (A) (A) (A) (A) (A) (A) (A) (A) (A) (A)
                 (A) (A) (A) (A) (A) (A) (A) (A) (A) (A) (A) (A)
                 (A) (A) (A) (A) (A) (A) (A) (A) (A) (A) (A) (A)
                 (A) (A) (A) (A) (A) (A) (A) (A) (A) (A) (A) (A)
                 (A) (A) (A) (A) (A) (A) (A) (A) (A) (A) (A) (A)
                 (A) (A) (A) (A) (A) (A) (A) (A) (A) (A) (A) (A)
                 (A) (A) (A) (A) (A) (A) (A) (A) (A) (A) (A) (A)
                 (A) (A) (A) (A) (A) (A) (A) (A) (A) (A) (A) (A)
                 (A) (A) (A) (A) (A) (A) (A) (A) (A) (A) (A) (A)
                 (A) (A) (A) (A) (A) (A) (A) (A) (A) (A) (A) (A)
                 (A) (A) (A) (A) (A) (A) (A) (A) (A) (A) (A) (A)
                 (A) (A) (A) (A) (A) (A) (A) (A)
 The electronic state is 1-A.
 Alpha  occ. eigenvalues --  -10.77656 -10.73305 -10.73278 -10.72565 -10.72563
 Alpha  occ. eigenvalues --  -10.71534 -10.71519 -10.71102 -10.71097 -10.70981
 Alpha  occ. eigenvalues --  -10.70148 -10.70138 -10.69589 -10.69576  -1.16348
 Alpha  occ. eigenvalues --   -1.12147  -1.06786  -1.05827  -1.01035  -1.00191
 Alpha  occ. eigenvalues --   -0.95667  -0.91083  -0.86407  -0.85849  -0.83801
 Alpha  occ. eigenvalues --   -0.78390  -0.75998  -0.74354  -0.69590  -0.69353
 Alpha  occ. eigenvalues --   -0.68666  -0.68263  -0.68115  -0.64508  -0.64085
 Alpha  occ. eigenvalues --   -0.63205  -0.62065  -0.59873  -0.59441  -0.59168
 Alpha  occ. eigenvalues --   -0.56942  -0.55285  -0.54924  -0.52315  -0.46441
 Alpha  occ. eigenvalues --   -0.46024  -0.44355
 Alpha virt. eigenvalues --   -0.26065  -0.14856  -0.14142  -0.12970  -0.11177
 Alpha virt. eigenvalues --   -0.10079  -0.09207  -0.08021  -0.07910  -0.07465
 Alpha virt. eigenvalues --   -0.07230  -0.07141  -0.05647  -0.05583  -0.05365
 Alpha virt. eigenvalues --   -0.03778  -0.03658  -0.03285  -0.03133  -0.02152
 Alpha virt. eigenvalues --   -0.01357  -0.00907   0.00192   0.00662   0.00728
 Alpha virt. eigenvalues --    0.01037   0.01511   0.01872   0.02197   0.02299
 Alpha virt. eigenvalues --    0.02413   0.02573   0.02755   0.03247   0.03402
 Alpha virt. eigenvalues --    0.04254   0.04498   0.04682   0.04949   0.05354
 Alpha virt. eigenvalues --    0.05994   0.06283   0.06603   0.07030   0.07201
 Alpha virt. eigenvalues --    0.07847   0.08015   0.08339   0.08476   0.08937
 Alpha virt. eigenvalues --    0.09565   0.09586   0.10022   0.10759   0.10998
 Alpha virt. eigenvalues --    0.11124   0.12246   0.12284   0.12867   0.13058
 Alpha virt. eigenvalues --    0.13403   0.13528   0.14034   0.14210   0.15929
 Alpha virt. eigenvalues --    0.16401   0.16647   0.17399   0.17411   0.17658
 Alpha virt. eigenvalues --    0.18077   0.18875   0.19153   0.19572   0.19715
 Alpha virt. eigenvalues --    0.21423   0.21459   0.22646   0.23133   0.23369
 Alpha virt. eigenvalues --    0.23577   0.24536   0.24757   0.26803   0.27439
 Alpha virt. eigenvalues --    0.28823   0.29271   0.29795   0.31163   0.35792
 Alpha virt. eigenvalues --    0.36168   0.37876   0.39113   0.41156   0.41499
 Alpha virt. eigenvalues --    0.41925   0.42400   0.43044   0.43526   0.44199
 Alpha virt. eigenvalues --    0.44688   0.44701   0.45127   0.46046   0.47893
 Alpha virt. eigenvalues --    0.48626   0.48926   0.49056   0.50470   0.51164
 Alpha virt. eigenvalues --    0.51324   0.51351   0.52133   0.52450   0.54005
 Alpha virt. eigenvalues --    0.54120   0.54461   0.55764   0.55791   0.57380
 Alpha virt. eigenvalues --    0.58166   0.58747   0.61356   0.62031   0.62293
 Alpha virt. eigenvalues --    0.62884   0.63644   0.64210   0.65129   0.66962
 Alpha virt. eigenvalues --    0.70454   0.70574   0.70933   0.72064   0.72706
 Alpha virt. eigenvalues --    0.75345   0.75640   0.76131   0.76455   0.76889
 Alpha virt. eigenvalues --    0.77378   0.77645   0.78086   0.80401   0.80600
 Alpha virt. eigenvalues --    0.81138   0.81539   0.82022   0.82794   0.84715
 Alpha virt. eigenvalues --    0.86689   0.86989   0.87950   0.89563   0.90482
 Alpha virt. eigenvalues --    0.90723   0.91462   0.93074   0.94737   0.96331
 Alpha virt. eigenvalues --    0.96736   1.00449   1.01262   1.01540   1.02650
 Alpha virt. eigenvalues --    1.02945   1.03954   1.04365   1.06080   1.08840
 Alpha virt. eigenvalues --    1.19834   1.23334   1.24091   1.25443   1.27971
 Alpha virt. eigenvalues --    1.29148   1.32143   1.33578   1.35309   1.35904
 Alpha virt. eigenvalues --    1.38976   1.40204   1.40415   1.42785   1.43048
 Alpha virt. eigenvalues --    1.43316   1.44949   1.44997   1.46551   1.46803
 Alpha virt. eigenvalues --    1.47497   1.47556   1.51552   1.53594   1.55481
 Alpha virt. eigenvalues --    1.55894   1.56237   1.56286   1.57571   1.61197
 Alpha virt. eigenvalues --    1.63499   1.64081   1.64138   1.65938   1.67919
 Alpha virt. eigenvalues --    1.68482   1.68611   1.69668   1.73884   1.75886
 Alpha virt. eigenvalues --    1.76984   1.77807   1.79432   1.79892   1.80073
 Alpha virt. eigenvalues --    1.83049   1.83134   1.83274   1.83487   1.83970
 Alpha virt. eigenvalues --    1.84339   1.85744   1.85800   1.88074   1.91522
 Alpha virt. eigenvalues --    1.91645   1.94115   1.95266   1.97368   1.97583
 Alpha virt. eigenvalues --    1.99212   2.02347   2.03971   2.07569   2.11581
 Alpha virt. eigenvalues --    2.11831   2.13484   2.15074   2.18407   2.20823
 Alpha virt. eigenvalues --    2.22061   2.28334   2.29504   2.34298   2.35460
 Alpha virt. eigenvalues --    2.35917   2.39174   2.40398   2.41414   2.42153
 Alpha virt. eigenvalues --    2.45894   2.48461   2.48949   2.52595   2.53714
 Alpha virt. eigenvalues --    2.54079   2.56859   2.57762   2.58320   2.59610
 Alpha virt. eigenvalues --    2.59677   2.61474   2.61735   2.63174   2.63755
 Alpha virt. eigenvalues --    2.64166   2.64413   2.64869   2.65264   2.67735
 Alpha virt. eigenvalues --    2.68886   2.70842   2.71312   2.73384   2.74800
 Alpha virt. eigenvalues --    2.76245   2.78207   2.79512   2.82253   2.82830
 Alpha virt. eigenvalues --    2.84199   2.86291   2.92025   2.96367   2.99330
 Alpha virt. eigenvalues --    2.99586   3.05785   3.09962   3.10478   3.11486
 Alpha virt. eigenvalues --    3.20858   3.23469   3.25825   3.27607   3.30165
 Alpha virt. eigenvalues --    3.31267   3.32699   3.43306   3.44629   3.45579
 Alpha virt. eigenvalues --    3.47279   3.49229   3.56147   3.64977   3.67172
 Alpha virt. eigenvalues --    3.68025   3.94364   3.95770   3.95792   3.97163
 Alpha virt. eigenvalues --    4.04582   4.06766   4.07230   4.12417   4.35653
 Alpha virt. eigenvalues --    4.61511   4.68725   4.70407  23.45631  23.61616
 Alpha virt. eigenvalues --   23.81407  23.86099  23.87037  23.89049  23.90419
 Alpha virt. eigenvalues --   23.92252  23.96509  23.97228  23.97380  23.98982
 Alpha virt. eigenvalues --   24.09200  24.09350
          Condensed to atoms (all electrons):
               1          2          3          4          5          6
     1  C    8.331181   0.520709  -0.580718   1.645943   0.012365  -0.085415
     2  C    0.520709   6.899226   0.363576  -0.828855  -0.040842  -0.014249
     3  C   -0.580718   0.363576   6.569621   0.597032  -0.112166   0.016285
     4  C    1.645943  -0.828855   0.597032  10.347218  -0.075899  -0.111880
     5  C    0.012365  -0.040842  -0.112166  -0.075899  10.337687   0.590334
     6  C   -0.085415  -0.014249   0.016285  -0.111880   0.590334   6.568280
     7  C   -0.031179   0.006629  -0.014307  -0.041149  -0.820606   0.362019
     8  C    0.381503  -0.030680  -0.085458   0.010242   1.650867  -0.584313
     9  C   -1.348782  -0.637093   0.278873  -0.400890  -0.402271   0.279592
    10  C   -1.106761   0.171759  -0.332590  -2.334695  -2.332623  -0.330596
    11  C    0.192767  -0.946603   1.089964  -0.653746  -1.596384  -0.138485
    12  C   -1.463817   1.046941  -1.312155  -0.792786  -0.147034  -0.211392
    13  C    0.088540  -0.190489  -0.140192  -1.600891  -0.662273   1.092444
    14  C   -1.016192  -0.208394  -0.211600  -0.150799  -0.792472  -1.306600
    15  H    0.358300  -0.101082  -0.000224   0.024645   0.005410   0.001135
    16  H   -0.022414   0.380570  -0.018439   0.013260  -0.001453  -0.000313
    17  H   -0.019233  -0.022499   0.382206  -0.060169  -0.000077   0.000373
    18  H    0.044651   0.007822  -0.093045   0.443168   0.011202  -0.004665
    19  H   -0.045219  -0.008664   0.052272  -0.077249  -0.077243   0.052316
    20  H    0.007306   0.001653  -0.004669   0.011138   0.442478  -0.093282
    21  H   -0.001262  -0.000365   0.000373  -0.000068  -0.060073   0.382162
    22  H    0.000649   0.000345  -0.000314  -0.001466   0.013367  -0.018531
    23  H    0.005652  -0.002608   0.001136   0.005431   0.024517  -0.000243
    24  H    0.016771   0.015014  -0.001752  -0.013210  -0.013596  -0.001622
    25  H    0.046993   0.013043  -0.000783  -0.012554  -0.012157  -0.000954
               7          8          9         10         11         12
     1  C   -0.031179   0.381503  -1.348782  -1.106761   0.192767  -1.463817
     2  C    0.006629  -0.030680  -0.637093   0.171759  -0.946603   1.046941
     3  C   -0.014307  -0.085458   0.278873  -0.332590   1.089964  -1.312155
     4  C   -0.041149   0.010242  -0.400890  -2.334695  -0.653746  -0.792786
     5  C   -0.820606   1.650867  -0.402271  -2.332623  -1.596384  -0.147034
     6  C    0.362019  -0.584313   0.279592  -0.330596  -0.138485  -0.211392
     7  C    6.887101   0.522913  -0.630895   0.169192  -0.186835  -0.207888
     8  C    0.522913   8.324995  -1.343311  -1.106035   0.091106  -1.008588
     9  C   -0.630895  -1.343311   8.986027   0.367102   1.609112  -1.493718
    10  C    0.169192  -1.106035   0.367102   9.003644  -0.343905   1.974696
    11  C   -0.186835   0.091106   1.609112  -0.343905  14.238069  -3.511463
    12  C   -0.207888  -1.008588  -1.493718   1.974696  -3.511463  14.840988
    13  C   -0.942964   0.180041   1.607061  -0.349688   1.364779  -4.661104
    14  C    1.037373  -1.464429  -1.493319   1.973280  -4.649809   2.534047
    15  H   -0.002574   0.005624   0.085748  -0.009509  -0.020161  -0.021403
    16  H    0.000342   0.000618   0.003638  -0.009920   0.026336  -0.030006
    17  H   -0.000363  -0.001252  -0.003661   0.018423  -0.022632   0.076624
    18  H    0.001649   0.007265  -0.026962   0.025325  -0.023442  -0.037259
    19  H   -0.008719  -0.045193   0.072370   0.423670   0.086000  -0.068206
    20  H    0.008109   0.044586  -0.026946   0.025677  -0.012021  -0.006985
    21  H   -0.022629  -0.019013  -0.003660   0.018405  -0.005611   0.004210
    22  H    0.380446  -0.022087   0.003815  -0.010035   0.002585  -0.008567
    23  H   -0.100586   0.358600   0.085664  -0.009466  -0.000162   0.006244
    24  H    0.015422   0.017879   0.371896   0.006910   0.004096  -0.041222
    25  H    0.012505   0.045509   0.344521   0.004996   0.021648  -0.076855
              13         14         15         16         17         18
     1  C    0.088540  -1.016192   0.358300  -0.022414  -0.019233   0.044651
     2  C   -0.190489  -0.208394  -0.101082   0.380570  -0.022499   0.007822
     3  C   -0.140192  -0.211600  -0.000224  -0.018439   0.382206  -0.093045
     4  C   -1.600891  -0.150799   0.024645   0.013260  -0.060169   0.443168
     5  C   -0.662273  -0.792472   0.005410  -0.001453  -0.000077   0.011202
     6  C    1.092444  -1.306600   0.001135  -0.000313   0.000373  -0.004665
     7  C   -0.942964   1.037373  -0.002574   0.000342  -0.000363   0.001649
     8  C    0.180041  -1.464429   0.005624   0.000618  -0.001252   0.007265
     9  C    1.607061  -1.493319   0.085748   0.003638  -0.003661  -0.026962
    10  C   -0.349688   1.973280  -0.009509  -0.009920   0.018423   0.025325
    11  C    1.364779  -4.649809  -0.020161   0.026336  -0.022632  -0.023442
    12  C   -4.661104   2.534047  -0.021403  -0.030006   0.076624  -0.037259
    13  C   14.279123  -3.505845  -0.000063   0.002544  -0.005634  -0.012234
    14  C   -3.505845  14.844326   0.006296  -0.008508   0.004220  -0.007252
    15  H   -0.000063   0.006296   0.440573  -0.008990   0.001571   0.000113
    16  H    0.002544  -0.008508  -0.008990   0.420228  -0.007020   0.001965
    17  H   -0.005634   0.004220   0.001571  -0.007020   0.425239  -0.010584
    18  H   -0.012234  -0.007252   0.000113   0.001965  -0.010584   0.454614
    19  H    0.086223  -0.067789   0.000347  -0.000580   0.001479  -0.006383
    20  H   -0.023570  -0.037347  -0.000132   0.000016  -0.000149   0.001308
    21  H   -0.022525   0.076301   0.000019  -0.000007   0.000011  -0.000148
    22  H    0.026616  -0.030622  -0.000127   0.000007  -0.000007   0.000016
    23  H   -0.020467  -0.021415   0.000578  -0.000127   0.000019  -0.000131
    24  H    0.004018  -0.040534  -0.001587   0.000771  -0.000200   0.000145
    25  H    0.021422  -0.077711  -0.000289   0.000459  -0.000094   0.000226
              19         20         21         22         23         24
     1  C   -0.045219   0.007306  -0.001262   0.000649   0.005652   0.016771
     2  C   -0.008664   0.001653  -0.000365   0.000345  -0.002608   0.015014
     3  C    0.052272  -0.004669   0.000373  -0.000314   0.001136  -0.001752
     4  C   -0.077249   0.011138  -0.000068  -0.001466   0.005431  -0.013210
     5  C   -0.077243   0.442478  -0.060073   0.013367   0.024517  -0.013596
     6  C    0.052316  -0.093282   0.382162  -0.018531  -0.000243  -0.001622
     7  C   -0.008719   0.008109  -0.022629   0.380446  -0.100586   0.015422
     8  C   -0.045193   0.044586  -0.019013  -0.022087   0.358600   0.017879
     9  C    0.072370  -0.026946  -0.003660   0.003815   0.085664   0.371896
    10  C    0.423670   0.025677   0.018405  -0.010035  -0.009466   0.006910
    11  C    0.086000  -0.012021  -0.005611   0.002585  -0.000162   0.004096
    12  C   -0.068206  -0.006985   0.004210  -0.008567   0.006244  -0.041222
    13  C    0.086223  -0.023570  -0.022525   0.026616  -0.020467   0.004018
    14  C   -0.067789  -0.037347   0.076301  -0.030622  -0.021415  -0.040534
    15  H    0.000347  -0.000132   0.000019  -0.000127   0.000578  -0.001587
    16  H   -0.000580   0.000016  -0.000007   0.000007  -0.000127   0.000771
    17  H    0.001479  -0.000149   0.000011  -0.000007   0.000019  -0.000200
    18  H   -0.006383   0.001308  -0.000148   0.000016  -0.000131   0.000145
    19  H    0.446858  -0.006375   0.001473  -0.000578   0.000350   0.000658
    20  H   -0.006375   0.454661  -0.010542   0.001972   0.000106   0.000137
    21  H    0.001473  -0.010542   0.425091  -0.007010   0.001572  -0.000197
    22  H   -0.000578   0.001972  -0.007010   0.420236  -0.008993   0.000755
    23  H    0.000350   0.000106   0.001572  -0.008993   0.440396  -0.001514
    24  H    0.000658   0.000137  -0.000197   0.000755  -0.001514   0.491453
    25  H    0.000545   0.000237  -0.000098   0.000475  -0.000356  -0.078399
              25
     1  C    0.046993
     2  C    0.013043
     3  C   -0.000783
     4  C   -0.012554
     5  C   -0.012157
     6  C   -0.000954
     7  C    0.012505
     8  C    0.045509
     9  C    0.344521
    10  C    0.004996
    11  C    0.021648
    12  C   -0.076855
    13  C    0.021422
    14  C   -0.077711
    15  H   -0.000289
    16  H    0.000459
    17  H   -0.000094
    18  H    0.000226
    19  H    0.000545
    20  H    0.000237
    21  H   -0.000098
    22  H    0.000475
    23  H   -0.000356
    24  H   -0.078399
    25  H    0.491639
 Mulliken charges:
               1
     1  C    0.067661
     2  C   -0.394864
     3  C   -0.442926
     4  C    0.058230
     5  C    0.058940
     6  C   -0.442400
     7  C   -0.393006
     8  C    0.068610
     9  C   -0.283912
    10  C    0.092745
    11  C   -0.615202
    12  C    0.616699
    13  C   -0.614874
    14  C    0.614792
    15  H    0.235780
    16  H    0.257020
    17  H    0.243410
    18  H    0.222637
    19  H    0.187638
    20  H    0.222634
    21  H    0.243590
    22  H    0.257053
    23  H    0.235803
    24  H    0.247909
    25  H    0.256031
 Sum of Mulliken charges =   1.00000
 Mulliken charges with hydrogens summed into heavy atoms:
               1
     1  C    0.303442
     2  C   -0.137844
     3  C   -0.199516
     4  C    0.280867
     5  C    0.281574
     6  C   -0.198810
     7  C   -0.135953
     8  C    0.304413
     9  C    0.220027
    10  C    0.280383
    11  C   -0.615202
    12  C    0.616699
    13  C   -0.614874
    14  C    0.614792
 Electronic spatial extent (au):  <R**2>=           2867.8044
 Charge=              1.0000 electrons
 Dipole moment (field-independent basis, Debye):
    X=              0.0027    Y=              0.1920    Z=              0.0018  Tot=              0.1921
 Quadrupole moment (field-independent basis, Debye-Ang):
   XX=            -30.8556   YY=            -56.2588   ZZ=            -84.2390
   XY=              0.0015   XZ=              0.0025   YZ=              0.1440
 Traceless Quadrupole moment (field-independent basis, Debye-Ang):
   XX=             26.2622   YY=              0.8590   ZZ=            -27.1212
   XY=              0.0015   XZ=              0.0025   YZ=              0.1440
 Octapole moment (field-independent basis, Debye-Ang**2):
  XXX=              0.1112  YYY=              5.1966  ZZZ=             -0.0368  XYY=             -0.0014
  XXY=             -4.2233  XXZ=              0.2755  XZZ=             -0.0128  YZZ=             -3.0877
  YYZ=              0.1773  XYZ=              0.0124
 Hexadecapole moment (field-independent basis, Debye-Ang**3):
 XXXX=          -2127.2265 YYYY=           -609.4241 ZZZZ=            -99.7256 XXXY=              0.0620
 XXXZ=              0.0711 YYYX=             -0.0253 YYYZ=              1.5807 ZZZX=              0.0035
 ZZZY=              0.0637 XXYY=           -509.8228 XXZZ=           -594.0585 YYZZ=           -145.8339
 XXYZ=              1.5778 YYXZ=             -0.0001 ZZXY=              0.0014
 N-N= 7.797804616206D+02 E-N=-2.795822057582D+03  KE= 5.374192926231D+02
 Unable to Open any file for archive entry.
 1\1\GINC-GADI-CPU-CLX-0113\SP\RM062X TD-FC\6-311++G(d,p)\C14H11(1+)\TS
 1578\28-Jul-2022\0\\#n M062X/6-311++G(d,p) TD(NStates=1) EmpiricalDisp
 ersion=GD3 SP\\SP_-50\\1,1\C,0,0.0215,2.491455,1.360431\C,0,0.02515,3.
 711908,0.671989\C,0,0.0072,3.701961,-0.71383\C,0,-0.02335,2.476706,-1.
 407538\C,0,-0.02345,-2.476906,-1.407538\C,0,0.0066,-3.702961,-0.71383\
 C,0,0.0242,-3.712258,0.671989\C,0,0.0196,-2.492055,1.360431\C,0,0.0131
 ,0.0022,1.453369\C,0,-0.0366,-0.0001,-1.429189\C,0,-0.0054,1.250605,0.
 677065\C,0,-0.0152,1.239421,-0.730804\C,0,-0.00555,-1.250555,0.677065\
 C,0,-0.0148,-1.239121,-0.730804\H,0,0.0074,2.487071,2.443647\H,0,0.025
 55,4.645003,1.211689\H,0,-0.0042,4.607962,-1.272349\H,0,-0.0111,2.4807
 5,-2.490059\H,0,-0.03375,-0.00005,-2.510266\H,0,-0.0108,-2.4809,-2.490
 059\H,0,-0.0045,-4.609212,-1.272349\H,0,0.0244,-4.645753,1.211689\H,0,
 0.0052,-2.487721,2.443647\H,0,-0.811585,0.0005,2.145237\H,0,0.907585,0
 .0005,2.146337\\Version=ES64L-G16RevC.01\State=1-A\HF=-539.7571034\RMS
 D=4.880e-09\PG=C01 [X(C14H11)]\\@
 The archive entry for this job was punched.


 MICRO CREDO - NEVER TRUST A COMPUTER BIGGER
               BIGGER THAN YOU CAN LIFT.
 Job cpu time:       0 days  1 hours 19 minutes 49.0 seconds.
 Elapsed time:       0 days  0 hours  1 minutes 39.9 seconds.
 File lengths (MBytes):  RWF=    460 Int=      0 D2E=      0 Chk=     15 Scr=      1
 Normal termination of Gaussian 16 at Thu Jul 28 14:32:16 2022.
