 Entering Gaussian System, Link 0=g16
 Initial command:
 /apps/gaussian/g16c01/g16/l1.exe "/jobfs/53002009.gadi-pbs/Gau-756953.inp" -scrdir="/jobfs/53002009.gadi-pbs/"
 Entering Link 1 = /apps/gaussian/g16c01/g16/l1.exe PID=    756954.
  
 Copyright (c) 1988-2019, Gaussian, Inc.  All Rights Reserved.
  
 This is part of the Gaussian(R) 16 program.  It is based on
 the Gaussian(R) 09 system (copyright 2009, Gaussian, Inc.),
 the Gaussian(R) 03 system (copyright 2003, Gaussian, Inc.),
 the Gaussian(R) 98 system (copyright 1998, Gaussian, Inc.),
 the Gaussian(R) 94 system (copyright 1995, Gaussian, Inc.),
 the Gaussian 92(TM) system (copyright 1992, Gaussian, Inc.),
 the Gaussian 90(TM) system (copyright 1990, Gaussian, Inc.),
 the Gaussian 88(TM) system (copyright 1988, Gaussian, Inc.),
 the Gaussian 86(TM) system (copyright 1986, Carnegie Mellon
 University), and the Gaussian 82(TM) system (copyright 1983,
 Carnegie Mellon University). Gaussian is a federally registered
 trademark of Gaussian, Inc.
  
 This software contains proprietary and confidential information,
 including trade secrets, belonging to Gaussian, Inc.
  
 This software is provided under written license and may be
 used, copied, transmitted, or stored only in accord with that
 written license.
  
 The following legend is applicable only to US Government
 contracts under FAR:
  
                    RESTRICTED RIGHTS LEGEND
  
 Use, reproduction and disclosure by the US Government is
 subject to restrictions as set forth in subparagraphs (a)
 and (c) of the Commercial Computer Software - Restricted
 Rights clause in FAR 52.227-19.
  
 Gaussian, Inc.
 340 Quinnipiac St., Bldg. 40, Wallingford CT 06492
  
  
 ---------------------------------------------------------------
 Warning -- This program may not be used in any manner that
 competes with the business of Gaussian, Inc. or will provide
 assistance to any competitor of Gaussian, Inc.  The licensee
 of this program is prohibited from giving any competitor of
 Gaussian, Inc. access to this program.  By using this program,
 the user acknowledges that Gaussian, Inc. is engaged in the
 business of creating and licensing software in the field of
 computational chemistry and represents and warrants to the
 licensee that it is not a competitor of Gaussian, Inc. and that
 it will not use this program in any manner prohibited above.
 ---------------------------------------------------------------
  

 Cite this work as:
 Gaussian 16, Revision C.01,
 M. J. Frisch, G. W. Trucks, H. B. Schlegel, G. E. Scuseria, 
 M. A. Robb, J. R. Cheeseman, G. Scalmani, V. Barone, 
 G. A. Petersson, H. Nakatsuji, X. Li, M. Caricato, A. V. Marenich, 
 J. Bloino, B. G. Janesko, R. Gomperts, B. Mennucci, H. P. Hratchian, 
 J. V. Ortiz, A. F. Izmaylov, J. L. Sonnenberg, D. Williams-Young, 
 F. Ding, F. Lipparini, F. Egidi, J. Goings, B. Peng, A. Petrone, 
 T. Henderson, D. Ranasinghe, V. G. Zakrzewski, J. Gao, N. Rega, 
 G. Zheng, W. Liang, M. Hada, M. Ehara, K. Toyota, R. Fukuda, 
 J. Hasegawa, M. Ishida, T. Nakajima, Y. Honda, O. Kitao, H. Nakai, 
 T. Vreven, K. Throssell, J. A. Montgomery, Jr., J. E. Peralta, 
 F. Ogliaro, M. J. Bearpark, J. J. Heyd, E. N. Brothers, K. N. Kudin, 
 V. N. Staroverov, T. A. Keith, R. Kobayashi, J. Normand, 
 K. Raghavachari, A. P. Rendell, J. C. Burant, S. S. Iyengar, 
 J. Tomasi, M. Cossi, J. M. Millam, M. Klene, C. Adamo, R. Cammi, 
 J. W. Ochterski, R. L. Martin, K. Morokuma, O. Farkas, 
 J. B. Foresman, and D. J. Fox, Gaussian, Inc., Wallingford CT, 2019.
 
 ******************************************
 Gaussian 16:  ES64L-G16RevC.01  3-Jul-2019
                28-Jul-2022 
 ******************************************
 %NProcShared=48
 Will use up to   48 processors via shared memory.
 %mem = 190GB
 ---------------------------------------------------------------
 #n M062X/6-311++G(d,p) TD(NStates=1) EmpiricalDispersion=GD3 SP
 ---------------------------------------------------------------
 1/38=1,172=1/1;
 2/12=2,17=6,18=5,40=1/2;
 3/5=4,6=6,7=1111,11=9,25=1,30=1,74=-55,124=31/1,2,3,8;
 4//1;
 5/5=2,38=5/2;
 8/6=1,10=2,108=1/1;
 9/41=1,42=1,70=2/14;
 6/7=2,8=2,9=2,10=2/1;
 99/5=1,9=1/99;
 ------
 SP_-25
 ------
 Symbolic Z-matrix:
 Charge =  1 Multiplicity = 1
 C                     0.02635   2.49086   1.36043 
 C                     0.02998   3.71341   0.67199 
 C                     0.0088    3.70431  -0.71383 
 C                    -0.02717   2.47883  -1.40754 
 C                    -0.02742  -2.47933  -1.40754 
 C                     0.0073   -3.70681  -0.71383 
 C                     0.0276   -3.71428   0.67199 
 C                     0.0216   -2.49236   1.36043 
 C                     0.01525   0.0055    1.45337 
 C                    -0.0427   -0.00025  -1.42919 
 C                    -0.0062    1.24873   0.67707 
 C                    -0.018     1.23995  -0.7308 
 C                    -0.00658  -1.24861   0.67707 
 C                    -0.017    -1.2392   -0.7308 
 H                     0.0101    2.48647   2.44365 
 H                     0.03058   4.64588   1.21169 
 H                    -0.0047    4.60691  -1.27235 
 H                    -0.01315   2.48285  -2.49006 
 H                    -0.03938  -0.00013  -2.51027 
 H                    -0.0124   -2.48323  -2.49006 
 H                    -0.00545  -4.61004  -1.27235 
 H                     0.0277   -4.64775   1.21169 
 H                     0.0046   -2.4881    2.44365 
 H                    -0.80359   0.00125   2.14441 
 H                     0.91559   0.00125   2.14716 
 
                          Input orientation:                          
 ---------------------------------------------------------------------
 Center     Atomic      Atomic             Coordinates (Angstroms)
 Number     Number       Type             X           Y           Z
 ---------------------------------------------------------------------
      1          6           0        0.026350    2.490855    1.360431
      2          6           0        0.029975    3.713408    0.671989
      3          6           0        0.008800    3.704311   -0.713830
      4          6           0       -0.027175    2.478831   -1.407538
      5          6           0       -0.027425   -2.479331   -1.407538
      6          6           0        0.007300   -3.706811   -0.713830
      7          6           0        0.027600   -3.714283    0.671989
      8          6           0        0.021600   -2.492355    1.360431
      9          6           0        0.015250    0.005500    1.453369
     10          6           0       -0.042700   -0.000250   -1.429189
     11          6           0       -0.006200    1.248730    0.677065
     12          6           0       -0.018000    1.239946   -0.730804
     13          6           0       -0.006575   -1.248605    0.677065
     14          6           0       -0.017000   -1.239196   -0.730804
     15          1           0        0.010100    2.486471    2.443647
     16          1           0        0.030575    4.645878    1.211689
     17          1           0       -0.004700    4.606912   -1.272349
     18          1           0       -0.013150    2.482850   -2.490059
     19          1           0       -0.039375   -0.000125   -2.510266
     20          1           0       -0.012400   -2.483225   -2.490059
     21          1           0       -0.005450   -4.610037   -1.272349
     22          1           0        0.027700   -4.647753    1.211689
     23          1           0        0.004600   -2.488096    2.443647
     24          1           0       -0.803585    0.001250    2.144412
     25          1           0        0.915585    0.001250    2.147162
 ---------------------------------------------------------------------
                    Distance matrix (angstroms):
                    1          2          3          4          5
     1  C    0.000000
     2  C    1.403069   0.000000
     3  C    2.403194   1.386011   0.000000
     4  C    2.768513   2.419066   1.408661   0.000000
     5  C    5.689226   6.532820   6.222537   4.958162   0.000000
     6  C    6.535594   7.548553   7.411122   6.224515   1.410370
     7  C    6.243212   7.427691   7.546945   6.533153   2.419208
     8  C    4.983212   6.243838   6.534630   5.690055   2.768434
     9  C    2.487117   3.789374   4.286956   3.782057   3.789590
    10  C    3.740635   4.267492   3.773349   2.479224   2.479223
    11  C    1.418070   2.464949   2.822179   2.420570   4.271353
    12  C    2.437212   2.843966   2.464569   1.411697   3.780354
    13  C    3.801531   4.962150   5.144531   4.270805   2.420886
    14  C    4.276497   5.147652   4.943603   3.779127   1.412803
    15  H    1.083347   2.155120   3.384198   3.851373   6.284284
    16  H    2.160154   1.077393   2.143513   3.399967   7.591595
    17  H    3.377898   2.140094   1.061515   2.132489   7.087569
    18  H    3.850701   3.393329   2.155792   1.082619   5.078907
    19  H    4.603433   4.891000   4.117323   2.713186   2.713414
    20  H    6.290409   6.956911   6.437472   5.078786   1.082632
    21  H    7.573322   8.547599   8.333098   7.090190   2.135104
    22  H    7.140158   8.378562   8.571170   7.592862   3.400800
    23  H    5.095467   6.449656   6.950941   6.285141   3.851328
    24  H    2.738896   4.079579   4.747860   4.399724   4.401370
    25  H    2.758227   4.091523   4.766571   4.434309   4.436039
                    6          7          8          9         10
     6  C    0.000000
     7  C    1.385988   0.000000
     8  C    2.403678   1.402532   0.000000
     9  C    4.298612   3.800986   2.499591   0.000000
    10  C    3.775292   4.267778   3.741217   2.883146   0.000000
    11  C    5.147053   4.963131   3.803088   1.465854   2.448998
    12  C    4.946851   5.149203   4.278423   2.509098   1.423530
    13  C    2.824457   2.465920   1.419400   1.475094   2.448673
    14  C    2.467793   2.845325   2.438270   2.514144   1.422459
    15  H    6.951720   6.448909   5.095311   2.671309   4.602763
    16  H    8.571790   8.377564   7.139788   4.646693   5.344727
    17  H    8.332471   8.545395   7.571777   5.348171   4.609987
    18  H    6.439512   6.957346   6.291275   4.657112   2.700390
    19  H    4.119330   4.891442   4.604044   3.964015   1.081082
    20  H    2.156975   3.393472   3.850651   4.663169   2.700283
    21  H    1.062037   2.141009   3.378881   5.360331   4.612605
    22  H    2.143225   1.078259   2.160533   4.659542   5.345884
    23  H    3.384514   2.154724   1.083358   2.683055   4.603311
    24  H    4.751505   4.082167   2.741099   1.071471   3.653707
    25  H    4.770741   4.095099   2.763371   1.136649   3.702513
                   11         12         13         14         15
    11  C    0.000000
    12  C    1.407946   0.000000
    13  C    2.497335   2.859215   0.000000
    14  C    2.858669   2.479142   1.407939   0.000000
    15  H    2.157100   3.410536   4.131813   4.894739   0.000000
    16  H    3.439155   3.921226   5.918795   6.197551   2.486198
    17  H    3.882989   3.410265   6.171491   5.871150   4.278448
    18  H    3.399084   2.154022   4.894331   4.116870   4.933762
    19  H    3.423422   2.169036   3.423282   2.168475   5.543182
    20  H    4.894712   4.117889   3.399264   2.154671   7.002845
    21  H    6.174574   5.875009   3.885800   3.414085   8.010574
    22  H    5.920767   6.200030   3.441105   3.923460   7.239833
    23  H    4.133376   4.896524   2.158072   3.411357   4.974570
    24  H    2.084499   3.227751   2.085778   3.228667   2.632100
    25  H    2.137073   3.269348   2.138621   3.269726   2.661603
                   16         17         18         19         20
    16  H    0.000000
    17  H    2.484594   0.000000
    18  H    4.287603   2.448373   0.000000
    19  H    5.953418   4.770580   2.483196   0.000000
    20  H    8.032988   7.193950   4.966075   2.483329   0.000000
    21  H    9.583512   9.216949   7.196661   4.773351   2.450754
    22  H    9.293631   9.582292   8.034308   5.954653   4.288325
    23  H    7.239612   8.009235   7.003719   5.543752   4.933738
    24  H    4.810235   5.790043   5.316150   4.716995   5.317604
    25  H    4.819847   5.809656   5.340853   4.754323   5.342059
                   21         22         23         24         25
    21  H    0.000000
    22  H    2.484545   0.000000
    23  H    4.279178   2.486438   0.000000
    24  H    5.794415   4.813963   2.634302   0.000000
    25  H    5.814235   4.824591   2.667328   1.719172   0.000000
 Stoichiometry    C14H11(1+)
 Framework group  C1[X(C14H11)]
 Deg. of freedom    69
 Full point group                 C1      NOp   1
 Largest Abelian subgroup         C1      NOp   1
 Largest concise Abelian subgroup C1      NOp   1
                         Standard orientation:                         
 ---------------------------------------------------------------------
 Center     Atomic      Atomic             Coordinates (Angstroms)
 Number     Number       Type             X           Y           Z
 ---------------------------------------------------------------------
      1          6           0       -2.491008   -1.360390    0.004003
      2          6           0       -3.713489   -0.671951    0.017879
      3          6           0       -3.704239    0.714029    0.018069
      4          6           0       -2.478675    1.408073   -0.006847
      5          6           0        2.479487    1.407529   -0.005633
      6          6           0        3.706883    0.713233    0.018757
      7          6           0        3.714202   -0.672735    0.017697
      8          6           0        2.492203   -1.360868    0.000725
      9          6           0       -0.005660   -1.453421   -0.007794
     10          6           0        0.000413    1.429687   -0.021305
     11          6           0       -1.248801   -0.676741   -0.017643
     12          6           0       -1.239864    0.731142   -0.007738
     13          6           0        1.248534   -0.677011   -0.017280
     14          6           0        1.239277    0.730852   -0.006007
     15          1           0       -2.486734   -2.443228   -0.028940
     16          1           0       -4.646016   -1.211493    0.009884
     17          1           0       -4.606777    1.272789    0.012913
     18          1           0       -2.482583    2.490250    0.023861
     19          1           0        0.000402    2.510585   -0.001317
     20          1           0        2.483491    2.489690    0.026077
     21          1           0        4.610172    1.271782    0.014884
     22          1           0        4.647615   -1.212476    0.009753
     23          1           0        2.487834   -2.443693   -0.032970
     24          1           0       -0.001240   -2.131761   -0.837182
     25          1           0       -0.001750   -2.161009    0.881741
 ---------------------------------------------------------------------
 Rotational constants (GHZ):           2.1353576           0.4417191           0.3668173
 Standard basis: 6-311++G(d,p) (5D, 7F)
 There are   399 symmetry adapted cartesian basis functions of A   symmetry.
 There are   385 symmetry adapted basis functions of A   symmetry.
   385 basis functions,   603 primitive gaussians,   399 cartesian basis functions
    47 alpha electrons       47 beta electrons
       nuclear repulsion energy       779.5396533397 Hartrees.
 NAtoms=   25 NActive=   25 NUniq=   25 SFac= 1.00D+00 NAtFMM=   60 NAOKFM=F Big=F
 Integral buffers will be    131072 words long.
 Regular integral format.
 Two-electron integral symmetry is turned on.
 Nuclear repulsion after empirical dispersion term =      779.5386732386 Hartrees.
 One-electron integrals computed using PRISM.
 NBasis=   385 RedAO= T EigKep=  1.35D-06  NBF=   385
 NBsUse=   379 1.00D-06 EigRej=  8.95D-07 NBFU=   379
 ExpMin= 3.60D-02 ExpMax= 4.56D+03 ExpMxC= 6.82D+02 IAcc=3 IRadAn=         5 AccDes= 0.00D+00
 Harris functional with IExCor= 1009 and IRadAn=       5 diagonalized for initial guess.
 HarFok:  IExCor= 1009 AccDes= 0.00D+00 IRadAn=         5 IDoV= 1 UseB2=F ITyADJ=14
 ICtDFT=  3500011 ScaDFX=  1.000000  1.000000  1.000000  1.000000
 FoFCou: FMM=F IPFlag=           0 FMFlag=      100000 FMFlg1=           0
         NFxFlg=           0 DoJE=T BraDBF=F KetDBF=T FulRan=T
         wScrn=  0.000000 ICntrl=       500 IOpCl=  0 I1Cent=   200000004 NGrid=           0
         NMat0=    1 NMatS0=      1 NMatT0=    0 NMatD0=    1 NMtDS0=    0 NMtDT0=    0
 Petite list used in FoFCou.
 Requested convergence on RMS density matrix=1.00D-08 within 128 cycles.
 Requested convergence on MAX density matrix=1.00D-06.
 Requested convergence on             energy=1.00D-06.
 No special actions if energy rises.
 SCF Done:  E(RM062X) =  -539.756026212     A.U. after   15 cycles
            NFock= 15  Conv=0.48D-08     -V/T= 2.0044
 DoSCS=F DFT=T ScalE2(SS,OS)=  1.000000  1.000000
 ExpMin= 3.60D-02 ExpMax= 4.56D+03 ExpMxC= 6.82D+02 IAcc=3 IRadAn=         5 AccDes= 0.00D+00
 HarFok:  IExCor=  205 AccDes= 0.00D+00 IRadAn=         5 IDoV=-2 UseB2=F ITyADJ=14
 ICtDFT= 12500011 ScaDFX=  1.000000  1.000000  1.000000  1.000000
 Range of M.O.s used for correlation:    15   379
 NBasis=   385 NAE=    47 NBE=    47 NFC=    14 NFV=     0
 NROrb=    365 NOA=    33 NOB=    33 NVA=   332 NVB=   332

 **** Warning!!: The largest alpha MO coefficient is  0.14983162D+03

 Orbital symmetries:
       Occupied  (A) (A) (A) (A) (A) (A) (A) (A) (A) (A) (A) (A)
                 (A) (A) (A) (A) (A) (A) (A) (A) (A) (A) (A) (A)
                 (A) (A) (A) (A) (A) (A) (A) (A) (A) (A) (A) (A)
                 (A) (A) (A) (A) (A) (A) (A) (A) (A) (A) (A)
       Virtual   (A) (A) (A) (A) (A) (A) (A) (A) (A) (A) (A) (A)
                 (A) (A) (A) (A) (A) (A) (A) (A) (A) (A) (A) (A)
                 (A) (A) (A) (A) (A) (A) (A) (A) (A) (A) (A) (A)
                 (A) (A) (A) (A) (A) (A) (A) (A) (A) (A) (A) (A)
                 (A) (A) (A) (A) (A) (A) (A) (A) (A) (A) (A) (A)
                 (A) (A) (A) (A) (A) (A) (A) (A) (A) (A) (A) (A)
                 (A) (A) (A) (A) (A) (A) (A) (A) (A) (A) (A) (A)
                 (A) (A) (A) (A) (A) (A) (A) (A) (A) (A) (A) (A)
                 (A) (A) (A) (A) (A) (A) (A) (A) (A) (A) (A) (A)
                 (A) (A) (A) (A) (A) (A) (A) (A) (A) (A) (A) (A)
                 (A) (A) (A) (A) (A) (A) (A) (A) (A) (A) (A) (A)
                 (A) (A) (A) (A) (A) (A) (A) (A) (A) (A) (A) (A)
                 (A) (A) (A) (A) (A) (A) (A) (A) (A) (A) (A) (A)
                 (A) (A) (A) (A) (A) (A) (A) (A) (A) (A) (A) (A)
                 (A) (A) (A) (A) (A) (A) (A) (A) (A) (A) (A) (A)
                 (A) (A) (A) (A) (A) (A) (A) (A) (A) (A) (A) (A)
                 (A) (A) (A) (A) (A) (A) (A) (A) (A) (A) (A) (A)
                 (A) (A) (A) (A) (A) (A) (A) (A) (A) (A) (A) (A)
                 (A) (A) (A) (A) (A) (A) (A) (A) (A) (A) (A) (A)
                 (A) (A) (A) (A) (A) (A) (A) (A) (A) (A) (A) (A)
                 (A) (A) (A) (A) (A) (A) (A) (A) (A) (A) (A) (A)
                 (A) (A) (A) (A) (A) (A) (A) (A) (A) (A) (A) (A)
                 (A) (A) (A) (A) (A) (A) (A) (A) (A) (A) (A) (A)
                 (A) (A) (A) (A) (A) (A) (A) (A) (A) (A) (A) (A)
                 (A) (A) (A) (A) (A) (A) (A) (A) (A) (A) (A) (A)
                 (A) (A) (A) (A) (A) (A) (A) (A) (A) (A) (A) (A)
                 (A) (A) (A) (A) (A) (A) (A) (A) (A) (A) (A) (A)
                 (A) (A) (A) (A) (A) (A) (A) (A)
     4 initial guesses have been made.
 Convergence on wavefunction:    0.001000000000000
 Iteration     1 Dimension     4 NMult     0 NNew      4
 CISAX will form     4 AO SS matrices at one time.
 Iteration     2 Dimension     6 NMult     4 NNew      2
 Iteration     3 Dimension     8 NMult     6 NNew      2
 Iteration     4 Dimension    10 NMult     8 NNew      2
 Iteration     5 Dimension    12 NMult    10 NNew      2
 Iteration     6 Dimension    14 NMult    12 NNew      2
 ***********************************************************************
 Excited states from <AA,BB:AA,BB> singles matrix:
 ***********************************************************************
 
 Ground to excited state transition densities written to RWF  633
 Ground to excited state transition electric dipole moments (Au):
       state          X           Y           Z        Dip. S.      Osc.
         1        -0.0075     -0.6321      0.0069      0.3996      0.0273
 Ground to excited state transition velocity dipole moments (Au):
       state          X           Y           Z        Dip. S.      Osc.
         1         0.0008      0.0724     -0.0009      0.0052      0.0341
 Ground to excited state transition magnetic dipole moments (Au):
       state          X           Y           Z
         1        -0.0089     -0.0005      0.0000
 Ground to excited state transition velocity quadrupole moments (Au):
       state          XX          YY          ZZ          XY          XZ          YZ
         1         0.3152      0.0302     -0.0094      0.0010      0.0000      0.0015
 <0|del|b> * <b|rxdel|0> + <0|del|b> * <b|delr+rdel|0>
 Rotatory Strengths (R) in cgs (10**-40 erg-esu-cm/Gauss)
       state          XX          YY          ZZ    R(velocity)    E-M Angle
         1        -0.1359     -0.0172     -0.1372     -0.0967       90.00
 1/2[<0|r|b>*<b|rxdel|0> + (<0|rxdel|b>*<b|r|0>)*]
 Rotatory Strengths (R) in cgs (10**-40 erg-esu-cm/Gauss)
       state          XX          YY          ZZ     R(length)
         1        -0.0474     -0.2163     -0.0000     -0.0879
  1/2[<0|del|b>*<b|r|0> + (<0|r|b>*<b|del|0>)*] (Au)
       state          X           Y           Z        Dip. S.   Osc.(frdel)
         1        -0.0000     -0.0457     -0.0000      0.0457      0.0305

 Excitation energies and oscillator strengths:
 
 Excited State   1:      Singlet-A      2.7894 eV  444.48 nm  f=0.0273  <S**2>=0.000
      47 -> 48         0.70427
 This state for optimization and/or second-order correction.
 Total Energy, E(TD-HF/TD-DFT) =  -539.653517435    
 Copying the excited state density for this state as the 1-particle RhoCI density.
 SavETr:  write IOETrn=   770 NScale= 10 NData=  16 NLR=1 NState=    1 LETran=      28.

 **********************************************************************

            Population analysis using the SCF Density.

 **********************************************************************

 Orbital symmetries:
       Occupied  (A) (A) (A) (A) (A) (A) (A) (A) (A) (A) (A) (A)
                 (A) (A) (A) (A) (A) (A) (A) (A) (A) (A) (A) (A)
                 (A) (A) (A) (A) (A) (A) (A) (A) (A) (A) (A) (A)
                 (A) (A) (A) (A) (A) (A) (A) (A) (A) (A) (A)
       Virtual   (A) (A) (A) (A) (A) (A) (A) (A) (A) (A) (A) (A)
                 (A) (A) (A) (A) (A) (A) (A) (A) (A) (A) (A) (A)
                 (A) (A) (A) (A) (A) (A) (A) (A) (A) (A) (A) (A)
                 (A) (A) (A) (A) (A) (A) (A) (A) (A) (A) (A) (A)
                 (A) (A) (A) (A) (A) (A) (A) (A) (A) (A) (A) (A)
                 (A) (A) (A) (A) (A) (A) (A) (A) (A) (A) (A) (A)
                 (A) (A) (A) (A) (A) (A) (A) (A) (A) (A) (A) (A)
                 (A) (A) (A) (A) (A) (A) (A) (A) (A) (A) (A) (A)
                 (A) (A) (A) (A) (A) (A) (A) (A) (A) (A) (A) (A)
                 (A) (A) (A) (A) (A) (A) (A) (A) (A) (A) (A) (A)
                 (A) (A) (A) (A) (A) (A) (A) (A) (A) (A) (A) (A)
                 (A) (A) (A) (A) (A) (A) (A) (A) (A) (A) (A) (A)
                 (A) (A) (A) (A) (A) (A) (A) (A) (A) (A) (A) (A)
                 (A) (A) (A) (A) (A) (A) (A) (A) (A) (A) (A) (A)
                 (A) (A) (A) (A) (A) (A) (A) (A) (A) (A) (A) (A)
                 (A) (A) (A) (A) (A) (A) (A) (A) (A) (A) (A) (A)
                 (A) (A) (A) (A) (A) (A) (A) (A) (A) (A) (A) (A)
                 (A) (A) (A) (A) (A) (A) (A) (A) (A) (A) (A) (A)
                 (A) (A) (A) (A) (A) (A) (A) (A) (A) (A) (A) (A)
                 (A) (A) (A) (A) (A) (A) (A) (A) (A) (A) (A) (A)
                 (A) (A) (A) (A) (A) (A) (A) (A) (A) (A) (A) (A)
                 (A) (A) (A) (A) (A) (A) (A) (A) (A) (A) (A) (A)
                 (A) (A) (A) (A) (A) (A) (A) (A) (A) (A) (A) (A)
                 (A) (A) (A) (A) (A) (A) (A) (A) (A) (A) (A) (A)
                 (A) (A) (A) (A) (A) (A) (A) (A) (A) (A) (A) (A)
                 (A) (A) (A) (A) (A) (A) (A) (A) (A) (A) (A) (A)
                 (A) (A) (A) (A) (A) (A) (A) (A) (A) (A) (A) (A)
                 (A) (A) (A) (A) (A) (A) (A) (A)
 The electronic state is 1-A.
 Alpha  occ. eigenvalues --  -10.77655 -10.73335 -10.73267 -10.72588 -10.72585
 Alpha  occ. eigenvalues --  -10.71572 -10.71535 -10.71122 -10.71110 -10.70980
 Alpha  occ. eigenvalues --  -10.70186 -10.70160 -10.69593 -10.69559  -1.16333
 Alpha  occ. eigenvalues --   -1.12093  -1.06762  -1.05842  -1.00996  -1.00183
 Alpha  occ. eigenvalues --   -0.95648  -0.91087  -0.86406  -0.85840  -0.83798
 Alpha  occ. eigenvalues --   -0.78391  -0.75991  -0.74343  -0.69602  -0.69379
 Alpha  occ. eigenvalues --   -0.68707  -0.68269  -0.68099  -0.64471  -0.64053
 Alpha  occ. eigenvalues --   -0.63220  -0.62095  -0.59848  -0.59400  -0.59179
 Alpha  occ. eigenvalues --   -0.56951  -0.55298  -0.54930  -0.52295  -0.46421
 Alpha  occ. eigenvalues --   -0.46008  -0.44329
 Alpha virt. eigenvalues --   -0.26063  -0.14892  -0.14151  -0.13005  -0.11177
 Alpha virt. eigenvalues --   -0.10078  -0.09203  -0.08030  -0.07899  -0.07463
 Alpha virt. eigenvalues --   -0.07237  -0.07139  -0.05648  -0.05583  -0.05371
 Alpha virt. eigenvalues --   -0.03770  -0.03668  -0.03287  -0.03132  -0.02148
 Alpha virt. eigenvalues --   -0.01356  -0.00905   0.00192   0.00673   0.00741
 Alpha virt. eigenvalues --    0.01033   0.01510   0.01856   0.02194   0.02302
 Alpha virt. eigenvalues --    0.02405   0.02544   0.02777   0.03230   0.03406
 Alpha virt. eigenvalues --    0.04256   0.04497   0.04678   0.04938   0.05353
 Alpha virt. eigenvalues --    0.05976   0.06281   0.06607   0.07025   0.07187
 Alpha virt. eigenvalues --    0.07837   0.07988   0.08326   0.08472   0.08939
 Alpha virt. eigenvalues --    0.09567   0.09593   0.10016   0.10723   0.10996
 Alpha virt. eigenvalues --    0.11129   0.12257   0.12293   0.12860   0.13069
 Alpha virt. eigenvalues --    0.13408   0.13522   0.14037   0.14178   0.15860
 Alpha virt. eigenvalues --    0.16425   0.16688   0.17292   0.17422   0.17650
 Alpha virt. eigenvalues --    0.18066   0.18831   0.19142   0.19560   0.19712
 Alpha virt. eigenvalues --    0.21398   0.21438   0.22595   0.23133   0.23281
 Alpha virt. eigenvalues --    0.23581   0.24529   0.24641   0.26774   0.27408
 Alpha virt. eigenvalues --    0.28817   0.29261   0.29774   0.31130   0.35781
 Alpha virt. eigenvalues --    0.36124   0.37789   0.39083   0.41153   0.41512
 Alpha virt. eigenvalues --    0.41916   0.42437   0.43051   0.43500   0.44144
 Alpha virt. eigenvalues --    0.44544   0.44679   0.44907   0.46036   0.47870
 Alpha virt. eigenvalues --    0.48643   0.48939   0.49040   0.50477   0.51125
 Alpha virt. eigenvalues --    0.51286   0.51303   0.52136   0.52371   0.54003
 Alpha virt. eigenvalues --    0.54119   0.54431   0.55766   0.55821   0.57333
 Alpha virt. eigenvalues --    0.58148   0.58729   0.61333   0.62009   0.62276
 Alpha virt. eigenvalues --    0.62817   0.63666   0.63938   0.65126   0.66896
 Alpha virt. eigenvalues --    0.70479   0.70560   0.70908   0.71952   0.72675
 Alpha virt. eigenvalues --    0.75156   0.75578   0.76099   0.76313   0.76833
 Alpha virt. eigenvalues --    0.77284   0.77599   0.78056   0.80394   0.80660
 Alpha virt. eigenvalues --    0.81091   0.81589   0.81997   0.82745   0.84571
 Alpha virt. eigenvalues --    0.86562   0.86681   0.87867   0.89522   0.90497
 Alpha virt. eigenvalues --    0.90748   0.91471   0.93083   0.94762   0.96282
 Alpha virt. eigenvalues --    0.96767   1.00426   1.01234   1.01546   1.02644
 Alpha virt. eigenvalues --    1.02930   1.04007   1.04288   1.06266   1.08893
 Alpha virt. eigenvalues --    1.19862   1.23325   1.24097   1.25517   1.27978
 Alpha virt. eigenvalues --    1.29044   1.32190   1.33456   1.35212   1.35894
 Alpha virt. eigenvalues --    1.38879   1.40204   1.40304   1.42773   1.42967
 Alpha virt. eigenvalues --    1.43271   1.44884   1.44956   1.46605   1.46828
 Alpha virt. eigenvalues --    1.47414   1.47552   1.51514   1.53599   1.55426
 Alpha virt. eigenvalues --    1.55814   1.56214   1.56355   1.57540   1.61160
 Alpha virt. eigenvalues --    1.63539   1.64177   1.64198   1.65910   1.67846
 Alpha virt. eigenvalues --    1.68462   1.68633   1.69648   1.73793   1.75849
 Alpha virt. eigenvalues --    1.76944   1.77741   1.79301   1.79827   1.79971
 Alpha virt. eigenvalues --    1.83011   1.83112   1.83184   1.83425   1.83920
 Alpha virt. eigenvalues --    1.84348   1.85713   1.85819   1.88053   1.91530
 Alpha virt. eigenvalues --    1.91565   1.94105   1.95281   1.97322   1.97491
 Alpha virt. eigenvalues --    1.99136   2.02309   2.03894   2.07570   2.11529
 Alpha virt. eigenvalues --    2.11799   2.13357   2.15046   2.18305   2.20673
 Alpha virt. eigenvalues --    2.21934   2.28291   2.29364   2.34222   2.35589
 Alpha virt. eigenvalues --    2.35848   2.39148   2.40490   2.40956   2.41956
 Alpha virt. eigenvalues --    2.45777   2.48250   2.49382   2.52651   2.53686
 Alpha virt. eigenvalues --    2.54030   2.56835   2.57763   2.58356   2.59583
 Alpha virt. eigenvalues --    2.59707   2.61327   2.61750   2.63076   2.63650
 Alpha virt. eigenvalues --    2.63971   2.64348   2.64806   2.65296   2.67687
 Alpha virt. eigenvalues --    2.68951   2.70826   2.71286   2.73403   2.74789
 Alpha virt. eigenvalues --    2.76249   2.78105   2.79486   2.82179   2.82772
 Alpha virt. eigenvalues --    2.84106   2.86310   2.92012   2.96164   2.99309
 Alpha virt. eigenvalues --    2.99515   3.05870   3.09753   3.10297   3.11212
 Alpha virt. eigenvalues --    3.20749   3.23400   3.25669   3.27488   3.30048
 Alpha virt. eigenvalues --    3.31006   3.32496   3.43290   3.44290   3.45469
 Alpha virt. eigenvalues --    3.47048   3.49077   3.56083   3.64723   3.67118
 Alpha virt. eigenvalues --    3.68346   3.94313   3.95776   3.96021   3.97411
 Alpha virt. eigenvalues --    4.04617   4.06612   4.07345   4.12391   4.35650
 Alpha virt. eigenvalues --    4.61489   4.68502   4.70167  23.45680  23.61790
 Alpha virt. eigenvalues --   23.81238  23.86066  23.86930  23.89026  23.90397
 Alpha virt. eigenvalues --   23.92343  23.96250  23.96794  23.97031  23.98784
 Alpha virt. eigenvalues --   24.08969  24.09181
          Condensed to atoms (all electrons):
               1          2          3          4          5          6
     1  C    8.297720   0.555341  -0.584546   1.579082   0.017387  -0.083272
     2  C    0.555341   6.854361   0.366021  -0.776957  -0.045478  -0.014307
     3  C   -0.584546   0.366021   6.568561   0.561183  -0.109541   0.016240
     4  C    1.579082  -0.776957   0.561183  10.219405  -0.016200  -0.109048
     5  C    0.017387  -0.045478  -0.109541  -0.016200  10.191674   0.543952
     6  C   -0.083272  -0.014307   0.016240  -0.109048   0.543952   6.565427
     7  C   -0.033099   0.007805  -0.014457  -0.046190  -0.755787   0.362321
     8  C    0.375508  -0.032232  -0.083359   0.013206   1.590294  -0.593783
     9  C   -1.385023  -0.596693   0.271715  -0.442816  -0.449754   0.273273
    10  C   -1.068980   0.151408  -0.325007  -2.275930  -2.268610  -0.320714
    11  C    0.176922  -0.948284   1.096762  -0.745324  -1.608742  -0.129791
    12  C   -1.358602   0.976779  -1.290291  -0.628038  -0.096414  -0.211922
    13  C    0.072394  -0.178630  -0.134245  -1.621949  -0.771705   1.104132
    14  C   -1.011246  -0.209873  -0.212549  -0.109509  -0.620834  -1.276615
    15  H    0.356243  -0.100237  -0.000004   0.023993   0.005263   0.001152
    16  H   -0.023578   0.381235  -0.018644   0.013007  -0.001418  -0.000311
    17  H   -0.018148  -0.023938   0.383835  -0.058342  -0.000158   0.000365
    18  H    0.043772   0.008725  -0.094728   0.440885   0.012114  -0.004561
    19  H   -0.044621  -0.008888   0.052336  -0.078181  -0.077999   0.052477
    20  H    0.007270   0.001575  -0.004567   0.011939   0.439031  -0.095269
    21  H   -0.001248  -0.000358   0.000367  -0.000134  -0.058057   0.383725
    22  H    0.000654   0.000344  -0.000313  -0.001453   0.013244  -0.018837
    23  H    0.005659  -0.002595   0.001153   0.005323   0.023642  -0.000040
    24  H    0.013568   0.014748  -0.001785  -0.013239  -0.014157  -0.001470
    25  H    0.050353   0.013153  -0.000645  -0.012701  -0.011734  -0.001062
               7          8          9         10         11         12
     1  C   -0.033099   0.375508  -1.385023  -1.068980   0.176922  -1.358602
     2  C    0.007805  -0.032232  -0.596693   0.151408  -0.948284   0.976779
     3  C   -0.014457  -0.083359   0.271715  -0.325007   1.096762  -1.290291
     4  C   -0.046190   0.013206  -0.442816  -2.275930  -0.745324  -0.628038
     5  C   -0.755787   1.590294  -0.449754  -2.268610  -1.608742  -0.096414
     6  C    0.362321  -0.593783   0.273273  -0.320714  -0.129791  -0.211922
     7  C    6.824385   0.560902  -0.580403   0.144666  -0.169912  -0.209178
     8  C    0.560902   8.280875  -1.372938  -1.066677   0.076745  -0.991881
     9  C   -0.580403  -1.372938   8.813935   0.411773   1.570578  -1.355239
    10  C    0.144666  -1.066677   0.411773   8.934200  -0.286972   1.851376
    11  C   -0.169912   0.076745   1.570578  -0.286972  14.063449  -3.405947
    12  C   -0.209178  -0.991881  -1.355239   1.851376  -3.405947  14.499936
    13  C   -0.937941   0.145431   1.567026  -0.303249   1.414957  -4.587372
    14  C    0.950283  -1.355671  -1.351446   1.844631  -4.557086   2.407450
    15  H   -0.002507   0.005588   0.083968  -0.009461  -0.017400  -0.020473
    16  H    0.000334   0.000578   0.003407  -0.009889   0.025825  -0.028521
    17  H   -0.000353  -0.001224  -0.003055   0.017625  -0.020886   0.072744
    18  H    0.001562   0.007180  -0.027402   0.027341  -0.026304  -0.034398
    19  H   -0.009026  -0.044570   0.071328   0.424157   0.086177  -0.068578
    20  H    0.009452   0.043574  -0.027358   0.028303  -0.011563  -0.005528
    21  H   -0.024245  -0.017568  -0.003066   0.017584  -0.005435   0.003888
    22  H    0.380984  -0.022857   0.003836  -0.010197   0.002460  -0.008460
    23  H   -0.098932   0.356963   0.083630  -0.009340  -0.000675   0.006073
    24  H    0.015747   0.016393   0.374310   0.007281   0.002754  -0.038913
    25  H    0.011829   0.046565   0.342542   0.004774   0.022326  -0.078046
              13         14         15         16         17         18
     1  C    0.072394  -1.011246   0.356243  -0.023578  -0.018148   0.043772
     2  C   -0.178630  -0.209873  -0.100237   0.381235  -0.023938   0.008725
     3  C   -0.134245  -0.212549  -0.000004  -0.018644   0.383835  -0.094728
     4  C   -1.621949  -0.109509   0.023993   0.013007  -0.058342   0.440885
     5  C   -0.771705  -0.620834   0.005263  -0.001418  -0.000158   0.012114
     6  C    1.104132  -1.276615   0.001152  -0.000311   0.000365  -0.004561
     7  C   -0.937941   0.950283  -0.002507   0.000334  -0.000353   0.001562
     8  C    0.145431  -1.355671   0.005588   0.000578  -0.001224   0.007180
     9  C    1.567026  -1.351446   0.083968   0.003407  -0.003055  -0.027402
    10  C   -0.303249   1.844631  -0.009461  -0.009889   0.017625   0.027341
    11  C    1.414957  -4.557086  -0.017400   0.025825  -0.020886  -0.026304
    12  C   -4.587372   2.407450  -0.020473  -0.028521   0.072744  -0.034398
    13  C   14.170813  -3.391760  -0.000420   0.002347  -0.005480  -0.012153
    14  C   -3.391760  14.502049   0.006210  -0.008300   0.003910  -0.006232
    15  H   -0.000420   0.006210   0.441207  -0.008974   0.001581   0.000103
    16  H    0.002347  -0.008300  -0.008974   0.420394  -0.007103   0.001967
    17  H   -0.005480   0.003910   0.001581  -0.007103   0.425928  -0.010698
    18  H   -0.012153  -0.006232   0.000103   0.001967  -0.010698   0.455165
    19  H    0.087019  -0.067345   0.000361  -0.000589   0.001483  -0.006343
    20  H   -0.026632  -0.034684  -0.000139   0.000017  -0.000149   0.001292
    21  H   -0.020683   0.071928   0.000021  -0.000007   0.000011  -0.000148
    22  H    0.026561  -0.030027  -0.000128   0.000007  -0.000007   0.000016
    23  H   -0.018192  -0.020372   0.000574  -0.000127   0.000021  -0.000136
    24  H    0.002718  -0.037135  -0.001745   0.000800  -0.000209   0.000140
    25  H    0.021715  -0.080291  -0.000155   0.000425  -0.000087   0.000234
              19         20         21         22         23         24
     1  C   -0.044621   0.007270  -0.001248   0.000654   0.005659   0.013568
     2  C   -0.008888   0.001575  -0.000358   0.000344  -0.002595   0.014748
     3  C    0.052336  -0.004567   0.000367  -0.000313   0.001153  -0.001785
     4  C   -0.078181   0.011939  -0.000134  -0.001453   0.005323  -0.013239
     5  C   -0.077999   0.439031  -0.058057   0.013244   0.023642  -0.014157
     6  C    0.052477  -0.095269   0.383725  -0.018837  -0.000040  -0.001470
     7  C   -0.009026   0.009452  -0.024245   0.380984  -0.098932   0.015747
     8  C   -0.044570   0.043574  -0.017568  -0.022857   0.356963   0.016393
     9  C    0.071328  -0.027358  -0.003066   0.003836   0.083630   0.374310
    10  C    0.424157   0.028303   0.017584  -0.010197  -0.009340   0.007281
    11  C    0.086177  -0.011563  -0.005435   0.002460  -0.000675   0.002754
    12  C   -0.068578  -0.005528   0.003888  -0.008460   0.006073  -0.038913
    13  C    0.087019  -0.026632  -0.020683   0.026561  -0.018192   0.002718
    14  C   -0.067345  -0.034684   0.071928  -0.030027  -0.020372  -0.037135
    15  H    0.000361  -0.000139   0.000021  -0.000128   0.000574  -0.001745
    16  H   -0.000589   0.000017  -0.000007   0.000007  -0.000127   0.000800
    17  H    0.001483  -0.000149   0.000011  -0.000007   0.000021  -0.000209
    18  H   -0.006343   0.001292  -0.000148   0.000016  -0.000136   0.000140
    19  H    0.447651  -0.006311   0.001467  -0.000583   0.000367   0.000679
    20  H   -0.006311   0.455298  -0.010590   0.001980   0.000084   0.000121
    21  H    0.001467  -0.010590   0.425542  -0.007078   0.001586  -0.000203
    22  H   -0.000583   0.001980  -0.007078   0.420426  -0.008980   0.000760
    23  H    0.000367   0.000084   0.001586  -0.008980   0.440720  -0.001547
    24  H    0.000679   0.000121  -0.000203   0.000760  -0.001547   0.490988
    25  H    0.000507   0.000263  -0.000098   0.000466  -0.000330  -0.078102
              25
     1  C    0.050353
     2  C    0.013153
     3  C   -0.000645
     4  C   -0.012701
     5  C   -0.011734
     6  C   -0.001062
     7  C    0.011829
     8  C    0.046565
     9  C    0.342542
    10  C    0.004774
    11  C    0.022326
    12  C   -0.078046
    13  C    0.021715
    14  C   -0.080291
    15  H   -0.000155
    16  H    0.000425
    17  H   -0.000087
    18  H    0.000234
    19  H    0.000507
    20  H    0.000263
    21  H   -0.000098
    22  H    0.000466
    23  H   -0.000330
    24  H   -0.078102
    25  H    0.491226
 Mulliken charges:
               1
     1  C    0.060490
     2  C   -0.393022
     3  C   -0.443490
     4  C    0.067988
     5  C    0.069987
     6  C   -0.442063
     7  C   -0.388242
     8  C    0.062959
     9  C   -0.276128
    10  C    0.089907
    11  C   -0.604633
    12  C    0.599555
    13  C   -0.604701
    14  C    0.594513
    15  H    0.235380
    16  H    0.257119
    17  H    0.242335
    18  H    0.222607
    19  H    0.187028
    20  H    0.222593
    21  H    0.242798
    22  H    0.257181
    23  H    0.235470
    24  H    0.247496
    25  H    0.256873
 Sum of Mulliken charges =   1.00000
 Mulliken charges with hydrogens summed into heavy atoms:
               1
     1  C    0.295869
     2  C   -0.135903
     3  C   -0.201156
     4  C    0.290596
     5  C    0.292580
     6  C   -0.199265
     7  C   -0.131060
     8  C    0.298430
     9  C    0.228241
    10  C    0.276935
    11  C   -0.604633
    12  C    0.599555
    13  C   -0.604701
    14  C    0.594513
 Electronic spatial extent (au):  <R**2>=           2869.8202
 Charge=              1.0000 electrons
 Dipole moment (field-independent basis, Debye):
    X=              0.0069    Y=              0.1924    Z=              0.0022  Tot=              0.1926
 Quadrupole moment (field-independent basis, Debye-Ang):
   XX=            -30.8125   YY=            -56.2576   ZZ=            -84.2551
   XY=              0.0039   XZ=              0.0062   YZ=              0.1675
 Traceless Quadrupole moment (field-independent basis, Debye-Ang):
   XX=             26.2959   YY=              0.8508   ZZ=            -27.1467
   XY=              0.0039   XZ=              0.0062   YZ=              0.1675
 Octapole moment (field-independent basis, Debye-Ang**2):
  XXX=              0.2788  YYY=              5.1903  ZZZ=             -0.0441  XYY=             -0.0038
  XXY=             -4.0691  XXZ=              0.3266  XZZ=             -0.0317  YZZ=             -3.0888
  YYZ=              0.2123  XYZ=              0.0312
 Hexadecapole moment (field-independent basis, Debye-Ang**3):
 XXXX=          -2128.0433 YYYY=           -609.4819 ZZZZ=            -99.8098 XXXY=              0.1549
 XXXZ=              0.1787 YYYX=             -0.0629 YYYZ=              1.8298 ZZZX=              0.0089
 ZZZY=              0.0774 XXYY=           -510.1895 XXZZ=           -594.6147 YYZZ=           -145.8564
 XXYZ=              1.8475 YYXZ=             -0.0004 ZZXY=              0.0034
 N-N= 7.795386732386D+02 E-N=-2.795324579589D+03  KE= 5.374053953810D+02
 Unable to Open any file for archive entry.
 1\1\GINC-GADI-CPU-CLX-0113\SP\RM062X TD-FC\6-311++G(d,p)\C14H11(1+)\TS
 1578\28-Jul-2022\0\\#n M062X/6-311++G(d,p) TD(NStates=1) EmpiricalDisp
 ersion=GD3 SP\\SP_-25\\1,1\C,0,0.02635,2.490855,1.360431\C,0,0.029975,
 3.713408,0.671989\C,0,0.0088,3.704311,-0.71383\C,0,-0.027175,2.478831,
 -1.407538\C,0,-0.027425,-2.479331,-1.407538\C,0,0.0073,-3.706811,-0.71
 383\C,0,0.0276,-3.714283,0.671989\C,0,0.0216,-2.492355,1.360431\C,0,0.
 01525,0.0055,1.453369\C,0,-0.0427,-0.00025,-1.429189\C,0,-0.0062,1.248
 73,0.677065\C,0,-0.018,1.239946,-0.730804\C,0,-0.006575,-1.248605,0.67
 7065\C,0,-0.017,-1.239196,-0.730804\H,0,0.0101,2.486471,2.443647\H,0,0
 .030575,4.645878,1.211689\H,0,-0.0047,4.606912,-1.272349\H,0,-0.01315,
 2.48285,-2.490059\H,0,-0.039375,-0.000125,-2.510266\H,0,-0.0124,-2.483
 225,-2.490059\H,0,-0.00545,-4.610037,-1.272349\H,0,0.0277,-4.647753,1.
 211689\H,0,0.0046,-2.488096,2.443647\H,0,-0.803585,0.00125,2.144412\H,
 0,0.915585,0.00125,2.147162\\Version=ES64L-G16RevC.01\State=1-A\HF=-53
 9.7560262\RMSD=4.839e-09\PG=C01 [X(C14H11)]\\@
 The archive entry for this job was punched.


 THE REASON MAN'S BEST FRIEND IS A DOG IS BECAUSE
 HE WAGS HIS TAIL INSTEAD OF HIS TONGUE.
 Job cpu time:       0 days  1 hours 20 minutes  5.5 seconds.
 Elapsed time:       0 days  0 hours  1 minutes 40.3 seconds.
 File lengths (MBytes):  RWF=    460 Int=      0 D2E=      0 Chk=     15 Scr=      1
 Normal termination of Gaussian 16 at Thu Jul 28 14:56:38 2022.
