 Entering Gaussian System, Link 0=g16
 Initial command:
 /apps/gaussian/g16c01/g16/l1.exe "/jobfs/53002009.gadi-pbs/Gau-785717.inp" -scrdir="/jobfs/53002009.gadi-pbs/"
 Entering Link 1 = /apps/gaussian/g16c01/g16/l1.exe PID=    785718.
  
 Copyright (c) 1988-2019, Gaussian, Inc.  All Rights Reserved.
  
 This is part of the Gaussian(R) 16 program.  It is based on
 the Gaussian(R) 09 system (copyright 2009, Gaussian, Inc.),
 the Gaussian(R) 03 system (copyright 2003, Gaussian, Inc.),
 the Gaussian(R) 98 system (copyright 1998, Gaussian, Inc.),
 the Gaussian(R) 94 system (copyright 1995, Gaussian, Inc.),
 the Gaussian 92(TM) system (copyright 1992, Gaussian, Inc.),
 the Gaussian 90(TM) system (copyright 1990, Gaussian, Inc.),
 the Gaussian 88(TM) system (copyright 1988, Gaussian, Inc.),
 the Gaussian 86(TM) system (copyright 1986, Carnegie Mellon
 University), and the Gaussian 82(TM) system (copyright 1983,
 Carnegie Mellon University). Gaussian is a federally registered
 trademark of Gaussian, Inc.
  
 This software contains proprietary and confidential information,
 including trade secrets, belonging to Gaussian, Inc.
  
 This software is provided under written license and may be
 used, copied, transmitted, or stored only in accord with that
 written license.
  
 The following legend is applicable only to US Government
 contracts under FAR:
  
                    RESTRICTED RIGHTS LEGEND
  
 Use, reproduction and disclosure by the US Government is
 subject to restrictions as set forth in subparagraphs (a)
 and (c) of the Commercial Computer Software - Restricted
 Rights clause in FAR 52.227-19.
  
 Gaussian, Inc.
 340 Quinnipiac St., Bldg. 40, Wallingford CT 06492
  
  
 ---------------------------------------------------------------
 Warning -- This program may not be used in any manner that
 competes with the business of Gaussian, Inc. or will provide
 assistance to any competitor of Gaussian, Inc.  The licensee
 of this program is prohibited from giving any competitor of
 Gaussian, Inc. access to this program.  By using this program,
 the user acknowledges that Gaussian, Inc. is engaged in the
 business of creating and licensing software in the field of
 computational chemistry and represents and warrants to the
 licensee that it is not a competitor of Gaussian, Inc. and that
 it will not use this program in any manner prohibited above.
 ---------------------------------------------------------------
  

 Cite this work as:
 Gaussian 16, Revision C.01,
 M. J. Frisch, G. W. Trucks, H. B. Schlegel, G. E. Scuseria, 
 M. A. Robb, J. R. Cheeseman, G. Scalmani, V. Barone, 
 G. A. Petersson, H. Nakatsuji, X. Li, M. Caricato, A. V. Marenich, 
 J. Bloino, B. G. Janesko, R. Gomperts, B. Mennucci, H. P. Hratchian, 
 J. V. Ortiz, A. F. Izmaylov, J. L. Sonnenberg, D. Williams-Young, 
 F. Ding, F. Lipparini, F. Egidi, J. Goings, B. Peng, A. Petrone, 
 T. Henderson, D. Ranasinghe, V. G. Zakrzewski, J. Gao, N. Rega, 
 G. Zheng, W. Liang, M. Hada, M. Ehara, K. Toyota, R. Fukuda, 
 J. Hasegawa, M. Ishida, T. Nakajima, Y. Honda, O. Kitao, H. Nakai, 
 T. Vreven, K. Throssell, J. A. Montgomery, Jr., J. E. Peralta, 
 F. Ogliaro, M. J. Bearpark, J. J. Heyd, E. N. Brothers, K. N. Kudin, 
 V. N. Staroverov, T. A. Keith, R. Kobayashi, J. Normand, 
 K. Raghavachari, A. P. Rendell, J. C. Burant, S. S. Iyengar, 
 J. Tomasi, M. Cossi, J. M. Millam, M. Klene, C. Adamo, R. Cammi, 
 J. W. Ochterski, R. L. Martin, K. Morokuma, O. Farkas, 
 J. B. Foresman, and D. J. Fox, Gaussian, Inc., Wallingford CT, 2019.
 
 ******************************************
 Gaussian 16:  ES64L-G16RevC.01  3-Jul-2019
                28-Jul-2022 
 ******************************************
 %NProcShared=48
 Will use up to   48 processors via shared memory.
 %mem = 190GB
 ---------------------------------------------------------------
 #n M062X/6-311++G(d,p) TD(NStates=1) EmpiricalDispersion=GD3 SP
 ---------------------------------------------------------------
 1/38=1,172=1/1;
 2/12=2,17=6,18=5,40=1/2;
 3/5=4,6=6,7=1111,11=9,25=1,30=1,74=-55,124=31/1,2,3,8;
 4//1;
 5/5=2,38=5/2;
 8/6=1,10=2,108=1/1;
 9/41=1,42=1,70=2/14;
 6/7=2,8=2,9=2,10=2/1;
 99/5=1,9=1/99;
 -----
 SP_75
 -----
 Symbolic Z-matrix:
 Charge =  1 Multiplicity = 1
 C                    -0.00885   2.49266   1.36043 
 C                    -0.01162   3.69596   0.67199 
 C                    -0.003     3.67381  -0.71383 
 C                     0.01177   2.45618  -1.40754 
 C                     0.01162  -2.45648  -1.40754 
 C                    -0.0039   -3.67531  -0.71383 
 C                    -0.01305  -3.69648   0.67199 
 C                    -0.0117   -2.49356   1.36043 
 C                    -0.0066    0.0033    1.45337 
 C                     0.0183   -0.00015  -1.42919 
 C                     0.00285   1.26783   0.67707 
 C                     0.0072    1.2368   -0.7308 
 C                     0.00263  -1.26776   0.67707 
 C                     0.0078   -1.23635  -0.7308 
 H                    -0.0015    2.48792   2.44365 
 H                    -0.01163   4.63188   1.21169 
 H                     0.0024    4.60866  -1.27235 
 H                     0.00525   2.4608   -2.49006 
 H                     0.01688  -0.00008  -2.51027 
 H                     0.0057   -2.46103  -2.49006 
 H                     0.00195  -4.61054  -1.27235 
 H                    -0.01335  -4.633     1.21169 
 H                    -0.0048   -2.4889    2.44365 
 H                    -0.88359   0.00075   2.14496 
 H                     0.83559   0.00075   2.14661 
 
                          Input orientation:                          
 ---------------------------------------------------------------------
 Center     Atomic      Atomic             Coordinates (Angstroms)
 Number     Number       Type             X           Y           Z
 ---------------------------------------------------------------------
      1          6           0       -0.008850    2.492655    1.360431
      2          6           0       -0.011625    3.695958    0.671989
      3          6           0       -0.003000    3.673811   -0.713830
      4          6           0        0.011775    2.456181   -1.407538
      5          6           0        0.011625   -2.456481   -1.407538
      6          6           0       -0.003900   -3.675311   -0.713830
      7          6           0       -0.013050   -3.696483    0.671989
      8          6           0       -0.011700   -2.493555    1.360431
      9          6           0       -0.006600    0.003300    1.453369
     10          6           0        0.018300   -0.000150   -1.429189
     11          6           0        0.002850    1.267830    0.677065
     12          6           0        0.007200    1.236796   -0.730804
     13          6           0        0.002625   -1.267755    0.677065
     14          6           0        0.007800   -1.236346   -0.730804
     15          1           0       -0.001500    2.487921    2.443647
     16          1           0       -0.011625    4.631878    1.211689
     17          1           0        0.002400    4.608662   -1.272349
     18          1           0        0.005250    2.460800   -2.490059
     19          1           0        0.016875   -0.000075   -2.510266
     20          1           0        0.005700   -2.461025   -2.490059
     21          1           0        0.001950   -4.610537   -1.272349
     22          1           0       -0.013350   -4.633003    1.211689
     23          1           0       -0.004800   -2.488896    2.443647
     24          1           0       -0.883585    0.000750    2.144962
     25          1           0        0.835585    0.000750    2.146612
 ---------------------------------------------------------------------
                    Distance matrix (angstroms):
                    1          2          3          4          5
     1  C    0.000000
     2  C    1.386325   0.000000
     3  C    2.386990   1.386023   0.000000
     4  C    2.768286   2.421162   1.401453   0.000000
     5  C    5.670628   6.494419   6.169435   4.912662   0.000000
     6  C    6.507410   7.500411   7.349122   6.170630   1.402504
     7  C    6.227311   7.392441   7.499455   6.494638   2.421290
     8  C    4.986211   6.227682   6.506845   5.671163   2.768316
     9  C    2.491090   3.774428   4.262560   3.768521   3.773015
    10  C    3.741229   4.251712   3.743018   2.456435   2.456435
    11  C    1.402613   2.428176   2.779095   2.399547   4.268037
    12  C    2.439406   2.831194   2.437095   1.394593   3.754768
    13  C    3.822016   4.963736   5.133585   4.267710   2.399733
    14  C    4.275393   5.127946   4.910198   3.754030   1.395247
    15  H    1.083251   2.144348   3.372832   3.851339   6.267289
    16  H    2.144390   1.080381   2.150719   3.405078   7.556833
    17  H    3.377742   2.147947   1.088999   2.156743   7.066442
    18  H    3.850648   3.394768   2.150919   1.082551   5.035032
    19  H    4.603983   4.877317   4.089623   2.692439   2.692576
    20  H    6.274188   6.921509   6.386805   5.034958   1.082547
    21  H    7.575420   8.531031   8.303155   7.068018   2.158316
    22  H    7.127212   8.346429   8.527068   7.557613   3.405616
    23  H    5.097963   6.433602   6.924494   6.267830   3.851356
    24  H    2.755039   4.072410   4.737035   4.410336   4.411308
    25  H    2.746041   4.067781   4.730405   4.397702   4.398736
                    6          7          8          9         10
     6  C    0.000000
     7  C    1.386011   0.000000
     8  C    2.387293   1.385998   0.000000
     9  C    4.269536   3.781401   2.498589   0.000000
    10  C    3.744201   4.251918   3.741650   2.882668   0.000000
    11  C    5.135102   4.964341   3.822985   1.483837   2.458519
    12  C    4.912149   5.128887   4.276580   2.508449   1.420528
    13  C    2.780460   2.428784   1.403488   1.489400   2.458327
    14  C    2.439052   2.832055   2.440127   2.511482   1.419871
    15  H    6.924962   6.433176   5.097898   2.674700   4.603232
    16  H    8.527431   8.345830   7.126985   4.634886   5.332055
    17  H    8.302782   8.529720   7.574511   5.351540   4.611507
    18  H    6.388030   6.921778   6.274727   4.646512   2.679905
    19  H    4.090840   4.877610   4.604406   3.963706   1.081078
    20  H    2.151644   3.394887   3.850667   4.650126   2.679834
    21  H    1.089323   2.148527   3.378362   5.358834   4.613083
    22  H    2.150555   1.080900   2.144613   4.642603   5.332782
    23  H    3.373017   2.144086   1.083248   2.681734   4.603613
    24  H    4.739194   4.073943   2.756307   1.116875   3.686184
    25  H    4.732894   4.069917   2.749096   1.090811   3.668012
                   11         12         13         14         15
    11  C    0.000000
    12  C    1.408218   0.000000
    13  C    2.535585   2.873133   0.000000
    14  C    2.872806   2.473142   1.408229   0.000000
    15  H    2.146964   3.412115   4.150413   4.893607   0.000000
    16  H    3.406296   3.911549   5.923824   6.181400   2.472726
    17  H    3.867993   3.415080   6.191324   5.870044   4.278573
    18  H    3.384355   2.143168   4.892116   4.094371   4.933785
    19  H    3.430286   2.167124   3.430203   2.166779   5.543619
    20  H    4.892345   4.094980   3.384461   2.143553   6.988102
    21  H    6.193175   5.872359   3.869678   3.417378   8.012287
    22  H    5.925025   6.182899   3.407488   3.912928   7.226716
    23  H    4.151369   4.894698   2.147569   3.412650   4.976818
    24  H    2.132130   3.254434   2.132884   3.254997   2.655806
    25  H    2.111518   3.239376   2.112462   3.239623   2.641015
                   16         17         18         19         20
    16  H    0.000000
    17  H    2.484186   0.000000
    18  H    4.291480   2.469036   0.000000
    19  H    5.942117   4.772117   2.460985   0.000000
    20  H    8.000782   7.173793   4.921825   2.461058   0.000000
    21  H    9.570416   9.219199   7.175419   4.773785   2.470472
    22  H    9.264881   9.569695   8.001583   5.942885   4.291945
    23  H    7.226561   8.011492   6.988637   5.544002   4.933796
    24  H    4.804025   5.804812   5.322151   4.741516   5.323024
    25  H    4.799916   5.797960   5.314134   4.728298   5.314862
                   21         22         23         24         25
    21  H    0.000000
    22  H    2.484187   0.000000
    23  H    4.279022   2.472850   0.000000
    24  H    5.807422   4.806243   2.657031   0.000000
    25  H    5.800708   4.802753   2.644393   1.719171   0.000000
 Stoichiometry    C14H11(1+)
 Framework group  C1[X(C14H11)]
 Deg. of freedom    69
 Full point group                 C1      NOp   1
 Largest Abelian subgroup         C1      NOp   1
 Largest concise Abelian subgroup C1      NOp   1
                         Standard orientation:                         
 ---------------------------------------------------------------------
 Center     Atomic      Atomic             Coordinates (Angstroms)
 Number     Number       Type             X           Y           Z
 ---------------------------------------------------------------------
      1          6           0        2.492740   -1.360303    0.000050
      2          6           0        3.695999   -0.671820    0.007579
      3          6           0        3.673766    0.714024    0.008086
      4          6           0        2.456095    1.407739   -0.002334
      5          6           0       -2.456567    1.407434   -0.003064
      6          6           0       -3.675356    0.713563    0.007670
      7          6           0       -3.696442   -0.672288    0.007680
      8          6           0       -2.493470   -1.360631    0.002007
      9          6           0        0.003391   -1.453379   -0.003259
     10          6           0       -0.000236    1.429280   -0.009156
     11          6           0        1.267874   -0.676951   -0.007364
     12          6           0        1.236752    0.730914   -0.002439
     13          6           0       -1.267711   -0.677110   -0.007593
     14          6           0       -1.236390    0.730765   -0.003481
     15          1           0        2.488076   -2.443448   -0.014442
     16          1           0        4.631953   -1.211450    0.004189
     17          1           0        4.608583    1.272625    0.006535
     18          1           0        2.460644    2.490194    0.011328
     19          1           0       -0.000230    2.510325   -0.000604
     20          1           0       -2.461180    2.489892    0.009997
     21          1           0       -4.610616    1.272050    0.005334
     22          1           0       -4.632928   -1.212036    0.004254
     23          1           0       -2.488742   -2.443778   -0.012033
     24          1           0        0.000728   -2.150738    0.869148
     25          1           0        0.001036   -2.141055   -0.849996
 ---------------------------------------------------------------------
 Rotational constants (GHZ):           2.1360670           0.4458696           0.3696805
 Standard basis: 6-311++G(d,p) (5D, 7F)
 There are   399 symmetry adapted cartesian basis functions of A   symmetry.
 There are   385 symmetry adapted basis functions of A   symmetry.
   385 basis functions,   603 primitive gaussians,   399 cartesian basis functions
    47 alpha electrons       47 beta electrons
       nuclear repulsion energy       781.8810704316 Hartrees.
 NAtoms=   25 NActive=   25 NUniq=   25 SFac= 1.00D+00 NAtFMM=   60 NAOKFM=F Big=F
 Integral buffers will be    131072 words long.
 Regular integral format.
 Two-electron integral symmetry is turned on.
 Nuclear repulsion after empirical dispersion term =      781.8800911587 Hartrees.
 One-electron integrals computed using PRISM.
 NBasis=   385 RedAO= T EigKep=  1.15D-06  NBF=   385
 NBsUse=   379 1.00D-06 EigRej=  8.30D-07 NBFU=   379
 ExpMin= 3.60D-02 ExpMax= 4.56D+03 ExpMxC= 6.82D+02 IAcc=3 IRadAn=         5 AccDes= 0.00D+00
 Harris functional with IExCor= 1009 and IRadAn=       5 diagonalized for initial guess.
 HarFok:  IExCor= 1009 AccDes= 0.00D+00 IRadAn=         5 IDoV= 1 UseB2=F ITyADJ=14
 ICtDFT=  3500011 ScaDFX=  1.000000  1.000000  1.000000  1.000000
 FoFCou: FMM=F IPFlag=           0 FMFlag=      100000 FMFlg1=           0
         NFxFlg=           0 DoJE=T BraDBF=F KetDBF=T FulRan=T
         wScrn=  0.000000 ICntrl=       500 IOpCl=  0 I1Cent=   200000004 NGrid=           0
         NMat0=    1 NMatS0=      1 NMatT0=    0 NMatD0=    1 NMtDS0=    0 NMtDT0=    0
 Petite list used in FoFCou.
 Requested convergence on RMS density matrix=1.00D-08 within 128 cycles.
 Requested convergence on MAX density matrix=1.00D-06.
 Requested convergence on             energy=1.00D-06.
 No special actions if energy rises.
 SCF Done:  E(RM062X) =  -539.759928420     A.U. after   15 cycles
            NFock= 15  Conv=0.46D-08     -V/T= 2.0041
 DoSCS=F DFT=T ScalE2(SS,OS)=  1.000000  1.000000
 ExpMin= 3.60D-02 ExpMax= 4.56D+03 ExpMxC= 6.82D+02 IAcc=3 IRadAn=         5 AccDes= 0.00D+00
 HarFok:  IExCor=  205 AccDes= 0.00D+00 IRadAn=         5 IDoV=-2 UseB2=F ITyADJ=14
 ICtDFT= 12500011 ScaDFX=  1.000000  1.000000  1.000000  1.000000
 Range of M.O.s used for correlation:    15   379
 NBasis=   385 NAE=    47 NBE=    47 NFC=    14 NFV=     0
 NROrb=    365 NOA=    33 NOB=    33 NVA=   332 NVB=   332

 **** Warning!!: The largest alpha MO coefficient is  0.15193193D+03

 Orbital symmetries:
       Occupied  (A) (A) (A) (A) (A) (A) (A) (A) (A) (A) (A) (A)
                 (A) (A) (A) (A) (A) (A) (A) (A) (A) (A) (A) (A)
                 (A) (A) (A) (A) (A) (A) (A) (A) (A) (A) (A) (A)
                 (A) (A) (A) (A) (A) (A) (A) (A) (A) (A) (A)
       Virtual   (A) (A) (A) (A) (A) (A) (A) (A) (A) (A) (A) (A)
                 (A) (A) (A) (A) (A) (A) (A) (A) (A) (A) (A) (A)
                 (A) (A) (A) (A) (A) (A) (A) (A) (A) (A) (A) (A)
                 (A) (A) (A) (A) (A) (A) (A) (A) (A) (A) (A) (A)
                 (A) (A) (A) (A) (A) (A) (A) (A) (A) (A) (A) (A)
                 (A) (A) (A) (A) (A) (A) (A) (A) (A) (A) (A) (A)
                 (A) (A) (A) (A) (A) (A) (A) (A) (A) (A) (A) (A)
                 (A) (A) (A) (A) (A) (A) (A) (A) (A) (A) (A) (A)
                 (A) (A) (A) (A) (A) (A) (A) (A) (A) (A) (A) (A)
                 (A) (A) (A) (A) (A) (A) (A) (A) (A) (A) (A) (A)
                 (A) (A) (A) (A) (A) (A) (A) (A) (A) (A) (A) (A)
                 (A) (A) (A) (A) (A) (A) (A) (A) (A) (A) (A) (A)
                 (A) (A) (A) (A) (A) (A) (A) (A) (A) (A) (A) (A)
                 (A) (A) (A) (A) (A) (A) (A) (A) (A) (A) (A) (A)
                 (A) (A) (A) (A) (A) (A) (A) (A) (A) (A) (A) (A)
                 (A) (A) (A) (A) (A) (A) (A) (A) (A) (A) (A) (A)
                 (A) (A) (A) (A) (A) (A) (A) (A) (A) (A) (A) (A)
                 (A) (A) (A) (A) (A) (A) (A) (A) (A) (A) (A) (A)
                 (A) (A) (A) (A) (A) (A) (A) (A) (A) (A) (A) (A)
                 (A) (A) (A) (A) (A) (A) (A) (A) (A) (A) (A) (A)
                 (A) (A) (A) (A) (A) (A) (A) (A) (A) (A) (A) (A)
                 (A) (A) (A) (A) (A) (A) (A) (A) (A) (A) (A) (A)
                 (A) (A) (A) (A) (A) (A) (A) (A) (A) (A) (A) (A)
                 (A) (A) (A) (A) (A) (A) (A) (A) (A) (A) (A) (A)
                 (A) (A) (A) (A) (A) (A) (A) (A) (A) (A) (A) (A)
                 (A) (A) (A) (A) (A) (A) (A) (A) (A) (A) (A) (A)
                 (A) (A) (A) (A) (A) (A) (A) (A) (A) (A) (A) (A)
                 (A) (A) (A) (A) (A) (A) (A) (A)
     4 initial guesses have been made.
 Convergence on wavefunction:    0.001000000000000
 Iteration     1 Dimension     4 NMult     0 NNew      4
 CISAX will form     4 AO SS matrices at one time.
 Iteration     2 Dimension     6 NMult     4 NNew      2
 Iteration     3 Dimension     8 NMult     6 NNew      2
 Iteration     4 Dimension    10 NMult     8 NNew      2
 Iteration     5 Dimension    12 NMult    10 NNew      2
 Iteration     6 Dimension    14 NMult    12 NNew      2
 ***********************************************************************
 Excited states from <AA,BB:AA,BB> singles matrix:
 ***********************************************************************
 
 Ground to excited state transition densities written to RWF  633
 Ground to excited state transition electric dipole moments (Au):
       state          X           Y           Z        Dip. S.      Osc.
         1         0.0042     -0.6492      0.0030      0.4214      0.0293
 Ground to excited state transition velocity dipole moments (Au):
       state          X           Y           Z        Dip. S.      Osc.
         1        -0.0004      0.0752     -0.0004      0.0057      0.0362
 Ground to excited state transition magnetic dipole moments (Au):
       state          X           Y           Z
         1        -0.0041     -0.0003     -0.0002
 Ground to excited state transition velocity quadrupole moments (Au):
       state          XX          YY          ZZ          XY          XZ          YZ
         1         0.2886      0.0369     -0.0100     -0.0007      0.0001      0.0005
 <0|del|b> * <b|rxdel|0> + <0|del|b> * <b|delr+rdel|0>
 Rotatory Strengths (R) in cgs (10**-40 erg-esu-cm/Gauss)
       state          XX          YY          ZZ    R(velocity)    E-M Angle
         1        -0.0987      0.0049     -0.0661     -0.0533       90.00
 1/2[<0|r|b>*<b|rxdel|0> + (<0|rxdel|b>*<b|r|0>)*]
 Rotatory Strengths (R) in cgs (10**-40 erg-esu-cm/Gauss)
       state          XX          YY          ZZ     R(length)
         1         0.0123     -0.1554      0.0005     -0.0476
  1/2[<0|del|b>*<b|r|0> + (<0|r|b>*<b|del|0>)*] (Au)
       state          X           Y           Z        Dip. S.   Osc.(frdel)
         1        -0.0000     -0.0488     -0.0000      0.0488      0.0326

 Excitation energies and oscillator strengths:
 
 Excited State   1:      Singlet-A      2.8336 eV  437.55 nm  f=0.0293  <S**2>=0.000
      47 -> 48         0.70425
 This state for optimization and/or second-order correction.
 Total Energy, E(TD-HF/TD-DFT) =  -539.655794341    
 Copying the excited state density for this state as the 1-particle RhoCI density.
 SavETr:  write IOETrn=   770 NScale= 10 NData=  16 NLR=1 NState=    1 LETran=      28.

 **********************************************************************

            Population analysis using the SCF Density.

 **********************************************************************

 Orbital symmetries:
       Occupied  (A) (A) (A) (A) (A) (A) (A) (A) (A) (A) (A) (A)
                 (A) (A) (A) (A) (A) (A) (A) (A) (A) (A) (A) (A)
                 (A) (A) (A) (A) (A) (A) (A) (A) (A) (A) (A) (A)
                 (A) (A) (A) (A) (A) (A) (A) (A) (A) (A) (A)
       Virtual   (A) (A) (A) (A) (A) (A) (A) (A) (A) (A) (A) (A)
                 (A) (A) (A) (A) (A) (A) (A) (A) (A) (A) (A) (A)
                 (A) (A) (A) (A) (A) (A) (A) (A) (A) (A) (A) (A)
                 (A) (A) (A) (A) (A) (A) (A) (A) (A) (A) (A) (A)
                 (A) (A) (A) (A) (A) (A) (A) (A) (A) (A) (A) (A)
                 (A) (A) (A) (A) (A) (A) (A) (A) (A) (A) (A) (A)
                 (A) (A) (A) (A) (A) (A) (A) (A) (A) (A) (A) (A)
                 (A) (A) (A) (A) (A) (A) (A) (A) (A) (A) (A) (A)
                 (A) (A) (A) (A) (A) (A) (A) (A) (A) (A) (A) (A)
                 (A) (A) (A) (A) (A) (A) (A) (A) (A) (A) (A) (A)
                 (A) (A) (A) (A) (A) (A) (A) (A) (A) (A) (A) (A)
                 (A) (A) (A) (A) (A) (A) (A) (A) (A) (A) (A) (A)
                 (A) (A) (A) (A) (A) (A) (A) (A) (A) (A) (A) (A)
                 (A) (A) (A) (A) (A) (A) (A) (A) (A) (A) (A) (A)
                 (A) (A) (A) (A) (A) (A) (A) (A) (A) (A) (A) (A)
                 (A) (A) (A) (A) (A) (A) (A) (A) (A) (A) (A) (A)
                 (A) (A) (A) (A) (A) (A) (A) (A) (A) (A) (A) (A)
                 (A) (A) (A) (A) (A) (A) (A) (A) (A) (A) (A) (A)
                 (A) (A) (A) (A) (A) (A) (A) (A) (A) (A) (A) (A)
                 (A) (A) (A) (A) (A) (A) (A) (A) (A) (A) (A) (A)
                 (A) (A) (A) (A) (A) (A) (A) (A) (A) (A) (A) (A)
                 (A) (A) (A) (A) (A) (A) (A) (A) (A) (A) (A) (A)
                 (A) (A) (A) (A) (A) (A) (A) (A) (A) (A) (A) (A)
                 (A) (A) (A) (A) (A) (A) (A) (A) (A) (A) (A) (A)
                 (A) (A) (A) (A) (A) (A) (A) (A) (A) (A) (A) (A)
                 (A) (A) (A) (A) (A) (A) (A) (A) (A) (A) (A) (A)
                 (A) (A) (A) (A) (A) (A) (A) (A) (A) (A) (A) (A)
                 (A) (A) (A) (A) (A) (A) (A) (A)
 The electronic state is 1-A.
 Alpha  occ. eigenvalues --  -10.77672 -10.73239 -10.73197 -10.72376 -10.72373
 Alpha  occ. eigenvalues --  -10.71302 -10.71280 -10.70977 -10.70962 -10.70955
 Alpha  occ. eigenvalues --  -10.69898 -10.69882 -10.69667 -10.69647  -1.16494
 Alpha  occ. eigenvalues --   -1.12623  -1.07030  -1.05679  -1.01472  -1.00158
 Alpha  occ. eigenvalues --   -0.95841  -0.91040  -0.86428  -0.85930  -0.83822
 Alpha  occ. eigenvalues --   -0.78414  -0.76036  -0.74449  -0.69558  -0.69226
 Alpha  occ. eigenvalues --   -0.68494  -0.68138  -0.68014  -0.64857  -0.64386
 Alpha  occ. eigenvalues --   -0.62965  -0.61762  -0.60052  -0.59794  -0.59049
 Alpha  occ. eigenvalues --   -0.56881  -0.55176  -0.54780  -0.52500  -0.46741
 Alpha  occ. eigenvalues --   -0.46044  -0.44567
 Alpha virt. eigenvalues --   -0.26105  -0.14593  -0.14079  -0.12683  -0.11181
 Alpha virt. eigenvalues --   -0.10091  -0.09242  -0.08015  -0.07956  -0.07481
 Alpha virt. eigenvalues --   -0.07208  -0.07130  -0.05641  -0.05581  -0.05318
 Alpha virt. eigenvalues --   -0.03848  -0.03676  -0.03278  -0.03131  -0.02166
 Alpha virt. eigenvalues --   -0.01377  -0.00949   0.00194   0.00557   0.00668
 Alpha virt. eigenvalues --    0.01063   0.01513   0.01956   0.02224   0.02282
 Alpha virt. eigenvalues --    0.02458   0.02663   0.02825   0.03247   0.03347
 Alpha virt. eigenvalues --    0.04234   0.04508   0.04701   0.05076   0.05375
 Alpha virt. eigenvalues --    0.06004   0.06304   0.06606   0.07042   0.07266
 Alpha virt. eigenvalues --    0.07906   0.08231   0.08352   0.08574   0.08925
 Alpha virt. eigenvalues --    0.09539   0.09555   0.10038   0.10876   0.11047
 Alpha virt. eigenvalues --    0.11129   0.12178   0.12223   0.12938   0.12946
 Alpha virt. eigenvalues --    0.13417   0.13496   0.14014   0.14458   0.16127
 Alpha virt. eigenvalues --    0.16233   0.16481   0.17324   0.17607   0.17757
 Alpha virt. eigenvalues --    0.18130   0.19130   0.19281   0.19668   0.19764
 Alpha virt. eigenvalues --    0.21611   0.21626   0.22689   0.23083   0.23559
 Alpha virt. eigenvalues --    0.23813   0.24587   0.25199   0.26899   0.27673
 Alpha virt. eigenvalues --    0.28846   0.29285   0.29850   0.31393   0.35814
 Alpha virt. eigenvalues --    0.36541   0.38190   0.39341   0.41137   0.41359
 Alpha virt. eigenvalues --    0.41976   0.42123   0.42962   0.43774   0.44256
 Alpha virt. eigenvalues --    0.45018   0.45127   0.46048   0.46159   0.47924
 Alpha virt. eigenvalues --    0.48496   0.48860   0.49002   0.50397   0.51265
 Alpha virt. eigenvalues --    0.51643   0.51739   0.52136   0.53083   0.53936
 Alpha virt. eigenvalues --    0.54051   0.54736   0.55712   0.55769   0.57414
 Alpha virt. eigenvalues --    0.58259   0.58817   0.61461   0.62212   0.62324
 Alpha virt. eigenvalues --    0.63218   0.63509   0.64841   0.65176   0.67083
 Alpha virt. eigenvalues --    0.70473   0.70529   0.71035   0.72450   0.72860
 Alpha virt. eigenvalues --    0.75764   0.75936   0.76319   0.76800   0.77041
 Alpha virt. eigenvalues --    0.77809   0.77846   0.78250   0.80140   0.80361
 Alpha virt. eigenvalues --    0.81326   0.81609   0.82164   0.83053   0.85117
 Alpha virt. eigenvalues --    0.87147   0.88110   0.88177   0.89538   0.90428
 Alpha virt. eigenvalues --    0.90957   0.91427   0.93366   0.94715   0.96385
 Alpha virt. eigenvalues --    0.96679   1.00289   1.01312   1.01784   1.02885
 Alpha virt. eigenvalues --    1.03195   1.03976   1.04717   1.05425   1.08911
 Alpha virt. eigenvalues --    1.19382   1.23234   1.24066   1.25342   1.28067
 Alpha virt. eigenvalues --    1.29946   1.31516   1.34451   1.35867   1.36126
 Alpha virt. eigenvalues --    1.39443   1.40122   1.41018   1.43235   1.43567
 Alpha virt. eigenvalues --    1.43629   1.45261   1.45431   1.46386   1.46646
 Alpha virt. eigenvalues --    1.47734   1.48278   1.51765   1.53684   1.55765
 Alpha virt. eigenvalues --    1.56013   1.56483   1.56668   1.57891   1.61586
 Alpha virt. eigenvalues --    1.63102   1.63331   1.63533   1.66186   1.68228
 Alpha virt. eigenvalues --    1.68488   1.68719   1.69734   1.74603   1.76002
 Alpha virt. eigenvalues --    1.77212   1.78088   1.79985   1.80422   1.81021
 Alpha virt. eigenvalues --    1.83121   1.83314   1.83518   1.83997   1.84102
 Alpha virt. eigenvalues --    1.84404   1.86011   1.86165   1.88308   1.91312
 Alpha virt. eigenvalues --    1.92167   1.94103   1.95173   1.97880   1.98447
 Alpha virt. eigenvalues --    2.00022   2.02370   2.04608   2.06995   2.11922
 Alpha virt. eigenvalues --    2.12108   2.14088   2.15281   2.19524   2.21237
 Alpha virt. eigenvalues --    2.23082   2.28798   2.30371   2.34497   2.35147
 Alpha virt. eigenvalues --    2.36279   2.38301   2.39039   2.42399   2.43524
 Alpha virt. eigenvalues --    2.46750   2.47393   2.49580   2.53055   2.53798
 Alpha virt. eigenvalues --    2.54194   2.56662   2.57930   2.58414   2.59713
 Alpha virt. eigenvalues --    2.59940   2.61533   2.62224   2.63573   2.63940
 Alpha virt. eigenvalues --    2.64791   2.65069   2.65355   2.65397   2.67973
 Alpha virt. eigenvalues --    2.68362   2.71065   2.71397   2.73413   2.74838
 Alpha virt. eigenvalues --    2.76389   2.79024   2.79860   2.83151   2.83223
 Alpha virt. eigenvalues --    2.85237   2.86374   2.92167   2.96880   2.99701
 Alpha virt. eigenvalues --    3.00302   3.04711   3.11565   3.11866   3.13622
 Alpha virt. eigenvalues --    3.20890   3.23574   3.27132   3.28444   3.31055
 Alpha virt. eigenvalues --    3.33411   3.33656   3.43473   3.46065   3.47373
 Alpha virt. eigenvalues --    3.49041   3.50623   3.56606   3.65413   3.67138
 Alpha virt. eigenvalues --    3.67549   3.93356   3.94310   3.94666   3.96173
 Alpha virt. eigenvalues --    4.03580   4.06908   4.07661   4.12548   4.35374
 Alpha virt. eigenvalues --    4.61128   4.70229   4.72090  23.45194  23.59978
 Alpha virt. eigenvalues --   23.82550  23.85258  23.88092  23.89635  23.90587
 Alpha virt. eigenvalues --   23.92388  23.98256  24.00526  24.00936  24.01113
 Alpha virt. eigenvalues --   24.11243  24.11372
          Condensed to atoms (all electrons):
               1          2          3          4          5          6
     1  C    8.526550   0.422056  -0.567188   1.818220  -0.006719  -0.095696
     2  C    0.422056   7.094629   0.368576  -0.988223  -0.033887  -0.015916
     3  C   -0.567188   0.368576   6.618195   0.752954  -0.121329   0.017499
     4  C    1.818220  -0.988223   0.752954  10.682572  -0.299372  -0.119686
     5  C   -0.006719  -0.033887  -0.121329  -0.299372  10.723626   0.746038
     6  C   -0.095696  -0.015916   0.017499  -0.119686   0.746038   6.614866
     7  C   -0.023890   0.005027  -0.015963  -0.034668  -0.988129   0.367182
     8  C    0.411511  -0.022404  -0.095725  -0.012328   1.837364  -0.572650
     9  C   -1.316851  -0.722614   0.284101  -0.327054  -0.306120   0.284937
    10  C   -1.217656   0.214304  -0.372049  -2.504466  -2.508632  -0.363857
    11  C    0.301722  -0.970276   1.019708  -0.194618  -1.536219  -0.189536
    12  C   -1.866244   1.199963  -1.373947  -1.319569  -0.318094  -0.197276
    13  C    0.190975  -0.205452  -0.190204  -1.526480  -0.193066   1.014599
    14  C   -1.075638  -0.213411  -0.196460  -0.304108  -1.371216  -1.361421
    15  H    0.363852  -0.102808  -0.002182   0.024977   0.005957   0.001157
    16  H   -0.019798   0.378773  -0.015166   0.013854  -0.001628  -0.000345
    17  H   -0.022201  -0.017940   0.372529  -0.064594   0.000372   0.000404
    18  H    0.048416   0.003387  -0.085381   0.451601   0.007687  -0.005001
    19  H   -0.046274  -0.007707   0.050816  -0.064588  -0.066220   0.050630
    20  H    0.007660   0.001896  -0.005039   0.007615   0.452279  -0.085844
    21  H   -0.001336  -0.000399   0.000406   0.000371  -0.064885   0.372477
    22  H    0.000783   0.000377  -0.000346  -0.001623   0.014051  -0.015478
    23  H    0.005859  -0.002707   0.001167   0.005886   0.025166  -0.002295
    24  H    0.040193   0.013380  -0.001358  -0.011518  -0.012253  -0.001132
    25  H    0.027530   0.015559  -0.001910  -0.011965  -0.011544  -0.002197
               7          8          9         10         11         12
     1  C   -0.023890   0.411511  -1.316851  -1.217656   0.301722  -1.866244
     2  C    0.005027  -0.022404  -0.722614   0.214304  -0.970276   1.199963
     3  C   -0.015963  -0.095725   0.284101  -0.372049   1.019708  -1.373947
     4  C   -0.034668  -0.012328  -0.327054  -2.504466  -0.194618  -1.319569
     5  C   -0.988129   1.837364  -0.306120  -2.508632  -1.536219  -0.318094
     6  C    0.367182  -0.572650   0.284937  -0.363857  -0.189536  -0.197276
     7  C    7.085967   0.418239  -0.723930   0.212446  -0.199990  -0.211042
     8  C    0.418239   8.527164  -1.298681  -1.219192   0.197214  -1.066331
     9  C   -0.723930  -1.298681   9.421363   0.338162   1.615434  -1.704211
    10  C    0.212446  -1.219192   0.338162   9.209497  -0.529045   2.338269
    11  C   -0.199990   0.197214   1.615434  -0.529045  14.346013  -3.808691
    12  C   -0.211042  -1.066331  -1.704211   2.338269  -3.808691  15.672974
    13  C   -0.965248   0.286367   1.602618  -0.518764   1.203467  -4.705298
    14  C    1.204981  -1.891679  -1.717816   2.355308  -4.692448   2.917544
    15  H   -0.002685   0.005862   0.087585  -0.009098  -0.025296  -0.021546
    16  H    0.000374   0.000739   0.004048  -0.010180   0.029712  -0.036528
    17  H   -0.000400  -0.001329  -0.005046   0.019960  -0.026851   0.087725
    18  H    0.001903   0.007584  -0.026646   0.016630  -0.007809  -0.051315
    19  H   -0.007686  -0.046312   0.075550   0.421941   0.071659  -0.062956
    20  H    0.003590   0.048721  -0.026492   0.016467  -0.010960  -0.012958
    21  H   -0.018175  -0.022195  -0.005033   0.019967  -0.006204   0.005078
    22  H    0.378428  -0.019010   0.004297  -0.010229   0.003242  -0.009386
    23  H   -0.102807   0.364526   0.088177  -0.009157   0.000388   0.006829
    24  H    0.014017   0.041664   0.348625   0.004891   0.018755  -0.070045
    25  H    0.014856   0.025448   0.361423   0.004972   0.007122  -0.048916
              13         14         15         16         17         18
     1  C    0.190975  -1.075638   0.363852  -0.019798  -0.022201   0.048416
     2  C   -0.205452  -0.213411  -0.102808   0.378773  -0.017940   0.003387
     3  C   -0.190204  -0.196460  -0.002182  -0.015166   0.372529  -0.085381
     4  C   -1.526480  -0.304108   0.024977   0.013854  -0.064594   0.451601
     5  C   -0.193066  -1.371216   0.005957  -0.001628   0.000372   0.007687
     6  C    1.014599  -1.361421   0.001157  -0.000345   0.000404  -0.005001
     7  C   -0.965248   1.204981  -0.002685   0.000374  -0.000400   0.001903
     8  C    0.286367  -1.891679   0.005862   0.000739  -0.001329   0.007584
     9  C    1.602618  -1.717816   0.087585   0.004048  -0.005046  -0.026646
    10  C   -0.518764   2.355308  -0.009098  -0.010180   0.019960   0.016630
    11  C    1.203467  -4.692448  -0.025296   0.029712  -0.026851  -0.007809
    12  C   -4.705298   2.917544  -0.021546  -0.036528   0.087725  -0.051315
    13  C   14.366359  -3.801339   0.000363   0.003260  -0.006313  -0.010766
    14  C   -3.801339  15.708958   0.006826  -0.009362   0.005081  -0.012933
    15  H    0.000363   0.006826   0.438533  -0.008998   0.001431   0.000203
    16  H    0.003260  -0.009362  -0.008998   0.419377  -0.006600   0.001913
    17  H   -0.006313   0.005081   0.001431  -0.006600   0.421644  -0.010118
    18  H   -0.010766  -0.012933   0.000203   0.001913  -0.010118   0.453880
    19  H    0.070250  -0.063136   0.000319  -0.000527   0.001365  -0.005882
    20  H   -0.007785  -0.051840  -0.000113   0.000015  -0.000143   0.001282
    21  H   -0.026395   0.087607   0.000014  -0.000007   0.000010  -0.000142
    22  H    0.029943  -0.037424  -0.000126   0.000007  -0.000007   0.000015
    23  H   -0.025578  -0.022360   0.000607  -0.000126   0.000014  -0.000114
    24  H    0.017641  -0.069218  -0.000607   0.000565  -0.000116   0.000203
    25  H    0.007949  -0.049476  -0.001175   0.000713  -0.000168   0.000169
              19         20         21         22         23         24
     1  C   -0.046274   0.007660  -0.001336   0.000783   0.005859   0.040193
     2  C   -0.007707   0.001896  -0.000399   0.000377  -0.002707   0.013380
     3  C    0.050816  -0.005039   0.000406  -0.000346   0.001167  -0.001358
     4  C   -0.064588   0.007615   0.000371  -0.001623   0.005886  -0.011518
     5  C   -0.066220   0.452279  -0.064885   0.014051   0.025166  -0.012253
     6  C    0.050630  -0.085844   0.372477  -0.015478  -0.002295  -0.001132
     7  C   -0.007686   0.003590  -0.018175   0.378428  -0.102807   0.014017
     8  C   -0.046312   0.048721  -0.022195  -0.019010   0.364526   0.041664
     9  C    0.075550  -0.026492  -0.005033   0.004297   0.088177   0.348625
    10  C    0.421941   0.016467   0.019967  -0.010229  -0.009157   0.004891
    11  C    0.071659  -0.010960  -0.006204   0.003242   0.000388   0.018755
    12  C   -0.062956  -0.012958   0.005078  -0.009386   0.006829  -0.070045
    13  C    0.070250  -0.007785  -0.026395   0.029943  -0.025578   0.017641
    14  C   -0.063136  -0.051840   0.087607  -0.037424  -0.022360  -0.069218
    15  H    0.000319  -0.000113   0.000014  -0.000126   0.000607  -0.000607
    16  H   -0.000527   0.000015  -0.000007   0.000007  -0.000126   0.000565
    17  H    0.001365  -0.000143   0.000010  -0.000007   0.000014  -0.000116
    18  H   -0.005882   0.001282  -0.000142   0.000015  -0.000114   0.000203
    19  H    0.441573  -0.005956   0.001369  -0.000529   0.000325   0.000576
    20  H   -0.005956   0.453904  -0.010091   0.001931   0.000202   0.000187
    21  H    0.001369  -0.010091   0.421527  -0.006582   0.001419  -0.000108
    22  H   -0.000529   0.001931  -0.006582   0.419335  -0.009020   0.000538
    23  H    0.000325   0.000202   0.001419  -0.009020   0.438600  -0.000569
    24  H    0.000576   0.000187  -0.000108   0.000538  -0.000569   0.494654
    25  H    0.000545   0.000184  -0.000174   0.000735  -0.001241  -0.079787
              25
     1  C    0.027530
     2  C    0.015559
     3  C   -0.001910
     4  C   -0.011965
     5  C   -0.011544
     6  C   -0.002197
     7  C    0.014856
     8  C    0.025448
     9  C    0.361423
    10  C    0.004972
    11  C    0.007122
    12  C   -0.048916
    13  C    0.007949
    14  C   -0.049476
    15  H   -0.001175
    16  H    0.000713
    17  H   -0.000168
    18  H    0.000169
    19  H    0.000545
    20  H    0.000184
    21  H   -0.000174
    22  H    0.000735
    23  H   -0.001241
    24  H   -0.079787
    25  H    0.494543
 Mulliken charges:
               1
     1  C    0.094162
     2  C   -0.414183
     3  C   -0.441703
     4  C    0.026808
     5  C    0.026771
     6  C   -0.441458
     7  C   -0.412397
     8  C    0.095434
     9  C   -0.335825
    10  C    0.099510
    11  C   -0.616494
    12  C    0.655972
    13  C   -0.611102
    14  C    0.654981
    15  H    0.236949
    16  H    0.255916
    17  H    0.251291
    18  H    0.221233
    19  H    0.190857
    20  H    0.221287
    21  H    0.251482
    22  H    0.256076
    23  H    0.236809
    24  H    0.250822
    25  H    0.246805
 Sum of Mulliken charges =   1.00000
 Mulliken charges with hydrogens summed into heavy atoms:
               1
     1  C    0.331111
     2  C   -0.158268
     3  C   -0.190412
     4  C    0.248041
     5  C    0.248057
     6  C   -0.189976
     7  C   -0.156321
     8  C    0.332243
     9  C    0.161802
    10  C    0.290367
    11  C   -0.616494
    12  C    0.655972
    13  C   -0.611102
    14  C    0.654981
 Electronic spatial extent (au):  <R**2>=           2850.1038
 Charge=              1.0000 electrons
 Dipole moment (field-independent basis, Debye):
    X=             -0.0039    Y=              0.1842    Z=              0.0000  Tot=              0.1843
 Quadrupole moment (field-independent basis, Debye-Ang):
   XX=            -31.2464   YY=            -56.2631   ZZ=            -84.0935
   XY=             -0.0021   XZ=              0.0037   YZ=              0.0726
 Traceless Quadrupole moment (field-independent basis, Debye-Ang):
   XX=             25.9546   YY=              0.9379   ZZ=            -26.8925
   XY=             -0.0021   XZ=              0.0037   YZ=              0.0726
 Octapole moment (field-independent basis, Debye-Ang**2):
  XXX=             -0.1633  YYY=              5.2048  ZZZ=             -0.0185  XYY=              0.0011
  XXY=             -5.6636  XXZ=              0.1208  XZZ=              0.0205  YZZ=             -3.0923
  YYZ=              0.0776  XYZ=              0.0183
 Hexadecapole moment (field-independent basis, Debye-Ang**3):
 XXXX=          -2120.0644 YYYY=           -609.2720 ZZZZ=            -99.2026 XXXY=             -0.0933
 XXXZ=              0.1024 YYYX=              0.0395 YYYZ=              0.8105 ZZZX=              0.0044
 ZZZY=              0.0259 XXYY=           -506.7156 XXZZ=           -589.1178 YYZZ=           -145.6420
 XXYZ=              0.7665 YYXZ=              0.0004 ZZXY=             -0.0018
 N-N= 7.818800911587D+02 E-N=-2.800139872205D+03  KE= 5.375495592773D+02
 Unable to Open any file for archive entry.
 1\1\GINC-GADI-CPU-CLX-0113\SP\RM062X TD-FC\6-311++G(d,p)\C14H11(1+)\TS
 1578\28-Jul-2022\0\\#n M062X/6-311++G(d,p) TD(NStates=1) EmpiricalDisp
 ersion=GD3 SP\\SP_75\\1,1\C,0,-0.00885,2.492655,1.360431\C,0,-0.011625
 ,3.695958,0.671989\C,0,-0.003,3.673811,-0.71383\C,0,0.011775,2.456181,
 -1.407538\C,0,0.011625,-2.456481,-1.407538\C,0,-0.0039,-3.675311,-0.71
 383\C,0,-0.01305,-3.696483,0.671989\C,0,-0.0117,-2.493555,1.360431\C,0
 ,-0.0066,0.0033,1.453369\C,0,0.0183,-0.00015,-1.429189\C,0,0.00285,1.2
 6783,0.677065\C,0,0.0072,1.236796,-0.730804\C,0,0.002625,-1.267755,0.6
 77065\C,0,0.0078,-1.236346,-0.730804\H,0,-0.0015,2.487921,2.443647\H,0
 ,-0.011625,4.631878,1.211689\H,0,0.0024,4.608662,-1.272349\H,0,0.00525
 ,2.4608,-2.490059\H,0,0.016875,-0.000075,-2.510266\H,0,0.0057,-2.46102
 5,-2.490059\H,0,0.00195,-4.610537,-1.272349\H,0,-0.01335,-4.633003,1.2
 11689\H,0,-0.0048,-2.488896,2.443647\H,0,-0.883585,0.00075,2.144962\H,
 0,0.835585,0.00075,2.146612\\Version=ES64L-G16RevC.01\State=1-A\HF=-53
 9.7599284\RMSD=4.633e-09\PG=C01 [X(C14H11)]\\@
 The archive entry for this job was punched.


 THE RED LIGHT IS ALWAYS LONGER THAN THE GREEN LIGHT.

                     -- PETER'S THEORY OF RELATIVITY
 Job cpu time:       0 days  1 hours 20 minutes 10.8 seconds.
 Elapsed time:       0 days  0 hours  1 minutes 40.7 seconds.
 File lengths (MBytes):  RWF=    460 Int=      0 D2E=      0 Chk=     15 Scr=      1
 Normal termination of Gaussian 16 at Thu Jul 28 16:10:45 2022.
