 Entering Gaussian System, Link 0=g16
 Initial command:
 /apps/gaussian/g16c01/g16/l1.exe "/jobfs/53002009.gadi-pbs/Gau-728371.inp" -scrdir="/jobfs/53002009.gadi-pbs/"
 Entering Link 1 = /apps/gaussian/g16c01/g16/l1.exe PID=    728372.
  
 Copyright (c) 1988-2019, Gaussian, Inc.  All Rights Reserved.
  
 This is part of the Gaussian(R) 16 program.  It is based on
 the Gaussian(R) 09 system (copyright 2009, Gaussian, Inc.),
 the Gaussian(R) 03 system (copyright 2003, Gaussian, Inc.),
 the Gaussian(R) 98 system (copyright 1998, Gaussian, Inc.),
 the Gaussian(R) 94 system (copyright 1995, Gaussian, Inc.),
 the Gaussian 92(TM) system (copyright 1992, Gaussian, Inc.),
 the Gaussian 90(TM) system (copyright 1990, Gaussian, Inc.),
 the Gaussian 88(TM) system (copyright 1988, Gaussian, Inc.),
 the Gaussian 86(TM) system (copyright 1986, Carnegie Mellon
 University), and the Gaussian 82(TM) system (copyright 1983,
 Carnegie Mellon University). Gaussian is a federally registered
 trademark of Gaussian, Inc.
  
 This software contains proprietary and confidential information,
 including trade secrets, belonging to Gaussian, Inc.
  
 This software is provided under written license and may be
 used, copied, transmitted, or stored only in accord with that
 written license.
  
 The following legend is applicable only to US Government
 contracts under FAR:
  
                    RESTRICTED RIGHTS LEGEND
  
 Use, reproduction and disclosure by the US Government is
 subject to restrictions as set forth in subparagraphs (a)
 and (c) of the Commercial Computer Software - Restricted
 Rights clause in FAR 52.227-19.
  
 Gaussian, Inc.
 340 Quinnipiac St., Bldg. 40, Wallingford CT 06492
  
  
 ---------------------------------------------------------------
 Warning -- This program may not be used in any manner that
 competes with the business of Gaussian, Inc. or will provide
 assistance to any competitor of Gaussian, Inc.  The licensee
 of this program is prohibited from giving any competitor of
 Gaussian, Inc. access to this program.  By using this program,
 the user acknowledges that Gaussian, Inc. is engaged in the
 business of creating and licensing software in the field of
 computational chemistry and represents and warrants to the
 licensee that it is not a competitor of Gaussian, Inc. and that
 it will not use this program in any manner prohibited above.
 ---------------------------------------------------------------
  

 Cite this work as:
 Gaussian 16, Revision C.01,
 M. J. Frisch, G. W. Trucks, H. B. Schlegel, G. E. Scuseria, 
 M. A. Robb, J. R. Cheeseman, G. Scalmani, V. Barone, 
 G. A. Petersson, H. Nakatsuji, X. Li, M. Caricato, A. V. Marenich, 
 J. Bloino, B. G. Janesko, R. Gomperts, B. Mennucci, H. P. Hratchian, 
 J. V. Ortiz, A. F. Izmaylov, J. L. Sonnenberg, D. Williams-Young, 
 F. Ding, F. Lipparini, F. Egidi, J. Goings, B. Peng, A. Petrone, 
 T. Henderson, D. Ranasinghe, V. G. Zakrzewski, J. Gao, N. Rega, 
 G. Zheng, W. Liang, M. Hada, M. Ehara, K. Toyota, R. Fukuda, 
 J. Hasegawa, M. Ishida, T. Nakajima, Y. Honda, O. Kitao, H. Nakai, 
 T. Vreven, K. Throssell, J. A. Montgomery, Jr., J. E. Peralta, 
 F. Ogliaro, M. J. Bearpark, J. J. Heyd, E. N. Brothers, K. N. Kudin, 
 V. N. Staroverov, T. A. Keith, R. Kobayashi, J. Normand, 
 K. Raghavachari, A. P. Rendell, J. C. Burant, S. S. Iyengar, 
 J. Tomasi, M. Cossi, J. M. Millam, M. Klene, C. Adamo, R. Cammi, 
 J. W. Ochterski, R. L. Martin, K. Morokuma, O. Farkas, 
 J. B. Foresman, and D. J. Fox, Gaussian, Inc., Wallingford CT, 2019.
 
 ******************************************
 Gaussian 16:  ES64L-G16RevC.01  3-Jul-2019
                28-Jul-2022 
 ******************************************
 %NProcShared=48
 Will use up to   48 processors via shared memory.
 %mem = 190GB
 ---------------------------------------------------------------
 #n M062X/6-311++G(d,p) TD(NStates=1) EmpiricalDispersion=GD3 SP
 ---------------------------------------------------------------
 1/38=1,172=1/1;
 2/12=2,17=6,18=5,40=1/2;
 3/5=4,6=6,7=1111,11=9,25=1,30=1,74=-55,124=31/1,2,3,8;
 4//1;
 5/5=2,38=5/2;
 8/6=1,10=2,108=1/1;
 9/41=1,42=1,70=2/14;
 6/7=2,8=2,9=2,10=2/1;
 99/5=1,9=1/99;
 -------
 SP_-100
 -------
 Symbolic Z-matrix:
 Charge =  1 Multiplicity = 1
 C                     0.0079    2.49296   1.36043 
 C                     0.01115   3.70723   0.67199 
 C                     0.0027    3.69441  -0.71383 
 C                    -0.01182   2.47023  -1.40754 
 C                    -0.01157  -2.46973  -1.40754 
 C                     0.0042   -3.69191  -0.71383 
 C                     0.01353  -3.70636   0.67199 
 C                     0.01265  -2.49146   1.36043 
 C                     0.00663  -0.0055    1.45337 
 C                    -0.0183    0.00025  -1.42919 
 C                    -0.00293   1.25626   0.67707 
 C                    -0.007     1.238    -0.7308 
 C                    -0.00255  -1.25638   0.67707 
 C                    -0.008    -1.23875  -0.7308 
 H                     0.0004    2.48855   2.44365 
 H                     0.01105   4.642     1.21169 
 H                    -0.00255   4.61049  -1.27235 
 H                    -0.0051    2.47438  -2.49006 
 H                    -0.01688   0.00013  -2.51027 
 H                    -0.00585  -2.474    -2.49006 
 H                    -0.0018   -4.60736  -1.27235 
 H                     0.01393  -4.64013   1.21169 
 H                     0.0059   -2.48692   2.44365 
 H                    -0.83559  -0.00125   2.14716 
 H                     0.88359  -0.00125   2.14441 
 
                          Input orientation:                          
 ---------------------------------------------------------------------
 Center     Atomic      Atomic             Coordinates (Angstroms)
 Number     Number       Type             X           Y           Z
 ---------------------------------------------------------------------
      1          6           0        0.007900    2.492955    1.360431
      2          6           0        0.011150    3.707233    0.671989
      3          6           0        0.002700    3.694411   -0.713830
      4          6           0       -0.011825    2.470231   -1.407538
      5          6           0       -0.011575   -2.469731   -1.407538
      6          6           0        0.004200   -3.691911   -0.713830
      7          6           0        0.013525   -3.706358    0.671989
      8          6           0        0.012650   -2.491455    1.360431
      9          6           0        0.006625   -0.005500    1.453369
     10          6           0       -0.018300    0.000250   -1.429189
     11          6           0       -0.002925    1.256255    0.677065
     12          6           0       -0.007000    1.237996   -0.730804
     13          6           0       -0.002550   -1.256380    0.677065
     14          6           0       -0.008000   -1.238746   -0.730804
     15          1           0        0.000400    2.488546    2.443647
     16          1           0        0.011050    4.642003    1.211689
     17          1           0       -0.002550    4.610487   -1.272349
     18          1           0       -0.005100    2.474375   -2.490059
     19          1           0       -0.016875    0.000125   -2.510266
     20          1           0       -0.005850   -2.474000   -2.490059
     21          1           0       -0.001800   -4.607362   -1.272349
     22          1           0        0.013925   -4.640128    1.211689
     23          1           0        0.005900   -2.486921    2.443647
     24          1           0       -0.835585   -0.001250    2.147162
     25          1           0        0.883585   -0.001250    2.144412
 ---------------------------------------------------------------------
                    Distance matrix (angstroms):
                    1          2          3          4          5
     1  C    0.000000
     2  C    1.395863   0.000000
     3  C    2.397099   1.385904   0.000000
     4  C    2.768133   2.419738   1.407145   0.000000
     5  C    5.682454   6.517656   6.203070   4.939962   0.000000
     6  C    6.523430   7.527807   7.386322   6.201087   1.405419
     7  C    6.237425   7.413591   7.529409   6.517310   2.419568
     8  C    4.984412   6.236801   6.524385   5.681600   2.768160
     9  C    2.500183   3.794069   4.287903   3.783434   3.775918
    10  C    3.741155   4.261166   3.762845   2.470084   2.470085
    11  C    1.412987   2.451024   2.806996   2.412340   4.269498
    12  C    2.438936   2.839945   2.456493   1.405843   3.768983
    13  C    3.811117   4.963635   5.142465   4.270045   2.412026
    14  C    4.277746   5.141099   4.933198   3.770211   1.404744
    15  H    1.083251   2.150369   3.379908   3.851248   6.278239
    16  H    2.154192   1.079385   2.146072   3.402568   7.578761
    17  H    3.378695   2.143946   1.072924   2.144541   7.081514
    18  H    3.850557   3.393928   2.154887   1.082550   5.061233
    19  H    4.604032   4.885712   4.107957   2.705080   2.704852
    20  H    6.284672   6.943089   6.419062   5.061354   1.082545
    21  H    7.572723   8.538917   8.320541   7.078891   2.141924
    22  H    7.134636   8.364790   8.554080   7.577481   3.401709
    23  H    5.096325   6.442542   6.941076   6.277364   3.851263
    24  H    2.747994   4.079944   4.748253   4.407118   4.405483
    25  H    2.757265   4.084363   4.754305   4.418860   4.417132
                    6          7          8          9         10
     6  C    0.000000
     7  C    1.385926   0.000000
     8  C    2.396607   1.396403   0.000000
     9  C    4.276258   3.782453   2.487699   0.000000
    10  C    3.760891   4.260857   3.740526   2.882671   0.000000
    11  C    5.139940   4.962643   3.809536   1.481474   2.452364
    12  C    4.929949   5.139541   4.275799   2.513380   1.421226
    13  C    2.804718   2.450036   1.411606   1.472220   2.452687
    14  C    2.453254   2.838556   2.437821   2.508330   1.422308
    15  H    6.940297   6.443274   5.096461   2.683459   4.603349
    16  H    8.553467   8.365788   7.135009   4.653785   5.340503
    17  H    8.321166   8.541113   7.574255   5.360686   4.612931
    18  H    6.417021   6.942648   6.283793   4.658384   2.692009
    19  H    4.105942   4.885252   4.603383   3.963709   1.081078
    20  H    2.153694   3.393763   3.850574   4.652341   2.692121
    21  H    1.072395   2.143010   3.377692   5.348527   4.610310
    22  H    2.146354   1.078519   2.153816   4.640931   5.339324
    23  H    3.379595   2.150781   1.083247   2.671723   4.602767
    24  H    4.744628   4.077370   2.745828   1.091185   3.668548
    25  H    4.750141   4.080791   2.752140   1.116520   3.685651
                   11         12         13         14         15
    11  C    0.000000
    12  C    1.407993   0.000000
    13  C    2.512635   2.864267   0.000000
    14  C    2.864813   2.476742   1.407990   0.000000
    15  H    2.153918   3.411901   4.140687   4.895908   0.000000
    16  H    3.427726   3.919294   5.922578   6.193291   2.480970
    17  H    3.879573   3.415697   6.182260   5.874251   4.279167
    18  H    3.393302   2.150259   4.893793   4.108802   4.933729
    19  H    3.425950   2.167696   3.426089   2.168263   5.543807
    20  H    4.893412   4.107785   3.393123   2.149613   6.997739
    21  H    6.179176   5.870393   3.876764   3.411874   8.010028
    22  H    5.920594   6.190804   3.425762   3.917034   7.234355
    23  H    4.139113   4.894110   2.152932   3.411052   4.975470
    24  H    2.106140   3.241137   2.104871   3.240213   2.643077
    25  H    2.126106   3.255110   2.124546   3.254718   2.658692
                   16         17         18         19         20
    16  H    0.000000
    17  H    2.484275   0.000000
    18  H    4.289733   2.458821   0.000000
    19  H    5.949854   4.773686   2.474361   0.000000
    20  H    8.021267   7.188378   4.948375   2.474232   0.000000
    21  H    9.577127   9.217849   7.185668   4.770912   2.456434
    22  H    9.282131   9.578340   8.019941   5.948600   4.288991
    23  H    7.234591   8.011361   6.996859   5.543209   4.933737
    24  H    4.811621   5.801303   5.321865   4.728840   5.320411
    25  H    4.815713   5.807548   5.328865   4.740976   5.327655
                   21         22         23         24         25
    21  H    0.000000
    22  H    2.484304   0.000000
    23  H    4.278429   2.480743   0.000000
    24  H    5.796941   4.807907   2.640939   0.000000
    25  H    5.802967   4.810974   2.653004   1.719172   0.000000
 Stoichiometry    C14H11(1+)
 Framework group  C1[X(C14H11)]
 Deg. of freedom    69
 Full point group                 C1      NOp   1
 Largest Abelian subgroup         C1      NOp   1
 Largest concise Abelian subgroup C1      NOp   1
                         Standard orientation:                         
 ---------------------------------------------------------------------
 Center     Atomic      Atomic             Coordinates (Angstroms)
 Number     Number       Type             X           Y           Z
 ---------------------------------------------------------------------
      1          6           0       -2.492807   -1.360720   -0.000601
      2          6           0       -3.707157   -0.672445    0.007543
      3          6           0       -3.694484    0.713401    0.008218
      4          6           0       -2.470382    1.407321   -0.002100
      5          6           0        2.469580    1.407851   -0.003315
      6          6           0        3.691838    0.714186    0.007528
      7          6           0        3.706434   -0.671663    0.007720
      8          6           0        2.491604   -1.360215    0.002670
      9          6           0        0.005657   -1.453379   -0.003229
     10          6           0       -0.000405    1.429280   -0.009165
     11          6           0       -1.256183   -0.677164   -0.007292
     12          6           0       -1.238074    0.730703   -0.002098
     13          6           0        1.256452   -0.676896   -0.007662
     14          6           0        1.238668    0.730976   -0.003833
     15          1           0       -2.488286   -2.443863   -0.015238
     16          1           0       -4.641870   -1.212233    0.004166
     17          1           0       -4.610621    1.271844    0.006919
     18          1           0       -2.474638    2.489774    0.011756
     19          1           0       -0.000394    2.510325   -0.000619
     20          1           0        2.473736    2.490312    0.009539
     21          1           0        4.607228    1.272831    0.004935
     22          1           0        4.640261   -1.211253    0.004288
     23          1           0        2.487182   -2.443363   -0.011213
     24          1           0        0.001230   -2.141610   -0.849990
     25          1           0        0.001741   -2.150184    0.869161
 ---------------------------------------------------------------------
 Rotational constants (GHZ):           2.1360664           0.4433817           0.3679686
 Standard basis: 6-311++G(d,p) (5D, 7F)
 There are   399 symmetry adapted cartesian basis functions of A   symmetry.
 There are   385 symmetry adapted basis functions of A   symmetry.
   385 basis functions,   603 primitive gaussians,   399 cartesian basis functions
    47 alpha electrons       47 beta electrons
       nuclear repulsion energy       780.4974511247 Hartrees.
 NAtoms=   25 NActive=   25 NUniq=   25 SFac= 1.00D+00 NAtFMM=   60 NAOKFM=F Big=F
 Integral buffers will be    131072 words long.
 Regular integral format.
 Two-electron integral symmetry is turned on.
 Nuclear repulsion after empirical dispersion term =      780.4964713894 Hartrees.
 One-electron integrals computed using PRISM.
 NBasis=   385 RedAO= T EigKep=  1.17D-06  NBF=   385
 NBsUse=   379 1.00D-06 EigRej=  8.59D-07 NBFU=   379
 ExpMin= 3.60D-02 ExpMax= 4.56D+03 ExpMxC= 6.82D+02 IAcc=3 IRadAn=         5 AccDes= 0.00D+00
 Harris functional with IExCor= 1009 and IRadAn=       5 diagonalized for initial guess.
 HarFok:  IExCor= 1009 AccDes= 0.00D+00 IRadAn=         5 IDoV= 1 UseB2=F ITyADJ=14
 ICtDFT=  3500011 ScaDFX=  1.000000  1.000000  1.000000  1.000000
 FoFCou: FMM=F IPFlag=           0 FMFlag=      100000 FMFlg1=           0
         NFxFlg=           0 DoJE=T BraDBF=F KetDBF=T FulRan=T
         wScrn=  0.000000 ICntrl=       500 IOpCl=  0 I1Cent=   200000004 NGrid=           0
         NMat0=    1 NMatS0=      1 NMatT0=    0 NMatD0=    1 NMtDS0=    0 NMtDT0=    0
 Petite list used in FoFCou.
 Requested convergence on RMS density matrix=1.00D-08 within 128 cycles.
 Requested convergence on MAX density matrix=1.00D-06.
 Requested convergence on             energy=1.00D-06.
 No special actions if energy rises.
 SCF Done:  E(RM062X) =  -539.759299114     A.U. after   15 cycles
            NFock= 15  Conv=0.45D-08     -V/T= 2.0043
 DoSCS=F DFT=T ScalE2(SS,OS)=  1.000000  1.000000
 ExpMin= 3.60D-02 ExpMax= 4.56D+03 ExpMxC= 6.82D+02 IAcc=3 IRadAn=         5 AccDes= 0.00D+00
 HarFok:  IExCor=  205 AccDes= 0.00D+00 IRadAn=         5 IDoV=-2 UseB2=F ITyADJ=14
 ICtDFT= 12500011 ScaDFX=  1.000000  1.000000  1.000000  1.000000
 Range of M.O.s used for correlation:    15   379
 NBasis=   385 NAE=    47 NBE=    47 NFC=    14 NFV=     0
 NROrb=    365 NOA=    33 NOB=    33 NVA=   332 NVB=   332

 **** Warning!!: The largest alpha MO coefficient is  0.14933223D+03

 Orbital symmetries:
       Occupied  (A) (A) (A) (A) (A) (A) (A) (A) (A) (A) (A) (A)
                 (A) (A) (A) (A) (A) (A) (A) (A) (A) (A) (A) (A)
                 (A) (A) (A) (A) (A) (A) (A) (A) (A) (A) (A) (A)
                 (A) (A) (A) (A) (A) (A) (A) (A) (A) (A) (A)
       Virtual   (A) (A) (A) (A) (A) (A) (A) (A) (A) (A) (A) (A)
                 (A) (A) (A) (A) (A) (A) (A) (A) (A) (A) (A) (A)
                 (A) (A) (A) (A) (A) (A) (A) (A) (A) (A) (A) (A)
                 (A) (A) (A) (A) (A) (A) (A) (A) (A) (A) (A) (A)
                 (A) (A) (A) (A) (A) (A) (A) (A) (A) (A) (A) (A)
                 (A) (A) (A) (A) (A) (A) (A) (A) (A) (A) (A) (A)
                 (A) (A) (A) (A) (A) (A) (A) (A) (A) (A) (A) (A)
                 (A) (A) (A) (A) (A) (A) (A) (A) (A) (A) (A) (A)
                 (A) (A) (A) (A) (A) (A) (A) (A) (A) (A) (A) (A)
                 (A) (A) (A) (A) (A) (A) (A) (A) (A) (A) (A) (A)
                 (A) (A) (A) (A) (A) (A) (A) (A) (A) (A) (A) (A)
                 (A) (A) (A) (A) (A) (A) (A) (A) (A) (A) (A) (A)
                 (A) (A) (A) (A) (A) (A) (A) (A) (A) (A) (A) (A)
                 (A) (A) (A) (A) (A) (A) (A) (A) (A) (A) (A) (A)
                 (A) (A) (A) (A) (A) (A) (A) (A) (A) (A) (A) (A)
                 (A) (A) (A) (A) (A) (A) (A) (A) (A) (A) (A) (A)
                 (A) (A) (A) (A) (A) (A) (A) (A) (A) (A) (A) (A)
                 (A) (A) (A) (A) (A) (A) (A) (A) (A) (A) (A) (A)
                 (A) (A) (A) (A) (A) (A) (A) (A) (A) (A) (A) (A)
                 (A) (A) (A) (A) (A) (A) (A) (A) (A) (A) (A) (A)
                 (A) (A) (A) (A) (A) (A) (A) (A) (A) (A) (A) (A)
                 (A) (A) (A) (A) (A) (A) (A) (A) (A) (A) (A) (A)
                 (A) (A) (A) (A) (A) (A) (A) (A) (A) (A) (A) (A)
                 (A) (A) (A) (A) (A) (A) (A) (A) (A) (A) (A) (A)
                 (A) (A) (A) (A) (A) (A) (A) (A) (A) (A) (A) (A)
                 (A) (A) (A) (A) (A) (A) (A) (A) (A) (A) (A) (A)
                 (A) (A) (A) (A) (A) (A) (A) (A) (A) (A) (A) (A)
                 (A) (A) (A) (A) (A) (A) (A) (A)
     4 initial guesses have been made.
 Convergence on wavefunction:    0.001000000000000
 Iteration     1 Dimension     4 NMult     0 NNew      4
 CISAX will form     4 AO SS matrices at one time.
 Iteration     2 Dimension     6 NMult     4 NNew      2
 Iteration     3 Dimension     8 NMult     6 NNew      2
 Iteration     4 Dimension    10 NMult     8 NNew      2
 Iteration     5 Dimension    12 NMult    10 NNew      2
 Iteration     6 Dimension    14 NMult    12 NNew      2
 ***********************************************************************
 Excited states from <AA,BB:AA,BB> singles matrix:
 ***********************************************************************
 
 Ground to excited state transition densities written to RWF  633
 Ground to excited state transition electric dipole moments (Au):
       state          X           Y           Z        Dip. S.      Osc.
         1         0.0073     -0.6392      0.0028      0.4086      0.0281
 Ground to excited state transition velocity dipole moments (Au):
       state          X           Y           Z        Dip. S.      Osc.
         1        -0.0008      0.0737     -0.0004      0.0054      0.0351
 Ground to excited state transition magnetic dipole moments (Au):
       state          X           Y           Z
         1        -0.0040      0.0005     -0.0001
 Ground to excited state transition velocity quadrupole moments (Au):
       state          XX          YY          ZZ          XY          XZ          YZ
         1         0.3056      0.0332     -0.0097     -0.0011     -0.0001      0.0005
 <0|del|b> * <b|rxdel|0> + <0|del|b> * <b|delr+rdel|0>
 Rotatory Strengths (R) in cgs (10**-40 erg-esu-cm/Gauss)
       state          XX          YY          ZZ    R(velocity)    E-M Angle
         1         0.1496      0.0084      0.1260      0.0947       90.00
 1/2[<0|r|b>*<b|rxdel|0> + (<0|rxdel|b>*<b|r|0>)*]
 Rotatory Strengths (R) in cgs (10**-40 erg-esu-cm/Gauss)
       state          XX          YY          ZZ     R(length)
         1         0.0209      0.2346      0.0003      0.0853
  1/2[<0|del|b>*<b|r|0> + (<0|r|b>*<b|del|0>)*] (Au)
       state          X           Y           Z        Dip. S.   Osc.(frdel)
         1        -0.0000     -0.0471     -0.0000      0.0471      0.0314

 Excitation energies and oscillator strengths:
 
 Excited State   1:      Singlet-A      2.8099 eV  441.24 nm  f=0.0281  <S**2>=0.000
      47 -> 48         0.70427
 This state for optimization and/or second-order correction.
 Total Energy, E(TD-HF/TD-DFT) =  -539.656037705    
 Copying the excited state density for this state as the 1-particle RhoCI density.
 SavETr:  write IOETrn=   770 NScale= 10 NData=  16 NLR=1 NState=    1 LETran=      28.

 **********************************************************************

            Population analysis using the SCF Density.

 **********************************************************************

 Orbital symmetries:
       Occupied  (A) (A) (A) (A) (A) (A) (A) (A) (A) (A) (A) (A)
                 (A) (A) (A) (A) (A) (A) (A) (A) (A) (A) (A) (A)
                 (A) (A) (A) (A) (A) (A) (A) (A) (A) (A) (A) (A)
                 (A) (A) (A) (A) (A) (A) (A) (A) (A) (A) (A)
       Virtual   (A) (A) (A) (A) (A) (A) (A) (A) (A) (A) (A) (A)
                 (A) (A) (A) (A) (A) (A) (A) (A) (A) (A) (A) (A)
                 (A) (A) (A) (A) (A) (A) (A) (A) (A) (A) (A) (A)
                 (A) (A) (A) (A) (A) (A) (A) (A) (A) (A) (A) (A)
                 (A) (A) (A) (A) (A) (A) (A) (A) (A) (A) (A) (A)
                 (A) (A) (A) (A) (A) (A) (A) (A) (A) (A) (A) (A)
                 (A) (A) (A) (A) (A) (A) (A) (A) (A) (A) (A) (A)
                 (A) (A) (A) (A) (A) (A) (A) (A) (A) (A) (A) (A)
                 (A) (A) (A) (A) (A) (A) (A) (A) (A) (A) (A) (A)
                 (A) (A) (A) (A) (A) (A) (A) (A) (A) (A) (A) (A)
                 (A) (A) (A) (A) (A) (A) (A) (A) (A) (A) (A) (A)
                 (A) (A) (A) (A) (A) (A) (A) (A) (A) (A) (A) (A)
                 (A) (A) (A) (A) (A) (A) (A) (A) (A) (A) (A) (A)
                 (A) (A) (A) (A) (A) (A) (A) (A) (A) (A) (A) (A)
                 (A) (A) (A) (A) (A) (A) (A) (A) (A) (A) (A) (A)
                 (A) (A) (A) (A) (A) (A) (A) (A) (A) (A) (A) (A)
                 (A) (A) (A) (A) (A) (A) (A) (A) (A) (A) (A) (A)
                 (A) (A) (A) (A) (A) (A) (A) (A) (A) (A) (A) (A)
                 (A) (A) (A) (A) (A) (A) (A) (A) (A) (A) (A) (A)
                 (A) (A) (A) (A) (A) (A) (A) (A) (A) (A) (A) (A)
                 (A) (A) (A) (A) (A) (A) (A) (A) (A) (A) (A) (A)
                 (A) (A) (A) (A) (A) (A) (A) (A) (A) (A) (A) (A)
                 (A) (A) (A) (A) (A) (A) (A) (A) (A) (A) (A) (A)
                 (A) (A) (A) (A) (A) (A) (A) (A) (A) (A) (A) (A)
                 (A) (A) (A) (A) (A) (A) (A) (A) (A) (A) (A) (A)
                 (A) (A) (A) (A) (A) (A) (A) (A) (A) (A) (A) (A)
                 (A) (A) (A) (A) (A) (A) (A) (A) (A) (A) (A) (A)
                 (A) (A) (A) (A) (A) (A) (A) (A)
 The electronic state is 1-A.
 Alpha  occ. eigenvalues --  -10.77660 -10.73299 -10.73230 -10.72500 -10.72497
 Alpha  occ. eigenvalues --  -10.71466 -10.71429 -10.71058 -10.71046 -10.70982
 Alpha  occ. eigenvalues --  -10.70070 -10.70043 -10.69622 -10.69588  -1.16394
 Alpha  occ. eigenvalues --   -1.12307  -1.06863  -1.05781  -1.01166  -1.00197
 Alpha  occ. eigenvalues --   -0.95724  -0.91070  -0.86411  -0.85874  -0.83809
 Alpha  occ. eigenvalues --   -0.78391  -0.76015  -0.74386  -0.69571  -0.69288
 Alpha  occ. eigenvalues --   -0.68561  -0.68235  -0.68138  -0.64622  -0.64184
 Alpha  occ. eigenvalues --   -0.63147  -0.61966  -0.59944  -0.59561  -0.59132
 Alpha  occ. eigenvalues --   -0.56917  -0.55254  -0.54883  -0.52376  -0.46522
 Alpha  occ. eigenvalues --   -0.46052  -0.44430
 Alpha virt. eigenvalues --   -0.26075  -0.14757  -0.14119  -0.12869  -0.11178
 Alpha virt. eigenvalues --   -0.10082  -0.09218  -0.07996  -0.07943  -0.07471
 Alpha virt. eigenvalues --   -0.07212  -0.07147  -0.05645  -0.05582  -0.05348
 Alpha virt. eigenvalues --   -0.03802  -0.03640  -0.03282  -0.03134  -0.02161
 Alpha virt. eigenvalues --   -0.01361  -0.00916   0.00191   0.00627   0.00687
 Alpha virt. eigenvalues --    0.01047   0.01513   0.01913   0.02209   0.02291
 Alpha virt. eigenvalues --    0.02434   0.02657   0.02705   0.03306   0.03387
 Alpha virt. eigenvalues --    0.04247   0.04502   0.04689   0.04988   0.05358
 Alpha virt. eigenvalues --    0.06030   0.06289   0.06596   0.07040   0.07233
 Alpha virt. eigenvalues --    0.07872   0.08091   0.08361   0.08500   0.08933
 Alpha virt. eigenvalues --    0.09556   0.09569   0.10032   0.10816   0.11024
 Alpha virt. eigenvalues --    0.11116   0.12199   0.12266   0.12892   0.13014
 Alpha virt. eigenvalues --    0.13404   0.13534   0.14024   0.14302   0.16127
 Alpha virt. eigenvalues --    0.16303   0.16505   0.17376   0.17590   0.17725
 Alpha virt. eigenvalues --    0.18105   0.18993   0.19191   0.19606   0.19715
 Alpha virt. eigenvalues --    0.21493   0.21530   0.22724   0.23125   0.23564
 Alpha virt. eigenvalues --    0.23647   0.24557   0.25130   0.26880   0.27526
 Alpha virt. eigenvalues --    0.28838   0.29289   0.29842   0.31272   0.35809
 Alpha virt. eigenvalues --    0.36307   0.38077   0.39199   0.41162   0.41454
 Alpha virt. eigenvalues --    0.41950   0.42293   0.43013   0.43600   0.44289
 Alpha virt. eigenvalues --    0.44802   0.44902   0.45811   0.46078   0.47938
 Alpha virt. eigenvalues --    0.48575   0.48891   0.49058   0.50448   0.51152
 Alpha virt. eigenvalues --    0.51484   0.51521   0.52118   0.52696   0.53994
 Alpha virt. eigenvalues --    0.54112   0.54556   0.55712   0.55759   0.57465
 Alpha virt. eigenvalues --    0.58210   0.58788   0.61408   0.62119   0.62330
 Alpha virt. eigenvalues --    0.63072   0.63566   0.64781   0.65137   0.67173
 Alpha virt. eigenvalues --    0.70401   0.70615   0.70985   0.72295   0.72803
 Alpha virt. eigenvalues --    0.75739   0.75829   0.76207   0.76785   0.77024
 Alpha virt. eigenvalues --    0.77661   0.77767   0.78170   0.80186   0.80406
 Alpha virt. eigenvalues --    0.81190   0.81593   0.82085   0.82925   0.85044
 Alpha virt. eigenvalues --    0.87000   0.87925   0.88124   0.89419   0.90427
 Alpha virt. eigenvalues --    0.90856   0.91373   0.93093   0.94657   0.96433
 Alpha virt. eigenvalues --    0.96657   1.00463   1.01281   1.01594   1.02622
 Alpha virt. eigenvalues --    1.03099   1.03855   1.04594   1.05633   1.08747
 Alpha virt. eigenvalues --    1.19712   1.23323   1.24065   1.25299   1.27967
 Alpha virt. eigenvalues --    1.29442   1.31967   1.33982   1.35567   1.35943
 Alpha virt. eigenvalues --    1.39201   1.40195   1.40731   1.42863   1.43271
 Alpha virt. eigenvalues --    1.43435   1.45073   1.45184   1.46424   1.46734
 Alpha virt. eigenvalues --    1.47583   1.47756   1.51653   1.53596   1.55643
 Alpha virt. eigenvalues --    1.55948   1.56127   1.56469   1.57668   1.61313
 Alpha virt. eigenvalues --    1.63369   1.63797   1.63948   1.66025   1.68121
 Alpha virt. eigenvalues --    1.68456   1.68630   1.69713   1.74146   1.75954
 Alpha virt. eigenvalues --    1.77090   1.77958   1.79800   1.79996   1.80386
 Alpha virt. eigenvalues --    1.83132   1.83166   1.83510   1.83656   1.84123
 Alpha virt. eigenvalues --    1.84273   1.85802   1.85893   1.88142   1.91458
 Alpha virt. eigenvalues --    1.91885   1.94131   1.95227   1.97517   1.97864
 Alpha virt. eigenvalues --    1.99465   2.02419   2.04196   2.07467   2.11685
 Alpha virt. eigenvalues --    2.11976   2.13864   2.15152   2.18730   2.21129
 Alpha virt. eigenvalues --    2.22443   2.28469   2.29872   2.34515   2.35115
 Alpha virt. eigenvalues --    2.36095   2.39005   2.40050   2.42160   2.43497
 Alpha virt. eigenvalues --    2.46220   2.47299   2.48988   2.52701   2.53775
 Alpha virt. eigenvalues --    2.54200   2.56872   2.57787   2.58258   2.59630
 Alpha virt. eigenvalues --    2.59703   2.61655   2.61886   2.63395   2.63770
 Alpha virt. eigenvalues --    2.64606   2.64853   2.65088   2.65200   2.67865
 Alpha virt. eigenvalues --    2.68712   2.70888   2.71380   2.73340   2.74814
 Alpha virt. eigenvalues --    2.76256   2.78491   2.79607   2.82536   2.82959
 Alpha virt. eigenvalues --    2.84528   2.86267   2.92065   2.96823   2.99392
 Alpha virt. eigenvalues --    2.99820   3.05457   3.10550   3.10979   3.12323
 Alpha virt. eigenvalues --    3.20955   3.23729   3.26278   3.27934   3.30469
 Alpha virt. eigenvalues --    3.32085   3.33242   3.43352   3.45482   3.45938
 Alpha virt. eigenvalues --    3.47940   3.49674   3.56331   3.65641   3.67101
 Alpha virt. eigenvalues --    3.67407   3.94488   3.95008   3.95701   3.96499
 Alpha virt. eigenvalues --    4.04361   4.06969   4.07194   4.12497   4.35616
 Alpha virt. eigenvalues --    4.61488   4.69321   4.71071  23.45485  23.61075
 Alpha virt. eigenvalues --   23.81860  23.85830  23.87589  23.89119  23.90463
 Alpha virt. eigenvalues --   23.92210  23.97199  23.98376  23.98647  23.99566
 Alpha virt. eigenvalues --   24.09816  24.10008
          Condensed to atoms (all electrons):
               1          2          3          4          5          6
     1  C    8.482266   0.385307  -0.559679   1.881686  -0.017649  -0.091792
     2  C    0.385307   7.038311   0.353819  -0.990594  -0.024891  -0.014150
     3  C   -0.559679   0.353819   6.572496   0.696302  -0.119388   0.016540
     4  C    1.881686  -0.990594   0.696302  10.801169  -0.263440  -0.120888
     5  C   -0.017649  -0.024891  -0.119388  -0.263440  10.800002   0.711641
     6  C   -0.091792  -0.014150   0.016540  -0.120888   0.711641   6.576308
     7  C   -0.021927   0.002898  -0.014039  -0.023847  -1.006383   0.357698
     8  C    0.396722  -0.024317  -0.091621  -0.009182   1.862100  -0.550997
     9  C   -1.203925  -0.753975   0.293603  -0.261168  -0.273040   0.291307
    10  C   -1.227733   0.226042  -0.341377  -2.502806  -2.503680  -0.349018
    11  C    0.243886  -0.918234   1.045911  -0.419122  -1.537596  -0.160007
    12  C   -1.873800   1.261159  -1.365692  -1.347532  -0.270205  -0.205684
    13  C    0.165197  -0.226163  -0.156797  -1.535445  -0.407764   1.043879
    14  C   -1.044016  -0.197314  -0.205809  -0.273892  -1.318778  -1.381027
    15  H    0.364862  -0.104272  -0.000837   0.026701   0.005639   0.001101
    16  H   -0.019596   0.379194  -0.017873   0.013693  -0.001511  -0.000320
    17  H   -0.022959  -0.018533   0.378012  -0.065639   0.000162   0.000391
    18  H    0.048097   0.005083  -0.088166   0.452168   0.008028  -0.004958
    19  H   -0.046430  -0.008087   0.051786  -0.074287  -0.073474   0.051803
    20  H    0.007180   0.001914  -0.004928   0.008154   0.453143  -0.087439
    21  H   -0.001286  -0.000385   0.000388   0.000147  -0.065701   0.378138
    22  H    0.000639   0.000352  -0.000318  -0.001493   0.013370  -0.017518
    23  H    0.005647  -0.002610   0.001096   0.005633   0.026840  -0.000750
    24  H    0.025898   0.015510  -0.001532  -0.013263  -0.012137  -0.001881
    25  H    0.037991   0.012951  -0.001331  -0.011952  -0.012948  -0.000879
               7          8          9         10         11         12
     1  C   -0.021927   0.396722  -1.203925  -1.227733   0.243886  -1.873800
     2  C    0.002898  -0.024317  -0.753975   0.226042  -0.918234   1.261159
     3  C   -0.014039  -0.091621   0.293603  -0.341377   1.045911  -1.365692
     4  C   -0.023847  -0.009182  -0.261168  -2.502806  -0.419122  -1.347532
     5  C   -1.006383   1.862100  -0.273040  -2.503680  -1.537596  -0.270205
     6  C    0.357698  -0.550997   0.291307  -0.349018  -0.160007  -0.205684
     7  C    7.067034   0.381852  -0.764358   0.231554  -0.236827  -0.200183
     8  C    0.381852   8.490248  -1.224638  -1.227882   0.153985  -1.061482
     9  C   -0.764358  -1.224638   9.425799   0.270913   1.633193  -1.847053
    10  C    0.231554  -1.227882   0.270913   9.118809  -0.424332   2.296552
    11  C   -0.236827   0.153985   1.633193  -0.424332  14.530495  -3.694011
    12  C   -0.200183  -1.061482  -1.847053   2.296552  -3.694011  15.734112
    13  C   -0.925788   0.278944   1.646657  -0.419691   1.176958  -4.788710
    14  C    1.274637  -1.855530  -1.836398   2.288949  -4.813508   2.910125
    15  H   -0.002685   0.005715   0.090537  -0.009639  -0.028041  -0.024251
    16  H    0.000359   0.000713   0.003798  -0.009632   0.026567  -0.032606
    17  H   -0.000388  -0.001307  -0.005171   0.020029  -0.026016   0.087071
    18  H    0.001917   0.007313  -0.025314   0.017497  -0.013492  -0.047780
    19  H   -0.008000  -0.046482   0.074666   0.422503   0.082564  -0.066854
    20  H    0.004449   0.048081  -0.025421   0.016937  -0.012486  -0.011650
    21  H   -0.018154  -0.023392  -0.005192   0.020083  -0.006117   0.005007
    22  H    0.379698  -0.020718   0.003331  -0.009425   0.002849  -0.008804
    23  H   -0.105182   0.363925   0.090254  -0.009684   0.001261   0.006508
    24  H    0.014431   0.023349   0.364480   0.006035   0.008050  -0.049143
    25  H    0.014310   0.041469   0.350261   0.005302   0.018537  -0.070862
              13         14         15         16         17         18
     1  C    0.165197  -1.044016   0.364862  -0.019596  -0.022959   0.048097
     2  C   -0.226163  -0.197314  -0.104272   0.379194  -0.018533   0.005083
     3  C   -0.156797  -0.205809  -0.000837  -0.017873   0.378012  -0.088166
     4  C   -1.535445  -0.273892   0.026701   0.013693  -0.065639   0.452168
     5  C   -0.407764  -1.318778   0.005639  -0.001511   0.000162   0.008028
     6  C    1.043879  -1.381027   0.001101  -0.000320   0.000391  -0.004958
     7  C   -0.925788   1.274637  -0.002685   0.000359  -0.000388   0.001917
     8  C    0.278944  -1.855530   0.005715   0.000713  -0.001307   0.007313
     9  C    1.646657  -1.836398   0.090537   0.003798  -0.005171  -0.025314
    10  C   -0.419691   2.288949  -0.009639  -0.009632   0.020029   0.017497
    11  C    1.176958  -4.813508  -0.028041   0.026567  -0.026016  -0.013492
    12  C   -4.788710   2.910125  -0.024251  -0.032606   0.087071  -0.047780
    13  C   14.441947  -3.709986   0.001084   0.002904  -0.006014  -0.012204
    14  C   -3.709986  15.703367   0.006399  -0.008913   0.004982  -0.011180
    15  H    0.001084   0.006399   0.439429  -0.009024   0.001519   0.000140
    16  H    0.002904  -0.008913  -0.009024   0.419757  -0.006778   0.001955
    17  H   -0.006014   0.004982   0.001519  -0.006778   0.423500  -0.010354
    18  H   -0.012204  -0.011180   0.000140   0.001955  -0.010354   0.453748
    19  H    0.082954  -0.067413   0.000320  -0.000556   0.001453  -0.006395
    20  H   -0.013241  -0.047508  -0.000117   0.000015  -0.000145   0.001296
    21  H   -0.026482   0.087769   0.000015  -0.000007   0.000011  -0.000146
    22  H    0.025996  -0.031026  -0.000127   0.000007  -0.000007   0.000016
    23  H   -0.027285  -0.023692   0.000575  -0.000127   0.000015  -0.000119
    24  H    0.008765  -0.050717  -0.001183   0.000682  -0.000167   0.000151
    25  H    0.018674  -0.069143  -0.000659   0.000563  -0.000121   0.000213
              19         20         21         22         23         24
     1  C   -0.046430   0.007180  -0.001286   0.000639   0.005647   0.025898
     2  C   -0.008087   0.001914  -0.000385   0.000352  -0.002610   0.015510
     3  C    0.051786  -0.004928   0.000388  -0.000318   0.001096  -0.001532
     4  C   -0.074287   0.008154   0.000147  -0.001493   0.005633  -0.013263
     5  C   -0.073474   0.453143  -0.065701   0.013370   0.026840  -0.012137
     6  C    0.051803  -0.087439   0.378138  -0.017518  -0.000750  -0.001881
     7  C   -0.008000   0.004449  -0.018154   0.379698  -0.105182   0.014431
     8  C   -0.046482   0.048081  -0.023392  -0.020718   0.363925   0.023349
     9  C    0.074666  -0.025421  -0.005192   0.003331   0.090254   0.364480
    10  C    0.422503   0.016937   0.020083  -0.009425  -0.009684   0.006035
    11  C    0.082564  -0.012486  -0.006117   0.002849   0.001261   0.008050
    12  C   -0.066854  -0.011650   0.005007  -0.008804   0.006508  -0.049143
    13  C    0.082954  -0.013241  -0.026482   0.025996  -0.027285   0.008765
    14  C   -0.067413  -0.047508   0.087769  -0.031026  -0.023692  -0.050717
    15  H    0.000320  -0.000117   0.000015  -0.000127   0.000575  -0.001183
    16  H   -0.000556   0.000015  -0.000007   0.000007  -0.000127   0.000682
    17  H    0.001453  -0.000145   0.000011  -0.000007   0.000015  -0.000167
    18  H   -0.006395   0.001296  -0.000146   0.000016  -0.000119   0.000151
    19  H    0.444581  -0.006364   0.001462  -0.000559   0.000312   0.000617
    20  H   -0.006364   0.453666  -0.010445   0.001933   0.000152   0.000174
    21  H    0.001462  -0.010445   0.423811  -0.006806   0.001523  -0.000177
    22  H   -0.000559   0.001933  -0.006806   0.419774  -0.009005   0.000724
    23  H    0.000312   0.000152   0.001523  -0.009005   0.439707  -0.001318
    24  H    0.000617   0.000174  -0.000177   0.000724  -0.001318   0.492838
    25  H    0.000602   0.000184  -0.000109   0.000523  -0.000517  -0.079162
              25
     1  C    0.037991
     2  C    0.012951
     3  C   -0.001331
     4  C   -0.011952
     5  C   -0.012948
     6  C   -0.000879
     7  C    0.014310
     8  C    0.041469
     9  C    0.350261
    10  C    0.005302
    11  C    0.018537
    12  C   -0.070862
    13  C    0.018674
    14  C   -0.069143
    15  H   -0.000659
    16  H    0.000563
    17  H   -0.000121
    18  H    0.000213
    19  H    0.000602
    20  H    0.000184
    21  H   -0.000109
    22  H    0.000523
    23  H   -0.000517
    24  H   -0.079162
    25  H    0.492796
 Mulliken charges:
               1
     1  C    0.085411
     2  C   -0.399015
     3  C   -0.440564
     4  C    0.028896
     5  C    0.027659
     6  C   -0.441498
     7  C   -0.403075
     8  C    0.083131
     9  C   -0.313147
    10  C    0.093691
    11  C   -0.634468
    12  C    0.665766
    13  C   -0.638387
    14  C    0.669623
    15  H    0.236797
    16  H    0.256735
    17  H    0.246455
    18  H    0.222487
    19  H    0.189277
    20  H    0.222465
    21  H    0.246046
    22  H    0.256593
    23  H    0.236839
    24  H    0.248975
    25  H    0.253308
 Sum of Mulliken charges =   1.00000
 Mulliken charges with hydrogens summed into heavy atoms:
               1
     1  C    0.322208
     2  C   -0.142280
     3  C   -0.194109
     4  C    0.251383
     5  C    0.250124
     6  C   -0.195452
     7  C   -0.146482
     8  C    0.319970
     9  C    0.189136
    10  C    0.282968
    11  C   -0.634468
    12  C    0.665766
    13  C   -0.638387
    14  C    0.669623
 Electronic spatial extent (au):  <R**2>=           2861.8186
 Charge=              1.0000 electrons
 Dipole moment (field-independent basis, Debye):
    X=             -0.0067    Y=              0.1902    Z=              0.0009  Tot=              0.1903
 Quadrupole moment (field-independent basis, Debye-Ang):
   XX=            -30.9858   YY=            -56.2613   ZZ=            -84.1904
   XY=             -0.0038   XZ=             -0.0061   YZ=              0.0732
 Traceless Quadrupole moment (field-independent basis, Debye-Ang):
   XX=             26.1600   YY=              0.8846   ZZ=            -27.0446
   XY=             -0.0038   XZ=             -0.0061   YZ=              0.0732
 Octapole moment (field-independent basis, Debye-Ang**2):
  XXX=             -0.2757  YYY=              5.2079  ZZZ=             -0.0149  XYY=              0.0030
  XXY=             -4.6935  XXZ=              0.1315  XZZ=              0.0327  YZZ=             -3.0866
  YYZ=              0.0774  XYZ=             -0.0309
 Hexadecapole moment (field-independent basis, Debye-Ang**3):
 XXXX=          -2124.8207 YYYY=           -609.2976 ZZZZ=            -99.5047 XXXY=             -0.1554
 XXXZ=             -0.1750 YYYX=              0.0641 YYYZ=              0.8204 ZZZX=             -0.0083
 ZZZY=              0.0252 XXYY=           -508.7489 XXZZ=           -592.3992 YYZZ=           -145.7678
 XXYZ=              0.7775 YYXZ=             -0.0001 ZZXY=             -0.0032
 N-N= 7.804964713894D+02 E-N=-2.797295049855D+03  KE= 5.374621095386D+02
 Unable to Open any file for archive entry.
 1\1\GINC-GADI-CPU-CLX-0113\SP\RM062X TD-FC\6-311++G(d,p)\C14H11(1+)\TS
 1578\28-Jul-2022\0\\#n M062X/6-311++G(d,p) TD(NStates=1) EmpiricalDisp
 ersion=GD3 SP\\SP_-100\\1,1\C,0,0.0079,2.492955,1.360431\C,0,0.01115,3
 .707233,0.671989\C,0,0.0027,3.694411,-0.71383\C,0,-0.011825,2.470231,-
 1.407538\C,0,-0.011575,-2.469731,-1.407538\C,0,0.0042,-3.691911,-0.713
 83\C,0,0.013525,-3.706358,0.671989\C,0,0.01265,-2.491455,1.360431\C,0,
 0.006625,-0.0055,1.453369\C,0,-0.0183,0.00025,-1.429189\C,0,-0.002925,
 1.256255,0.677065\C,0,-0.007,1.237996,-0.730804\C,0,-0.00255,-1.25638,
 0.677065\C,0,-0.008,-1.238746,-0.730804\H,0,0.0004,2.488546,2.443647\H
 ,0,0.01105,4.642003,1.211689\H,0,-0.00255,4.610487,-1.272349\H,0,-0.00
 51,2.474375,-2.490059\H,0,-0.016875,0.000125,-2.510266\H,0,-0.00585,-2
 .474,-2.490059\H,0,-0.0018,-4.607362,-1.272349\H,0,0.013925,-4.640128,
 1.211689\H,0,0.0059,-2.486921,2.443647\H,0,-0.835585,-0.00125,2.147162
 \H,0,0.883585,-0.00125,2.144412\\Version=ES64L-G16RevC.01\State=1-A\HF
 =-539.7592991\RMSD=4.536e-09\PG=C01 [X(C14H11)]\\@
 The archive entry for this job was punched.


 AND ALL THIS SCIENCE I DON'T UNDERSTAND
 IT'S JUST MY JOB FIVE DAYS A WEEK

                           -- ELTON JOHN, "ROCKET MAN"
 Job cpu time:       0 days  1 hours 19 minutes 22.3 seconds.
 Elapsed time:       0 days  0 hours  1 minutes 39.3 seconds.
 File lengths (MBytes):  RWF=    460 Int=      0 D2E=      0 Chk=     15 Scr=      1
 Normal termination of Gaussian 16 at Thu Jul 28 13:42:32 2022.
