 Entering Gaussian System, Link 0=g16
 Initial command:
 /apps/gaussian/g16c01/g16/l1.exe "/jobfs/53002009.gadi-pbs/Gau-790687.inp" -scrdir="/jobfs/53002009.gadi-pbs/"
 Entering Link 1 = /apps/gaussian/g16c01/g16/l1.exe PID=    790688.
  
 Copyright (c) 1988-2019, Gaussian, Inc.  All Rights Reserved.
  
 This is part of the Gaussian(R) 16 program.  It is based on
 the Gaussian(R) 09 system (copyright 2009, Gaussian, Inc.),
 the Gaussian(R) 03 system (copyright 2003, Gaussian, Inc.),
 the Gaussian(R) 98 system (copyright 1998, Gaussian, Inc.),
 the Gaussian(R) 94 system (copyright 1995, Gaussian, Inc.),
 the Gaussian 92(TM) system (copyright 1992, Gaussian, Inc.),
 the Gaussian 90(TM) system (copyright 1990, Gaussian, Inc.),
 the Gaussian 88(TM) system (copyright 1988, Gaussian, Inc.),
 the Gaussian 86(TM) system (copyright 1986, Carnegie Mellon
 University), and the Gaussian 82(TM) system (copyright 1983,
 Carnegie Mellon University). Gaussian is a federally registered
 trademark of Gaussian, Inc.
  
 This software contains proprietary and confidential information,
 including trade secrets, belonging to Gaussian, Inc.
  
 This software is provided under written license and may be
 used, copied, transmitted, or stored only in accord with that
 written license.
  
 The following legend is applicable only to US Government
 contracts under FAR:
  
                    RESTRICTED RIGHTS LEGEND
  
 Use, reproduction and disclosure by the US Government is
 subject to restrictions as set forth in subparagraphs (a)
 and (c) of the Commercial Computer Software - Restricted
 Rights clause in FAR 52.227-19.
  
 Gaussian, Inc.
 340 Quinnipiac St., Bldg. 40, Wallingford CT 06492
  
  
 ---------------------------------------------------------------
 Warning -- This program may not be used in any manner that
 competes with the business of Gaussian, Inc. or will provide
 assistance to any competitor of Gaussian, Inc.  The licensee
 of this program is prohibited from giving any competitor of
 Gaussian, Inc. access to this program.  By using this program,
 the user acknowledges that Gaussian, Inc. is engaged in the
 business of creating and licensing software in the field of
 computational chemistry and represents and warrants to the
 licensee that it is not a competitor of Gaussian, Inc. and that
 it will not use this program in any manner prohibited above.
 ---------------------------------------------------------------
  

 Cite this work as:
 Gaussian 16, Revision C.01,
 M. J. Frisch, G. W. Trucks, H. B. Schlegel, G. E. Scuseria, 
 M. A. Robb, J. R. Cheeseman, G. Scalmani, V. Barone, 
 G. A. Petersson, H. Nakatsuji, X. Li, M. Caricato, A. V. Marenich, 
 J. Bloino, B. G. Janesko, R. Gomperts, B. Mennucci, H. P. Hratchian, 
 J. V. Ortiz, A. F. Izmaylov, J. L. Sonnenberg, D. Williams-Young, 
 F. Ding, F. Lipparini, F. Egidi, J. Goings, B. Peng, A. Petrone, 
 T. Henderson, D. Ranasinghe, V. G. Zakrzewski, J. Gao, N. Rega, 
 G. Zheng, W. Liang, M. Hada, M. Ehara, K. Toyota, R. Fukuda, 
 J. Hasegawa, M. Ishida, T. Nakajima, Y. Honda, O. Kitao, H. Nakai, 
 T. Vreven, K. Throssell, J. A. Montgomery, Jr., J. E. Peralta, 
 F. Ogliaro, M. J. Bearpark, J. J. Heyd, E. N. Brothers, K. N. Kudin, 
 V. N. Staroverov, T. A. Keith, R. Kobayashi, J. Normand, 
 K. Raghavachari, A. P. Rendell, J. C. Burant, S. S. Iyengar, 
 J. Tomasi, M. Cossi, J. M. Millam, M. Klene, C. Adamo, R. Cammi, 
 J. W. Ochterski, R. L. Martin, K. Morokuma, O. Farkas, 
 J. B. Foresman, and D. J. Fox, Gaussian, Inc., Wallingford CT, 2019.
 
 ******************************************
 Gaussian 16:  ES64L-G16RevC.01  3-Jul-2019
                28-Jul-2022 
 ******************************************
 %NProcShared=48
 Will use up to   48 processors via shared memory.
 %mem = 190GB
 ---------------------------------------------------------------
 #n M062X/6-311++G(d,p) TD(NStates=1) EmpiricalDispersion=GD3 SP
 ---------------------------------------------------------------
 1/38=1,172=1/1;
 2/12=2,17=6,18=5,40=1/2;
 3/5=4,6=6,7=1111,11=9,25=1,30=1,74=-55,124=31/1,2,3,8;
 4//1;
 5/5=2,38=5/2;
 8/6=1,10=2,108=1/1;
 9/41=1,42=1,70=2/14;
 6/7=2,8=2,9=2,10=2/1;
 99/5=1,9=1/99;
 ------
 SP_100
 ------
 Symbolic Z-matrix:
 Charge =  1 Multiplicity = 1
 C                    -0.0313    2.49416   1.36043 
 C                    -0.03725   3.68573   0.67199 
 C                    -0.0105    3.65621  -0.71383 
 C                     0.03507   2.44273  -1.40754 
 C                     0.03512  -2.44263  -1.40754 
 C                    -0.0102   -3.65571  -0.71383 
 C                    -0.03678  -3.68556   0.67199 
 C                    -0.03035  -2.49386   1.36043 
 C                    -0.01968  -0.0011    1.45337 
 C                     0.0549    0.00005  -1.42919 
 C                     0.00818   1.27926   0.67707 
 C                     0.0226    1.2347   -0.7308 
 C                     0.00825  -1.27928   0.67707 
 C                     0.0224   -1.23485  -0.7308 
 H                    -0.01      2.48925   2.44365 
 H                    -0.03775   4.624     1.21169 
 H                     0.00645   4.61059  -1.27235 
 H                     0.0165    2.44768  -2.49006 
 H                     0.05063   0.00003  -2.51027 
 H                     0.01635  -2.4476   -2.49006 
 H                     0.0066   -4.60996  -1.27235 
 H                    -0.03718  -4.62363   1.21169 
 H                    -0.0089   -2.48892   2.44365 
 H                    -0.93159  -0.00025   2.14606 
 H                     0.78759  -0.00025   2.14551 
 
                          Input orientation:                          
 ---------------------------------------------------------------------
 Center     Atomic      Atomic             Coordinates (Angstroms)
 Number     Number       Type             X           Y           Z
 ---------------------------------------------------------------------
      1          6           0       -0.031300    2.494155    1.360431
      2          6           0       -0.037250    3.685733    0.671989
      3          6           0       -0.010500    3.656211   -0.713830
      4          6           0        0.035075    2.442731   -1.407538
      5          6           0        0.035125   -2.442631   -1.407538
      6          6           0       -0.010200   -3.655711   -0.713830
      7          6           0       -0.036775   -3.685558    0.671989
      8          6           0       -0.030350   -2.493855    1.360431
      9          6           0       -0.019675   -0.001100    1.453369
     10          6           0        0.054900    0.000050   -1.429189
     11          6           0        0.008175    1.279255    0.677065
     12          6           0        0.022600    1.234696   -0.730804
     13          6           0        0.008250   -1.279280    0.677065
     14          6           0        0.022400   -1.234846   -0.730804
     15          1           0       -0.010000    2.489246    2.443647
     16          1           0       -0.037750    4.624003    1.211689
     17          1           0        0.006450    4.610587   -1.272349
     18          1           0        0.016500    2.447675   -2.490059
     19          1           0        0.050625    0.000025   -2.510266
     20          1           0        0.016350   -2.447600   -2.490059
     21          1           0        0.006600   -4.609962   -1.272349
     22          1           0       -0.037175   -4.623628    1.211689
     23          1           0       -0.008900   -2.488921    2.443647
     24          1           0       -0.931585   -0.000250    2.146062
     25          1           0        0.787585   -0.000250    2.145512
 ---------------------------------------------------------------------
                    Distance matrix (angstroms):
                    1          2          3          4          5
     1  C    0.000000
     2  C    1.376171   0.000000
     3  C    2.377681   1.386392   0.000000
     4  C    2.769242   2.423782   1.398514   0.000000
     5  C    5.660205   6.471979   6.138337   4.885362   0.000000
     6  C    6.490289   7.471146   7.311922   6.137937   1.398159
     7  C    6.217945   7.371291   7.471463   6.471902   2.423731
     8  C    4.988010   6.217822   6.490475   5.660019   2.769217
     9  C    2.497012   3.768767   4.251207   3.762990   3.761498
    10  C    3.742989   4.243548   3.726061   2.442857   2.442857
    11  C    1.394464   2.406912   2.754062   2.387461   4.265997
    12  C    2.441804   2.824711   2.421801   1.384729   3.739099
    13  C    3.835018   4.965224   5.127769   4.266105   2.387400
    14  C    4.275698   5.116980   4.891197   3.739345   1.384513
    15  H    1.083437   2.138012   3.366225   3.851730   6.257561
    16  H    2.135045   1.082417   2.155223   3.409340   7.536775
    17  H    3.378201   2.153535   1.105922   2.172256   7.054572
    18  H    3.851067   3.396207   2.148552   1.082692   5.008722
    19  H    4.605398   4.870207   4.074140   2.680124   2.680078
    20  H    6.264941   6.900666   6.357061   5.008746   1.082695
    21  H    7.576374   8.520618   8.285038   7.054046   2.171731
    22  H    7.119339   8.326870   8.500828   7.536511   3.409153
    23  H    5.099500   6.423856   6.908857   6.257376   3.851715
    24  H    2.765825   4.069299   4.732556   4.419351   4.419030
    25  H    2.740252   4.054392   4.709828   4.377053   4.376709
                    6          7          8          9         10
     6  C    0.000000
     7  C    1.386395   0.000000
     8  C    2.377577   1.376281   0.000000
     9  C    4.248885   3.766441   2.494510   0.000000
    10  C    3.725663   4.243473   3.742834   2.883523   0.000000
    11  C    5.127262   4.965019   3.834688   1.497576   2.464722
    12  C    4.890546   5.116664   4.275296   2.509899   1.418850
    13  C    2.753607   2.406705   1.394156   1.495718   2.464785
    14  C    2.421144   2.824415   2.441547   2.508886   1.419072
    15  H    6.908702   6.423994   5.099516   2.680031   4.604255
    16  H    8.500709   8.327069   7.119416   4.631448   5.325764
    17  H    8.285162   8.521053   7.576673   5.357040   4.613458
    18  H    6.356652   6.900575   6.264758   4.642029   2.667918
    19  H    4.073731   4.870103   4.605246   3.964259   1.081085
    20  H    2.148308   3.396161   3.851051   4.640828   2.667943
    21  H    1.105812   2.153336   3.377988   5.354609   4.612932
    22  H    2.155276   1.082244   2.134972   4.628875   5.325515
    23  H    3.366164   2.138104   1.083440   2.677689   4.604118
    24  H    4.731842   4.068792   2.765413   1.145166   3.708851
    25  H    4.709001   4.053682   2.739240   1.063359   3.649016
                   11         12         13         14         15
    11  C    0.000000
    12  C    1.408648   0.000000
    13  C    2.558535   2.881384   0.000000
    14  C    2.881493   2.469542   1.408641   0.000000
    15  H    2.141313   3.413517   4.162083   4.893572   0.000000
    16  H    3.387517   3.906958   5.927621   6.172763   2.464889
    17  H    3.859792   3.419089   6.204092   5.870487   4.278900
    18  H    3.375789   2.136898   4.890903   4.081173   4.933952
    19  H    3.434721   2.166029   3.434748   2.166146   5.544470
    20  H    4.890827   4.080971   3.375753   2.136770   6.979584
    21  H    6.203474   5.869715   3.859231   3.418322   8.012968
    22  H    5.927217   6.172262   3.387115   3.906491   7.218825
    23  H    4.161761   4.893205   2.141107   3.413330   4.978167
    24  H    2.162923   3.272907   2.162674   3.272716   2.671229
    25  H    2.097844   3.222342   2.097526   3.222255   2.631087
                   16         17         18         19         20
    16  H    0.000000
    17  H    2.484467   0.000000
    18  H    4.294448   2.482158   0.000000
    19  H    5.936492   4.774062   2.447971   0.000000
    20  H    7.982070   7.162466   4.895275   2.447948   0.000000
    21  H    9.562349   9.220549   7.161924   4.773506   2.481677
    22  H    9.247631   9.562587   7.981801   5.936230   4.294287
    23  H    7.218881   8.013231   6.979404   5.544335   4.933944
    24  H    4.801636   5.815949   5.327741   4.758795   5.327450
    25  H    4.789250   5.792388   5.298625   4.713744   5.298381
                   21         22         23         24         25
    21  H    0.000000
    22  H    2.484461   0.000000
    23  H    4.278748   2.464852   0.000000
    24  H    5.815081   4.800901   2.670840   0.000000
    25  H    5.791473   4.788306   2.629973   1.719170   0.000000
 Stoichiometry    C14H11(1+)
 Framework group  C1[X(C14H11)]
 Deg. of freedom    69
 Full point group                 C1      NOp   1
 Largest Abelian subgroup         C1      NOp   1
 Largest concise Abelian subgroup C1      NOp   1
                         Standard orientation:                         
 ---------------------------------------------------------------------
 Center     Atomic      Atomic             Coordinates (Angstroms)
 Number     Number       Type             X           Y           Z
 ---------------------------------------------------------------------
      1          6           0        2.494128   -1.360817    0.003377
      2          6           0        3.685721   -0.672651    0.022888
      3          6           0        3.656226    0.713426    0.023589
      4          6           0        2.442758    1.407925   -0.008166
      5          6           0       -2.442604    1.408022   -0.007922
      6          6           0       -3.655696    0.713577    0.023729
      7          6           0       -3.685570   -0.672496    0.022856
      8          6           0       -2.493882   -1.360700    0.002727
      9          6           0       -0.001130   -1.453457   -0.009937
     10          6           0        0.000076    1.430012   -0.027412
     11          6           0        1.279240   -0.676779   -0.022484
     12          6           0        1.234710    0.731100   -0.009023
     13          6           0       -1.279295   -0.676727   -0.022406
     14          6           0       -1.234832    0.731145   -0.008674
     15          1           0        2.489195   -2.443399   -0.039371
     16          1           0        4.623980   -1.212274    0.012643
     17          1           0        4.610613    1.272152    0.017646
     18          1           0        2.447726    2.489865    0.031843
     19          1           0        0.000074    2.510793   -0.001728
     20          1           0       -2.447549    2.489959    0.032287
     21          1           0       -4.609936    1.272338    0.018050
     22          1           0       -4.623651   -1.212080    0.012624
     23          1           0       -2.488972   -2.443278   -0.040171
     24          1           0       -0.000240   -2.164074    0.888077
     25          1           0       -0.000342   -2.129478   -0.830745
 ---------------------------------------------------------------------
 Rotational constants (GHZ):           2.1347915           0.4483494           0.3713736
 Standard basis: 6-311++G(d,p) (5D, 7F)
 There are   399 symmetry adapted cartesian basis functions of A   symmetry.
 There are   385 symmetry adapted basis functions of A   symmetry.
   385 basis functions,   603 primitive gaussians,   399 cartesian basis functions
    47 alpha electrons       47 beta electrons
       nuclear repulsion energy       783.1988505374 Hartrees.
 NAtoms=   25 NActive=   25 NUniq=   25 SFac= 1.00D+00 NAtFMM=   60 NAOKFM=F Big=F
 Integral buffers will be    131072 words long.
 Regular integral format.
 Two-electron integral symmetry is turned on.
 Nuclear repulsion after empirical dispersion term =      783.1978716232 Hartrees.
 One-electron integrals computed using PRISM.
 NBasis=   385 RedAO= T EigKep=  1.42D-06  NBF=   385
 NBsUse=   379 1.00D-06 EigRej=  8.21D-07 NBFU=   379
 ExpMin= 3.60D-02 ExpMax= 4.56D+03 ExpMxC= 6.82D+02 IAcc=3 IRadAn=         5 AccDes= 0.00D+00
 Harris functional with IExCor= 1009 and IRadAn=       5 diagonalized for initial guess.
 HarFok:  IExCor= 1009 AccDes= 0.00D+00 IRadAn=         5 IDoV= 1 UseB2=F ITyADJ=14
 ICtDFT=  3500011 ScaDFX=  1.000000  1.000000  1.000000  1.000000
 FoFCou: FMM=F IPFlag=           0 FMFlag=      100000 FMFlg1=           0
         NFxFlg=           0 DoJE=T BraDBF=F KetDBF=T FulRan=T
         wScrn=  0.000000 ICntrl=       500 IOpCl=  0 I1Cent=   200000004 NGrid=           0
         NMat0=    1 NMatS0=      1 NMatT0=    0 NMatD0=    1 NMtDS0=    0 NMtDT0=    0
 Petite list used in FoFCou.
 Requested convergence on RMS density matrix=1.00D-08 within 128 cycles.
 Requested convergence on MAX density matrix=1.00D-06.
 Requested convergence on             energy=1.00D-06.
 No special actions if energy rises.
 SCF Done:  E(RM062X) =  -539.755581887     A.U. after   15 cycles
            NFock= 15  Conv=0.59D-08     -V/T= 2.0039
 DoSCS=F DFT=T ScalE2(SS,OS)=  1.000000  1.000000
 ExpMin= 3.60D-02 ExpMax= 4.56D+03 ExpMxC= 6.82D+02 IAcc=3 IRadAn=         5 AccDes= 0.00D+00
 HarFok:  IExCor=  205 AccDes= 0.00D+00 IRadAn=         5 IDoV=-2 UseB2=F ITyADJ=14
 ICtDFT= 12500011 ScaDFX=  1.000000  1.000000  1.000000  1.000000
 Range of M.O.s used for correlation:    15   379
 NBasis=   385 NAE=    47 NBE=    47 NFC=    14 NFV=     0
 NROrb=    365 NOA=    33 NOB=    33 NVA=   332 NVB=   332

 **** Warning!!: The largest alpha MO coefficient is  0.14322292D+03

 Orbital symmetries:
       Occupied  (A) (A) (A) (A) (A) (A) (A) (A) (A) (A) (A) (A)
                 (A) (A) (A) (A) (A) (A) (A) (A) (A) (A) (A) (A)
                 (A) (A) (A) (A) (A) (A) (A) (A) (A) (A) (A) (A)
                 (A) (A) (A) (A) (A) (A) (A) (A) (A) (A) (A)
       Virtual   (A) (A) (A) (A) (A) (A) (A) (A) (A) (A) (A) (A)
                 (A) (A) (A) (A) (A) (A) (A) (A) (A) (A) (A) (A)
                 (A) (A) (A) (A) (A) (A) (A) (A) (A) (A) (A) (A)
                 (A) (A) (A) (A) (A) (A) (A) (A) (A) (A) (A) (A)
                 (A) (A) (A) (A) (A) (A) (A) (A) (A) (A) (A) (A)
                 (A) (A) (A) (A) (A) (A) (A) (A) (A) (A) (A) (A)
                 (A) (A) (A) (A) (A) (A) (A) (A) (A) (A) (A) (A)
                 (A) (A) (A) (A) (A) (A) (A) (A) (A) (A) (A) (A)
                 (A) (A) (A) (A) (A) (A) (A) (A) (A) (A) (A) (A)
                 (A) (A) (A) (A) (A) (A) (A) (A) (A) (A) (A) (A)
                 (A) (A) (A) (A) (A) (A) (A) (A) (A) (A) (A) (A)
                 (A) (A) (A) (A) (A) (A) (A) (A) (A) (A) (A) (A)
                 (A) (A) (A) (A) (A) (A) (A) (A) (A) (A) (A) (A)
                 (A) (A) (A) (A) (A) (A) (A) (A) (A) (A) (A) (A)
                 (A) (A) (A) (A) (A) (A) (A) (A) (A) (A) (A) (A)
                 (A) (A) (A) (A) (A) (A) (A) (A) (A) (A) (A) (A)
                 (A) (A) (A) (A) (A) (A) (A) (A) (A) (A) (A) (A)
                 (A) (A) (A) (A) (A) (A) (A) (A) (A) (A) (A) (A)
                 (A) (A) (A) (A) (A) (A) (A) (A) (A) (A) (A) (A)
                 (A) (A) (A) (A) (A) (A) (A) (A) (A) (A) (A) (A)
                 (A) (A) (A) (A) (A) (A) (A) (A) (A) (A) (A) (A)
                 (A) (A) (A) (A) (A) (A) (A) (A) (A) (A) (A) (A)
                 (A) (A) (A) (A) (A) (A) (A) (A) (A) (A) (A) (A)
                 (A) (A) (A) (A) (A) (A) (A) (A) (A) (A) (A) (A)
                 (A) (A) (A) (A) (A) (A) (A) (A) (A) (A) (A) (A)
                 (A) (A) (A) (A) (A) (A) (A) (A) (A) (A) (A) (A)
                 (A) (A) (A) (A) (A) (A) (A) (A) (A) (A) (A) (A)
                 (A) (A) (A) (A) (A) (A) (A) (A)
     4 initial guesses have been made.
 Convergence on wavefunction:    0.001000000000000
 Iteration     1 Dimension     4 NMult     0 NNew      4
 CISAX will form     4 AO SS matrices at one time.
 Iteration     2 Dimension     6 NMult     4 NNew      2
 Iteration     3 Dimension     8 NMult     6 NNew      2
 Iteration     4 Dimension    10 NMult     8 NNew      2
 Iteration     5 Dimension    12 NMult    10 NNew      2
 Iteration     6 Dimension    14 NMult    12 NNew      2
 ***********************************************************************
 Excited states from <AA,BB:AA,BB> singles matrix:
 ***********************************************************************
 
 Ground to excited state transition densities written to RWF  633
 Ground to excited state transition electric dipole moments (Au):
       state          X           Y           Z        Dip. S.      Osc.
         1        -0.0013     -0.6583      0.0095      0.4334      0.0302
 Ground to excited state transition velocity dipole moments (Au):
       state          X           Y           Z        Dip. S.      Osc.
         1         0.0001      0.0761     -0.0012      0.0058      0.0369
 Ground to excited state transition magnetic dipole moments (Au):
       state          X           Y           Z
         1        -0.0128      0.0001      0.0001
 Ground to excited state transition velocity quadrupole moments (Au):
       state          XX          YY          ZZ          XY          XZ          YZ
         1         0.2684      0.0397     -0.0101      0.0002     -0.0000      0.0015
 <0|del|b> * <b|rxdel|0> + <0|del|b> * <b|delr+rdel|0>
 Rotatory Strengths (R) in cgs (10**-40 erg-esu-cm/Gauss)
       state          XX          YY          ZZ    R(velocity)    E-M Angle
         1         0.0438     -0.0049      0.0197      0.0195       90.00
 1/2[<0|r|b>*<b|rxdel|0> + (<0|rxdel|b>*<b|r|0>)*]
 Rotatory Strengths (R) in cgs (10**-40 erg-esu-cm/Gauss)
       state          XX          YY          ZZ     R(length)
         1        -0.0117      0.0649     -0.0009      0.0174
  1/2[<0|del|b>*<b|r|0> + (<0|r|b>*<b|del|0>)*] (Au)
       state          X           Y           Z        Dip. S.   Osc.(frdel)
         1        -0.0000     -0.0501     -0.0000      0.0501      0.0334

 Excitation energies and oscillator strengths:
 
 Excited State   1:      Singlet-A      2.8487 eV  435.23 nm  f=0.0302  <S**2>=0.000
      47 -> 48         0.70421
 This state for optimization and/or second-order correction.
 Total Energy, E(TD-HF/TD-DFT) =  -539.650892861    
 Copying the excited state density for this state as the 1-particle RhoCI density.
 SavETr:  write IOETrn=   770 NScale= 10 NData=  16 NLR=1 NState=    1 LETran=      28.

 **********************************************************************

            Population analysis using the SCF Density.

 **********************************************************************

 Orbital symmetries:
       Occupied  (A) (A) (A) (A) (A) (A) (A) (A) (A) (A) (A) (A)
                 (A) (A) (A) (A) (A) (A) (A) (A) (A) (A) (A) (A)
                 (A) (A) (A) (A) (A) (A) (A) (A) (A) (A) (A) (A)
                 (A) (A) (A) (A) (A) (A) (A) (A) (A) (A) (A)
       Virtual   (A) (A) (A) (A) (A) (A) (A) (A) (A) (A) (A) (A)
                 (A) (A) (A) (A) (A) (A) (A) (A) (A) (A) (A) (A)
                 (A) (A) (A) (A) (A) (A) (A) (A) (A) (A) (A) (A)
                 (A) (A) (A) (A) (A) (A) (A) (A) (A) (A) (A) (A)
                 (A) (A) (A) (A) (A) (A) (A) (A) (A) (A) (A) (A)
                 (A) (A) (A) (A) (A) (A) (A) (A) (A) (A) (A) (A)
                 (A) (A) (A) (A) (A) (A) (A) (A) (A) (A) (A) (A)
                 (A) (A) (A) (A) (A) (A) (A) (A) (A) (A) (A) (A)
                 (A) (A) (A) (A) (A) (A) (A) (A) (A) (A) (A) (A)
                 (A) (A) (A) (A) (A) (A) (A) (A) (A) (A) (A) (A)
                 (A) (A) (A) (A) (A) (A) (A) (A) (A) (A) (A) (A)
                 (A) (A) (A) (A) (A) (A) (A) (A) (A) (A) (A) (A)
                 (A) (A) (A) (A) (A) (A) (A) (A) (A) (A) (A) (A)
                 (A) (A) (A) (A) (A) (A) (A) (A) (A) (A) (A) (A)
                 (A) (A) (A) (A) (A) (A) (A) (A) (A) (A) (A) (A)
                 (A) (A) (A) (A) (A) (A) (A) (A) (A) (A) (A) (A)
                 (A) (A) (A) (A) (A) (A) (A) (A) (A) (A) (A) (A)
                 (A) (A) (A) (A) (A) (A) (A) (A) (A) (A) (A) (A)
                 (A) (A) (A) (A) (A) (A) (A) (A) (A) (A) (A) (A)
                 (A) (A) (A) (A) (A) (A) (A) (A) (A) (A) (A) (A)
                 (A) (A) (A) (A) (A) (A) (A) (A) (A) (A) (A) (A)
                 (A) (A) (A) (A) (A) (A) (A) (A) (A) (A) (A) (A)
                 (A) (A) (A) (A) (A) (A) (A) (A) (A) (A) (A) (A)
                 (A) (A) (A) (A) (A) (A) (A) (A) (A) (A) (A) (A)
                 (A) (A) (A) (A) (A) (A) (A) (A) (A) (A) (A) (A)
                 (A) (A) (A) (A) (A) (A) (A) (A) (A) (A) (A) (A)
                 (A) (A) (A) (A) (A) (A) (A) (A) (A) (A) (A) (A)
                 (A) (A) (A) (A) (A) (A) (A) (A)
 The electronic state is 1-A.
 Alpha  occ. eigenvalues --  -10.77692 -10.73188 -10.73174 -10.72259 -10.72258
 Alpha  occ. eigenvalues --  -10.71142 -10.71135 -10.70965 -10.70871 -10.70868
 Alpha  occ. eigenvalues --  -10.69736 -10.69730 -10.69723 -10.69717  -1.16604
 Alpha  occ. eigenvalues --   -1.12936  -1.07211  -1.05568  -1.01810  -1.00077
 Alpha  occ. eigenvalues --   -0.95963  -0.91005  -0.86454  -0.85990  -0.83832
 Alpha  occ. eigenvalues --   -0.78460  -0.76040  -0.74510  -0.69574  -0.69244
 Alpha  occ. eigenvalues --   -0.68537  -0.67996  -0.67754  -0.65094  -0.64590
 Alpha  occ. eigenvalues --   -0.62709  -0.61555  -0.60105  -0.60014  -0.58950
 Alpha  occ. eigenvalues --   -0.56858  -0.55088  -0.54639  -0.52625  -0.46993
 Alpha  occ. eigenvalues --   -0.45992  -0.44682
 Alpha virt. eigenvalues --   -0.26148  -0.14475  -0.14048  -0.12520  -0.11186
 Alpha virt. eigenvalues --   -0.10105  -0.09266  -0.08092  -0.07928  -0.07489
 Alpha virt. eigenvalues --   -0.07235  -0.07089  -0.05636  -0.05582  -0.05296
 Alpha virt. eigenvalues --   -0.03897  -0.03798  -0.03280  -0.03123  -0.02158
 Alpha virt. eigenvalues --   -0.01401  -0.01002   0.00200   0.00488   0.00685
 Alpha virt. eigenvalues --    0.01072   0.01510   0.01949   0.02242   0.02280
 Alpha virt. eigenvalues --    0.02455   0.02720   0.02961   0.03126   0.03295
 Alpha virt. eigenvalues --    0.04223   0.04515   0.04719   0.05155   0.05404
 Alpha virt. eigenvalues --    0.05861   0.06322   0.06641   0.07014   0.07263
 Alpha virt. eigenvalues --    0.07915   0.08316   0.08338   0.08627   0.08923
 Alpha virt. eigenvalues --    0.09519   0.09583   0.10017   0.10835   0.11062
 Alpha virt. eigenvalues --    0.11179   0.12185   0.12194   0.12880   0.12989
 Alpha virt. eigenvalues --    0.13398   0.13443   0.14006   0.14583   0.15672
 Alpha virt. eigenvalues --    0.16143   0.16762   0.17097   0.17295   0.17737
 Alpha virt. eigenvalues --    0.18114   0.19239   0.19366   0.19665   0.19731
 Alpha virt. eigenvalues --    0.21549   0.21725   0.22666   0.23003   0.23572
 Alpha virt. eigenvalues --    0.23807   0.24609   0.24677   0.26801   0.27788
 Alpha virt. eigenvalues --    0.28809   0.29228   0.29755   0.31435   0.35753
 Alpha virt. eigenvalues --    0.36707   0.37936   0.39463   0.41036   0.41304
 Alpha virt. eigenvalues --    0.41944   0.42035   0.42945   0.43953   0.43985
 Alpha virt. eigenvalues --    0.44124   0.45370   0.45621   0.46263   0.47811
 Alpha virt. eigenvalues --    0.48425   0.48872   0.48981   0.50344   0.51082
 Alpha virt. eigenvalues --    0.51594   0.51822   0.52234   0.53470   0.53858
 Alpha virt. eigenvalues --    0.53924   0.54849   0.55775   0.55861   0.57120
 Alpha virt. eigenvalues --    0.58264   0.58787   0.61460   0.62048   0.62252
 Alpha virt. eigenvalues --    0.63056   0.63614   0.63716   0.65241   0.66267
 Alpha virt. eigenvalues --    0.70242   0.70762   0.70906   0.72238   0.72655
 Alpha virt. eigenvalues --    0.75397   0.75618   0.76021   0.76266   0.76606
 Alpha virt. eigenvalues --    0.77383   0.77742   0.78281   0.80247   0.80753
 Alpha virt. eigenvalues --    0.81052   0.82055   0.82190   0.83059   0.84461
 Alpha virt. eigenvalues --    0.86634   0.86781   0.87756   0.89505   0.90433
 Alpha virt. eigenvalues --    0.91316   0.91578   0.93862   0.95048   0.95976
 Alpha virt. eigenvalues --    0.96872   1.00223   1.01334   1.02053   1.02736
 Alpha virt. eigenvalues --    1.03593   1.04271   1.04554   1.06181   1.09433
 Alpha virt. eigenvalues --    1.19112   1.23262   1.24099   1.25612   1.28317
 Alpha virt. eigenvalues --    1.30311   1.31006   1.34691   1.35849   1.36487
 Alpha virt. eigenvalues --    1.39420   1.40033   1.40858   1.43590   1.43729
 Alpha virt. eigenvalues --    1.43915   1.45098   1.45575   1.46644   1.46669
 Alpha virt. eigenvalues --    1.48109   1.48832   1.51730   1.53902   1.55929
 Alpha virt. eigenvalues --    1.56229   1.56646   1.57113   1.58143   1.61885
 Alpha virt. eigenvalues --    1.62846   1.62998   1.63081   1.66311   1.67944
 Alpha virt. eigenvalues --    1.68653   1.68885   1.69672   1.74924   1.76000
 Alpha virt. eigenvalues --    1.77238   1.78027   1.79633   1.80817   1.81607
 Alpha virt. eigenvalues --    1.82893   1.82913   1.83511   1.84015   1.84432
 Alpha virt. eigenvalues --    1.84617   1.86291   1.86504   1.88531   1.91197
 Alpha virt. eigenvalues --    1.92092   1.94001   1.95207   1.98310   1.99024
 Alpha virt. eigenvalues --    2.00628   2.02074   2.04802   2.06530   2.12120
 Alpha virt. eigenvalues --    2.12160   2.13633   2.15358   2.20459   2.20898
 Alpha virt. eigenvalues --    2.23333   2.29215   2.30578   2.34079   2.35822
 Alpha virt. eigenvalues --    2.36092   2.37454   2.37783   2.40031   2.42265
 Alpha virt. eigenvalues --    2.47066   2.49542   2.50690   2.53253   2.53667
 Alpha virt. eigenvalues --    2.53835   2.56522   2.58196   2.58752   2.60035
 Alpha virt. eigenvalues --    2.60210   2.61399   2.62196   2.63100   2.63995
 Alpha virt. eigenvalues --    2.64572   2.64827   2.65337   2.65568   2.67812
 Alpha virt. eigenvalues --    2.67967   2.71196   2.71343   2.73759   2.74847
 Alpha virt. eigenvalues --    2.76659   2.79367   2.80207   2.83381   2.84036
 Alpha virt. eigenvalues --    2.85892   2.86717   2.92319   2.95853   3.00214
 Alpha virt. eigenvalues --    3.00803   3.03808   3.12295   3.12667   3.14659
 Alpha virt. eigenvalues --    3.20454   3.22790   3.27922   3.28753   3.31558
 Alpha virt. eigenvalues --    3.33262   3.34258   3.43626   3.46172   3.48695
 Alpha virt. eigenvalues --    3.49854   3.51480   3.56718   3.63998   3.67749
 Alpha virt. eigenvalues --    3.68245   3.91587   3.92399   3.94708   3.96137
 Alpha virt. eigenvalues --    4.02708   4.07019   4.07602   4.12386   4.34903
 Alpha virt. eigenvalues --    4.60329   4.70752   4.72681  23.44879  23.58865
 Alpha virt. eigenvalues --   23.82752  23.84833  23.88013  23.90558  23.90852
 Alpha virt. eigenvalues --   23.92696  23.98989  24.01295  24.03525  24.03621
 Alpha virt. eigenvalues --   24.12859  24.12906
          Condensed to atoms (all electrons):
               1          2          3          4          5          6
     1  C    8.426143   0.608358  -0.612393   1.491329   0.010462  -0.093013
     2  C    0.608358   6.916128   0.388594  -0.702462  -0.077697  -0.019807
     3  C   -0.612393   0.388594   6.669228   0.622995  -0.103344   0.019255
     4  C    1.491329  -0.702462   0.622995   9.839328  -0.041813  -0.103966
     5  C    0.010462  -0.077697  -0.103344  -0.041813   9.823571   0.624566
     6  C   -0.093013  -0.019807   0.019255  -0.103966   0.624566   6.671044
     7  C   -0.029661   0.014194  -0.019774  -0.077557  -0.702210   0.389018
     8  C    0.412619  -0.029932  -0.093090   0.011819   1.487764  -0.610528
     9  C   -1.566214  -0.452711   0.236198  -0.610799  -0.616667   0.236042
    10  C   -1.041244   0.069454  -0.343577  -2.174842  -2.169126  -0.346765
    11  C    0.219827  -0.962595   0.985773  -0.430238  -1.561181  -0.205440
    12  C   -1.490059   0.723835  -1.234958  -0.575266  -0.105941  -0.176252
    13  C    0.210762  -0.102861  -0.205075  -1.565142  -0.439040   0.989118
    14  C   -1.036957  -0.244039  -0.176448  -0.111071  -0.557891  -1.240307
    15  H    0.357528  -0.094879  -0.003927   0.019221   0.005677   0.001363
    16  H   -0.024165   0.382235  -0.012654   0.012608  -0.001694  -0.000379
    17  H   -0.015334  -0.025046   0.371355  -0.054455   0.000306   0.000394
    18  H    0.045140   0.006966  -0.091060   0.437460   0.011754  -0.004609
    19  H   -0.043699  -0.008358   0.049373  -0.055768  -0.055204   0.049458
    20  H    0.007998   0.001413  -0.004595   0.011774   0.437114  -0.090912
    21  H   -0.001287  -0.000373   0.000394   0.000309  -0.054284   0.371356
    22  H    0.000787   0.000375  -0.000379  -0.001697   0.012517  -0.012545
    23  H    0.006123  -0.002513   0.001357   0.005707   0.019159  -0.003861
    24  H    0.056189   0.011715  -0.000817  -0.011227  -0.011046  -0.000895
    25  H    0.015336   0.016272  -0.002848  -0.010758  -0.010844  -0.002753
               7          8          9         10         11         12
     1  C   -0.029661   0.412619  -1.566214  -1.041244   0.219827  -1.490059
     2  C    0.014194  -0.029932  -0.452711   0.069454  -0.962595   0.723835
     3  C   -0.019774  -0.093090   0.236198  -0.343577   0.985773  -1.234958
     4  C   -0.077557   0.011819  -0.610799  -2.174842  -0.430238  -0.575266
     5  C   -0.702210   1.487764  -0.616667  -2.169126  -1.561181  -0.105941
     6  C    0.389018  -0.610528   0.236042  -0.346765  -0.205440  -0.176252
     7  C    6.917267   0.609341  -0.451737   0.069286  -0.103354  -0.244798
     8  C    0.609341   8.427328  -1.571659  -1.040974   0.209596  -1.039789
     9  C   -0.451737  -1.571659   8.622453   0.711531   1.275623  -0.801542
    10  C    0.069286  -1.040974   0.711531   8.887379  -0.329361   1.743548
    11  C   -0.103354   0.209596   1.275623  -0.329361  13.444859  -3.296352
    12  C   -0.244798  -1.039789  -0.801542   1.743548  -3.296352  13.893669
    13  C   -0.961671   0.220171   1.277689  -0.331649   1.318094  -4.087702
    14  C    0.720357  -1.482379  -0.799208   1.735732  -4.087515   2.341320
    15  H   -0.002519   0.006117   0.074357  -0.007802  -0.013408  -0.012730
    16  H    0.000376   0.000801   0.003445  -0.011130   0.032494  -0.037238
    17  H   -0.000372  -0.001287  -0.001542   0.014803  -0.015345   0.067050
    18  H    0.001405   0.008014  -0.030722   0.024805  -0.012580  -0.045517
    19  H   -0.008339  -0.043711   0.072600   0.423557   0.054570  -0.057067
    20  H    0.006914   0.045022  -0.030729   0.024980  -0.006414  -0.009545
    21  H   -0.024985  -0.015268  -0.001561   0.014765  -0.005889   0.003207
    22  H    0.382329  -0.024402   0.003388  -0.011109   0.002685  -0.009262
    23  H   -0.094790   0.357406   0.074183  -0.007779  -0.002950   0.007061
    24  H    0.011557   0.055673   0.335534   0.004153   0.023963  -0.084000
    25  H    0.016475   0.016022   0.368633   0.003858  -0.003632  -0.028394
              13         14         15         16         17         18
     1  C    0.210762  -1.036957   0.357528  -0.024165  -0.015334   0.045140
     2  C   -0.102861  -0.244039  -0.094879   0.382235  -0.025046   0.006966
     3  C   -0.205075  -0.176448  -0.003927  -0.012654   0.371355  -0.091060
     4  C   -1.565142  -0.111071   0.019221   0.012608  -0.054455   0.437460
     5  C   -0.439040  -0.557891   0.005677  -0.001694   0.000306   0.011754
     6  C    0.989118  -1.240307   0.001363  -0.000379   0.000394  -0.004609
     7  C   -0.961671   0.720357  -0.002519   0.000376  -0.000372   0.001405
     8  C    0.220171  -1.482379   0.006117   0.000801  -0.001287   0.008014
     9  C    1.277689  -0.799208   0.074357   0.003445  -0.001542  -0.030722
    10  C   -0.331649   1.735732  -0.007802  -0.011130   0.014803   0.024805
    11  C    1.318094  -4.087515  -0.013408   0.032494  -0.015345  -0.012580
    12  C   -4.087702   2.341320  -0.012730  -0.037238   0.067050  -0.045517
    13  C   13.451296  -3.294733  -0.002958   0.002676  -0.005848  -0.006547
    14  C   -3.294733  13.882439   0.007080  -0.009259   0.003205  -0.009581
    15  H   -0.002958   0.007080   0.439963  -0.008923   0.001287   0.000208
    16  H    0.002676  -0.009259  -0.008923   0.419521  -0.006583   0.001904
    17  H   -0.005848   0.003205   0.001287  -0.006583   0.420759  -0.009996
    18  H   -0.006547  -0.009581   0.000208   0.001904  -0.009996   0.457742
    19  H    0.055295  -0.056840   0.000399  -0.000518   0.001235  -0.005042
    20  H   -0.012662  -0.045433  -0.000131   0.000016  -0.000144   0.001202
    21  H   -0.015485   0.067008   0.000020  -0.000007   0.000009  -0.000144
    22  H    0.032470  -0.036974  -0.000127   0.000007  -0.000007   0.000016
    23  H   -0.013510  -0.012499   0.000610  -0.000127   0.000020  -0.000131
    24  H    0.024551  -0.084183  -0.000117   0.000397  -0.000071   0.000247
    25  H   -0.004054  -0.028305  -0.001677   0.000899  -0.000213   0.000163
              19         20         21         22         23         24
     1  C   -0.043699   0.007998  -0.001287   0.000787   0.006123   0.056189
     2  C   -0.008358   0.001413  -0.000373   0.000375  -0.002513   0.011715
     3  C    0.049373  -0.004595   0.000394  -0.000379   0.001357  -0.000817
     4  C   -0.055768   0.011774   0.000309  -0.001697   0.005707  -0.011227
     5  C   -0.055204   0.437114  -0.054284   0.012517   0.019159  -0.011046
     6  C    0.049458  -0.090912   0.371356  -0.012545  -0.003861  -0.000895
     7  C   -0.008339   0.006914  -0.024985   0.382329  -0.094790   0.011557
     8  C   -0.043711   0.045022  -0.015268  -0.024402   0.357406   0.055673
     9  C    0.072600  -0.030729  -0.001561   0.003388   0.074183   0.335534
    10  C    0.423557   0.024980   0.014765  -0.011109  -0.007779   0.004153
    11  C    0.054570  -0.006414  -0.005889   0.002685  -0.002950   0.023963
    12  C   -0.057067  -0.009545   0.003207  -0.009262   0.007061  -0.084000
    13  C    0.055295  -0.012662  -0.015485   0.032470  -0.013510   0.024551
    14  C   -0.056840  -0.045433   0.067008  -0.036974  -0.012499  -0.084183
    15  H    0.000399  -0.000131   0.000020  -0.000127   0.000610  -0.000117
    16  H   -0.000518   0.000016  -0.000007   0.000007  -0.000127   0.000397
    17  H    0.001235  -0.000144   0.000009  -0.000007   0.000020  -0.000071
    18  H   -0.005042   0.001202  -0.000144   0.000016  -0.000131   0.000247
    19  H    0.441231  -0.005014   0.001232  -0.000516   0.000397   0.000437
    20  H   -0.005014   0.457749  -0.009998   0.001897   0.000206   0.000252
    21  H    0.001232  -0.009998   0.420785  -0.006589   0.001292  -0.000074
    22  H   -0.000516   0.001897  -0.006589   0.419540  -0.008917   0.000406
    23  H    0.000397   0.000206   0.001292  -0.008917   0.439876  -0.000121
    24  H    0.000437   0.000252  -0.000074   0.000406  -0.000121   0.495407
    25  H    0.000460   0.000159  -0.000211   0.000893  -0.001662  -0.079087
              25
     1  C    0.015336
     2  C    0.016272
     3  C   -0.002848
     4  C   -0.010758
     5  C   -0.010844
     6  C   -0.002753
     7  C    0.016475
     8  C    0.016022
     9  C    0.368633
    10  C    0.003858
    11  C   -0.003632
    12  C   -0.028394
    13  C   -0.004054
    14  C   -0.028305
    15  H   -0.001677
    16  H    0.000899
    17  H   -0.000213
    18  H    0.000163
    19  H    0.000460
    20  H    0.000159
    21  H   -0.000211
    22  H    0.000893
    23  H   -0.001662
    24  H   -0.079087
    25  H    0.494858
 Mulliken charges:
               1
     1  C    0.085424
     2  C   -0.416265
     3  C   -0.439584
     4  C    0.074511
     5  C    0.075092
     6  C   -0.439581
     7  C   -0.416752
     8  C    0.085324
     9  C   -0.356587
    10  C    0.087507
    11  C   -0.531228
    12  C    0.556723
    13  C   -0.533182
    14  C    0.556481
    15  H    0.235369
    16  H    0.255295
    17  H    0.255818
    18  H    0.218905
    19  H    0.189834
    20  H    0.218881
    21  H    0.255777
    22  H    0.255214
    23  H    0.235461
    24  H    0.251156
    25  H    0.240410
 Sum of Mulliken charges =   1.00000
 Mulliken charges with hydrogens summed into heavy atoms:
               1
     1  C    0.320792
     2  C   -0.160970
     3  C   -0.183766
     4  C    0.293416
     5  C    0.293972
     6  C   -0.183804
     7  C   -0.161539
     8  C    0.320785
     9  C    0.134978
    10  C    0.277340
    11  C   -0.531228
    12  C    0.556723
    13  C   -0.533182
    14  C    0.556481
 Electronic spatial extent (au):  <R**2>=           2838.7366
 Charge=              1.0000 electrons
 Dipole moment (field-independent basis, Debye):
    X=              0.0012    Y=              0.1755    Z=             -0.0025  Tot=              0.1755
 Quadrupole moment (field-independent basis, Debye-Ang):
   XX=            -31.5089   YY=            -56.2605   ZZ=            -83.9971
   XY=              0.0007   XZ=             -0.0012   YZ=              0.2149
 Traceless Quadrupole moment (field-independent basis, Debye-Ang):
   XX=             25.7466   YY=              0.9950   ZZ=            -26.7416
   XY=              0.0007   XZ=             -0.0012   YZ=              0.2149
 Octapole moment (field-independent basis, Debye-Ang**2):
  XXX=              0.0539  YYY=              5.1688  ZZZ=             -0.0691  XYY=             -0.0001
  XXY=             -6.6700  XXZ=              0.3372  XZZ=             -0.0071  YZZ=             -3.1081
  YYZ=              0.2388  XYZ=             -0.0060
 Hexadecapole moment (field-independent basis, Debye-Ang**3):
 XXXX=          -2115.4345 YYYY=           -609.5445 ZZZZ=            -99.0904 XXXY=              0.0310
 XXXZ=             -0.0331 YYYX=             -0.0135 YYYZ=              2.3752 ZZZX=             -0.0013
 ZZZY=              0.0842 XXYY=           -504.8327 XXZZ=           -585.8898 YYZZ=           -145.5277
 XXYZ=              2.2639 YYXZ=             -0.0002 ZZXY=              0.0006
 N-N= 7.831978716232D+02 E-N=-2.802847204777D+03  KE= 5.376392355172D+02
 Unable to Open any file for archive entry.
 1\1\GINC-GADI-CPU-CLX-0113\SP\RM062X TD-FC\6-311++G(d,p)\C14H11(1+)\TS
 1578\28-Jul-2022\0\\#n M062X/6-311++G(d,p) TD(NStates=1) EmpiricalDisp
 ersion=GD3 SP\\SP_100\\1,1\C,0,-0.0313,2.494155,1.360431\C,0,-0.03725,
 3.685733,0.671989\C,0,-0.0105,3.656211,-0.71383\C,0,0.035075,2.442731,
 -1.407538\C,0,0.035125,-2.442631,-1.407538\C,0,-0.0102,-3.655711,-0.71
 383\C,0,-0.036775,-3.685558,0.671989\C,0,-0.03035,-2.493855,1.360431\C
 ,0,-0.019675,-0.0011,1.453369\C,0,0.0549,0.00005,-1.429189\C,0,0.00817
 5,1.279255,0.677065\C,0,0.0226,1.234696,-0.730804\C,0,0.00825,-1.27928
 ,0.677065\C,0,0.0224,-1.234846,-0.730804\H,0,-0.01,2.489246,2.443647\H
 ,0,-0.03775,4.624003,1.211689\H,0,0.00645,4.610587,-1.272349\H,0,0.016
 5,2.447675,-2.490059\H,0,0.050625,0.000025,-2.510266\H,0,0.01635,-2.44
 76,-2.490059\H,0,0.0066,-4.609962,-1.272349\H,0,-0.037175,-4.623628,1.
 211689\H,0,-0.0089,-2.488921,2.443647\H,0,-0.931585,-0.00025,2.146062\
 H,0,0.787585,-0.00025,2.145512\\Version=ES64L-G16RevC.01\State=1-A\HF=
 -539.7555819\RMSD=5.882e-09\PG=C01 [X(C14H11)]\\@
 The archive entry for this job was punched.


 DEPRESSION IS WAITING FOR YOUR SHIP TO COME IN,
 AND FINDING OUT IT'S THE TITANIC.
 Job cpu time:       0 days  1 hours 20 minutes 11.2 seconds.
 Elapsed time:       0 days  0 hours  1 minutes 40.5 seconds.
 File lengths (MBytes):  RWF=    460 Int=      0 D2E=      0 Chk=     15 Scr=      1
 Normal termination of Gaussian 16 at Thu Jul 28 16:24:08 2022.
