 Entering Gaussian System, Link 0=g16
 Initial command:
 /apps/gaussian/g16c01/g16/l1.exe "/jobfs/53002009.gadi-pbs/Gau-721532.inp" -scrdir="/jobfs/53002009.gadi-pbs/"
 Entering Link 1 = /apps/gaussian/g16c01/g16/l1.exe PID=    721533.
  
 Copyright (c) 1988-2019, Gaussian, Inc.  All Rights Reserved.
  
 This is part of the Gaussian(R) 16 program.  It is based on
 the Gaussian(R) 09 system (copyright 2009, Gaussian, Inc.),
 the Gaussian(R) 03 system (copyright 2003, Gaussian, Inc.),
 the Gaussian(R) 98 system (copyright 1998, Gaussian, Inc.),
 the Gaussian(R) 94 system (copyright 1995, Gaussian, Inc.),
 the Gaussian 92(TM) system (copyright 1992, Gaussian, Inc.),
 the Gaussian 90(TM) system (copyright 1990, Gaussian, Inc.),
 the Gaussian 88(TM) system (copyright 1988, Gaussian, Inc.),
 the Gaussian 86(TM) system (copyright 1986, Carnegie Mellon
 University), and the Gaussian 82(TM) system (copyright 1983,
 Carnegie Mellon University). Gaussian is a federally registered
 trademark of Gaussian, Inc.
  
 This software contains proprietary and confidential information,
 including trade secrets, belonging to Gaussian, Inc.
  
 This software is provided under written license and may be
 used, copied, transmitted, or stored only in accord with that
 written license.
  
 The following legend is applicable only to US Government
 contracts under FAR:
  
                    RESTRICTED RIGHTS LEGEND
  
 Use, reproduction and disclosure by the US Government is
 subject to restrictions as set forth in subparagraphs (a)
 and (c) of the Commercial Computer Software - Restricted
 Rights clause in FAR 52.227-19.
  
 Gaussian, Inc.
 340 Quinnipiac St., Bldg. 40, Wallingford CT 06492
  
  
 ---------------------------------------------------------------
 Warning -- This program may not be used in any manner that
 competes with the business of Gaussian, Inc. or will provide
 assistance to any competitor of Gaussian, Inc.  The licensee
 of this program is prohibited from giving any competitor of
 Gaussian, Inc. access to this program.  By using this program,
 the user acknowledges that Gaussian, Inc. is engaged in the
 business of creating and licensing software in the field of
 computational chemistry and represents and warrants to the
 licensee that it is not a competitor of Gaussian, Inc. and that
 it will not use this program in any manner prohibited above.
 ---------------------------------------------------------------
  

 Cite this work as:
 Gaussian 16, Revision C.01,
 M. J. Frisch, G. W. Trucks, H. B. Schlegel, G. E. Scuseria, 
 M. A. Robb, J. R. Cheeseman, G. Scalmani, V. Barone, 
 G. A. Petersson, H. Nakatsuji, X. Li, M. Caricato, A. V. Marenich, 
 J. Bloino, B. G. Janesko, R. Gomperts, B. Mennucci, H. P. Hratchian, 
 J. V. Ortiz, A. F. Izmaylov, J. L. Sonnenberg, D. Williams-Young, 
 F. Ding, F. Lipparini, F. Egidi, J. Goings, B. Peng, A. Petrone, 
 T. Henderson, D. Ranasinghe, V. G. Zakrzewski, J. Gao, N. Rega, 
 G. Zheng, W. Liang, M. Hada, M. Ehara, K. Toyota, R. Fukuda, 
 J. Hasegawa, M. Ishida, T. Nakajima, Y. Honda, O. Kitao, H. Nakai, 
 T. Vreven, K. Throssell, J. A. Montgomery, Jr., J. E. Peralta, 
 F. Ogliaro, M. J. Bearpark, J. J. Heyd, E. N. Brothers, K. N. Kudin, 
 V. N. Staroverov, T. A. Keith, R. Kobayashi, J. Normand, 
 K. Raghavachari, A. P. Rendell, J. C. Burant, S. S. Iyengar, 
 J. Tomasi, M. Cossi, J. M. Millam, M. Klene, C. Adamo, R. Cammi, 
 J. W. Ochterski, R. L. Martin, K. Morokuma, O. Farkas, 
 J. B. Foresman, and D. J. Fox, Gaussian, Inc., Wallingford CT, 2019.
 
 ******************************************
 Gaussian 16:  ES64L-G16RevC.01  3-Jul-2019
                28-Jul-2022 
 ******************************************
 %NProcShared=48
 Will use up to   48 processors via shared memory.
 %mem = 190GB
 ---------------------------------------------------------------
 #n M062X/6-311++G(d,p) TD(NStates=1) EmpiricalDispersion=GD3 SP
 ---------------------------------------------------------------
 1/38=1,172=1/1;
 2/12=2,17=6,18=5,40=1/2;
 3/5=4,6=6,7=1111,11=9,25=1,30=1,74=-55,124=31/1,2,3,8;
 4//1;
 5/5=2,38=5/2;
 8/6=1,10=2,108=1/1;
 9/41=1,42=1,70=2/14;
 6/7=2,8=2,9=2,10=2/1;
 99/5=1,9=1/99;
 -------
 SP_-125
 -------
 Symbolic Z-matrix:
 Charge =  1 Multiplicity = 1
 C                     0.01865   2.49236   1.36043 
 C                     0.02372   3.71243   0.67199 
 C                     0.0063    3.70346  -0.71383 
 C                    -0.0235    2.47701  -1.40754 
 C                    -0.0233   -2.47661  -1.40754 
 C                     0.0075   -3.70146  -0.71383 
 C                     0.02563  -3.71173   0.67199 
 C                     0.02245  -2.49116   1.36043 
 C                     0.01318  -0.0044    1.45337 
 C                    -0.0366    0.0002   -1.42919 
 C                    -0.00563   1.25053   0.67707 
 C                    -0.0146    1.23897  -0.7308 
 C                    -0.00533  -1.25063   0.67707 
 C                    -0.0154   -1.23957  -0.7308 
 H                     0.0041    2.48805   2.44365 
 H                     0.02383   4.64613   1.21169 
 H                    -0.00465   4.60984  -1.27235 
 H                    -0.01065   2.48098  -2.49006 
 H                    -0.03375   0.0001   -2.51027 
 H                    -0.01125  -2.48068  -2.49006 
 H                    -0.00405  -4.60734  -1.27235 
 H                     0.02613  -4.64463   1.21169 
 H                     0.0085   -2.48675   2.44365 
 H                    -0.81159  -0.001     2.14689 
 H                     0.90759  -0.001     2.14469 
 
                          Input orientation:                          
 ---------------------------------------------------------------------
 Center     Atomic      Atomic             Coordinates (Angstroms)
 Number     Number       Type             X           Y           Z
 ---------------------------------------------------------------------
      1          6           0        0.018650    2.492355    1.360431
      2          6           0        0.023725    3.712433    0.671989
      3          6           0        0.006300    3.703461   -0.713830
      4          6           0       -0.023500    2.477006   -1.407538
      5          6           0       -0.023300   -2.476606   -1.407538
      6          6           0        0.007500   -3.701461   -0.713830
      7          6           0        0.025625   -3.711733    0.671989
      8          6           0        0.022450   -2.491155    1.360431
      9          6           0        0.013175   -0.004400    1.453369
     10          6           0       -0.036600    0.000200   -1.429189
     11          6           0       -0.005625    1.250530    0.677065
     12          6           0       -0.014600    1.238971   -0.730804
     13          6           0       -0.005325   -1.250630    0.677065
     14          6           0       -0.015400   -1.239571   -0.730804
     15          1           0        0.004100    2.488046    2.443647
     16          1           0        0.023825    4.646128    1.211689
     17          1           0       -0.004650    4.609837   -1.272349
     18          1           0       -0.010650    2.480975   -2.490059
     19          1           0       -0.033750    0.000100   -2.510266
     20          1           0       -0.011250   -2.480675   -2.490059
     21          1           0       -0.004050   -4.607337   -1.272349
     22          1           0        0.026125   -4.644628    1.211689
     23          1           0        0.008500   -2.486746    2.443647
     24          1           0       -0.811585   -0.001000    2.146887
     25          1           0        0.907585   -0.001000    2.144687
 ---------------------------------------------------------------------
                    Distance matrix (angstroms):
                    1          2          3          4          5
     1  C    0.000000
     2  C    1.400917   0.000000
     3  C    2.401976   1.385958   0.000000
     4  C    2.768332   2.419286   1.409365   0.000000
     5  C    5.688056   6.529230   6.218950   4.953612   0.000000
     6  C    6.531925   7.542319   7.404922   6.217367   1.407995
     7  C    6.242172   7.424166   7.543605   6.528961   2.419166
     8  C    4.983511   6.241671   6.532694   5.687388   2.768385
     9  C    2.498490   3.798093   4.294768   3.787283   3.781259
    10  C    3.741105   4.266059   3.771965   2.476935   2.476936
    11  C    1.417642   2.462083   2.819858   2.418705   4.270530
    12  C    2.438307   2.843820   2.464637   1.410950   3.776712
    13  C    3.804931   4.963151   5.145653   4.270968   2.418452
    14  C    4.278048   5.147009   4.943109   3.777695   1.410066
    15  H    1.083322   2.153667   3.383327   3.851300   6.283323
    16  H    2.158909   1.078454   2.143957   3.401129   7.589197
    17  H    3.378728   2.141632   1.064698   2.137194   7.087757
    18  H    3.850618   3.393555   2.156328   1.082605   5.074408
    19  H    4.603952   4.889935   4.116269   2.711305   2.711124
    20  H    6.289531   6.953730   6.434193   5.074505   1.082596
    21  H    7.572164   8.543992   8.329551   7.085659   2.135102
    22  H    7.138537   8.374470   8.567299   7.588181   3.400458
    23  H    5.095577   6.447389   6.948980   6.282634   3.851330
    24  H    2.743105   4.081991   4.751386   4.404036   4.402721
    25  H    2.760812   4.091410   4.765130   4.430094   4.428710
                    6          7          8          9         10
     6  C    0.000000
     7  C    1.385976   0.000000
     8  C    2.401588   1.401347   0.000000
     9  C    4.285446   3.788803   2.488508   0.000000
    10  C    3.770408   4.265826   3.740630   2.882991   0.000000
    11  C    5.143635   4.962364   3.803680   1.475754   2.449610
    12  C    4.940511   5.145767   4.276503   2.513435   1.422244
    13  C    2.818036   2.461303   1.416567   1.468359   2.449869
    14  C    2.462055   2.842727   2.437449   2.509397   1.423103
    15  H    6.948357   6.447984   5.095698   2.681981   4.603248
    16  H    8.566804   8.375268   7.138833   4.656816   5.344393
    17  H    8.330052   8.545753   7.573398   5.359201   4.612415
    18  H    6.432560   6.953380   6.288835   4.661360   2.698215
    19  H    4.114661   4.889578   4.603456   3.963915   1.081081
    20  H    2.155379   3.393436   3.850652   4.656518   2.698301
    21  H    1.064278   2.140896   3.377937   5.349473   4.610321
    22  H    2.144186   1.077761   2.158607   4.646536   5.343463
    23  H    3.383075   2.153987   1.083315   2.672586   4.602803
    24  H    4.748475   4.079925   2.741350   1.077594   3.659088
    25  H    4.761794   4.088549   2.756700   1.130443   3.696495
                   11         12         13         14         15
    11  C    0.000000
    12  C    1.407945   0.000000
    13  C    2.501160   2.860121   0.000000
    14  C    2.860558   2.478542   1.407948   0.000000
    15  H    2.156931   3.411404   4.135045   4.896187   0.000000
    16  H    3.437554   3.922177   5.921016   6.198086   2.485041
    17  H    3.883962   3.414104   6.176187   5.874433   4.279100
    18  H    3.397748   2.153501   4.894444   4.115515   4.933733
    19  H    3.423952   2.168330   3.424064   2.168780   5.543696
    20  H    4.894139   4.114700   3.397605   2.152983   7.002134
    21  H    6.173720   5.871346   3.881713   3.411048   8.009566
    22  H    5.919436   6.196102   3.435991   3.920385   7.238318
    23  H    4.133793   4.894756   2.156151   3.410741   4.974794
    24  H    2.091955   3.233237   2.090934   3.232503   2.636050
    25  H    2.134056   3.264414   2.132814   3.264109   2.664772
                   16         17         18         19         20
    16  H    0.000000
    17  H    2.484466   0.000000
    18  H    4.288591   2.452531   0.000000
    19  H    5.953305   4.773150   2.481065   0.000000
    20  H    8.030908   7.194319   4.961650   2.480959   0.000000
    21  H    9.581119   9.217174   7.192150   4.770932   2.450625
    22  H    9.290756   9.582093   8.029851   5.952313   4.288010
    23  H    7.238498   8.010636   7.001434   5.543234   4.933749
    24  H    4.813346   5.796735   5.320053   4.721663   5.318890
    25  H    4.821547   5.811035   5.337062   4.749179   5.336096
                   21         22         23         24         25
    21  H    0.000000
    22  H    2.484501   0.000000
    23  H    4.278515   2.484851   0.000000
    24  H    5.793240   4.810367   2.634300   0.000000
    25  H    5.807371   4.817752   2.660200   1.719171   0.000000
 Stoichiometry    C14H11(1+)
 Framework group  C1[X(C14H11)]
 Deg. of freedom    69
 Full point group                 C1      NOp   1
 Largest Abelian subgroup         C1      NOp   1
 Largest concise Abelian subgroup C1      NOp   1
                         Standard orientation:                         
 ---------------------------------------------------------------------
 Center     Atomic      Atomic             Coordinates (Angstroms)
 Number     Number       Type             X           Y           Z
 ---------------------------------------------------------------------
      1          6           0       -2.492234   -1.360770    0.000740
      2          6           0       -3.712369   -0.672562    0.015183
      3          6           0       -3.703519    0.713367    0.016036
      4          6           0       -2.477130    1.407515   -0.004901
      5          6           0        2.476482    1.407948   -0.005872
      6          6           0        3.701403    0.714001    0.015485
      7          6           0        3.711797   -0.671935    0.015328
      8          6           0        2.491276   -1.360383    0.003361
      9          6           0        0.004527   -1.453409   -0.006551
     10          6           0       -0.000329    1.429555   -0.018300
     11          6           0       -1.250473   -0.677034   -0.014813
     12          6           0       -1.239035    0.730831   -0.005221
     13          6           0        1.250687   -0.676819   -0.015105
     14          6           0        1.239506    0.731060   -0.006607
     15          1           0       -2.487837   -2.443700   -0.028098
     16          1           0       -4.646019   -1.212299    0.008385
     17          1           0       -4.609945    1.271902    0.012668
     18          1           0       -2.481187    2.489772    0.022227
     19          1           0       -0.000320    2.510500   -0.001191
     20          1           0        2.480462    2.490216    0.020454
     21          1           0        4.607229    1.272704    0.011089
     22          1           0        4.644738   -1.211513    0.008488
     23          1           0        2.486956   -2.443321   -0.024874
     24          1           0        0.000990   -2.135988   -0.840386
     25          1           0        0.001398   -2.156464    0.878663
 ---------------------------------------------------------------------
 Rotational constants (GHZ):           2.1355880           0.4421351           0.3671060
 Standard basis: 6-311++G(d,p) (5D, 7F)
 There are   399 symmetry adapted cartesian basis functions of A   symmetry.
 There are   385 symmetry adapted basis functions of A   symmetry.
   385 basis functions,   603 primitive gaussians,   399 cartesian basis functions
    47 alpha electrons       47 beta electrons
       nuclear repulsion energy       779.7809484377 Hartrees.
 NAtoms=   25 NActive=   25 NUniq=   25 SFac= 1.00D+00 NAtFMM=   60 NAOKFM=F Big=F
 Integral buffers will be    131072 words long.
 Regular integral format.
 Two-electron integral symmetry is turned on.
 Nuclear repulsion after empirical dispersion term =      779.7799684325 Hartrees.
 One-electron integrals computed using PRISM.
 NBasis=   385 RedAO= T EigKep=  1.29D-06  NBF=   385
 NBsUse=   379 1.00D-06 EigRej=  8.86D-07 NBFU=   379
 ExpMin= 3.60D-02 ExpMax= 4.56D+03 ExpMxC= 6.82D+02 IAcc=3 IRadAn=         5 AccDes= 0.00D+00
 Harris functional with IExCor= 1009 and IRadAn=       5 diagonalized for initial guess.
 HarFok:  IExCor= 1009 AccDes= 0.00D+00 IRadAn=         5 IDoV= 1 UseB2=F ITyADJ=14
 ICtDFT=  3500011 ScaDFX=  1.000000  1.000000  1.000000  1.000000
 FoFCou: FMM=F IPFlag=           0 FMFlag=      100000 FMFlg1=           0
         NFxFlg=           0 DoJE=T BraDBF=F KetDBF=T FulRan=T
         wScrn=  0.000000 ICntrl=       500 IOpCl=  0 I1Cent=   200000004 NGrid=           0
         NMat0=    1 NMatS0=      1 NMatT0=    0 NMatD0=    1 NMtDS0=    0 NMtDT0=    0
 Petite list used in FoFCou.
 Requested convergence on RMS density matrix=1.00D-08 within 128 cycles.
 Requested convergence on MAX density matrix=1.00D-06.
 Requested convergence on             energy=1.00D-06.
 No special actions if energy rises.
 SCF Done:  E(RM062X) =  -539.757157246     A.U. after   15 cycles
            NFock= 15  Conv=0.46D-08     -V/T= 2.0044
 DoSCS=F DFT=T ScalE2(SS,OS)=  1.000000  1.000000
 ExpMin= 3.60D-02 ExpMax= 4.56D+03 ExpMxC= 6.82D+02 IAcc=3 IRadAn=         5 AccDes= 0.00D+00
 HarFok:  IExCor=  205 AccDes= 0.00D+00 IRadAn=         5 IDoV=-2 UseB2=F ITyADJ=14
 ICtDFT= 12500011 ScaDFX=  1.000000  1.000000  1.000000  1.000000
 Range of M.O.s used for correlation:    15   379
 NBasis=   385 NAE=    47 NBE=    47 NFC=    14 NFV=     0
 NROrb=    365 NOA=    33 NOB=    33 NVA=   332 NVB=   332

 **** Warning!!: The largest alpha MO coefficient is  0.14959701D+03

 Orbital symmetries:
       Occupied  (A) (A) (A) (A) (A) (A) (A) (A) (A) (A) (A) (A)
                 (A) (A) (A) (A) (A) (A) (A) (A) (A) (A) (A) (A)
                 (A) (A) (A) (A) (A) (A) (A) (A) (A) (A) (A) (A)
                 (A) (A) (A) (A) (A) (A) (A) (A) (A) (A) (A)
       Virtual   (A) (A) (A) (A) (A) (A) (A) (A) (A) (A) (A) (A)
                 (A) (A) (A) (A) (A) (A) (A) (A) (A) (A) (A) (A)
                 (A) (A) (A) (A) (A) (A) (A) (A) (A) (A) (A) (A)
                 (A) (A) (A) (A) (A) (A) (A) (A) (A) (A) (A) (A)
                 (A) (A) (A) (A) (A) (A) (A) (A) (A) (A) (A) (A)
                 (A) (A) (A) (A) (A) (A) (A) (A) (A) (A) (A) (A)
                 (A) (A) (A) (A) (A) (A) (A) (A) (A) (A) (A) (A)
                 (A) (A) (A) (A) (A) (A) (A) (A) (A) (A) (A) (A)
                 (A) (A) (A) (A) (A) (A) (A) (A) (A) (A) (A) (A)
                 (A) (A) (A) (A) (A) (A) (A) (A) (A) (A) (A) (A)
                 (A) (A) (A) (A) (A) (A) (A) (A) (A) (A) (A) (A)
                 (A) (A) (A) (A) (A) (A) (A) (A) (A) (A) (A) (A)
                 (A) (A) (A) (A) (A) (A) (A) (A) (A) (A) (A) (A)
                 (A) (A) (A) (A) (A) (A) (A) (A) (A) (A) (A) (A)
                 (A) (A) (A) (A) (A) (A) (A) (A) (A) (A) (A) (A)
                 (A) (A) (A) (A) (A) (A) (A) (A) (A) (A) (A) (A)
                 (A) (A) (A) (A) (A) (A) (A) (A) (A) (A) (A) (A)
                 (A) (A) (A) (A) (A) (A) (A) (A) (A) (A) (A) (A)
                 (A) (A) (A) (A) (A) (A) (A) (A) (A) (A) (A) (A)
                 (A) (A) (A) (A) (A) (A) (A) (A) (A) (A) (A) (A)
                 (A) (A) (A) (A) (A) (A) (A) (A) (A) (A) (A) (A)
                 (A) (A) (A) (A) (A) (A) (A) (A) (A) (A) (A) (A)
                 (A) (A) (A) (A) (A) (A) (A) (A) (A) (A) (A) (A)
                 (A) (A) (A) (A) (A) (A) (A) (A) (A) (A) (A) (A)
                 (A) (A) (A) (A) (A) (A) (A) (A) (A) (A) (A) (A)
                 (A) (A) (A) (A) (A) (A) (A) (A) (A) (A) (A) (A)
                 (A) (A) (A) (A) (A) (A) (A) (A) (A) (A) (A) (A)
                 (A) (A) (A) (A) (A) (A) (A) (A)
     4 initial guesses have been made.
 Convergence on wavefunction:    0.001000000000000
 Iteration     1 Dimension     4 NMult     0 NNew      4
 CISAX will form     4 AO SS matrices at one time.
 Iteration     2 Dimension     6 NMult     4 NNew      2
 Iteration     3 Dimension     8 NMult     6 NNew      2
 Iteration     4 Dimension    10 NMult     8 NNew      2
 Iteration     5 Dimension    12 NMult    10 NNew      2
 Iteration     6 Dimension    14 NMult    12 NNew      2
 ***********************************************************************
 Excited states from <AA,BB:AA,BB> singles matrix:
 ***********************************************************************
 
 Ground to excited state transition densities written to RWF  633
 Ground to excited state transition electric dipole moments (Au):
       state          X           Y           Z        Dip. S.      Osc.
         1         0.0060     -0.6339      0.0058      0.4019      0.0275
 Ground to excited state transition velocity dipole moments (Au):
       state          X           Y           Z        Dip. S.      Osc.
         1        -0.0006      0.0727     -0.0007      0.0053      0.0343
 Ground to excited state transition magnetic dipole moments (Au):
       state          X           Y           Z
         1        -0.0078      0.0004     -0.0000
 Ground to excited state transition velocity quadrupole moments (Au):
       state          XX          YY          ZZ          XY          XZ          YZ
         1         0.3129      0.0310     -0.0095     -0.0008     -0.0001      0.0011
 <0|del|b> * <b|rxdel|0> + <0|del|b> * <b|delr+rdel|0>
 Rotatory Strengths (R) in cgs (10**-40 erg-esu-cm/Gauss)
       state          XX          YY          ZZ    R(velocity)    E-M Angle
         1         0.1153      0.0124      0.1071      0.0783       90.00
 1/2[<0|r|b>*<b|rxdel|0> + (<0|rxdel|b>*<b|r|0>)*]
 Rotatory Strengths (R) in cgs (10**-40 erg-esu-cm/Gauss)
       state          XX          YY          ZZ     R(length)
         1         0.0331      0.1800      0.0001      0.0711
  1/2[<0|del|b>*<b|r|0> + (<0|r|b>*<b|del|0>)*] (Au)
       state          X           Y           Z        Dip. S.   Osc.(frdel)
         1        -0.0000     -0.0461     -0.0000      0.0461      0.0307

 Excitation energies and oscillator strengths:
 
 Excited State   1:      Singlet-A      2.7949 eV  443.61 nm  f=0.0275  <S**2>=0.000
      47 -> 48         0.70427
 This state for optimization and/or second-order correction.
 Total Energy, E(TD-HF/TD-DFT) =  -539.654446572    
 Copying the excited state density for this state as the 1-particle RhoCI density.
 SavETr:  write IOETrn=   770 NScale= 10 NData=  16 NLR=1 NState=    1 LETran=      28.

 **********************************************************************

            Population analysis using the SCF Density.

 **********************************************************************

 Orbital symmetries:
       Occupied  (A) (A) (A) (A) (A) (A) (A) (A) (A) (A) (A) (A)
                 (A) (A) (A) (A) (A) (A) (A) (A) (A) (A) (A) (A)
                 (A) (A) (A) (A) (A) (A) (A) (A) (A) (A) (A) (A)
                 (A) (A) (A) (A) (A) (A) (A) (A) (A) (A) (A)
       Virtual   (A) (A) (A) (A) (A) (A) (A) (A) (A) (A) (A) (A)
                 (A) (A) (A) (A) (A) (A) (A) (A) (A) (A) (A) (A)
                 (A) (A) (A) (A) (A) (A) (A) (A) (A) (A) (A) (A)
                 (A) (A) (A) (A) (A) (A) (A) (A) (A) (A) (A) (A)
                 (A) (A) (A) (A) (A) (A) (A) (A) (A) (A) (A) (A)
                 (A) (A) (A) (A) (A) (A) (A) (A) (A) (A) (A) (A)
                 (A) (A) (A) (A) (A) (A) (A) (A) (A) (A) (A) (A)
                 (A) (A) (A) (A) (A) (A) (A) (A) (A) (A) (A) (A)
                 (A) (A) (A) (A) (A) (A) (A) (A) (A) (A) (A) (A)
                 (A) (A) (A) (A) (A) (A) (A) (A) (A) (A) (A) (A)
                 (A) (A) (A) (A) (A) (A) (A) (A) (A) (A) (A) (A)
                 (A) (A) (A) (A) (A) (A) (A) (A) (A) (A) (A) (A)
                 (A) (A) (A) (A) (A) (A) (A) (A) (A) (A) (A) (A)
                 (A) (A) (A) (A) (A) (A) (A) (A) (A) (A) (A) (A)
                 (A) (A) (A) (A) (A) (A) (A) (A) (A) (A) (A) (A)
                 (A) (A) (A) (A) (A) (A) (A) (A) (A) (A) (A) (A)
                 (A) (A) (A) (A) (A) (A) (A) (A) (A) (A) (A) (A)
                 (A) (A) (A) (A) (A) (A) (A) (A) (A) (A) (A) (A)
                 (A) (A) (A) (A) (A) (A) (A) (A) (A) (A) (A) (A)
                 (A) (A) (A) (A) (A) (A) (A) (A) (A) (A) (A) (A)
                 (A) (A) (A) (A) (A) (A) (A) (A) (A) (A) (A) (A)
                 (A) (A) (A) (A) (A) (A) (A) (A) (A) (A) (A) (A)
                 (A) (A) (A) (A) (A) (A) (A) (A) (A) (A) (A) (A)
                 (A) (A) (A) (A) (A) (A) (A) (A) (A) (A) (A) (A)
                 (A) (A) (A) (A) (A) (A) (A) (A) (A) (A) (A) (A)
                 (A) (A) (A) (A) (A) (A) (A) (A) (A) (A) (A) (A)
                 (A) (A) (A) (A) (A) (A) (A) (A) (A) (A) (A) (A)
                 (A) (A) (A) (A) (A) (A) (A) (A)
 The electronic state is 1-A.
 Alpha  occ. eigenvalues --  -10.77656 -10.73319 -10.73264 -10.72566 -10.72563
 Alpha  occ. eigenvalues --  -10.71541 -10.71512 -10.71105 -10.71095 -10.70982
 Alpha  occ. eigenvalues --  -10.70154 -10.70133 -10.69596 -10.69569  -1.16348
 Alpha  occ. eigenvalues --   -1.12147  -1.06786  -1.05826  -1.01035  -1.00191
 Alpha  occ. eigenvalues --   -0.95666  -0.91082  -0.86406  -0.85849  -0.83801
 Alpha  occ. eigenvalues --   -0.78389  -0.75998  -0.74354  -0.69589  -0.69352
 Alpha  occ. eigenvalues --   -0.68663  -0.68263  -0.68120  -0.64508  -0.64085
 Alpha  occ. eigenvalues --   -0.63205  -0.62064  -0.59874  -0.59441  -0.59168
 Alpha  occ. eigenvalues --   -0.56942  -0.55287  -0.54921  -0.52315  -0.46441
 Alpha  occ. eigenvalues --   -0.46024  -0.44355
 Alpha virt. eigenvalues --   -0.26065  -0.14856  -0.14142  -0.12970  -0.11177
 Alpha virt. eigenvalues --   -0.10079  -0.09207  -0.08020  -0.07911  -0.07465
 Alpha virt. eigenvalues --   -0.07231  -0.07140  -0.05647  -0.05583  -0.05364
 Alpha virt. eigenvalues --   -0.03778  -0.03658  -0.03285  -0.03133  -0.02152
 Alpha virt. eigenvalues --   -0.01357  -0.00907   0.00192   0.00662   0.00728
 Alpha virt. eigenvalues --    0.01037   0.01512   0.01872   0.02197   0.02299
 Alpha virt. eigenvalues --    0.02413   0.02573   0.02756   0.03247   0.03402
 Alpha virt. eigenvalues --    0.04254   0.04498   0.04682   0.04950   0.05354
 Alpha virt. eigenvalues --    0.05994   0.06283   0.06603   0.07030   0.07201
 Alpha virt. eigenvalues --    0.07847   0.08014   0.08338   0.08477   0.08937
 Alpha virt. eigenvalues --    0.09564   0.09585   0.10021   0.10755   0.11001
 Alpha virt. eigenvalues --    0.11124   0.12244   0.12286   0.12867   0.13057
 Alpha virt. eigenvalues --    0.13405   0.13528   0.14034   0.14211   0.15934
 Alpha virt. eigenvalues --    0.16401   0.16643   0.17395   0.17413   0.17658
 Alpha virt. eigenvalues --    0.18078   0.18875   0.19153   0.19572   0.19714
 Alpha virt. eigenvalues --    0.21422   0.21460   0.22646   0.23133   0.23369
 Alpha virt. eigenvalues --    0.23577   0.24534   0.24756   0.26803   0.27438
 Alpha virt. eigenvalues --    0.28823   0.29270   0.29796   0.31163   0.35791
 Alpha virt. eigenvalues --    0.36170   0.37876   0.39112   0.41156   0.41499
 Alpha virt. eigenvalues --    0.41926   0.42398   0.43044   0.43526   0.44200
 Alpha virt. eigenvalues --    0.44681   0.44706   0.45125   0.46046   0.47894
 Alpha virt. eigenvalues --    0.48626   0.48927   0.49055   0.50470   0.51163
 Alpha virt. eigenvalues --    0.51324   0.51353   0.52131   0.52451   0.54004
 Alpha virt. eigenvalues --    0.54120   0.54461   0.55764   0.55791   0.57390
 Alpha virt. eigenvalues --    0.58167   0.58745   0.61356   0.62031   0.62291
 Alpha virt. eigenvalues --    0.62883   0.63645   0.64209   0.65126   0.66961
 Alpha virt. eigenvalues --    0.70440   0.70575   0.70933   0.72060   0.72706
 Alpha virt. eigenvalues --    0.75343   0.75638   0.76130   0.76455   0.76889
 Alpha virt. eigenvalues --    0.77378   0.77644   0.78085   0.80400   0.80598
 Alpha virt. eigenvalues --    0.81140   0.81537   0.82021   0.82794   0.84715
 Alpha virt. eigenvalues --    0.86688   0.86996   0.87949   0.89562   0.90481
 Alpha virt. eigenvalues --    0.90719   0.91461   0.93075   0.94737   0.96330
 Alpha virt. eigenvalues --    0.96735   1.00449   1.01264   1.01539   1.02650
 Alpha virt. eigenvalues --    1.02944   1.03954   1.04361   1.06082   1.08841
 Alpha virt. eigenvalues --    1.19827   1.23333   1.24090   1.25443   1.27971
 Alpha virt. eigenvalues --    1.29153   1.32142   1.33577   1.35307   1.35905
 Alpha virt. eigenvalues --    1.38980   1.40203   1.40417   1.42776   1.43048
 Alpha virt. eigenvalues --    1.43317   1.44937   1.45009   1.46551   1.46804
 Alpha virt. eigenvalues --    1.47499   1.47556   1.51553   1.53592   1.55480
 Alpha virt. eigenvalues --    1.55894   1.56244   1.56287   1.57569   1.61197
 Alpha virt. eigenvalues --    1.63499   1.64082   1.64138   1.65936   1.67918
 Alpha virt. eigenvalues --    1.68482   1.68612   1.69672   1.73884   1.75885
 Alpha virt. eigenvalues --    1.76984   1.77807   1.79431   1.79891   1.80074
 Alpha virt. eigenvalues --    1.83060   1.83126   1.83277   1.83487   1.83970
 Alpha virt. eigenvalues --    1.84340   1.85740   1.85800   1.88074   1.91524
 Alpha virt. eigenvalues --    1.91644   1.94111   1.95265   1.97366   1.97584
 Alpha virt. eigenvalues --    1.99207   2.02350   2.03972   2.07574   2.11572
 Alpha virt. eigenvalues --    2.11837   2.13480   2.15076   2.18402   2.20834
 Alpha virt. eigenvalues --    2.22070   2.28330   2.29507   2.34296   2.35451
 Alpha virt. eigenvalues --    2.35917   2.39184   2.40398   2.41489   2.42168
 Alpha virt. eigenvalues --    2.45893   2.48458   2.48845   2.52572   2.53714
 Alpha virt. eigenvalues --    2.54092   2.56869   2.57764   2.58309   2.59609
 Alpha virt. eigenvalues --    2.59674   2.61473   2.61733   2.63173   2.63753
 Alpha virt. eigenvalues --    2.64165   2.64411   2.64869   2.65257   2.67736
 Alpha virt. eigenvalues --    2.68887   2.70842   2.71311   2.73381   2.74802
 Alpha virt. eigenvalues --    2.76244   2.78202   2.79512   2.82253   2.82831
 Alpha virt. eigenvalues --    2.84200   2.86291   2.92025   2.96369   2.99331
 Alpha virt. eigenvalues --    2.99588   3.05778   3.09960   3.10478   3.11490
 Alpha virt. eigenvalues --    3.20837   3.23493   3.25824   3.27609   3.30160
 Alpha virt. eigenvalues --    3.31273   3.32699   3.43305   3.44628   3.45579
 Alpha virt. eigenvalues --    3.47280   3.49228   3.56148   3.65020   3.67160
 Alpha virt. eigenvalues --    3.67974   3.94361   3.95760   3.95801   3.97163
 Alpha virt. eigenvalues --    4.04579   4.06763   4.07227   4.12416   4.35649
 Alpha virt. eigenvalues --    4.61504   4.68723   4.70408  23.45628  23.61614
 Alpha virt. eigenvalues --   23.81404  23.86055  23.87075  23.89048  23.90415
 Alpha virt. eigenvalues --   23.92245  23.96509  23.97198  23.97409  23.98982
 Alpha virt. eigenvalues --   24.09183  24.09367
          Condensed to atoms (all electrons):
               1          2          3          4          5          6
     1  C    8.322607   0.523675  -0.585902   1.653748   0.009085  -0.085502
     2  C    0.523675   6.881035   0.360884  -0.816422  -0.041323  -0.014332
     3  C   -0.585902   0.360884   6.568007   0.587253  -0.111730   0.016284
     4  C    1.653748  -0.816422   0.587253  10.331175  -0.075837  -0.112301
     5  C    0.009085  -0.041323  -0.111730  -0.075837  10.350264   0.600647
     6  C   -0.085502  -0.014332   0.016284  -0.112301   0.600647   6.570680
     7  C   -0.030374   0.006637  -0.014218  -0.040711  -0.832925   0.363994
     8  C    0.381666  -0.031372  -0.085419   0.013327   1.643927  -0.578701
     9  C   -1.340603  -0.627398   0.280102  -0.403518  -0.400732   0.278670
    10  C   -1.106017   0.167931  -0.329812  -2.330669  -2.334792  -0.333797
    11  C    0.173643  -0.940704   1.093675  -0.667617  -1.602787  -0.141081
    12  C   -1.465752   1.032077  -1.304201  -0.790831  -0.152811  -0.211699
    13  C    0.092696  -0.184852  -0.137676  -1.593777  -0.650587   1.088736
    14  C   -1.004838  -0.207598  -0.211275  -0.145284  -0.791545  -1.315346
    15  H    0.358759  -0.100329  -0.000250   0.024451   0.005441   0.001136
    16  H   -0.021929   0.380394  -0.018583   0.013412  -0.001472  -0.000315
    17  H   -0.018899  -0.022705   0.382152  -0.060000  -0.000065   0.000374
    18  H    0.044561   0.008263  -0.093427   0.442093   0.011110  -0.004672
    19  H   -0.045180  -0.008743   0.052338  -0.077200  -0.077213   0.052251
    20  H    0.007245   0.001646  -0.004663   0.011239   0.443472  -0.092953
    21  H   -0.001247  -0.000362   0.000372  -0.000083  -0.060194   0.382240
    22  H    0.000604   0.000340  -0.000313  -0.001447   0.013198  -0.018398
    23  H    0.005612  -0.002556   0.001135   0.005399   0.024706  -0.000212
    24  H    0.018024   0.015615  -0.001537  -0.013805  -0.013035  -0.001795
    25  H    0.045101   0.012215  -0.001053  -0.011928  -0.012720  -0.000712
               7          8          9         10         11         12
     1  C   -0.030374   0.381666  -1.340603  -1.106017   0.173643  -1.465752
     2  C    0.006637  -0.031372  -0.627398   0.167931  -0.940704   1.032077
     3  C   -0.014218  -0.085419   0.280102  -0.329812   1.093675  -1.304201
     4  C   -0.040711   0.013327  -0.403518  -2.330669  -0.667617  -0.790831
     5  C   -0.832925   1.643927  -0.400732  -2.334792  -1.602787  -0.152811
     6  C    0.363994  -0.578701   0.278670  -0.333797  -0.141081  -0.211699
     7  C    6.905311   0.519270  -0.639818   0.173062  -0.192155  -0.208618
     8  C    0.519270   8.334985  -1.351586  -1.107477   0.087557  -1.020045
     9  C   -0.639818  -1.351586   8.985040   0.367787   1.604947  -1.491573
    10  C    0.173062  -1.107477   0.367787   9.002546  -0.351982   1.971768
    11  C   -0.192155   0.087557   1.604947  -0.351982  14.296787  -3.501272
    12  C   -0.208618  -1.020045  -1.491573   1.971768  -3.501272  14.842808
    13  C   -0.947970   0.199073   1.609059  -0.340410   1.365227  -4.643117
    14  C    1.051216  -1.464514  -1.492408   1.974623  -4.665591   2.534154
    15  H   -0.002625   0.005669   0.085571  -0.009445  -0.020640  -0.021375
    16  H    0.000347   0.000664   0.003898  -0.010087   0.026747  -0.030910
    17  H   -0.000365  -0.001266  -0.003649   0.018378  -0.022434   0.076086
    18  H    0.001654   0.007326  -0.026952   0.025878  -0.023664  -0.037354
    19  H   -0.008634  -0.045234   0.072363   0.423642   0.086320  -0.067589
    20  H    0.007688   0.044691  -0.026983   0.025173  -0.012324  -0.007380
    21  H   -0.022445  -0.019339  -0.003651   0.018414  -0.005645   0.004221
    22  H    0.380644  -0.022583   0.003545  -0.009856   0.002523  -0.008480
    23  H   -0.101323   0.358160   0.085738  -0.009531  -0.000027   0.006330
    24  H    0.014801   0.015810   0.372364   0.007024   0.003716  -0.039743
    25  H    0.013291   0.048064   0.344050   0.004885   0.021596  -0.078519
              13         14         15         16         17         18
     1  C    0.092696  -1.004838   0.358759  -0.021929  -0.018899   0.044561
     2  C   -0.184852  -0.207598  -0.100329   0.380394  -0.022705   0.008263
     3  C   -0.137676  -0.211275  -0.000250  -0.018583   0.382152  -0.093427
     4  C   -1.593777  -0.145284   0.024451   0.013412  -0.060000   0.442093
     5  C   -0.650587  -0.791545   0.005441  -0.001472  -0.000065   0.011110
     6  C    1.088736  -1.315346   0.001136  -0.000315   0.000374  -0.004672
     7  C   -0.947970   1.051216  -0.002625   0.000347  -0.000365   0.001654
     8  C    0.199073  -1.464514   0.005669   0.000664  -0.001266   0.007326
     9  C    1.609059  -1.492408   0.085571   0.003898  -0.003649  -0.026952
    10  C   -0.340410   1.974623  -0.009445  -0.010087   0.018378   0.025878
    11  C    1.365227  -4.665591  -0.020640   0.026747  -0.022434  -0.023664
    12  C   -4.643117   2.534154  -0.021375  -0.030910   0.076086  -0.037354
    13  C   14.214798  -3.512510  -0.000225   0.002603  -0.005599  -0.011898
    14  C   -3.512510  14.836127   0.006224  -0.008598   0.004201  -0.006845
    15  H   -0.000225   0.006224   0.440322  -0.008995   0.001572   0.000103
    16  H    0.002603  -0.008598  -0.008995   0.420240  -0.007005   0.001975
    17  H   -0.005599   0.004201   0.001572  -0.007005   0.425018  -0.010521
    18  H   -0.011898  -0.006845   0.000103   0.001975  -0.010521   0.454692
    19  H    0.085875  -0.068422   0.000351  -0.000577   0.001470  -0.006372
    20  H   -0.023410  -0.037178  -0.000130   0.000016  -0.000148   0.001309
    21  H   -0.022647   0.076730   0.000019  -0.000007   0.000011  -0.000149
    22  H    0.026188  -0.029680  -0.000127   0.000007  -0.000007   0.000016
    23  H   -0.020029  -0.021348   0.000578  -0.000127   0.000019  -0.000133
    24  H    0.003868  -0.041120  -0.001497   0.000746  -0.000195   0.000128
    25  H    0.022054  -0.076807  -0.000368   0.000483  -0.000101   0.000247
              19         20         21         22         23         24
     1  C   -0.045180   0.007245  -0.001247   0.000604   0.005612   0.018024
     2  C   -0.008743   0.001646  -0.000362   0.000340  -0.002556   0.015615
     3  C    0.052338  -0.004663   0.000372  -0.000313   0.001135  -0.001537
     4  C   -0.077200   0.011239  -0.000083  -0.001447   0.005399  -0.013805
     5  C   -0.077213   0.443472  -0.060194   0.013198   0.024706  -0.013035
     6  C    0.052251  -0.092953   0.382240  -0.018398  -0.000212  -0.001795
     7  C   -0.008634   0.007688  -0.022445   0.380644  -0.101323   0.014801
     8  C   -0.045234   0.044691  -0.019339  -0.022583   0.358160   0.015810
     9  C    0.072363  -0.026983  -0.003651   0.003545   0.085738   0.372364
    10  C    0.423642   0.025173   0.018414  -0.009856  -0.009531   0.007024
    11  C    0.086320  -0.012324  -0.005645   0.002523  -0.000027   0.003716
    12  C   -0.067589  -0.007380   0.004221  -0.008480   0.006330  -0.039743
    13  C    0.085875  -0.023410  -0.022647   0.026188  -0.020029   0.003868
    14  C   -0.068422  -0.037178   0.076730  -0.029680  -0.021348  -0.041120
    15  H    0.000351  -0.000130   0.000019  -0.000127   0.000578  -0.001497
    16  H   -0.000577   0.000016  -0.000007   0.000007  -0.000127   0.000746
    17  H    0.001470  -0.000148   0.000011  -0.000007   0.000019  -0.000195
    18  H   -0.006372   0.001309  -0.000149   0.000016  -0.000133   0.000128
    19  H    0.446860  -0.006387   0.001482  -0.000581   0.000345   0.000664
    20  H   -0.006387   0.454597  -0.010605   0.001962   0.000117   0.000144
    21  H    0.001482  -0.010605   0.425313  -0.007025   0.001570  -0.000201
    22  H   -0.000581   0.001962  -0.007025   0.420224  -0.008988   0.000779
    23  H    0.000345   0.000117   0.001570  -0.008988   0.440676  -0.001643
    24  H    0.000664   0.000144  -0.000201   0.000779  -0.001643   0.491490
    25  H    0.000541   0.000224  -0.000092   0.000451  -0.000235  -0.078385
              25
     1  C    0.045101
     2  C    0.012215
     3  C   -0.001053
     4  C   -0.011928
     5  C   -0.012720
     6  C   -0.000712
     7  C    0.013291
     8  C    0.048064
     9  C    0.344050
    10  C    0.004885
    11  C    0.021596
    12  C   -0.078519
    13  C    0.022054
    14  C   -0.076807
    15  H   -0.000368
    16  H    0.000483
    17  H   -0.000101
    18  H    0.000247
    19  H    0.000541
    20  H    0.000224
    21  H   -0.000092
    22  H    0.000451
    23  H   -0.000235
    24  H   -0.078385
    25  H    0.491474
 Mulliken charges:
               1
     1  C    0.069221
     2  C   -0.392017
     3  C   -0.442142
     4  C    0.059333
     5  C    0.057917
     6  C   -0.443194
     7  C   -0.395734
     8  C    0.067348
     9  C   -0.284260
    10  C    0.092766
    11  C   -0.614814
    12  C    0.613827
    13  C   -0.615468
    14  C    0.617631
    15  H    0.235812
    16  H    0.257070
    17  H    0.243680
    18  H    0.222634
    19  H    0.187632
    20  H    0.222639
    21  H    0.243320
    22  H    0.257005
    23  H    0.235766
    24  H    0.247783
    25  H    0.256245
 Sum of Mulliken charges =   1.00000
 Mulliken charges with hydrogens summed into heavy atoms:
               1
     1  C    0.305033
     2  C   -0.134947
     3  C   -0.198462
     4  C    0.281967
     5  C    0.280557
     6  C   -0.199874
     7  C   -0.138729
     8  C    0.303114
     9  C    0.219768
    10  C    0.280398
    11  C   -0.614814
    12  C    0.613827
    13  C   -0.615468
    14  C    0.617631
 Electronic spatial extent (au):  <R**2>=           2867.8054
 Charge=              1.0000 electrons
 Dipole moment (field-independent basis, Debye):
    X=             -0.0055    Y=              0.1920    Z=              0.0021  Tot=              0.1921
 Quadrupole moment (field-independent basis, Debye-Ang):
   XX=            -30.8560   YY=            -56.2589   ZZ=            -84.2391
   XY=             -0.0031   XZ=             -0.0049   YZ=              0.1452
 Traceless Quadrupole moment (field-independent basis, Debye-Ang):
   XX=             26.2620   YY=              0.8591   ZZ=            -27.1211
   XY=             -0.0031   XZ=             -0.0049   YZ=              0.1452
 Octapole moment (field-independent basis, Debye-Ang**2):
  XXX=             -0.2224  YYY=              5.1970  ZZZ=             -0.0322  XYY=              0.0029
  XXY=             -4.2230  XXZ=              0.2756  XZZ=              0.0256  YZZ=             -3.0876
  YYZ=              0.1675  XYZ=             -0.0249
 Hexadecapole moment (field-independent basis, Debye-Ang**3):
 XXXX=          -2127.2301 YYYY=           -609.4256 ZZZZ=            -99.7261 XXXY=             -0.1241
 XXXZ=             -0.1421 YYYX=              0.0506 YYYZ=              1.6099 ZZZX=             -0.0070
 ZZZY=              0.0577 XXYY=           -509.8238 XXZZ=           -594.0591 YYZZ=           -145.8345
 XXYZ=              1.5720 YYXZ=              0.0002 ZZXY=             -0.0027
 N-N= 7.797799684325D+02 E-N=-2.795821019163D+03  KE= 5.374190640711D+02
 Unable to Open any file for archive entry.
 1\1\GINC-GADI-CPU-CLX-0113\SP\RM062X TD-FC\6-311++G(d,p)\C14H11(1+)\TS
 1578\28-Jul-2022\0\\#n M062X/6-311++G(d,p) TD(NStates=1) EmpiricalDisp
 ersion=GD3 SP\\SP_-125\\1,1\C,0,0.01865,2.492355,1.360431\C,0,0.023725
 ,3.712433,0.671989\C,0,0.0063,3.703461,-0.71383\C,0,-0.0235,2.477006,-
 1.407538\C,0,-0.0233,-2.476606,-1.407538\C,0,0.0075,-3.701461,-0.71383
 \C,0,0.025625,-3.711733,0.671989\C,0,0.02245,-2.491155,1.360431\C,0,0.
 013175,-0.0044,1.453369\C,0,-0.0366,0.0002,-1.429189\C,0,-0.005625,1.2
 5053,0.677065\C,0,-0.0146,1.238971,-0.730804\C,0,-0.005325,-1.25063,0.
 677065\C,0,-0.0154,-1.239571,-0.730804\H,0,0.0041,2.488046,2.443647\H,
 0,0.023825,4.646128,1.211689\H,0,-0.00465,4.609837,-1.272349\H,0,-0.01
 065,2.480975,-2.490059\H,0,-0.03375,0.0001,-2.510266\H,0,-0.01125,-2.4
 80675,-2.490059\H,0,-0.00405,-4.607337,-1.272349\H,0,0.026125,-4.64462
 8,1.211689\H,0,0.0085,-2.486746,2.443647\H,0,-0.811585,-0.001,2.146887
 \H,0,0.907585,-0.001,2.144687\\Version=ES64L-G16RevC.01\State=1-A\HF=-
 539.7571572\RMSD=4.650e-09\PG=C01 [X(C14H11)]\\@
 The archive entry for this job was punched.


 NO SCIENCE HAS EVER MADE MORE RAPID PROGRESS IN A
 SHORTER TIME THAN CHEMISTRY.
   -- MARTIN HEINRICH KLOPROTH, 1791
 (FIRST PROFESSOR OF CHEMISTRY AT THE UNIVERSITY OF BERLIN)
 Job cpu time:       0 days  1 hours 19 minutes 27.4 seconds.
 Elapsed time:       0 days  0 hours  1 minutes 39.5 seconds.
 File lengths (MBytes):  RWF=    460 Int=      0 D2E=      0 Chk=     15 Scr=      1
 Normal termination of Gaussian 16 at Thu Jul 28 13:24:41 2022.
