 Entering Gaussian System, Link 0=g16
 Initial command:
 /apps/gaussian/g16c01/g16/l1.exe "/jobfs/53002009.gadi-pbs/Gau-734586.inp" -scrdir="/jobfs/53002009.gadi-pbs/"
 Entering Link 1 = /apps/gaussian/g16c01/g16/l1.exe PID=    734587.
  
 Copyright (c) 1988-2019, Gaussian, Inc.  All Rights Reserved.
  
 This is part of the Gaussian(R) 16 program.  It is based on
 the Gaussian(R) 09 system (copyright 2009, Gaussian, Inc.),
 the Gaussian(R) 03 system (copyright 2003, Gaussian, Inc.),
 the Gaussian(R) 98 system (copyright 1998, Gaussian, Inc.),
 the Gaussian(R) 94 system (copyright 1995, Gaussian, Inc.),
 the Gaussian 92(TM) system (copyright 1992, Gaussian, Inc.),
 the Gaussian 90(TM) system (copyright 1990, Gaussian, Inc.),
 the Gaussian 88(TM) system (copyright 1988, Gaussian, Inc.),
 the Gaussian 86(TM) system (copyright 1986, Carnegie Mellon
 University), and the Gaussian 82(TM) system (copyright 1983,
 Carnegie Mellon University). Gaussian is a federally registered
 trademark of Gaussian, Inc.
  
 This software contains proprietary and confidential information,
 including trade secrets, belonging to Gaussian, Inc.
  
 This software is provided under written license and may be
 used, copied, transmitted, or stored only in accord with that
 written license.
  
 The following legend is applicable only to US Government
 contracts under FAR:
  
                    RESTRICTED RIGHTS LEGEND
  
 Use, reproduction and disclosure by the US Government is
 subject to restrictions as set forth in subparagraphs (a)
 and (c) of the Commercial Computer Software - Restricted
 Rights clause in FAR 52.227-19.
  
 Gaussian, Inc.
 340 Quinnipiac St., Bldg. 40, Wallingford CT 06492
  
  
 ---------------------------------------------------------------
 Warning -- This program may not be used in any manner that
 competes with the business of Gaussian, Inc. or will provide
 assistance to any competitor of Gaussian, Inc.  The licensee
 of this program is prohibited from giving any competitor of
 Gaussian, Inc. access to this program.  By using this program,
 the user acknowledges that Gaussian, Inc. is engaged in the
 business of creating and licensing software in the field of
 computational chemistry and represents and warrants to the
 licensee that it is not a competitor of Gaussian, Inc. and that
 it will not use this program in any manner prohibited above.
 ---------------------------------------------------------------
  

 Cite this work as:
 Gaussian 16, Revision C.01,
 M. J. Frisch, G. W. Trucks, H. B. Schlegel, G. E. Scuseria, 
 M. A. Robb, J. R. Cheeseman, G. Scalmani, V. Barone, 
 G. A. Petersson, H. Nakatsuji, X. Li, M. Caricato, A. V. Marenich, 
 J. Bloino, B. G. Janesko, R. Gomperts, B. Mennucci, H. P. Hratchian, 
 J. V. Ortiz, A. F. Izmaylov, J. L. Sonnenberg, D. Williams-Young, 
 F. Ding, F. Lipparini, F. Egidi, J. Goings, B. Peng, A. Petrone, 
 T. Henderson, D. Ranasinghe, V. G. Zakrzewski, J. Gao, N. Rega, 
 G. Zheng, W. Liang, M. Hada, M. Ehara, K. Toyota, R. Fukuda, 
 J. Hasegawa, M. Ishida, T. Nakajima, Y. Honda, O. Kitao, H. Nakai, 
 T. Vreven, K. Throssell, J. A. Montgomery, Jr., J. E. Peralta, 
 F. Ogliaro, M. J. Bearpark, J. J. Heyd, E. N. Brothers, K. N. Kudin, 
 V. N. Staroverov, T. A. Keith, R. Kobayashi, J. Normand, 
 K. Raghavachari, A. P. Rendell, J. C. Burant, S. S. Iyengar, 
 J. Tomasi, M. Cossi, J. M. Millam, M. Klene, C. Adamo, R. Cammi, 
 J. W. Ochterski, R. L. Martin, K. Morokuma, O. Farkas, 
 J. B. Foresman, and D. J. Fox, Gaussian, Inc., Wallingford CT, 2019.
 
 ******************************************
 Gaussian 16:  ES64L-G16RevC.01  3-Jul-2019
                28-Jul-2022 
 ******************************************
 %NProcShared=48
 Will use up to   48 processors via shared memory.
 %mem = 190GB
 ---------------------------------------------------------------
 #n M062X/6-311++G(d,p) TD(NStates=1) EmpiricalDispersion=GD3 SP
 ---------------------------------------------------------------
 1/38=1,172=1/1;
 2/12=2,17=6,18=5,40=1/2;
 3/5=4,6=6,7=1111,11=9,25=1,30=1,74=-55,124=31/1,2,3,8;
 4//1;
 5/5=2,38=5/2;
 8/6=1,10=2,108=1/1;
 9/41=1,42=1,70=2/14;
 6/7=2,8=2,9=2,10=2/1;
 99/5=1,9=1/99;
 ------
 SP_-75
 ------
 Symbolic Z-matrix:
 Charge =  1 Multiplicity = 1
 C                    -0.00675   2.49386   1.36043 
 C                    -0.00578   3.70036   0.67199 
 C                    -0.0022    3.68251  -0.71383 
 C                     0.00372   2.46123  -1.40754 
 C                     0.00407  -2.46053  -1.40754 
 C                    -0.0001   -3.67901  -0.71383 
 C                    -0.00245  -3.69913   0.67199 
 C                    -0.0001   -2.49176   1.36043 
 C                    -0.0021   -0.0077    1.45337 
 C                     0.0061    0.00035  -1.42919 
 C                     0.00065   1.26388   0.67707 
 C                     0.0032    1.23665  -0.7308 
 C                     0.00117  -1.26406   0.67707 
 C                     0.0018   -1.2377   -0.7308 
 H                    -0.0049    2.48932   2.44365 
 H                    -0.00618   4.63663   1.21169 
 H                     0.0002    4.61156  -1.27235 
 H                     0.00235   2.4656   -2.49006 
 H                     0.00563   0.00018  -2.51027 
 H                     0.0013   -2.46508  -2.49006 
 H                     0.00125  -4.60719  -1.27235 
 H                    -0.00215  -4.634     1.21169 
 H                     0.0028   -2.48705   2.44365 
 H                    -0.86759  -0.00175   2.14771 
 H                     0.85159  -0.00175   2.14386 
 
                          Input orientation:                          
 ---------------------------------------------------------------------
 Center     Atomic      Atomic             Coordinates (Angstroms)
 Number     Number       Type             X           Y           Z
 ---------------------------------------------------------------------
      1          6           0       -0.006750    2.493855    1.360431
      2          6           0       -0.005775    3.700358    0.671989
      3          6           0       -0.002200    3.682511   -0.713830
      4          6           0        0.003725    2.461231   -1.407538
      5          6           0        0.004075   -2.460531   -1.407538
      6          6           0       -0.000100   -3.679011   -0.713830
      7          6           0       -0.002450   -3.699133    0.671989
      8          6           0       -0.000100   -2.491755    1.360431
      9          6           0       -0.002100   -0.007700    1.453369
     10          6           0        0.006100    0.000350   -1.429189
     11          6           0        0.000650    1.263880    0.677065
     12          6           0        0.003200    1.236646   -0.730804
     13          6           0        0.001175   -1.264055    0.677065
     14          6           0        0.001800   -1.237696   -0.730804
     15          1           0       -0.004900    2.489321    2.443647
     16          1           0       -0.006175    4.636628    1.211689
     17          1           0        0.000200    4.611562   -1.272349
     18          1           0        0.002350    2.465600   -2.490059
     19          1           0        0.005625    0.000175   -2.510266
     20          1           0        0.001300   -2.465075   -2.490059
     21          1           0        0.001250   -4.607187   -1.272349
     22          1           0       -0.002150   -4.634003    1.211689
     23          1           0        0.002800   -2.487046    2.443647
     24          1           0       -0.867585   -0.001750    2.147712
     25          1           0        0.851585   -0.001750    2.143862
 ---------------------------------------------------------------------
                    Distance matrix (angstroms):
                    1          2          3          4          5
     1  C    0.000000
     2  C    1.389101   0.000000
     3  C    2.390708   1.385939   0.000000
     4  C    2.768181   2.420735   1.404561   0.000000
     5  C    5.675184   6.502391   6.182090   4.921762   0.000000
     6  C    6.512056   7.508370   7.361522   6.179306   1.402120
     7  C    6.231137   7.399492   7.510603   6.501889   2.420457
     8  C    4.985614   6.230269   6.513380   5.673953   2.768148
     9  C    2.503285   3.789494   4.279534   3.778947   3.768449
    10  C    3.741619   4.255015   3.751015   2.460977   2.460977
    11  C    1.407083   2.436492   2.790049   2.404003   4.268117
    12  C    2.440069   2.835099   2.445930   1.399135   3.758602
    13  C    3.819547   4.964420   5.138396   4.268879   2.403567
    14  C    4.277594   5.133446   4.920238   3.760324   1.397605
    15  H    1.083227   2.146016   3.375407   3.851297   6.271582
    16  H    2.147929   1.080684   2.148948   3.404820   7.565059
    17  H    3.378796   2.147272   1.084013   2.154579   7.073386
    18  H    3.850604   3.394590   2.153110   1.082531   5.043671
    19  H    4.604442   4.880393   4.097175   2.696815   2.696495
    20  H    6.278322   6.929009   6.399048   5.043843   1.082534
    21  H    7.573400   8.532046   8.308493   7.069711   2.150911
    22  H    7.129411   8.351818   8.536511   7.563249   3.403582
    23  H    5.097335   6.436056   6.930593   6.270333   3.851276
    24  H    2.754794   4.077509   4.744586   4.411945   4.409671
    25  H    2.752916   4.075179   4.740162   4.404269   4.401854
                    6          7          8          9         10
     6  C    0.000000
     7  C    1.385967   0.000000
     8  C    2.390007   1.389863   0.000000
     9  C    4.263248   3.773226   2.485794   0.000000
    10  C    3.748263   4.254550   3.740669   2.882581   0.000000
    11  C    5.134857   4.963017   3.817301   1.489823   2.456185
    12  C    4.915687   5.131255   4.274839   2.513769   1.419922
    13  C    2.786863   2.435086   1.405076   1.476850   2.456634
    14  C    2.441375   2.833111   2.438428   2.506694   1.421449
    15  H    6.929502   6.437060   5.097499   2.686219   4.603689
    16  H    8.535661   8.353215   7.129937   4.650614   5.335678
    17  H    8.309365   8.535110   7.575529   5.363499   4.613882
    18  H    6.396189   6.928384   6.277073   4.654875   2.683825
    19  H    4.094341   4.879723   4.603482   3.963650   1.081077
    20  H    2.151426   3.394328   3.850583   4.646432   2.683987
    21  H    1.083262   2.145932   3.377364   5.346478   4.610208
    22  H    2.149334   1.079471   2.147407   4.632611   5.333998
    23  H    3.374974   2.146615   1.083230   2.669800   4.602826
    24  H    4.739536   4.073924   2.751811   1.109600   3.682058
    25  H    4.734345   4.070188   2.745771   1.097995   3.671722
                   11         12         13         14         15
    11  C    0.000000
    12  C    1.408135   0.000000
    13  C    2.527935   2.869774   0.000000
    14  C    2.870536   2.474342   1.408116   0.000000
    15  H    2.150011   3.412682   4.148335   4.895696   0.000000
    16  H    3.414864   3.915769   5.924858   6.187166   2.475611
    17  H    3.873911   3.418090   6.190565   5.874274   4.279318
    18  H    3.387449   2.145998   4.892954   4.099924   4.933768
    19  H    3.428710   2.166876   3.428903   2.167677   5.544115
    20  H    4.892421   4.098502   3.387200   2.145096   6.991962
    21  H    6.186246   5.868872   3.869980   3.412732   8.010561
    22  H    5.922065   6.183674   3.412094   3.912569   7.229071
    23  H    4.146114   4.893161   2.148609   3.411454   4.976373
    24  H    2.125666   3.252345   2.123902   3.251038   2.652779
    25  H    2.115988   3.243006   2.113789   3.242438   2.651202
                   16         17         18         19         20
    16  H    0.000000
    17  H    2.484173   0.000000
    18  H    4.291430   2.467382   0.000000
    19  H    5.945568   4.774658   2.465510   0.000000
    20  H    8.008569   7.180641   4.930675   2.465337   0.000000
    21  H    9.571761   9.218749   7.176847   4.770770   2.464034
    22  H    9.270632   9.573449   8.006705   5.943788   4.290361
    23  H    7.229421   8.012420   6.990719   5.543242   4.933755
    24  H    4.809648   5.807970   5.324803   4.739120   5.322767
    25  H    4.808248   5.803275   5.318105   4.730387   5.316407
                   21         22         23         24         25
    21  H    0.000000
    22  H    2.484185   0.000000
    23  H    4.278274   2.475312   0.000000
    24  H    5.801874   4.804465   2.649876   0.000000
    25  H    5.796863   4.801622   2.643294   1.719174   0.000000
 Stoichiometry    C14H11(1+)
 Framework group  C1[X(C14H11)]
 Deg. of freedom    69
 Full point group                 C1      NOp   1
 Largest Abelian subgroup         C1      NOp   1
 Largest concise Abelian subgroup C1      NOp   1
                         Standard orientation:                         
 ---------------------------------------------------------------------
 Center     Atomic      Atomic             Coordinates (Angstroms)
 Number     Number       Type             X           Y           Z
 ---------------------------------------------------------------------
      1          6           0        2.493655   -1.360808    0.002605
      2          6           0        3.700259   -0.672543    0.002655
      3          6           0        3.682615    0.713283    0.002162
      4          6           0        2.461435    1.407182   -0.001715
      5          6           0       -2.460327    1.407905   -0.000013
      6          6           0       -3.678907    0.714368    0.003132
      7          6           0       -3.699233   -0.671450    0.002415
      8          6           0       -2.491957   -1.360062   -0.001965
      9          6           0       -0.007916   -1.453369   -0.001208
     10          6           0        0.000557    1.429199   -0.003016
     11          6           0        1.263778   -0.677247   -0.002765
     12          6           0        1.236751    0.730628   -0.002181
     13          6           0       -1.264157   -0.676875   -0.002236
     14          6           0       -1.237591    0.730988    0.000251
     15          1           0        2.488960   -2.444017   -0.001646
     16          1           0        4.636449   -1.212380    0.001467
     17          1           0        4.611747    1.271670    0.000613
     18          1           0        2.465964    2.489697    0.002060
     19          1           0        0.000541    2.510272   -0.000142
     20          1           0       -2.464710    2.490417    0.005166
     21          1           0       -4.607001    1.273025    0.003408
     22          1           0       -4.634182   -1.211011    0.001308
     23          1           0       -2.487409   -2.443270   -0.007271
     24          1           0       -0.001707   -2.149631    0.862732
     25          1           0       -0.002423   -2.141967   -0.856425
 ---------------------------------------------------------------------
 Rotational constants (GHZ):           2.1362075           0.4450408           0.3691117
 Standard basis: 6-311++G(d,p) (5D, 7F)
 There are   399 symmetry adapted cartesian basis functions of A   symmetry.
 There are   385 symmetry adapted basis functions of A   symmetry.
   385 basis functions,   603 primitive gaussians,   399 cartesian basis functions
    47 alpha electrons       47 beta electrons
       nuclear repulsion energy       781.4277456480 Hartrees.
 NAtoms=   25 NActive=   25 NUniq=   25 SFac= 1.00D+00 NAtFMM=   60 NAOKFM=F Big=F
 Integral buffers will be    131072 words long.
 Regular integral format.
 Two-electron integral symmetry is turned on.
 Nuclear repulsion after empirical dispersion term =      781.4267662333 Hartrees.
 One-electron integrals computed using PRISM.
 NBasis=   385 RedAO= T EigKep=  1.12D-06  NBF=   385
 NBsUse=   379 1.00D-06 EigRej=  8.35D-07 NBFU=   379
 ExpMin= 3.60D-02 ExpMax= 4.56D+03 ExpMxC= 6.82D+02 IAcc=3 IRadAn=         5 AccDes= 0.00D+00
 Harris functional with IExCor= 1009 and IRadAn=       5 diagonalized for initial guess.
 HarFok:  IExCor= 1009 AccDes= 0.00D+00 IRadAn=         5 IDoV= 1 UseB2=F ITyADJ=14
 ICtDFT=  3500011 ScaDFX=  1.000000  1.000000  1.000000  1.000000
 FoFCou: FMM=F IPFlag=           0 FMFlag=      100000 FMFlg1=           0
         NFxFlg=           0 DoJE=T BraDBF=F KetDBF=T FulRan=T
         wScrn=  0.000000 ICntrl=       500 IOpCl=  0 I1Cent=   200000004 NGrid=           0
         NMat0=    1 NMatS0=      1 NMatT0=    0 NMatD0=    1 NMtDS0=    0 NMtDT0=    0
 Petite list used in FoFCou.
 Requested convergence on RMS density matrix=1.00D-08 within 128 cycles.
 Requested convergence on MAX density matrix=1.00D-06.
 Requested convergence on             energy=1.00D-06.
 No special actions if energy rises.
 SCF Done:  E(RM062X) =  -539.760185749     A.U. after   15 cycles
            NFock= 15  Conv=0.48D-08     -V/T= 2.0042
 DoSCS=F DFT=T ScalE2(SS,OS)=  1.000000  1.000000
 ExpMin= 3.60D-02 ExpMax= 4.56D+03 ExpMxC= 6.82D+02 IAcc=3 IRadAn=         5 AccDes= 0.00D+00
 HarFok:  IExCor=  205 AccDes= 0.00D+00 IRadAn=         5 IDoV=-2 UseB2=F ITyADJ=14
 ICtDFT= 12500011 ScaDFX=  1.000000  1.000000  1.000000  1.000000
 Range of M.O.s used for correlation:    15   379
 NBasis=   385 NAE=    47 NBE=    47 NFC=    14 NFV=     0
 NROrb=    365 NOA=    33 NOB=    33 NVA=   332 NVB=   332

 **** Warning!!: The largest alpha MO coefficient is  0.15150000D+03

 Orbital symmetries:
       Occupied  (A) (A) (A) (A) (A) (A) (A) (A) (A) (A) (A) (A)
                 (A) (A) (A) (A) (A) (A) (A) (A) (A) (A) (A) (A)
                 (A) (A) (A) (A) (A) (A) (A) (A) (A) (A) (A) (A)
                 (A) (A) (A) (A) (A) (A) (A) (A) (A) (A) (A)
       Virtual   (A) (A) (A) (A) (A) (A) (A) (A) (A) (A) (A) (A)
                 (A) (A) (A) (A) (A) (A) (A) (A) (A) (A) (A) (A)
                 (A) (A) (A) (A) (A) (A) (A) (A) (A) (A) (A) (A)
                 (A) (A) (A) (A) (A) (A) (A) (A) (A) (A) (A) (A)
                 (A) (A) (A) (A) (A) (A) (A) (A) (A) (A) (A) (A)
                 (A) (A) (A) (A) (A) (A) (A) (A) (A) (A) (A) (A)
                 (A) (A) (A) (A) (A) (A) (A) (A) (A) (A) (A) (A)
                 (A) (A) (A) (A) (A) (A) (A) (A) (A) (A) (A) (A)
                 (A) (A) (A) (A) (A) (A) (A) (A) (A) (A) (A) (A)
                 (A) (A) (A) (A) (A) (A) (A) (A) (A) (A) (A) (A)
                 (A) (A) (A) (A) (A) (A) (A) (A) (A) (A) (A) (A)
                 (A) (A) (A) (A) (A) (A) (A) (A) (A) (A) (A) (A)
                 (A) (A) (A) (A) (A) (A) (A) (A) (A) (A) (A) (A)
                 (A) (A) (A) (A) (A) (A) (A) (A) (A) (A) (A) (A)
                 (A) (A) (A) (A) (A) (A) (A) (A) (A) (A) (A) (A)
                 (A) (A) (A) (A) (A) (A) (A) (A) (A) (A) (A) (A)
                 (A) (A) (A) (A) (A) (A) (A) (A) (A) (A) (A) (A)
                 (A) (A) (A) (A) (A) (A) (A) (A) (A) (A) (A) (A)
                 (A) (A) (A) (A) (A) (A) (A) (A) (A) (A) (A) (A)
                 (A) (A) (A) (A) (A) (A) (A) (A) (A) (A) (A) (A)
                 (A) (A) (A) (A) (A) (A) (A) (A) (A) (A) (A) (A)
                 (A) (A) (A) (A) (A) (A) (A) (A) (A) (A) (A) (A)
                 (A) (A) (A) (A) (A) (A) (A) (A) (A) (A) (A) (A)
                 (A) (A) (A) (A) (A) (A) (A) (A) (A) (A) (A) (A)
                 (A) (A) (A) (A) (A) (A) (A) (A) (A) (A) (A) (A)
                 (A) (A) (A) (A) (A) (A) (A) (A) (A) (A) (A) (A)
                 (A) (A) (A) (A) (A) (A) (A) (A) (A) (A) (A) (A)
                 (A) (A) (A) (A) (A) (A) (A) (A)
     4 initial guesses have been made.
 Convergence on wavefunction:    0.001000000000000
 Iteration     1 Dimension     4 NMult     0 NNew      4
 CISAX will form     4 AO SS matrices at one time.
 Iteration     2 Dimension     6 NMult     4 NNew      2
 Iteration     3 Dimension     8 NMult     6 NNew      2
 Iteration     4 Dimension    10 NMult     8 NNew      2
 Iteration     5 Dimension    12 NMult    10 NNew      2
 Iteration     6 Dimension    14 NMult    12 NNew      2
 ***********************************************************************
 Excited states from <AA,BB:AA,BB> singles matrix:
 ***********************************************************************
 
 Ground to excited state transition densities written to RWF  633
 Ground to excited state transition electric dipole moments (Au):
       state          X           Y           Z        Dip. S.      Osc.
         1        -0.0100     -0.6460      0.0012      0.4174      0.0289
 Ground to excited state transition velocity dipole moments (Au):
       state          X           Y           Z        Dip. S.      Osc.
         1         0.0011      0.0748     -0.0001      0.0056      0.0359
 Ground to excited state transition magnetic dipole moments (Au):
       state          X           Y           Z
         1        -0.0012      0.0007      0.0005
 Ground to excited state transition velocity quadrupole moments (Au):
       state          XX          YY          ZZ          XY          XZ          YZ
         1         0.2946      0.0357     -0.0099      0.0015     -0.0000      0.0003
 <0|del|b> * <b|rxdel|0> + <0|del|b> * <b|delr+rdel|0>
 Rotatory Strengths (R) in cgs (10**-40 erg-esu-cm/Gauss)
       state          XX          YY          ZZ    R(velocity)    E-M Angle
         1         0.1960     -0.0027      0.1682      0.1205       90.00
 1/2[<0|r|b>*<b|rxdel|0> + (<0|rxdel|b>*<b|r|0>)*]
 Rotatory Strengths (R) in cgs (10**-40 erg-esu-cm/Gauss)
       state          XX          YY          ZZ     R(length)
         1        -0.0088      0.3328     -0.0004      0.1079
  1/2[<0|del|b>*<b|r|0> + (<0|r|b>*<b|del|0>)*] (Au)
       state          X           Y           Z        Dip. S.   Osc.(frdel)
         1        -0.0000     -0.0483     -0.0000      0.0483      0.0322

 Excitation energies and oscillator strengths:
 
 Excited State   1:      Singlet-A      2.8266 eV  438.63 nm  f=0.0289  <S**2>=0.000
      47 -> 48         0.70425
 This state for optimization and/or second-order correction.
 Total Energy, E(TD-HF/TD-DFT) =  -539.656309276    
 Copying the excited state density for this state as the 1-particle RhoCI density.
 SavETr:  write IOETrn=   770 NScale= 10 NData=  16 NLR=1 NState=    1 LETran=      28.

 **********************************************************************

            Population analysis using the SCF Density.

 **********************************************************************

 Orbital symmetries:
       Occupied  (A) (A) (A) (A) (A) (A) (A) (A) (A) (A) (A) (A)
                 (A) (A) (A) (A) (A) (A) (A) (A) (A) (A) (A) (A)
                 (A) (A) (A) (A) (A) (A) (A) (A) (A) (A) (A) (A)
                 (A) (A) (A) (A) (A) (A) (A) (A) (A) (A) (A)
       Virtual   (A) (A) (A) (A) (A) (A) (A) (A) (A) (A) (A) (A)
                 (A) (A) (A) (A) (A) (A) (A) (A) (A) (A) (A) (A)
                 (A) (A) (A) (A) (A) (A) (A) (A) (A) (A) (A) (A)
                 (A) (A) (A) (A) (A) (A) (A) (A) (A) (A) (A) (A)
                 (A) (A) (A) (A) (A) (A) (A) (A) (A) (A) (A) (A)
                 (A) (A) (A) (A) (A) (A) (A) (A) (A) (A) (A) (A)
                 (A) (A) (A) (A) (A) (A) (A) (A) (A) (A) (A) (A)
                 (A) (A) (A) (A) (A) (A) (A) (A) (A) (A) (A) (A)
                 (A) (A) (A) (A) (A) (A) (A) (A) (A) (A) (A) (A)
                 (A) (A) (A) (A) (A) (A) (A) (A) (A) (A) (A) (A)
                 (A) (A) (A) (A) (A) (A) (A) (A) (A) (A) (A) (A)
                 (A) (A) (A) (A) (A) (A) (A) (A) (A) (A) (A) (A)
                 (A) (A) (A) (A) (A) (A) (A) (A) (A) (A) (A) (A)
                 (A) (A) (A) (A) (A) (A) (A) (A) (A) (A) (A) (A)
                 (A) (A) (A) (A) (A) (A) (A) (A) (A) (A) (A) (A)
                 (A) (A) (A) (A) (A) (A) (A) (A) (A) (A) (A) (A)
                 (A) (A) (A) (A) (A) (A) (A) (A) (A) (A) (A) (A)
                 (A) (A) (A) (A) (A) (A) (A) (A) (A) (A) (A) (A)
                 (A) (A) (A) (A) (A) (A) (A) (A) (A) (A) (A) (A)
                 (A) (A) (A) (A) (A) (A) (A) (A) (A) (A) (A) (A)
                 (A) (A) (A) (A) (A) (A) (A) (A) (A) (A) (A) (A)
                 (A) (A) (A) (A) (A) (A) (A) (A) (A) (A) (A) (A)
                 (A) (A) (A) (A) (A) (A) (A) (A) (A) (A) (A) (A)
                 (A) (A) (A) (A) (A) (A) (A) (A) (A) (A) (A) (A)
                 (A) (A) (A) (A) (A) (A) (A) (A) (A) (A) (A) (A)
                 (A) (A) (A) (A) (A) (A) (A) (A) (A) (A) (A) (A)
                 (A) (A) (A) (A) (A) (A) (A) (A) (A) (A) (A) (A)
                 (A) (A) (A) (A) (A) (A) (A) (A)
 The electronic state is 1-A.
 Alpha  occ. eigenvalues --  -10.77667 -10.73281 -10.73184 -10.72417 -10.72412
 Alpha  occ. eigenvalues --  -10.71368 -10.71317 -10.70998 -10.70981 -10.70978
 Alpha  occ. eigenvalues --  -10.69963 -10.69926 -10.69662 -10.69615  -1.16460
 Alpha  occ. eigenvalues --   -1.12518  -1.06973  -1.05716  -1.01365  -1.00176
 Alpha  occ. eigenvalues --   -0.95802  -0.91051  -0.86422  -0.85910  -0.83818
 Alpha  occ. eigenvalues --   -0.78404  -0.76031  -0.74429  -0.69561  -0.69236
 Alpha  occ. eigenvalues --   -0.68497  -0.68176  -0.68077  -0.64778  -0.64319
 Alpha  occ. eigenvalues --   -0.63037  -0.61829  -0.60021  -0.59717  -0.59079
 Alpha  occ. eigenvalues --   -0.56891  -0.55207  -0.54813  -0.52458  -0.46663
 Alpha  occ. eigenvalues --   -0.46054  -0.44524
 Alpha virt. eigenvalues --   -0.26093  -0.14643  -0.14091  -0.12743  -0.11179
 Alpha virt. eigenvalues --   -0.10088  -0.09234  -0.07992  -0.07966  -0.07477
 Alpha virt. eigenvalues --   -0.07203  -0.07142  -0.05642  -0.05581  -0.05327
 Alpha virt. eigenvalues --   -0.03834  -0.03653  -0.03279  -0.03132  -0.02166
 Alpha virt. eigenvalues --   -0.01371  -0.00936   0.00192   0.00580   0.00662
 Alpha virt. eigenvalues --    0.01058   0.01513   0.01947   0.02221   0.02284
 Alpha virt. eigenvalues --    0.02453   0.02665   0.02772   0.03302   0.03364
 Alpha virt. eigenvalues --    0.04238   0.04506   0.04697   0.05046   0.05368
 Alpha virt. eigenvalues --    0.06028   0.06298   0.06598   0.07044   0.07259
 Alpha virt. eigenvalues --    0.07897   0.08187   0.08360   0.08550   0.08927
 Alpha virt. eigenvalues --    0.09544   0.09556   0.10037   0.10846   0.11061
 Alpha virt. eigenvalues --    0.11119   0.12168   0.12241   0.12927   0.12960
 Alpha virt. eigenvalues --    0.13413   0.13516   0.14016   0.14410   0.16211
 Alpha virt. eigenvalues --    0.16262   0.16390   0.17338   0.17629   0.17795
 Alpha virt. eigenvalues --    0.18126   0.19093   0.19251   0.19648   0.19745
 Alpha virt. eigenvalues --    0.21578   0.21607   0.22715   0.23101   0.23557
 Alpha virt. eigenvalues --    0.23820   0.24580   0.25319   0.26919   0.27628
 Alpha virt. eigenvalues --    0.28847   0.29291   0.29860   0.31376   0.35816
 Alpha virt. eigenvalues --    0.36471   0.38196   0.39298   0.41153   0.41389
 Alpha virt. eigenvalues --    0.41971   0.42174   0.42976   0.43709   0.44284
 Alpha virt. eigenvalues --    0.45014   0.45034   0.46130   0.46156   0.47943
 Alpha virt. eigenvalues --    0.48517   0.48862   0.49015   0.50415   0.51187
 Alpha virt. eigenvalues --    0.51611   0.51709   0.52119   0.52970   0.53959
 Alpha virt. eigenvalues --    0.54078   0.54680   0.55689   0.55761   0.57455
 Alpha virt. eigenvalues --    0.58248   0.58816   0.61449   0.62201   0.62347
 Alpha virt. eigenvalues --    0.63236   0.63479   0.64960   0.65160   0.67229
 Alpha virt. eigenvalues --    0.70428   0.70593   0.71027   0.72431   0.72872
 Alpha virt. eigenvalues --    0.75777   0.76013   0.76305   0.76893   0.77089
 Alpha virt. eigenvalues --    0.77835   0.77899   0.78243   0.79908   0.80384
 Alpha virt. eigenvalues --    0.81269   0.81652   0.82145   0.83032   0.85183
 Alpha virt. eigenvalues --    0.87178   0.88165   0.88549   0.89221   0.90407
 Alpha virt. eigenvalues --    0.91061   0.91300   0.93243   0.94648   0.96439
 Alpha virt. eigenvalues --    0.96641   1.00362   1.01288   1.01720   1.02766
 Alpha virt. eigenvalues --    1.03203   1.03884   1.04751   1.05378   1.08805
 Alpha virt. eigenvalues --    1.19497   1.23257   1.24053   1.25290   1.28015
 Alpha virt. eigenvalues --    1.29787   1.31678   1.34371   1.35813   1.36035
 Alpha virt. eigenvalues --    1.39386   1.40153   1.40986   1.43089   1.43499
 Alpha virt. eigenvalues --    1.43561   1.45210   1.45382   1.46360   1.46666
 Alpha virt. eigenvalues --    1.47664   1.48103   1.51743   1.53643   1.55760
 Alpha virt. eigenvalues --    1.55874   1.56417   1.56595   1.57813   1.61489
 Alpha virt. eigenvalues --    1.63188   1.63468   1.63676   1.66137   1.68308
 Alpha virt. eigenvalues --    1.68375   1.68704   1.69735   1.74463   1.75993
 Alpha virt. eigenvalues --    1.77183   1.78067   1.80009   1.80234   1.80807
 Alpha virt. eigenvalues --    1.83148   1.83248   1.83608   1.83879   1.84132
 Alpha virt. eigenvalues --    1.84322   1.85921   1.86097   1.88247   1.91359
 Alpha virt. eigenvalues --    1.92109   1.94123   1.95187   1.97750   1.98251
 Alpha virt. eigenvalues --    1.99836   2.02413   2.04477   2.07174   2.11824
 Alpha virt. eigenvalues --    2.12105   2.14129   2.15240   2.19237   2.21258
 Alpha virt. eigenvalues --    2.22895   2.28680   2.30236   2.34616   2.34985
 Alpha virt. eigenvalues --    2.36248   2.38559   2.39422   2.42401   2.44374
 Alpha virt. eigenvalues --    2.46492   2.46594   2.49450   2.52963   2.53805
 Alpha virt. eigenvalues --    2.54232   2.56746   2.57867   2.58337   2.59661
 Alpha virt. eigenvalues --    2.59855   2.61580   2.62173   2.63560   2.63836
 Alpha virt. eigenvalues --    2.64795   2.65109   2.65293   2.65355   2.67965
 Alpha virt. eigenvalues --    2.68489   2.70988   2.71413   2.73358   2.74825
 Alpha virt. eigenvalues --    2.76328   2.78849   2.79766   2.82984   2.83092
 Alpha virt. eigenvalues --    2.85005   2.86315   2.92130   2.96995   2.99561
 Alpha virt. eigenvalues --    3.00141   3.04960   3.11255   3.11579   3.13262
 Alpha virt. eigenvalues --    3.20909   3.23775   3.26853   3.28295   3.30863
 Alpha virt. eigenvalues --    3.33034   3.33634   3.43427   3.45974   3.46834
 Alpha virt. eigenvalues --    3.48708   3.50299   3.56533   3.65742   3.66864
 Alpha virt. eigenvalues --    3.67524   3.93914   3.94618   3.94897   3.96197
 Alpha virt. eigenvalues --    4.03863   4.06883   4.07569   4.12555   4.35478
 Alpha virt. eigenvalues --    4.61292   4.69965   4.71800  23.45294  23.60342
 Alpha virt. eigenvalues --   23.82358  23.85419  23.88056  23.89393  23.90540
 Alpha virt. eigenvalues --   23.92324  23.97942  23.99941  24.00295  24.00364
 Alpha virt. eigenvalues --   24.10706  24.10947
          Condensed to atoms (all electrons):
               1          2          3          4          5          6
     1  C    8.585347   0.335304  -0.556520   1.973225  -0.032329  -0.096148
     2  C    0.335304   7.119112   0.355927  -1.059847  -0.022453  -0.014954
     3  C   -0.556520   0.355927   6.593399   0.756844  -0.122038   0.017104
     4  C    1.973225  -1.059847   0.756844  10.989504  -0.359461  -0.125380
     5  C   -0.032329  -0.022453  -0.122038  -0.359461  10.920066   0.775066
     6  C   -0.096148  -0.014954   0.017104  -0.125380   0.775066   6.599721
     7  C   -0.017233   0.002322  -0.014849  -0.020620  -1.066180   0.360012
     8  C    0.408058  -0.021211  -0.095939  -0.018483   1.929025  -0.543895
     9  C   -1.177783  -0.787958   0.293807  -0.215585  -0.259173   0.290968
    10  C   -1.273268   0.239791  -0.350427  -2.569567  -2.567270  -0.366753
    11  C    0.278297  -0.921587   1.006580  -0.235086  -1.498142  -0.180933
    12  C   -2.077003   1.325872  -1.379790  -1.615552  -0.322655  -0.197713
    13  C    0.216705  -0.226827  -0.178752  -1.514715  -0.225625   1.012809
    14  C   -1.069091  -0.196864  -0.199408  -0.348931  -1.514052  -1.405788
    15  H    0.367552  -0.105209  -0.001779   0.026977   0.005748   0.001126
    16  H   -0.018220   0.378320  -0.016595   0.013961  -0.001567  -0.000335
    17  H   -0.024274  -0.016886   0.373890  -0.067582   0.000353   0.000404
    18  H    0.050198   0.003197  -0.085218   0.457137   0.006405  -0.005119
    19  H   -0.046758  -0.007652   0.050905  -0.069949  -0.066820   0.051206
    20  H    0.007238   0.002026  -0.005045   0.006571   0.456391  -0.084122
    21  H   -0.001312  -0.000401   0.000400   0.000346  -0.067185   0.374064
    22  H    0.000679   0.000366  -0.000332  -0.001570   0.013523  -0.015918
    23  H    0.005764  -0.002641   0.001110   0.005865   0.026676  -0.001572
    24  H    0.036712   0.015023  -0.001169  -0.013014  -0.011251  -0.001685
    25  H    0.028805   0.013844  -0.002062  -0.011460  -0.012611  -0.001399
               7          8          9         10         11         12
     1  C   -0.017233   0.408058  -1.177783  -1.273268   0.278297  -2.077003
     2  C    0.002322  -0.021211  -0.787958   0.239791  -0.921587   1.325872
     3  C   -0.014849  -0.095939   0.293807  -0.350427   1.006580  -1.379790
     4  C   -0.020620  -0.018483  -0.215585  -2.569567  -0.235086  -1.615552
     5  C   -1.066180   1.929025  -0.259173  -2.567270  -1.498142  -0.322655
     6  C    0.360012  -0.543895   0.290968  -0.366753  -0.180933  -0.197713
     7  C    7.146686   0.340843  -0.789309   0.245743  -0.241862  -0.202460
     8  C    0.340843   8.582884  -1.219485  -1.270915   0.200343  -1.091392
     9  C   -0.789309  -1.219485   9.574961   0.274136   1.600944  -1.914240
    10  C    0.245743  -1.270915   0.274136   9.184028  -0.472096   2.444246
    11  C   -0.241862   0.200343   1.600944  -0.472096  14.503931  -3.780482
    12  C   -0.202460  -1.091392  -1.914240   2.444246  -3.780482  16.055505
    13  C   -0.934963   0.326376   1.633091  -0.488463   1.113981  -4.766208
    14  C    1.322544  -2.022999  -1.883001   2.414162  -4.799678   3.062298
    15  H   -0.002708   0.005794   0.091427  -0.009514  -0.029836  -0.024848
    16  H    0.000372   0.000783   0.004006  -0.009683   0.027951  -0.035557
    17  H   -0.000402  -0.001333  -0.005639   0.020460  -0.027009   0.091292
    18  H    0.002018   0.007433  -0.025052   0.013393  -0.006621  -0.054877
    19  H   -0.007680  -0.046672   0.075762   0.421845   0.074220  -0.064541
    20  H    0.002601   0.049659  -0.025408   0.013341  -0.011485  -0.014025
    21  H   -0.016322  -0.024499  -0.005662   0.020498  -0.006429   0.005314
    22  H    0.379175  -0.020073   0.003388  -0.009536   0.003155  -0.009150
    23  H   -0.105590   0.365872   0.090208  -0.009429   0.001297   0.006671
    24  H    0.013479   0.033367   0.354328   0.005301   0.013732  -0.061742
    25  H    0.015589   0.033594   0.357451   0.005085   0.012556  -0.057911
              13         14         15         16         17         18
     1  C    0.216705  -1.069091   0.367552  -0.018220  -0.024274   0.050198
     2  C   -0.226827  -0.196864  -0.105209   0.378320  -0.016886   0.003197
     3  C   -0.178752  -0.199408  -0.001779  -0.016595   0.373890  -0.085218
     4  C   -1.514715  -0.348931   0.026977   0.013961  -0.067582   0.457137
     5  C   -0.225625  -1.514052   0.005748  -0.001567   0.000353   0.006405
     6  C    1.012809  -1.405788   0.001126  -0.000335   0.000404  -0.005119
     7  C   -0.934963   1.322544  -0.002708   0.000372  -0.000402   0.002018
     8  C    0.326376  -2.022999   0.005794   0.000783  -0.001333   0.007433
     9  C    1.633091  -1.883001   0.091427   0.004006  -0.005639  -0.025052
    10  C   -0.488463   2.414162  -0.009514  -0.009683   0.020460   0.013393
    11  C    1.113981  -4.799678  -0.029836   0.027951  -0.027009  -0.006621
    12  C   -4.766208   3.062298  -0.024848  -0.035557   0.091292  -0.054877
    13  C   14.420114  -3.805194   0.001284   0.003144  -0.006206  -0.011679
    14  C   -3.805194  15.977876   0.006612  -0.009232   0.005301  -0.013879
    15  H    0.001284   0.006612   0.438828  -0.009037   0.001443   0.000182
    16  H    0.003144  -0.009232  -0.009037   0.419363  -0.006589   0.001940
    17  H   -0.006206   0.005301   0.001443  -0.006589   0.421970  -0.010172
    18  H   -0.011679  -0.013879   0.000182   0.001940  -0.010172   0.453678
    19  H    0.076573  -0.064626   0.000317  -0.000536   0.001403  -0.006191
    20  H   -0.006462  -0.053790  -0.000112   0.000015  -0.000142   0.001268
    21  H   -0.027982   0.091822   0.000014  -0.000007   0.000010  -0.000143
    22  H    0.027340  -0.033433  -0.000127   0.000008  -0.000007   0.000015
    23  H   -0.028841  -0.023138   0.000587  -0.000126   0.000013  -0.000112
    24  H    0.015748  -0.063781  -0.000770   0.000574  -0.000122   0.000161
    25  H    0.011310  -0.056289  -0.001065   0.000688  -0.000160   0.000202
              19         20         21         22         23         24
     1  C   -0.046758   0.007238  -0.001312   0.000679   0.005764   0.036712
     2  C   -0.007652   0.002026  -0.000401   0.000366  -0.002641   0.015023
     3  C    0.050905  -0.005045   0.000400  -0.000332   0.001110  -0.001169
     4  C   -0.069949   0.006571   0.000346  -0.001570   0.005865  -0.013014
     5  C   -0.066820   0.456391  -0.067185   0.013523   0.026676  -0.011251
     6  C    0.051206  -0.084122   0.374064  -0.015918  -0.001572  -0.001685
     7  C   -0.007680   0.002601  -0.016322   0.379175  -0.105590   0.013479
     8  C   -0.046672   0.049659  -0.024499  -0.020073   0.365872   0.033367
     9  C    0.075762  -0.025408  -0.005662   0.003388   0.090208   0.354328
    10  C    0.421845   0.013341   0.020498  -0.009536  -0.009429   0.005301
    11  C    0.074220  -0.011485  -0.006429   0.003155   0.001297   0.013732
    12  C   -0.064541  -0.014025   0.005314  -0.009150   0.006671  -0.061742
    13  C    0.076573  -0.006462  -0.027982   0.027340  -0.028841   0.015748
    14  C   -0.064626  -0.053790   0.091822  -0.033433  -0.023138  -0.063781
    15  H    0.000317  -0.000112   0.000014  -0.000127   0.000587  -0.000770
    16  H   -0.000536   0.000015  -0.000007   0.000008  -0.000126   0.000574
    17  H    0.001403  -0.000142   0.000010  -0.000007   0.000013  -0.000122
    18  H   -0.006191   0.001268  -0.000143   0.000015  -0.000112   0.000161
    19  H    0.442264  -0.006051   0.001401  -0.000535   0.000304   0.000594
    20  H   -0.006051   0.453594  -0.010257   0.001901   0.000187   0.000199
    21  H    0.001401  -0.010257   0.422292  -0.006631   0.001463  -0.000140
    22  H   -0.000535   0.001901  -0.006631   0.419444  -0.008992   0.000636
    23  H    0.000304   0.000187   0.001463  -0.008992   0.438859  -0.000884
    24  H    0.000594   0.000199  -0.000140   0.000636  -0.000884   0.494339
    25  H    0.000575   0.000166  -0.000145   0.000636  -0.000899  -0.079739
              25
     1  C    0.028805
     2  C    0.013844
     3  C   -0.002062
     4  C   -0.011460
     5  C   -0.012611
     6  C   -0.001399
     7  C    0.015589
     8  C    0.033594
     9  C    0.357451
    10  C    0.005085
    11  C    0.012556
    12  C   -0.057911
    13  C    0.011310
    14  C   -0.056289
    15  H   -0.001065
    16  H    0.000688
    17  H   -0.000160
    18  H    0.000202
    19  H    0.000575
    20  H    0.000166
    21  H   -0.000145
    22  H    0.000636
    23  H   -0.000899
    24  H   -0.079739
    25  H    0.494029
 Mulliken charges:
               1
     1  C    0.096056
     2  C   -0.406614
     3  C   -0.440042
     4  C    0.016374
     5  C    0.015559
     6  C   -0.440768
     7  C   -0.411207
     8  C    0.092864
     9  C   -0.336183
    10  C    0.094894
    11  C   -0.625742
    12  C    0.678946
    13  C   -0.636559
    14  C    0.682560
    15  H    0.237113
    16  H    0.256356
    17  H    0.249984
    18  H    0.221835
    19  H    0.190641
    20  H    0.221738
    21  H    0.249493
    22  H    0.256041
    23  H    0.237350
    24  H    0.250103
    25  H    0.249208
 Sum of Mulliken charges =   1.00000
 Mulliken charges with hydrogens summed into heavy atoms:
               1
     1  C    0.333169
     2  C   -0.150258
     3  C   -0.190059
     4  C    0.238209
     5  C    0.237297
     6  C   -0.191276
     7  C   -0.155166
     8  C    0.330214
     9  C    0.163129
    10  C    0.285536
    11  C   -0.625742
    12  C    0.678946
    13  C   -0.636559
    14  C    0.682560
 Electronic spatial extent (au):  <R**2>=           2853.9717
 Charge=              1.0000 electrons
 Dipole moment (field-independent basis, Debye):
    X=              0.0091    Y=              0.1865    Z=             -0.0004  Tot=              0.1867
 Quadrupole moment (field-independent basis, Debye-Ang):
   XX=            -31.1595   YY=            -56.2628   ZZ=            -84.1257
   XY=              0.0051   XZ=             -0.0086   YZ=              0.0228
 Traceless Quadrupole moment (field-independent basis, Debye-Ang):
   XX=             26.0232   YY=              0.9198   ZZ=            -26.9430
   XY=              0.0051   XZ=             -0.0086   YZ=              0.0228
 Octapole moment (field-independent basis, Debye-Ang**2):
  XXX=              0.3824  YYY=              5.2089  ZZZ=             -0.0121  XYY=             -0.0030
  XXY=             -5.3363  XXZ=              0.0411  XZZ=             -0.0472  YZZ=             -3.0894
  YYZ=              0.0389  XYZ=             -0.0429
 Hexadecapole moment (field-independent basis, Debye-Ang**3):
 XXXX=          -2121.6462 YYYY=           -609.2453 ZZZZ=            -99.2826 XXXY=              0.2178
 XXXZ=             -0.2409 YYYX=             -0.0913 YYYZ=              0.2321 ZZZX=             -0.0108
 ZZZY=              0.0169 XXYY=           -507.3764 XXZZ=           -590.2061 YYZZ=           -145.6827
 XXYZ=              0.2647 YYXZ=             -0.0008 ZZXY=              0.0043
 N-N= 7.814267662333D+02 E-N=-2.799208104422D+03  KE= 5.375204805335D+02
 Unable to Open any file for archive entry.
 1\1\GINC-GADI-CPU-CLX-0113\SP\RM062X TD-FC\6-311++G(d,p)\C14H11(1+)\TS
 1578\28-Jul-2022\0\\#n M062X/6-311++G(d,p) TD(NStates=1) EmpiricalDisp
 ersion=GD3 SP\\SP_-75\\1,1\C,0,-0.00675,2.493855,1.360431\C,0,-0.00577
 5,3.700358,0.671989\C,0,-0.0022,3.682511,-0.71383\C,0,0.003725,2.46123
 1,-1.407538\C,0,0.004075,-2.460531,-1.407538\C,0,-0.0001,-3.679011,-0.
 71383\C,0,-0.00245,-3.699133,0.671989\C,0,-0.0001,-2.491755,1.360431\C
 ,0,-0.0021,-0.0077,1.453369\C,0,0.0061,0.00035,-1.429189\C,0,0.00065,1
 .26388,0.677065\C,0,0.0032,1.236646,-0.730804\C,0,0.001175,-1.264055,0
 .677065\C,0,0.0018,-1.237696,-0.730804\H,0,-0.0049,2.489321,2.443647\H
 ,0,-0.006175,4.636628,1.211689\H,0,0.0002,4.611562,-1.272349\H,0,0.002
 35,2.4656,-2.490059\H,0,0.005625,0.000175,-2.510266\H,0,0.0013,-2.4650
 75,-2.490059\H,0,0.00125,-4.607187,-1.272349\H,0,-0.00215,-4.634003,1.
 211689\H,0,0.0028,-2.487046,2.443647\H,0,-0.867585,-0.00175,2.147712\H
 ,0,0.851585,-0.00175,2.143862\\Version=ES64L-G16RevC.01\State=1-A\HF=-
 539.7601857\RMSD=4.768e-09\PG=C01 [X(C14H11)]\\@
 The archive entry for this job was punched.


 GOD DOES NOT PLAY WITH DICE.
               -- A. EINSTEIN
 Job cpu time:       0 days  1 hours 19 minutes 40.3 seconds.
 Elapsed time:       0 days  0 hours  1 minutes 40.1 seconds.
 File lengths (MBytes):  RWF=    460 Int=      0 D2E=      0 Chk=     15 Scr=      1
 Normal termination of Gaussian 16 at Thu Jul 28 13:58:38 2022.
