 Entering Gaussian System, Link 0=g16
 Initial command:
 /apps/gaussian/g16c01/g16/l1.exe "/jobfs/53002009.gadi-pbs/Gau-806844.inp" -scrdir="/jobfs/53002009.gadi-pbs/"
 Entering Link 1 = /apps/gaussian/g16c01/g16/l1.exe PID=    806845.
  
 Copyright (c) 1988-2019, Gaussian, Inc.  All Rights Reserved.
  
 This is part of the Gaussian(R) 16 program.  It is based on
 the Gaussian(R) 09 system (copyright 2009, Gaussian, Inc.),
 the Gaussian(R) 03 system (copyright 2003, Gaussian, Inc.),
 the Gaussian(R) 98 system (copyright 1998, Gaussian, Inc.),
 the Gaussian(R) 94 system (copyright 1995, Gaussian, Inc.),
 the Gaussian 92(TM) system (copyright 1992, Gaussian, Inc.),
 the Gaussian 90(TM) system (copyright 1990, Gaussian, Inc.),
 the Gaussian 88(TM) system (copyright 1988, Gaussian, Inc.),
 the Gaussian 86(TM) system (copyright 1986, Carnegie Mellon
 University), and the Gaussian 82(TM) system (copyright 1983,
 Carnegie Mellon University). Gaussian is a federally registered
 trademark of Gaussian, Inc.
  
 This software contains proprietary and confidential information,
 including trade secrets, belonging to Gaussian, Inc.
  
 This software is provided under written license and may be
 used, copied, transmitted, or stored only in accord with that
 written license.
  
 The following legend is applicable only to US Government
 contracts under FAR:
  
                    RESTRICTED RIGHTS LEGEND
  
 Use, reproduction and disclosure by the US Government is
 subject to restrictions as set forth in subparagraphs (a)
 and (c) of the Commercial Computer Software - Restricted
 Rights clause in FAR 52.227-19.
  
 Gaussian, Inc.
 340 Quinnipiac St., Bldg. 40, Wallingford CT 06492
  
  
 ---------------------------------------------------------------
 Warning -- This program may not be used in any manner that
 competes with the business of Gaussian, Inc. or will provide
 assistance to any competitor of Gaussian, Inc.  The licensee
 of this program is prohibited from giving any competitor of
 Gaussian, Inc. access to this program.  By using this program,
 the user acknowledges that Gaussian, Inc. is engaged in the
 business of creating and licensing software in the field of
 computational chemistry and represents and warrants to the
 licensee that it is not a competitor of Gaussian, Inc. and that
 it will not use this program in any manner prohibited above.
 ---------------------------------------------------------------
  

 Cite this work as:
 Gaussian 16, Revision C.01,
 M. J. Frisch, G. W. Trucks, H. B. Schlegel, G. E. Scuseria, 
 M. A. Robb, J. R. Cheeseman, G. Scalmani, V. Barone, 
 G. A. Petersson, H. Nakatsuji, X. Li, M. Caricato, A. V. Marenich, 
 J. Bloino, B. G. Janesko, R. Gomperts, B. Mennucci, H. P. Hratchian, 
 J. V. Ortiz, A. F. Izmaylov, J. L. Sonnenberg, D. Williams-Young, 
 F. Ding, F. Lipparini, F. Egidi, J. Goings, B. Peng, A. Petrone, 
 T. Henderson, D. Ranasinghe, V. G. Zakrzewski, J. Gao, N. Rega, 
 G. Zheng, W. Liang, M. Hada, M. Ehara, K. Toyota, R. Fukuda, 
 J. Hasegawa, M. Ishida, T. Nakajima, Y. Honda, O. Kitao, H. Nakai, 
 T. Vreven, K. Throssell, J. A. Montgomery, Jr., J. E. Peralta, 
 F. Ogliaro, M. J. Bearpark, J. J. Heyd, E. N. Brothers, K. N. Kudin, 
 V. N. Staroverov, T. A. Keith, R. Kobayashi, J. Normand, 
 K. Raghavachari, A. P. Rendell, J. C. Burant, S. S. Iyengar, 
 J. Tomasi, M. Cossi, J. M. Millam, M. Klene, C. Adamo, R. Cammi, 
 J. W. Ochterski, R. L. Martin, K. Morokuma, O. Farkas, 
 J. B. Foresman, and D. J. Fox, Gaussian, Inc., Wallingford CT, 2019.
 
 ******************************************
 Gaussian 16:  ES64L-G16RevC.01  3-Jul-2019
                28-Jul-2022 
 ******************************************
 %NProcShared=48
 Will use up to   48 processors via shared memory.
 %mem = 190GB
 ---------------------------------------------------------------
 #n M062X/6-311++G(d,p) TD(NStates=1) EmpiricalDispersion=GD3 SP
 ---------------------------------------------------------------
 1/38=1,172=1/1;
 2/12=2,17=6,18=5,40=1/2;
 3/5=4,6=6,7=1111,11=9,25=1,30=1,74=-55,124=31/1,2,3,8;
 4//1;
 5/5=2,38=5/2;
 8/6=1,10=2,108=1/1;
 9/41=1,42=1,70=2/14;
 6/7=2,8=2,9=2,10=2/1;
 99/5=1,9=1/99;
 ------
 SP_150
 ------
 Symbolic Z-matrix:
 Charge =  1 Multiplicity = 1
 C                    -0.0372    2.49416   1.36043 
 C                    -0.045     3.68203   0.67199 
 C                    -0.0125    3.64951  -0.71383 
 C                     0.04292   2.43808  -1.40754 
 C                     0.04287  -2.43818  -1.40754 
 C                    -0.0128   -3.65001  -0.71383 
 C                    -0.04548  -3.68221   0.67199 
 C                    -0.03815  -2.49446   1.36043 
 C                    -0.02408   0.0011    1.45337 
 C                     0.0671   -0.00005  -1.42919 
 C                     0.01008   1.2831    0.67707 
 C                     0.0274    1.23425  -0.7308 
 C                     0.01     -1.28308   0.67707 
 C                     0.0276   -1.2341   -0.7308 
 H                    -0.011     2.48915   2.44365 
 H                    -0.0455    4.62075   1.21169 
 H                     0.00805   4.61019  -1.27235 
 H                     0.02      2.44318  -2.49006 
 H                     0.06188  -0.00003  -2.51027 
 H                     0.02015  -2.44325  -2.49006 
 H                     0.0079   -4.61081  -1.27235 
 H                    -0.04608  -4.62113   1.21169 
 H                    -0.0121   -2.48947   2.44365 
 H                    -0.94759   0.00025   2.14551 
 H                     0.77159   0.00025   2.14606 
 
                          Input orientation:                          
 ---------------------------------------------------------------------
 Center     Atomic      Atomic             Coordinates (Angstroms)
 Number     Number       Type             X           Y           Z
 ---------------------------------------------------------------------
      1          6           0       -0.037200    2.494155    1.360431
      2          6           0       -0.045000    3.682033    0.671989
      3          6           0       -0.012500    3.649511   -0.713830
      4          6           0        0.042925    2.438081   -1.407538
      5          6           0        0.042875   -2.438181   -1.407538
      6          6           0       -0.012800   -3.650011   -0.713830
      7          6           0       -0.045475   -3.682208    0.671989
      8          6           0       -0.038150   -2.494455    1.360431
      9          6           0       -0.024075    0.001100    1.453369
     10          6           0        0.067100   -0.000050   -1.429189
     11          6           0        0.010075    1.283105    0.677065
     12          6           0        0.027400    1.234246   -0.730804
     13          6           0        0.010000   -1.283080    0.677065
     14          6           0        0.027600   -1.234096   -0.730804
     15          1           0       -0.011000    2.489146    2.443647
     16          1           0       -0.045500    4.620753    1.211689
     17          1           0        0.008050    4.610187   -1.272349
     18          1           0        0.020000    2.443175   -2.490059
     19          1           0        0.061875   -0.000025   -2.510266
     20          1           0        0.020150   -2.443250   -2.490059
     21          1           0        0.007900   -4.610812   -1.272349
     22          1           0       -0.046075   -4.621128    1.211689
     23          1           0       -0.012100   -2.489471    2.443647
     24          1           0       -0.947585    0.000250    2.145512
     25          1           0        0.771585    0.000250    2.146062
 ---------------------------------------------------------------------
                    Distance matrix (angstroms):
                    1          2          3          4          5
     1  C    0.000000
     2  C    1.372978   0.000000
     3  C    2.374451   1.386581   0.000000
     4  C    2.769696   2.424785   1.397092   0.000000
     5  C    5.656501   6.464455   6.127340   4.876262   0.000000
     6  C    6.484900   7.461930   7.299522   6.127740   1.397449
     7  C    6.214618   7.364241   7.461614   6.464533   2.424838
     8  C    4.988610   6.214741   6.484715   5.656690   2.769726
     9  C    2.494821   3.763012   4.243558   3.758744   3.760234
    10  C    3.743517   4.240902   3.719862   2.438347   2.438347
    11  C    1.391354   2.399565   2.744991   2.383405   4.265515
    12  C    2.442296   2.822186   2.415654   1.381097   3.734291
    13  C    3.838844   4.965420   5.124993   4.265407   2.383466
    14  C    4.275198   5.112868   4.883801   3.734044   1.381312
    15  H    1.083544   2.136096   3.363943   3.851901   6.254045
    16  H    2.131810   1.082807   2.156855   3.410605   7.529722
    17  H    3.378042   2.155165   1.111424   2.176588   7.049750
    18  H    3.851252   3.396696   2.147392   1.082776   5.000001
    19  H    4.605762   4.867825   4.068394   2.675954   2.676000
    20  H    6.261592   6.893612   6.346479   4.999976   1.082771
    21  H    7.577211   8.517895   8.279209   7.050276   2.177114
    22  H    7.116843   8.320683   8.491891   7.529987   3.410795
    23  H    5.100050   6.420850   6.903388   6.254232   3.851919
    24  H    2.768522   4.067119   4.729411   4.421345   4.421665
    25  H    2.736953   4.049102   4.702220   4.370588   4.370931
                    6          7          8          9         10
     6  C    0.000000
     7  C    1.386578   0.000000
     8  C    2.374555   1.372867   0.000000
     9  C    4.245879   3.765338   2.497325   0.000000
    10  C    3.720260   4.240980   3.743676   2.884000   0.000000
    11  C    5.125500   4.965626   3.839176   1.499117   2.466991
    12  C    4.884452   5.113185   4.275602   2.508767   1.418733
    13  C    2.745446   2.399775   1.391667   1.500975   2.466928
    14  C    2.416312   2.822485   2.442558   2.509779   1.418510
    15  H    6.903544   6.420714   5.100037   2.677909   4.604460
    16  H    8.492010   8.320483   7.116766   4.626020   5.323414
    17  H    8.279085   8.517460   7.576912   5.354835   4.613282
    18  H    6.346887   6.893704   6.261776   4.638566   2.664022
    19  H    4.068803   4.867930   4.605918   3.964567   1.081090
    20  H    2.147638   3.396744   3.851272   4.639766   2.663996
    21  H    1.111535   2.155366   3.378257   5.357265   4.613809
    22  H    2.156803   1.082981   2.131883   4.628594   5.323665
    23  H    3.364003   2.136003   1.083541   2.680250   4.604601
    24  H    4.730123   4.067625   2.768931   1.154094   3.715922
    25  H    4.703047   4.049812   2.737963   1.054940   3.643998
                   11         12         13         14         15
    11  C    0.000000
    12  C    1.408823   0.000000
    13  C    2.566185   2.884325   0.000000
    14  C    2.884216   2.468342   1.408831   0.000000
    15  H    2.139110   3.413706   4.165446   4.892970   0.000000
    16  H    3.380652   3.904744   5.928250   6.169107   2.462247
    17  H    3.856124   3.419155   6.207319   5.869352   4.278762
    18  H    3.372912   2.134606   4.890373   4.076439   4.934018
    19  H    3.436304   2.165894   3.436277   2.165777   5.544595
    20  H    4.890450   4.076642   3.372947   2.134733   6.976457
    21  H    6.207937   5.870124   3.856685   3.419923   8.013638
    22  H    5.928654   6.169610   3.381055   3.905214   7.216297
    23  H    4.165769   4.893339   2.139318   3.413895   4.978617
    24  H    2.172364   3.278191   2.172612   3.278382   2.675945
    25  H    2.093697   3.217595   2.094015   3.217683   2.625947
                   16         17         18         19         20
    16  H    0.000000
    17  H    2.484638   0.000000
    18  H    4.295239   2.485740   0.000000
    19  H    5.934313   4.773823   2.443642   0.000000
    20  H    7.975424   7.157789   4.886425   2.443665   0.000000
    21  H    9.560078   9.220999   7.158331   4.774380   2.486221
    22  H    9.241881   9.559841   7.975693   5.934576   4.295402
    23  H    7.216240   8.013375   6.976638   5.544733   4.934028
    24  H    4.799462   5.817777   5.328473   4.763956   5.328764
    25  H    4.784321   5.789649   5.293995   4.710104   5.294239
                   21         22         23         24         25
    21  H    0.000000
    22  H    2.484646   0.000000
    23  H    4.278915   2.462283   0.000000
    24  H    5.818644   4.800196   2.676327   0.000000
    25  H    5.790565   4.785264   2.627057   1.719170   0.000000
 Stoichiometry    C14H11(1+)
 Framework group  C1[X(C14H11)]
 Deg. of freedom    69
 Full point group                 C1      NOp   1
 Largest Abelian subgroup         C1      NOp   1
 Largest concise Abelian subgroup C1      NOp   1
                         Standard orientation:                         
 ---------------------------------------------------------------------
 Center     Atomic      Atomic             Coordinates (Angstroms)
 Number     Number       Type             X           Y           Z
 ---------------------------------------------------------------------
      1          6           0        2.494182   -1.360860    0.003407
      2          6           0        3.682045   -0.672785    0.027936
      3          6           0        3.649496    0.713414    0.028980
      4          6           0        2.438054    1.408237   -0.009715
      5          6           0       -2.438208    1.408140   -0.009959
      6          6           0       -3.650026    0.713265    0.028840
      7          6           0       -3.682196   -0.672940    0.027968
      8          6           0       -2.494428   -1.360980    0.004056
      9          6           0        0.001129   -1.453501   -0.012113
     10          6           0       -0.000076    1.430419   -0.033506
     11          6           0        1.283120   -0.676573   -0.027390
     12          6           0        1.234233    0.731302   -0.010643
     13          6           0       -1.283065   -0.676625   -0.027470
     14          6           0       -1.234109    0.731258   -0.010992
     15          1           0        2.489197   -2.443125   -0.048999
     16          1           0        4.620776   -1.212321    0.015432
     17          1           0        4.610161    1.272286    0.022009
     18          1           0        2.443124    2.489886    0.039400
     19          1           0       -0.000074    2.511053   -0.002121
     20          1           0       -2.443301    2.489794    0.038956
     21          1           0       -4.610838    1.272102    0.021604
     22          1           0       -4.621105   -1.212515    0.015450
     23          1           0       -2.489420   -2.443248   -0.048199
     24          1           0        0.000239   -2.167790    0.894377
     25          1           0        0.000341   -2.126737   -0.824303
 ---------------------------------------------------------------------
 Rotational constants (GHZ):           2.1340832           0.4491740           0.3719337
 Standard basis: 6-311++G(d,p) (5D, 7F)
 There are   399 symmetry adapted cartesian basis functions of A   symmetry.
 There are   385 symmetry adapted basis functions of A   symmetry.
   385 basis functions,   603 primitive gaussians,   399 cartesian basis functions
    47 alpha electrons       47 beta electrons
       nuclear repulsion energy       783.6228377693 Hartrees.
 NAtoms=   25 NActive=   25 NUniq=   25 SFac= 1.00D+00 NAtFMM=   60 NAOKFM=F Big=F
 Integral buffers will be    131072 words long.
 Regular integral format.
 Two-electron integral symmetry is turned on.
 Nuclear repulsion after empirical dispersion term =      783.6218589503 Hartrees.
 One-electron integrals computed using PRISM.
 NBasis=   385 RedAO= T EigKep=  1.56D-06  NBF=   385
 NBsUse=   379 1.00D-06 EigRej=  8.18D-07 NBFU=   379
 ExpMin= 3.60D-02 ExpMax= 4.56D+03 ExpMxC= 6.82D+02 IAcc=3 IRadAn=         5 AccDes= 0.00D+00
 Harris functional with IExCor= 1009 and IRadAn=       5 diagonalized for initial guess.
 HarFok:  IExCor= 1009 AccDes= 0.00D+00 IRadAn=         5 IDoV= 1 UseB2=F ITyADJ=14
 ICtDFT=  3500011 ScaDFX=  1.000000  1.000000  1.000000  1.000000
 FoFCou: FMM=F IPFlag=           0 FMFlag=      100000 FMFlg1=           0
         NFxFlg=           0 DoJE=T BraDBF=F KetDBF=T FulRan=T
         wScrn=  0.000000 ICntrl=       500 IOpCl=  0 I1Cent=   200000004 NGrid=           0
         NMat0=    1 NMatS0=      1 NMatT0=    0 NMatD0=    1 NMtDS0=    0 NMtDT0=    0
 Petite list used in FoFCou.
 Requested convergence on RMS density matrix=1.00D-08 within 128 cycles.
 Requested convergence on MAX density matrix=1.00D-06.
 Requested convergence on             energy=1.00D-06.
 No special actions if energy rises.
 SCF Done:  E(RM062X) =  -539.753087854     A.U. after   15 cycles
            NFock= 15  Conv=0.65D-08     -V/T= 2.0039
 DoSCS=F DFT=T ScalE2(SS,OS)=  1.000000  1.000000
 ExpMin= 3.60D-02 ExpMax= 4.56D+03 ExpMxC= 6.82D+02 IAcc=3 IRadAn=         5 AccDes= 0.00D+00
 HarFok:  IExCor=  205 AccDes= 0.00D+00 IRadAn=         5 IDoV=-2 UseB2=F ITyADJ=14
 ICtDFT= 12500011 ScaDFX=  1.000000  1.000000  1.000000  1.000000
 Range of M.O.s used for correlation:    15   379
 NBasis=   385 NAE=    47 NBE=    47 NFC=    14 NFV=     0
 NROrb=    365 NOA=    33 NOB=    33 NVA=   332 NVB=   332

 **** Warning!!: The largest alpha MO coefficient is  0.14158633D+03

 Orbital symmetries:
       Occupied  (A) (A) (A) (A) (A) (A) (A) (A) (A) (A) (A) (A)
                 (A) (A) (A) (A) (A) (A) (A) (A) (A) (A) (A) (A)
                 (A) (A) (A) (A) (A) (A) (A) (A) (A) (A) (A) (A)
                 (A) (A) (A) (A) (A) (A) (A) (A) (A) (A) (A)
       Virtual   (A) (A) (A) (A) (A) (A) (A) (A) (A) (A) (A) (A)
                 (A) (A) (A) (A) (A) (A) (A) (A) (A) (A) (A) (A)
                 (A) (A) (A) (A) (A) (A) (A) (A) (A) (A) (A) (A)
                 (A) (A) (A) (A) (A) (A) (A) (A) (A) (A) (A) (A)
                 (A) (A) (A) (A) (A) (A) (A) (A) (A) (A) (A) (A)
                 (A) (A) (A) (A) (A) (A) (A) (A) (A) (A) (A) (A)
                 (A) (A) (A) (A) (A) (A) (A) (A) (A) (A) (A) (A)
                 (A) (A) (A) (A) (A) (A) (A) (A) (A) (A) (A) (A)
                 (A) (A) (A) (A) (A) (A) (A) (A) (A) (A) (A) (A)
                 (A) (A) (A) (A) (A) (A) (A) (A) (A) (A) (A) (A)
                 (A) (A) (A) (A) (A) (A) (A) (A) (A) (A) (A) (A)
                 (A) (A) (A) (A) (A) (A) (A) (A) (A) (A) (A) (A)
                 (A) (A) (A) (A) (A) (A) (A) (A) (A) (A) (A) (A)
                 (A) (A) (A) (A) (A) (A) (A) (A) (A) (A) (A) (A)
                 (A) (A) (A) (A) (A) (A) (A) (A) (A) (A) (A) (A)
                 (A) (A) (A) (A) (A) (A) (A) (A) (A) (A) (A) (A)
                 (A) (A) (A) (A) (A) (A) (A) (A) (A) (A) (A) (A)
                 (A) (A) (A) (A) (A) (A) (A) (A) (A) (A) (A) (A)
                 (A) (A) (A) (A) (A) (A) (A) (A) (A) (A) (A) (A)
                 (A) (A) (A) (A) (A) (A) (A) (A) (A) (A) (A) (A)
                 (A) (A) (A) (A) (A) (A) (A) (A) (A) (A) (A) (A)
                 (A) (A) (A) (A) (A) (A) (A) (A) (A) (A) (A) (A)
                 (A) (A) (A) (A) (A) (A) (A) (A) (A) (A) (A) (A)
                 (A) (A) (A) (A) (A) (A) (A) (A) (A) (A) (A) (A)
                 (A) (A) (A) (A) (A) (A) (A) (A) (A) (A) (A) (A)
                 (A) (A) (A) (A) (A) (A) (A) (A) (A) (A) (A) (A)
                 (A) (A) (A) (A) (A) (A) (A) (A) (A) (A) (A) (A)
                 (A) (A) (A) (A) (A) (A) (A) (A)
     4 initial guesses have been made.
 Convergence on wavefunction:    0.001000000000000
 Iteration     1 Dimension     4 NMult     0 NNew      4
 CISAX will form     4 AO SS matrices at one time.
 Iteration     2 Dimension     6 NMult     4 NNew      2
 Iteration     3 Dimension     8 NMult     6 NNew      2
 Iteration     4 Dimension    10 NMult     8 NNew      2
 Iteration     5 Dimension    12 NMult    10 NNew      2
 Iteration     6 Dimension    14 NMult    12 NNew      2
 ***********************************************************************
 Excited states from <AA,BB:AA,BB> singles matrix:
 ***********************************************************************
 
 Ground to excited state transition densities written to RWF  633
 Ground to excited state transition electric dipole moments (Au):
       state          X           Y           Z        Dip. S.      Osc.
         1         0.0013     -0.6613      0.0117      0.4374      0.0306
 Ground to excited state transition velocity dipole moments (Au):
       state          X           Y           Z        Dip. S.      Osc.
         1        -0.0001      0.0763     -0.0014      0.0058      0.0370
 Ground to excited state transition magnetic dipole moments (Au):
       state          X           Y           Z
         1        -0.0158     -0.0001     -0.0002
 Ground to excited state transition velocity quadrupole moments (Au):
       state          XX          YY          ZZ          XY          XZ          YZ
         1         0.2612      0.0405     -0.0102     -0.0002     -0.0000      0.0017
 <0|del|b> * <b|rxdel|0> + <0|del|b> * <b|delr+rdel|0>
 Rotatory Strengths (R) in cgs (10**-40 erg-esu-cm/Gauss)
       state          XX          YY          ZZ    R(velocity)    E-M Angle
         1        -0.0143      0.0060     -0.0209     -0.0097       90.00
 1/2[<0|r|b>*<b|rxdel|0> + (<0|rxdel|b>*<b|r|0>)*]
 Rotatory Strengths (R) in cgs (10**-40 erg-esu-cm/Gauss)
       state          XX          YY          ZZ     R(length)
         1         0.0141     -0.0409      0.0014     -0.0085
  1/2[<0|del|b>*<b|r|0> + (<0|r|b>*<b|del|0>)*] (Au)
       state          X           Y           Z        Dip. S.   Osc.(frdel)
         1        -0.0000     -0.0504     -0.0000      0.0505      0.0336

 Excitation energies and oscillator strengths:
 
 Excited State   1:      Singlet-A      2.8519 eV  434.75 nm  f=0.0306  <S**2>=0.000
      47 -> 48         0.70419
 This state for optimization and/or second-order correction.
 Total Energy, E(TD-HF/TD-DFT) =  -539.648284230    
 Copying the excited state density for this state as the 1-particle RhoCI density.
 SavETr:  write IOETrn=   770 NScale= 10 NData=  16 NLR=1 NState=    1 LETran=      28.

 **********************************************************************

            Population analysis using the SCF Density.

 **********************************************************************

 Orbital symmetries:
       Occupied  (A) (A) (A) (A) (A) (A) (A) (A) (A) (A) (A) (A)
                 (A) (A) (A) (A) (A) (A) (A) (A) (A) (A) (A) (A)
                 (A) (A) (A) (A) (A) (A) (A) (A) (A) (A) (A) (A)
                 (A) (A) (A) (A) (A) (A) (A) (A) (A) (A) (A)
       Virtual   (A) (A) (A) (A) (A) (A) (A) (A) (A) (A) (A) (A)
                 (A) (A) (A) (A) (A) (A) (A) (A) (A) (A) (A) (A)
                 (A) (A) (A) (A) (A) (A) (A) (A) (A) (A) (A) (A)
                 (A) (A) (A) (A) (A) (A) (A) (A) (A) (A) (A) (A)
                 (A) (A) (A) (A) (A) (A) (A) (A) (A) (A) (A) (A)
                 (A) (A) (A) (A) (A) (A) (A) (A) (A) (A) (A) (A)
                 (A) (A) (A) (A) (A) (A) (A) (A) (A) (A) (A) (A)
                 (A) (A) (A) (A) (A) (A) (A) (A) (A) (A) (A) (A)
                 (A) (A) (A) (A) (A) (A) (A) (A) (A) (A) (A) (A)
                 (A) (A) (A) (A) (A) (A) (A) (A) (A) (A) (A) (A)
                 (A) (A) (A) (A) (A) (A) (A) (A) (A) (A) (A) (A)
                 (A) (A) (A) (A) (A) (A) (A) (A) (A) (A) (A) (A)
                 (A) (A) (A) (A) (A) (A) (A) (A) (A) (A) (A) (A)
                 (A) (A) (A) (A) (A) (A) (A) (A) (A) (A) (A) (A)
                 (A) (A) (A) (A) (A) (A) (A) (A) (A) (A) (A) (A)
                 (A) (A) (A) (A) (A) (A) (A) (A) (A) (A) (A) (A)
                 (A) (A) (A) (A) (A) (A) (A) (A) (A) (A) (A) (A)
                 (A) (A) (A) (A) (A) (A) (A) (A) (A) (A) (A) (A)
                 (A) (A) (A) (A) (A) (A) (A) (A) (A) (A) (A) (A)
                 (A) (A) (A) (A) (A) (A) (A) (A) (A) (A) (A) (A)
                 (A) (A) (A) (A) (A) (A) (A) (A) (A) (A) (A) (A)
                 (A) (A) (A) (A) (A) (A) (A) (A) (A) (A) (A) (A)
                 (A) (A) (A) (A) (A) (A) (A) (A) (A) (A) (A) (A)
                 (A) (A) (A) (A) (A) (A) (A) (A) (A) (A) (A) (A)
                 (A) (A) (A) (A) (A) (A) (A) (A) (A) (A) (A) (A)
                 (A) (A) (A) (A) (A) (A) (A) (A) (A) (A) (A) (A)
                 (A) (A) (A) (A) (A) (A) (A) (A) (A) (A) (A) (A)
                 (A) (A) (A) (A) (A) (A) (A) (A)
 The electronic state is 1-A.
 Alpha  occ. eigenvalues --  -10.77699 -10.73178 -10.73164 -10.72223 -10.72221
 Alpha  occ. eigenvalues --  -10.71093 -10.71085 -10.70961 -10.70842 -10.70839
 Alpha  occ. eigenvalues --  -10.69747 -10.69741 -10.69685 -10.69679  -1.16643
 Alpha  occ. eigenvalues --   -1.13039  -1.07274  -1.05529  -1.01927  -1.00043
 Alpha  occ. eigenvalues --   -0.96004  -0.90992  -0.86464  -0.86011  -0.83834
 Alpha  occ. eigenvalues --   -0.78480  -0.76038  -0.74530  -0.69583  -0.69264
 Alpha  occ. eigenvalues --   -0.68554  -0.67943  -0.67662  -0.65172  -0.64659
 Alpha  occ. eigenvalues --   -0.62610  -0.61488  -0.60110  -0.60084  -0.58913
 Alpha  occ. eigenvalues --   -0.56852  -0.55057  -0.54585  -0.52667  -0.47079
 Alpha  occ. eigenvalues --   -0.45969  -0.44716
 Alpha virt. eigenvalues --   -0.26165  -0.14446  -0.14040  -0.12470  -0.11189
 Alpha virt. eigenvalues --   -0.10111  -0.09274  -0.08119  -0.07921  -0.07492
 Alpha virt. eigenvalues --   -0.07246  -0.07073  -0.05635  -0.05583  -0.05291
 Alpha virt. eigenvalues --   -0.03917  -0.03844  -0.03281  -0.03121  -0.02152
 Alpha virt. eigenvalues --   -0.01410  -0.01024   0.00202   0.00466   0.00682
 Alpha virt. eigenvalues --    0.01074   0.01509   0.01937   0.02253   0.02280
 Alpha virt. eigenvalues --    0.02452   0.02751   0.02990   0.03134   0.03274
 Alpha virt. eigenvalues --    0.04221   0.04518   0.04726   0.05176   0.05418
 Alpha virt. eigenvalues --    0.05800   0.06329   0.06653   0.06995   0.07257
 Alpha virt. eigenvalues --    0.07912   0.08301   0.08364   0.08637   0.08925
 Alpha virt. eigenvalues --    0.09512   0.09600   0.10002   0.10808   0.11070
 Alpha virt. eigenvalues --    0.11195   0.12178   0.12189   0.12860   0.12993
 Alpha virt. eigenvalues --    0.13355   0.13453   0.13990   0.14615   0.15526
 Alpha virt. eigenvalues --    0.16019   0.16834   0.16909   0.17290   0.17744
 Alpha virt. eigenvalues --    0.18101   0.19270   0.19388   0.19610   0.19751
 Alpha virt. eigenvalues --    0.21521   0.21750   0.22663   0.22967   0.23580
 Alpha virt. eigenvalues --    0.23854   0.24538   0.24617   0.26762   0.27820
 Alpha virt. eigenvalues --    0.28784   0.29200   0.29706   0.31457   0.35708
 Alpha virt. eigenvalues --    0.36741   0.37788   0.39500   0.40988   0.41293
 Alpha virt. eigenvalues --    0.41903   0.42035   0.42914   0.43329   0.44021
 Alpha virt. eigenvalues --    0.44067   0.45419   0.45617   0.46299   0.47767
 Alpha virt. eigenvalues --    0.48394   0.48879   0.48948   0.50326   0.50939
 Alpha virt. eigenvalues --    0.51550   0.51887   0.52248   0.53613   0.53828
 Alpha virt. eigenvalues --    0.53867   0.54859   0.55768   0.55892   0.56994
 Alpha virt. eigenvalues --    0.58259   0.58764   0.61437   0.61851   0.62255
 Alpha virt. eigenvalues --    0.63037   0.63085   0.63786   0.65258   0.66072
 Alpha virt. eigenvalues --    0.70124   0.70687   0.70911   0.72051   0.72601
 Alpha virt. eigenvalues --    0.75207   0.75471   0.75786   0.76252   0.76381
 Alpha virt. eigenvalues --    0.77227   0.77707   0.78278   0.80199   0.80688
 Alpha virt. eigenvalues --    0.80864   0.82186   0.82311   0.83056   0.84166
 Alpha virt. eigenvalues --    0.86343   0.86389   0.87647   0.89308   0.90390
 Alpha virt. eigenvalues --    0.91397   0.91694   0.94020   0.95127   0.95780
 Alpha virt. eigenvalues --    0.96937   1.00264   1.01305   1.02201   1.02576
 Alpha virt. eigenvalues --    1.03820   1.04083   1.04837   1.06571   1.09655
 Alpha virt. eigenvalues --    1.19039   1.23304   1.24125   1.25714   1.28422
 Alpha virt. eigenvalues --    1.30400   1.30827   1.34822   1.35808   1.36612
 Alpha virt. eigenvalues --    1.39337   1.40000   1.40795   1.43579   1.43868
 Alpha virt. eigenvalues --    1.44008   1.44987   1.45613   1.46700   1.46759
 Alpha virt. eigenvalues --    1.48297   1.49020   1.51698   1.53996   1.55981
 Alpha virt. eigenvalues --    1.56126   1.56934   1.57260   1.58230   1.61980
 Alpha virt. eigenvalues --    1.62767   1.62885   1.62922   1.66342   1.67839
 Alpha virt. eigenvalues --    1.68659   1.68984   1.69636   1.74992   1.75989
 Alpha virt. eigenvalues --    1.77251   1.77966   1.79452   1.80888   1.81775
 Alpha virt. eigenvalues --    1.82646   1.82787   1.83544   1.83997   1.84571
 Alpha virt. eigenvalues --    1.84670   1.86374   1.86677   1.88621   1.91174
 Alpha virt. eigenvalues --    1.91988   1.93951   1.95246   1.98456   1.99207
 Alpha virt. eigenvalues --    2.00839   2.01929   2.04754   2.06471   2.12115
 Alpha virt. eigenvalues --    2.12233   2.13478   2.15364   2.20719   2.20769
 Alpha virt. eigenvalues --    2.23334   2.29357   2.30613   2.33941   2.35896
 Alpha virt. eigenvalues --    2.35982   2.37145   2.37408   2.39165   2.42059
 Alpha virt. eigenvalues --    2.47119   2.49390   2.51322   2.53289   2.53593
 Alpha virt. eigenvalues --    2.53793   2.56557   2.58295   2.58861   2.60185
 Alpha virt. eigenvalues --    2.60299   2.61399   2.62184   2.62788   2.63760
 Alpha virt. eigenvalues --    2.64452   2.64804   2.65343   2.65747   2.67736
 Alpha virt. eigenvalues --    2.67851   2.71090   2.71425   2.73916   2.74810
 Alpha virt. eigenvalues --    2.76772   2.79446   2.80344   2.83463   2.84329
 Alpha virt. eigenvalues --    2.86092   2.86875   2.92385   2.95336   3.00398
 Alpha virt. eigenvalues --    3.00972   3.03473   3.12477   3.12921   3.15004
 Alpha virt. eigenvalues --    3.20265   3.22429   3.28172   3.28802   3.31687
 Alpha virt. eigenvalues --    3.33095   3.34496   3.43683   3.46187   3.49051
 Alpha virt. eigenvalues --    3.50075   3.51718   3.56721   3.63538   3.67820
 Alpha virt. eigenvalues --    3.68572   3.90981   3.91732   3.94699   3.96114
 Alpha virt. eigenvalues --    4.02444   4.07058   4.07495   4.12296   4.34696
 Alpha virt. eigenvalues --    4.59970   4.70846   4.72783  23.44764  23.58493
 Alpha virt. eigenvalues --   23.82687  23.84783  23.87908  23.90890  23.90926
 Alpha virt. eigenvalues --   23.92832  23.99184  24.01501  24.04398  24.04482
 Alpha virt. eigenvalues --   24.13451  24.13483
          Condensed to atoms (all electrons):
               1          2          3          4          5          6
     1  C    8.428677   0.617884  -0.604042   1.434391   0.005547  -0.092492
     2  C    0.617884   6.888329   0.384855  -0.637987  -0.086600  -0.020824
     3  C   -0.604042   0.384855   6.687916   0.593163  -0.100276   0.019681
     4  C    1.434391  -0.637987   0.593163   9.654348   0.013579  -0.099671
     5  C    0.005547  -0.086600  -0.100276   0.013579   9.669064   0.591728
     6  C   -0.092492  -0.020824   0.019681  -0.099671   0.591728   6.685938
     7  C   -0.030272   0.016136  -0.020866  -0.086685  -0.637950   0.384362
     8  C    0.413168  -0.030028  -0.092401   0.004351   1.437264  -0.606010
     9  C   -1.595933  -0.382340   0.219422  -0.681816  -0.676664   0.219705
    10  C   -1.014186   0.029116  -0.333260  -2.081498  -2.087902  -0.330146
    11  C    0.241157  -0.932708   0.968028  -0.543223  -1.550054  -0.204703
    12  C   -1.489431   0.612030  -1.214659  -0.416522  -0.054130  -0.170401
    13  C    0.234104  -0.086680  -0.205175  -1.546132  -0.532944   0.964653
    14  C   -1.036631  -0.243913  -0.170200  -0.049285  -0.432665  -1.209168
    15  H    0.356894  -0.093791  -0.004476   0.017581   0.005515   0.001443
    16  H   -0.026338   0.384274  -0.011735   0.011568  -0.001689  -0.000387
    17  H   -0.014131  -0.027022   0.371417  -0.051571   0.000310   0.000384
    18  H    0.044659   0.008053  -0.091982   0.434411   0.012229  -0.004456
    19  H   -0.042712  -0.008577   0.048672  -0.051378  -0.051912   0.048588
    20  H    0.007947   0.001281  -0.004470   0.012211   0.434765  -0.092129
    21  H   -0.001259  -0.000362   0.000384   0.000307  -0.051744   0.371413
    22  H    0.000778   0.000374  -0.000388  -0.001686   0.011663  -0.011839
    23  H    0.006328  -0.002414   0.001449   0.005487   0.017640  -0.004551
    24  H    0.060431   0.010789  -0.000970  -0.010611  -0.010773  -0.000892
    25  H    0.012520   0.016733  -0.002784  -0.010649  -0.010573  -0.002879
               7          8          9         10         11         12
     1  C   -0.030272   0.413168  -1.595933  -1.014186   0.241157  -1.489431
     2  C    0.016136  -0.030028  -0.382340   0.029116  -0.932708   0.612030
     3  C   -0.020866  -0.092401   0.219422  -0.333260   0.968028  -1.214659
     4  C   -0.086685   0.004351  -0.681816  -2.081498  -0.543223  -0.416522
     5  C   -0.637950   1.437264  -0.676664  -2.087902  -1.550054  -0.054130
     6  C    0.384362  -0.606010   0.219705  -0.330146  -0.204703  -0.170401
     7  C    6.887437   0.617031  -0.383328   0.029441  -0.086528  -0.243105
     8  C    0.617031   8.427400  -1.590477  -1.014262   0.235019  -1.033792
     9  C   -0.383328  -1.590477   8.390563   0.832255   1.104478  -0.519850
    10  C    0.029441  -1.014262   0.832255   8.716745  -0.196169   1.545221
    11  C   -0.086528   0.235019   1.104478  -0.196169  13.007645  -3.019430
    12  C   -0.243105  -1.033792  -0.519850   1.545221  -3.019430  13.301531
    13  C   -0.934405   0.241223   1.102751  -0.194917   1.270380  -3.839084
    14  C    0.615798  -1.496730  -0.521341   1.552945  -3.840898   2.210940
    15  H   -0.002408   0.006335   0.070043  -0.007311  -0.011151  -0.009412
    16  H    0.000373   0.000764   0.002524  -0.010881   0.031142  -0.034526
    17  H   -0.000364  -0.001260  -0.000467   0.012640  -0.010723   0.060910
    18  H    0.001291   0.007935  -0.031420   0.024343  -0.011093  -0.045903
    19  H   -0.008607  -0.042701   0.071153   0.424324   0.048922  -0.054031
    20  H    0.008106   0.044781  -0.031430   0.024162  -0.004543  -0.009949
    21  H   -0.027075  -0.014212  -0.000442   0.012689  -0.005815   0.002514
    22  H    0.384178  -0.026107   0.002571  -0.010905   0.002301  -0.009010
    23  H   -0.093899   0.356999   0.070201  -0.007334  -0.003788   0.006897
    24  H    0.010930   0.060937   0.331324   0.003631   0.025651  -0.087481
    25  H    0.016535   0.011842   0.370682   0.003659  -0.007438  -0.021805
              13         14         15         16         17         18
     1  C    0.234104  -1.036631   0.356894  -0.026338  -0.014131   0.044659
     2  C   -0.086680  -0.243913  -0.093791   0.384274  -0.027022   0.008053
     3  C   -0.205175  -0.170200  -0.004476  -0.011735   0.371417  -0.091982
     4  C   -1.546132  -0.049285   0.017581   0.011568  -0.051571   0.434411
     5  C   -0.532944  -0.432665   0.005515  -0.001689   0.000310   0.012229
     6  C    0.964653  -1.209168   0.001443  -0.000387   0.000384  -0.004456
     7  C   -0.934405   0.615798  -0.002408   0.000373  -0.000364   0.001291
     8  C    0.241223  -1.496730   0.006335   0.000764  -0.001260   0.007935
     9  C    1.102751  -0.521341   0.070043   0.002524  -0.000467  -0.031420
    10  C   -0.194917   1.552945  -0.007311  -0.010881   0.012640   0.024343
    11  C    1.270380  -3.840898  -0.011151   0.031142  -0.010723  -0.011093
    12  C   -3.839084   2.210940  -0.009412  -0.034526   0.060910  -0.045903
    13  C   12.999354  -3.021551  -0.003769   0.002309  -0.005856  -0.004397
    14  C   -3.021551  13.312279   0.006873  -0.009016   0.002517  -0.009918
    15  H   -0.003769   0.006873   0.441023  -0.008862   0.001233   0.000192
    16  H    0.002309  -0.009016  -0.008862   0.419626  -0.006569   0.001882
    17  H   -0.005856   0.002517   0.001233  -0.006569   0.420754  -0.010080
    18  H   -0.004397  -0.009918   0.000192   0.001882  -0.010080   0.459877
    19  H    0.048180  -0.054272   0.000430  -0.000512   0.001174  -0.004607
    20  H   -0.011019  -0.045959  -0.000138   0.000017  -0.000143   0.001112
    21  H   -0.010593   0.060968   0.000023  -0.000007   0.000008  -0.000143
    22  H    0.031144  -0.034769  -0.000129   0.000007  -0.000007   0.000017
    23  H   -0.011012  -0.009617   0.000585  -0.000129   0.000023  -0.000138
    24  H    0.025020  -0.087333  -0.000006   0.000366  -0.000071   0.000290
    25  H   -0.007002  -0.021872  -0.001783   0.000940  -0.000215   0.000138
              19         20         21         22         23         24
     1  C   -0.042712   0.007947  -0.001259   0.000778   0.006328   0.060431
     2  C   -0.008577   0.001281  -0.000362   0.000374  -0.002414   0.010789
     3  C    0.048672  -0.004470   0.000384  -0.000388   0.001449  -0.000970
     4  C   -0.051378   0.012211   0.000307  -0.001686   0.005487  -0.010611
     5  C   -0.051912   0.434765  -0.051744   0.011663   0.017640  -0.010773
     6  C    0.048588  -0.092129   0.371413  -0.011839  -0.004551  -0.000892
     7  C   -0.008607   0.008106  -0.027075   0.384178  -0.093899   0.010930
     8  C   -0.042701   0.044781  -0.014212  -0.026107   0.356999   0.060937
     9  C    0.071153  -0.031430  -0.000442   0.002571   0.070201   0.331324
    10  C    0.424324   0.024162   0.012689  -0.010905  -0.007334   0.003631
    11  C    0.048922  -0.004543  -0.005815   0.002301  -0.003788   0.025651
    12  C   -0.054031  -0.009949   0.002514  -0.009010   0.006897  -0.087481
    13  C    0.048180  -0.011019  -0.010593   0.031144  -0.011012   0.025020
    14  C   -0.054272  -0.045959   0.060968  -0.034769  -0.009617  -0.087333
    15  H    0.000430  -0.000138   0.000023  -0.000129   0.000585  -0.000006
    16  H   -0.000512   0.000017  -0.000007   0.000007  -0.000129   0.000366
    17  H    0.001174  -0.000143   0.000008  -0.000007   0.000023  -0.000071
    18  H   -0.004607   0.001112  -0.000143   0.000017  -0.000138   0.000290
    19  H    0.441525  -0.004634   0.001177  -0.000514   0.000432   0.000337
    20  H   -0.004634   0.459867  -0.010079   0.001889   0.000193   0.000285
    21  H    0.001177  -0.010079   0.420730  -0.006563   0.001228  -0.000069
    22  H   -0.000514   0.001889  -0.006563   0.419605  -0.008867   0.000358
    23  H    0.000432   0.000193   0.001228  -0.008867   0.441125  -0.000004
    24  H    0.000337   0.000285  -0.000069   0.000358  -0.000004   0.495369
    25  H    0.000469   0.000142  -0.000216   0.000945  -0.001794  -0.078660
              25
     1  C    0.012520
     2  C    0.016733
     3  C   -0.002784
     4  C   -0.010649
     5  C   -0.010573
     6  C   -0.002879
     7  C    0.016535
     8  C    0.011842
     9  C    0.370682
    10  C    0.003659
    11  C   -0.007438
    12  C   -0.021805
    13  C   -0.007002
    14  C   -0.021872
    15  H   -0.001783
    16  H    0.000940
    17  H   -0.000215
    18  H    0.000138
    19  H    0.000469
    20  H    0.000142
    21  H   -0.000216
    22  H    0.000945
    23  H   -0.001794
    24  H   -0.078660
    25  H    0.494901
 Mulliken charges:
               1
     1  C    0.082943
     2  C   -0.416608
     3  C   -0.437302
     4  C    0.087317
     5  C    0.086570
     6  C   -0.437346
     7  C   -0.416127
     8  C    0.082931
     9  C   -0.372161
    10  C    0.077602
    11  C   -0.506459
    12  C    0.532478
    13  C   -0.504583
    14  C    0.532819
    15  H    0.235068
    16  H    0.254862
    17  H    0.257107
    18  H    0.217708
    19  H    0.189074
    20  H    0.217734
    21  H    0.257139
    22  H    0.254953
    23  H    0.234960
    24  H    0.251154
    25  H    0.238166
 Sum of Mulliken charges =   1.00000
 Mulliken charges with hydrogens summed into heavy atoms:
               1
     1  C    0.318011
     2  C   -0.161746
     3  C   -0.180194
     4  C    0.305025
     5  C    0.304304
     6  C   -0.180207
     7  C   -0.161174
     8  C    0.317891
     9  C    0.117160
    10  C    0.266676
    11  C   -0.506459
    12  C    0.532478
    13  C   -0.504583
    14  C    0.532819
 Electronic spatial extent (au):  <R**2>=           2835.0267
 Charge=              1.0000 electrons
 Dipole moment (field-independent basis, Debye):
    X=             -0.0012    Y=              0.1718    Z=             -0.0037  Tot=              0.1719
 Quadrupole moment (field-independent basis, Debye-Ang):
   XX=            -31.5994   YY=            -56.2588   ZZ=            -83.9649
   XY=             -0.0007   XZ=              0.0012   YZ=              0.2622
 Traceless Quadrupole moment (field-independent basis, Debye-Ang):
   XX=             25.6749   YY=              1.0156   ZZ=            -26.6905
   XY=             -0.0007   XZ=              0.0012   YZ=              0.2622
 Octapole moment (field-independent basis, Debye-Ang**2):
  XXX=             -0.0537  YYY=              5.1498  ZZZ=             -0.0852  XYY=              0.0001
  XXY=             -7.0143  XXZ=              0.4025  XZZ=              0.0072  YZZ=             -3.1156
  YYZ=              0.2845  XYZ=              0.0060
 Hexadecapole moment (field-independent basis, Debye-Ang**3):
 XXXX=          -2113.9977 YYYY=           -609.7017 ZZZZ=            -99.0938 XXXY=             -0.0309
 XXXZ=              0.0327 YYYX=              0.0136 YYYZ=              2.9070 ZZZX=              0.0012
 ZZZY=              0.0987 XXYY=           -504.2407 XXZZ=           -584.8265 YYZZ=           -145.4930
 XXYZ=              2.7454 YYXZ=              0.0002 ZZXY=             -0.0006
 N-N= 7.836218589503D+02 E-N=-2.803717691251D+03  KE= 5.376693788234D+02
 Unable to Open any file for archive entry.
 1\1\GINC-GADI-CPU-CLX-0113\SP\RM062X TD-FC\6-311++G(d,p)\C14H11(1+)\TS
 1578\28-Jul-2022\0\\#n M062X/6-311++G(d,p) TD(NStates=1) EmpiricalDisp
 ersion=GD3 SP\\SP_150\\1,1\C,0,-0.0372,2.494155,1.360431\C,0,-0.045,3.
 682033,0.671989\C,0,-0.0125,3.649511,-0.71383\C,0,0.042925,2.438081,-1
 .407538\C,0,0.042875,-2.438181,-1.407538\C,0,-0.0128,-3.650011,-0.7138
 3\C,0,-0.045475,-3.682208,0.671989\C,0,-0.03815,-2.494455,1.360431\C,0
 ,-0.024075,0.0011,1.453369\C,0,0.0671,-0.00005,-1.429189\C,0,0.010075,
 1.283105,0.677065\C,0,0.0274,1.234246,-0.730804\C,0,0.01,-1.28308,0.67
 7065\C,0,0.0276,-1.234096,-0.730804\H,0,-0.011,2.489146,2.443647\H,0,-
 0.0455,4.620753,1.211689\H,0,0.00805,4.610187,-1.272349\H,0,0.02,2.443
 175,-2.490059\H,0,0.061875,-0.000025,-2.510266\H,0,0.02015,-2.44325,-2
 .490059\H,0,0.0079,-4.610812,-1.272349\H,0,-0.046075,-4.621128,1.21168
 9\H,0,-0.0121,-2.489471,2.443647\H,0,-0.947585,0.00025,2.145512\H,0,0.
 771585,0.00025,2.146062\\Version=ES64L-G16RevC.01\State=1-A\HF=-539.75
 30879\RMSD=6.454e-09\PG=C01 [X(C14H11)]\\@
 The archive entry for this job was punched.


 The arm of the moral universe is long, but it bends toward justice.
 -- Martin Luther King, Jr.
 Job cpu time:       0 days  1 hours 20 minutes 22.6 seconds.
 Elapsed time:       0 days  0 hours  1 minutes 40.7 seconds.
 File lengths (MBytes):  RWF=    460 Int=      0 D2E=      0 Chk=     15 Scr=      1
 Normal termination of Gaussian 16 at Thu Jul 28 17:06:01 2022.
