 Entering Gaussian System, Link 0=g16
 Initial command:
 /apps/gaussian/g16c01/g16/l1.exe "/jobfs/53002009.gadi-pbs/Gau-750115.inp" -scrdir="/jobfs/53002009.gadi-pbs/"
 Entering Link 1 = /apps/gaussian/g16c01/g16/l1.exe PID=    750116.
  
 Copyright (c) 1988-2019, Gaussian, Inc.  All Rights Reserved.
  
 This is part of the Gaussian(R) 16 program.  It is based on
 the Gaussian(R) 09 system (copyright 2009, Gaussian, Inc.),
 the Gaussian(R) 03 system (copyright 2003, Gaussian, Inc.),
 the Gaussian(R) 98 system (copyright 1998, Gaussian, Inc.),
 the Gaussian(R) 94 system (copyright 1995, Gaussian, Inc.),
 the Gaussian 92(TM) system (copyright 1992, Gaussian, Inc.),
 the Gaussian 90(TM) system (copyright 1990, Gaussian, Inc.),
 the Gaussian 88(TM) system (copyright 1988, Gaussian, Inc.),
 the Gaussian 86(TM) system (copyright 1986, Carnegie Mellon
 University), and the Gaussian 82(TM) system (copyright 1983,
 Carnegie Mellon University). Gaussian is a federally registered
 trademark of Gaussian, Inc.
  
 This software contains proprietary and confidential information,
 including trade secrets, belonging to Gaussian, Inc.
  
 This software is provided under written license and may be
 used, copied, transmitted, or stored only in accord with that
 written license.
  
 The following legend is applicable only to US Government
 contracts under FAR:
  
                    RESTRICTED RIGHTS LEGEND
  
 Use, reproduction and disclosure by the US Government is
 subject to restrictions as set forth in subparagraphs (a)
 and (c) of the Commercial Computer Software - Restricted
 Rights clause in FAR 52.227-19.
  
 Gaussian, Inc.
 340 Quinnipiac St., Bldg. 40, Wallingford CT 06492
  
  
 ---------------------------------------------------------------
 Warning -- This program may not be used in any manner that
 competes with the business of Gaussian, Inc. or will provide
 assistance to any competitor of Gaussian, Inc.  The licensee
 of this program is prohibited from giving any competitor of
 Gaussian, Inc. access to this program.  By using this program,
 the user acknowledges that Gaussian, Inc. is engaged in the
 business of creating and licensing software in the field of
 computational chemistry and represents and warrants to the
 licensee that it is not a competitor of Gaussian, Inc. and that
 it will not use this program in any manner prohibited above.
 ---------------------------------------------------------------
  

 Cite this work as:
 Gaussian 16, Revision C.01,
 M. J. Frisch, G. W. Trucks, H. B. Schlegel, G. E. Scuseria, 
 M. A. Robb, J. R. Cheeseman, G. Scalmani, V. Barone, 
 G. A. Petersson, H. Nakatsuji, X. Li, M. Caricato, A. V. Marenich, 
 J. Bloino, B. G. Janesko, R. Gomperts, B. Mennucci, H. P. Hratchian, 
 J. V. Ortiz, A. F. Izmaylov, J. L. Sonnenberg, D. Williams-Young, 
 F. Ding, F. Lipparini, F. Egidi, J. Goings, B. Peng, A. Petrone, 
 T. Henderson, D. Ranasinghe, V. G. Zakrzewski, J. Gao, N. Rega, 
 G. Zheng, W. Liang, M. Hada, M. Ehara, K. Toyota, R. Fukuda, 
 J. Hasegawa, M. Ishida, T. Nakajima, Y. Honda, O. Kitao, H. Nakai, 
 T. Vreven, K. Throssell, J. A. Montgomery, Jr., J. E. Peralta, 
 F. Ogliaro, M. J. Bearpark, J. J. Heyd, E. N. Brothers, K. N. Kudin, 
 V. N. Staroverov, T. A. Keith, R. Kobayashi, J. Normand, 
 K. Raghavachari, A. P. Rendell, J. C. Burant, S. S. Iyengar, 
 J. Tomasi, M. Cossi, J. M. Millam, M. Klene, C. Adamo, R. Cammi, 
 J. W. Ochterski, R. L. Martin, K. Morokuma, O. Farkas, 
 J. B. Foresman, and D. J. Fox, Gaussian, Inc., Wallingford CT, 2019.
 
 ******************************************
 Gaussian 16:  ES64L-G16RevC.01  3-Jul-2019
                28-Jul-2022 
 ******************************************
 %NProcShared=48
 Will use up to   48 processors via shared memory.
 %mem = 190GB
 ---------------------------------------------------------------
 #n M062X/6-311++G(d,p) TD(NStates=1) EmpiricalDispersion=GD3 SP
 ---------------------------------------------------------------
 1/38=1,172=1/1;
 2/12=2,17=6,18=5,40=1/2;
 3/5=4,6=6,7=1111,11=9,25=1,30=1,74=-55,124=31/1,2,3,8;
 4//1;
 5/5=2,38=5/2;
 8/6=1,10=2,108=1/1;
 9/41=1,42=1,70=2/14;
 6/7=2,8=2,9=2,10=2/1;
 99/5=1,9=1/99;
 ------
 SP_-25
 ------
 Symbolic Z-matrix:
 Charge =  1 Multiplicity = 1
 C                    -0.01655   2.49416   1.36043 
 C                    -0.01788   3.69498   0.67199 
 C                    -0.0055    3.67296  -0.71383 
 C                     0.01545   2.45436  -1.40754 
 C                     0.01575  -2.45376  -1.40754 
 C                    -0.0037   -3.66996  -0.71383 
 C                    -0.01502  -3.69393   0.67199 
 C                    -0.01085  -2.49236   1.36043 
 C                    -0.00868  -0.0066    1.45337 
 C                     0.0244    0.0003   -1.42919 
 C                     0.00343   1.26963   0.67707 
 C                     0.0106    1.23582  -0.7308 
 C                     0.00388  -1.26978   0.67707 
 C                     0.0094   -1.23672  -0.7308 
 H                    -0.0075    2.4895    2.44365 
 H                    -0.01838   4.63213   1.21169 
 H                     0.00245   4.61159  -1.27235 
 H                     0.00775   2.45893  -2.49006 
 H                     0.0225    0.00015  -2.51027 
 H                     0.00685  -2.45847  -2.49006 
 H                     0.00335  -4.60784  -1.27235 
 H                    -0.01493  -4.62988   1.21169 
 H                    -0.0009   -2.48755   2.44365 
 H                    -0.89159  -0.0015    2.14744 
 H                     0.82759  -0.0015    2.14414 
 
                          Input orientation:                          
 ---------------------------------------------------------------------
 Center     Atomic      Atomic             Coordinates (Angstroms)
 Number     Number       Type             X           Y           Z
 ---------------------------------------------------------------------
      1          6           0       -0.016550    2.494155    1.360431
      2          6           0       -0.017875    3.694983    0.671989
      3          6           0       -0.005500    3.672961   -0.713830
      4          6           0        0.015450    2.454356   -1.407538
      5          6           0        0.015750   -2.453756   -1.407538
      6          6           0       -0.003700   -3.669961   -0.713830
      7          6           0       -0.015025   -3.693933    0.671989
      8          6           0       -0.010850   -2.492355    1.360431
      9          6           0       -0.008675   -0.006600    1.453369
     10          6           0        0.024400    0.000300   -1.429189
     11          6           0        0.003425    1.269630    0.677065
     12          6           0        0.010600    1.235821   -0.730804
     13          6           0        0.003875   -1.269780    0.677065
     14          6           0        0.009400   -1.236721   -0.730804
     15          1           0       -0.007500    2.489496    2.443647
     16          1           0       -0.018375    4.632128    1.211689
     17          1           0        0.002450    4.611587   -1.272349
     18          1           0        0.007750    2.458925   -2.490059
     19          1           0        0.022500    0.000150   -2.510266
     20          1           0        0.006850   -2.458475   -2.490059
     21          1           0        0.003350   -4.607837   -1.272349
     22          1           0       -0.014925   -4.629878    1.211689
     23          1           0       -0.000900   -2.487546    2.443647
     24          1           0       -0.891585   -0.001500    2.147437
     25          1           0        0.827585   -0.001500    2.144137
 ---------------------------------------------------------------------
                    Distance matrix (angstroms):
                    1          2          3          4          5
     1  C    0.000000
     2  C    1.384176   0.000000
     3  C    2.385847   1.386049   0.000000
     4  C    2.768440   2.421714   1.402379   0.000000
     5  C    5.669614   6.490959   6.165902   4.908112   0.000000
     6  C    6.503772   7.494204   7.342922   6.163510   1.400273
     7  C    6.226266   7.388917   7.496113   6.490518   2.421450
     8  C    4.986513   6.225524   6.504899   5.668535   2.768366
     9  C    2.502494   3.783167   4.270355   3.773814   3.764832
    10  C    3.742054   4.250579   3.741801   2.454168   2.454167
    11  C    1.402444   2.425452   2.776809   2.397768   4.267239
    12  C    2.440780   2.831275   2.437252   1.393851   3.751130
    13  C    3.825521   4.964813   5.134722   4.267891   2.397396
    14  C    4.277075   5.127404   4.909734   3.752606   1.392546
    15  H    1.083264   2.142914   3.371981   3.851414   6.266411
    16  H    2.143142   1.081442   2.151230   3.406492   7.554553
    17  H    3.378670   2.149657   1.092257   2.161502   7.066649
    18  H    3.850728   3.395150   2.151522   1.082558   5.030542
    19  H    4.604767   4.876491   4.088705   2.690574   2.690299
    20  H    6.273385   6.918396   6.383545   5.030689   1.082568
    21  H    7.574313   8.527469   8.299617   7.063497   2.158355
    22  H    7.125586   8.342338   8.523195   7.552989   3.405407
    23  H    5.098132   6.431386   6.922538   6.265324   3.851369
    24  H    2.759232   4.074838   4.740639   4.414951   4.413011
    25  H    2.748646   4.067679   4.729024   4.393767   4.391700
                    6          7          8          9         10
     6  C    0.000000
     7  C    1.386073   0.000000
     8  C    2.385239   1.384832   0.000000
     9  C    4.256406   3.769220   2.487493   0.000000
    10  C    3.739431   4.250160   3.741197   2.882756   0.000000
    11  C    5.131686   4.963600   3.823575   1.493840   2.459257
    12  C    4.905832   5.125520   4.274695   2.512885   1.419311
    13  C    2.774079   2.424232   1.400677   1.482710   2.459640
    14  C    2.433334   2.829543   2.439322   2.506818   1.420629
    15  H    6.921603   6.432233   5.098255   2.685358   4.603908
    16  H    8.522472   8.343535   7.126039   4.645030   5.331969
    17  H    8.300363   8.530089   7.576127   5.362585   4.614006
    18  H    6.381094   6.917856   6.272304   4.650775   2.677790
    19  H    4.086268   4.875900   4.603910   3.963763   1.081079
    20  H    2.150070   3.394905   3.850680   4.643550   2.677933
    21  H    1.091606   2.148490   3.377425   5.347996   4.610853
    22  H    2.151555   1.080402   2.142696   4.629595   5.330509
    23  H    3.371613   2.143441   1.083272   2.671293   4.603138
    24  H    4.736327   4.071777   2.756707   1.123070   3.692057
    25  H    4.724047   4.063407   2.742540   1.084674   3.662481
                   11         12         13         14         15
    11  C    0.000000
    12  C    1.408293   0.000000
    13  C    2.539410   2.874052   0.000000
    14  C    2.874705   2.472542   1.408268   0.000000
    15  H    2.146859   3.413088   4.153685   4.895112   0.000000
    16  H    3.404804   3.912674   5.926115   6.182025   2.471581
    17  H    3.868965   3.418937   6.196022   5.873332   4.279252
    18  H    3.383063   2.142655   4.892232   4.093016   4.933824
    19  H    3.430892   2.166451   3.431056   2.167142   5.544276
    20  H    4.891774   4.091799   3.382851   2.141884   6.987423
    21  H    6.192321   5.868702   3.865597   3.414342   8.011297
    22  H    5.923711   6.179025   3.402416   3.909909   7.225182
    23  H    4.151771   4.892927   2.145644   3.412009   4.977046
    24  H    2.139815   3.260241   2.138312   3.259113   2.659776
    25  H    2.108865   3.234766   2.106972   3.234267   2.644264
                   16         17         18         19         20
    16  H    0.000000
    17  H    2.484210   0.000000
    18  H    4.292602   2.473216   0.000000
    19  H    5.942208   4.774745   2.458902   0.000000
    20  H    7.998764   7.174163   4.917400   2.458758   0.000000
    21  H    9.568065   9.219424   7.170911   4.771410   2.470341
    22  H    9.262007   9.569505   7.997161   5.940666   4.291667
    23  H    7.225495   8.012885   6.986351   5.543504   4.933798
    24  H    4.807143   5.811610   5.326243   4.746552   5.324498
    25  H    4.801626   5.799465   5.310517   4.723519   5.309059
                   21         22         23         24         25
    21  H    0.000000
    22  H    2.484203   0.000000
    23  H    4.278350   2.471336   0.000000
    24  H    5.806392   4.802712   2.657345   0.000000
    25  H    5.793969   4.795953   2.637521   1.719173   0.000000
 Stoichiometry    C14H11(1+)
 Framework group  C1[X(C14H11)]
 Deg. of freedom    69
 Full point group                 C1      NOp   1
 Largest Abelian subgroup         C1      NOp   1
 Largest concise Abelian subgroup C1      NOp   1
                         Standard orientation:                         
 ---------------------------------------------------------------------
 Center     Atomic      Atomic             Coordinates (Angstroms)
 Number     Number       Type             X           Y           Z
 ---------------------------------------------------------------------
      1          6           0        2.493987   -1.360828    0.003299
      2          6           0        3.694903   -0.672572    0.010262
      3          6           0        3.673051    0.713305    0.010113
      4          6           0        2.454526    1.407321   -0.004283
      5          6           0       -2.453585    1.407927   -0.002823
      6          6           0       -3.669871    0.714225    0.010946
      7          6           0       -3.694014   -0.671637    0.010062
      8          6           0       -2.492524   -1.360164   -0.000613
      9          6           0       -0.006782   -1.453385   -0.004499
     10          6           0        0.000470    1.429352   -0.012162
     11          6           0        1.269541   -0.677162   -0.010212
     12          6           0        1.235908    0.730720   -0.004963
     13          6           0       -1.269868   -0.676845   -0.009751
     14          6           0       -1.236634    0.731014   -0.002876
     15          1           0        2.489188   -2.443921   -0.015299
     16          1           0        4.631980   -1.212371    0.005668
     17          1           0        4.611745    1.271757    0.006751
     18          1           0        2.459235    2.489731    0.012958
     19          1           0        0.000457    2.510370   -0.000731
     20          1           0       -2.458165    2.490328    0.015622
     21          1           0       -4.607679    1.272900    0.009157
     22          1           0       -4.630027   -1.211200    0.005540
     23          1           0       -2.487856   -2.443251   -0.020114
     24          1           0       -0.001454   -2.155210    0.872256
     25          1           0       -0.002068   -2.136754   -0.846818
 ---------------------------------------------------------------------
 Rotational constants (GHZ):           2.1359421           0.4462832           0.3699639
 Standard basis: 6-311++G(d,p) (5D, 7F)
 There are   399 symmetry adapted cartesian basis functions of A   symmetry.
 There are   385 symmetry adapted basis functions of A   symmetry.
   385 basis functions,   603 primitive gaussians,   399 cartesian basis functions
    47 alpha electrons       47 beta electrons
       nuclear repulsion energy       782.1060520328 Hartrees.
 NAtoms=   25 NActive=   25 NUniq=   25 SFac= 1.00D+00 NAtFMM=   60 NAOKFM=F Big=F
 Integral buffers will be    131072 words long.
 Regular integral format.
 Two-electron integral symmetry is turned on.
 Nuclear repulsion after empirical dispersion term =      782.1050728278 Hartrees.
 One-electron integrals computed using PRISM.
 NBasis=   385 RedAO= T EigKep=  1.18D-06  NBF=   385
 NBsUse=   379 1.00D-06 EigRej=  8.29D-07 NBFU=   379
 ExpMin= 3.60D-02 ExpMax= 4.56D+03 ExpMxC= 6.82D+02 IAcc=3 IRadAn=         5 AccDes= 0.00D+00
 Harris functional with IExCor= 1009 and IRadAn=       5 diagonalized for initial guess.
 HarFok:  IExCor= 1009 AccDes= 0.00D+00 IRadAn=         5 IDoV= 1 UseB2=F ITyADJ=14
 ICtDFT=  3500011 ScaDFX=  1.000000  1.000000  1.000000  1.000000
 FoFCou: FMM=F IPFlag=           0 FMFlag=      100000 FMFlg1=           0
         NFxFlg=           0 DoJE=T BraDBF=F KetDBF=T FulRan=T
         wScrn=  0.000000 ICntrl=       500 IOpCl=  0 I1Cent=   200000004 NGrid=           0
         NMat0=    1 NMatS0=      1 NMatT0=    0 NMatD0=    1 NMtDS0=    0 NMtDT0=    0
 Petite list used in FoFCou.
 Requested convergence on RMS density matrix=1.00D-08 within 128 cycles.
 Requested convergence on MAX density matrix=1.00D-06.
 Requested convergence on             energy=1.00D-06.
 No special actions if energy rises.
 SCF Done:  E(RM062X) =  -539.759448509     A.U. after   15 cycles
            NFock= 15  Conv=0.48D-08     -V/T= 2.0041
 DoSCS=F DFT=T ScalE2(SS,OS)=  1.000000  1.000000
 ExpMin= 3.60D-02 ExpMax= 4.56D+03 ExpMxC= 6.82D+02 IAcc=3 IRadAn=         5 AccDes= 0.00D+00
 HarFok:  IExCor=  205 AccDes= 0.00D+00 IRadAn=         5 IDoV=-2 UseB2=F ITyADJ=14
 ICtDFT= 12500011 ScaDFX=  1.000000  1.000000  1.000000  1.000000
 Range of M.O.s used for correlation:    15   379
 NBasis=   385 NAE=    47 NBE=    47 NFC=    14 NFV=     0
 NROrb=    365 NOA=    33 NOB=    33 NVA=   332 NVB=   332

 **** Warning!!: The largest alpha MO coefficient is  0.14982742D+03

 Orbital symmetries:
       Occupied  (A) (A) (A) (A) (A) (A) (A) (A) (A) (A) (A) (A)
                 (A) (A) (A) (A) (A) (A) (A) (A) (A) (A) (A) (A)
                 (A) (A) (A) (A) (A) (A) (A) (A) (A) (A) (A) (A)
                 (A) (A) (A) (A) (A) (A) (A) (A) (A) (A) (A)
       Virtual   (A) (A) (A) (A) (A) (A) (A) (A) (A) (A) (A) (A)
                 (A) (A) (A) (A) (A) (A) (A) (A) (A) (A) (A) (A)
                 (A) (A) (A) (A) (A) (A) (A) (A) (A) (A) (A) (A)
                 (A) (A) (A) (A) (A) (A) (A) (A) (A) (A) (A) (A)
                 (A) (A) (A) (A) (A) (A) (A) (A) (A) (A) (A) (A)
                 (A) (A) (A) (A) (A) (A) (A) (A) (A) (A) (A) (A)
                 (A) (A) (A) (A) (A) (A) (A) (A) (A) (A) (A) (A)
                 (A) (A) (A) (A) (A) (A) (A) (A) (A) (A) (A) (A)
                 (A) (A) (A) (A) (A) (A) (A) (A) (A) (A) (A) (A)
                 (A) (A) (A) (A) (A) (A) (A) (A) (A) (A) (A) (A)
                 (A) (A) (A) (A) (A) (A) (A) (A) (A) (A) (A) (A)
                 (A) (A) (A) (A) (A) (A) (A) (A) (A) (A) (A) (A)
                 (A) (A) (A) (A) (A) (A) (A) (A) (A) (A) (A) (A)
                 (A) (A) (A) (A) (A) (A) (A) (A) (A) (A) (A) (A)
                 (A) (A) (A) (A) (A) (A) (A) (A) (A) (A) (A) (A)
                 (A) (A) (A) (A) (A) (A) (A) (A) (A) (A) (A) (A)
                 (A) (A) (A) (A) (A) (A) (A) (A) (A) (A) (A) (A)
                 (A) (A) (A) (A) (A) (A) (A) (A) (A) (A) (A) (A)
                 (A) (A) (A) (A) (A) (A) (A) (A) (A) (A) (A) (A)
                 (A) (A) (A) (A) (A) (A) (A) (A) (A) (A) (A) (A)
                 (A) (A) (A) (A) (A) (A) (A) (A) (A) (A) (A) (A)
                 (A) (A) (A) (A) (A) (A) (A) (A) (A) (A) (A) (A)
                 (A) (A) (A) (A) (A) (A) (A) (A) (A) (A) (A) (A)
                 (A) (A) (A) (A) (A) (A) (A) (A) (A) (A) (A) (A)
                 (A) (A) (A) (A) (A) (A) (A) (A) (A) (A) (A) (A)
                 (A) (A) (A) (A) (A) (A) (A) (A) (A) (A) (A) (A)
                 (A) (A) (A) (A) (A) (A) (A) (A) (A) (A) (A) (A)
                 (A) (A) (A) (A) (A) (A) (A) (A)
     4 initial guesses have been made.
 Convergence on wavefunction:    0.001000000000000
 Iteration     1 Dimension     4 NMult     0 NNew      4
 CISAX will form     4 AO SS matrices at one time.
 Iteration     2 Dimension     6 NMult     4 NNew      2
 Iteration     3 Dimension     8 NMult     6 NNew      2
 Iteration     4 Dimension    10 NMult     8 NNew      2
 Iteration     5 Dimension    12 NMult    10 NNew      2
 Iteration     6 Dimension    14 NMult    12 NNew      2
 ***********************************************************************
 Excited states from <AA,BB:AA,BB> singles matrix:
 ***********************************************************************
 
 Ground to excited state transition densities written to RWF  633
 Ground to excited state transition electric dipole moments (Au):
       state          X           Y           Z        Dip. S.      Osc.
         1        -0.0083     -0.6507      0.0042      0.4235      0.0294
 Ground to excited state transition velocity dipole moments (Au):
       state          X           Y           Z        Dip. S.      Osc.
         1         0.0009      0.0754     -0.0005      0.0057      0.0364
 Ground to excited state transition magnetic dipole moments (Au):
       state          X           Y           Z
         1        -0.0054      0.0007      0.0005
 Ground to excited state transition velocity quadrupole moments (Au):
       state          XX          YY          ZZ          XY          XZ          YZ
         1         0.2854      0.0374     -0.0100      0.0013     -0.0000      0.0008
 <0|del|b> * <b|rxdel|0> + <0|del|b> * <b|delr+rdel|0>
 Rotatory Strengths (R) in cgs (10**-40 erg-esu-cm/Gauss)
       state          XX          YY          ZZ    R(velocity)    E-M Angle
         1         0.1762     -0.0125      0.1351      0.0996       90.00
 1/2[<0|r|b>*<b|rxdel|0> + (<0|rxdel|b>*<b|r|0>)*]
 Rotatory Strengths (R) in cgs (10**-40 erg-esu-cm/Gauss)
       state          XX          YY          ZZ     R(length)
         1        -0.0319      0.3001     -0.0016      0.0889
  1/2[<0|del|b>*<b|r|0> + (<0|r|b>*<b|del|0>)*] (Au)
       state          X           Y           Z        Dip. S.   Osc.(frdel)
         1        -0.0000     -0.0491     -0.0000      0.0491      0.0327

 Excitation energies and oscillator strengths:
 
 Excited State   1:      Singlet-A      2.8367 eV  437.07 nm  f=0.0294  <S**2>=0.000
      47 -> 48         0.70424
 This state for optimization and/or second-order correction.
 Total Energy, E(TD-HF/TD-DFT) =  -539.655201412    
 Copying the excited state density for this state as the 1-particle RhoCI density.
 SavETr:  write IOETrn=   770 NScale= 10 NData=  16 NLR=1 NState=    1 LETran=      28.

 **********************************************************************

            Population analysis using the SCF Density.

 **********************************************************************

 Orbital symmetries:
       Occupied  (A) (A) (A) (A) (A) (A) (A) (A) (A) (A) (A) (A)
                 (A) (A) (A) (A) (A) (A) (A) (A) (A) (A) (A) (A)
                 (A) (A) (A) (A) (A) (A) (A) (A) (A) (A) (A) (A)
                 (A) (A) (A) (A) (A) (A) (A) (A) (A) (A) (A)
       Virtual   (A) (A) (A) (A) (A) (A) (A) (A) (A) (A) (A) (A)
                 (A) (A) (A) (A) (A) (A) (A) (A) (A) (A) (A) (A)
                 (A) (A) (A) (A) (A) (A) (A) (A) (A) (A) (A) (A)
                 (A) (A) (A) (A) (A) (A) (A) (A) (A) (A) (A) (A)
                 (A) (A) (A) (A) (A) (A) (A) (A) (A) (A) (A) (A)
                 (A) (A) (A) (A) (A) (A) (A) (A) (A) (A) (A) (A)
                 (A) (A) (A) (A) (A) (A) (A) (A) (A) (A) (A) (A)
                 (A) (A) (A) (A) (A) (A) (A) (A) (A) (A) (A) (A)
                 (A) (A) (A) (A) (A) (A) (A) (A) (A) (A) (A) (A)
                 (A) (A) (A) (A) (A) (A) (A) (A) (A) (A) (A) (A)
                 (A) (A) (A) (A) (A) (A) (A) (A) (A) (A) (A) (A)
                 (A) (A) (A) (A) (A) (A) (A) (A) (A) (A) (A) (A)
                 (A) (A) (A) (A) (A) (A) (A) (A) (A) (A) (A) (A)
                 (A) (A) (A) (A) (A) (A) (A) (A) (A) (A) (A) (A)
                 (A) (A) (A) (A) (A) (A) (A) (A) (A) (A) (A) (A)
                 (A) (A) (A) (A) (A) (A) (A) (A) (A) (A) (A) (A)
                 (A) (A) (A) (A) (A) (A) (A) (A) (A) (A) (A) (A)
                 (A) (A) (A) (A) (A) (A) (A) (A) (A) (A) (A) (A)
                 (A) (A) (A) (A) (A) (A) (A) (A) (A) (A) (A) (A)
                 (A) (A) (A) (A) (A) (A) (A) (A) (A) (A) (A) (A)
                 (A) (A) (A) (A) (A) (A) (A) (A) (A) (A) (A) (A)
                 (A) (A) (A) (A) (A) (A) (A) (A) (A) (A) (A) (A)
                 (A) (A) (A) (A) (A) (A) (A) (A) (A) (A) (A) (A)
                 (A) (A) (A) (A) (A) (A) (A) (A) (A) (A) (A) (A)
                 (A) (A) (A) (A) (A) (A) (A) (A) (A) (A) (A) (A)
                 (A) (A) (A) (A) (A) (A) (A) (A) (A) (A) (A) (A)
                 (A) (A) (A) (A) (A) (A) (A) (A) (A) (A) (A) (A)
                 (A) (A) (A) (A) (A) (A) (A) (A)
 The electronic state is 1-A.
 Alpha  occ. eigenvalues --  -10.77675 -10.73253 -10.73169 -10.72357 -10.72352
 Alpha  occ. eigenvalues --  -10.71287 -10.71243 -10.70974 -10.70951 -10.70937
 Alpha  occ. eigenvalues --  -10.69880 -10.69847 -10.69687 -10.69647  -1.16512
 Alpha  occ. eigenvalues --   -1.12676  -1.07060  -1.05663  -1.01526  -1.00147
 Alpha  occ. eigenvalues --   -0.95862  -0.91035  -0.86433  -0.85939  -0.83824
 Alpha  occ. eigenvalues --   -0.78420  -0.76038  -0.74460  -0.69562  -0.69224
 Alpha  occ. eigenvalues --   -0.68500  -0.68117  -0.67972  -0.64897  -0.64420
 Alpha  occ. eigenvalues --   -0.62930  -0.61726  -0.60065  -0.59831  -0.59034
 Alpha  occ. eigenvalues --   -0.56876  -0.55165  -0.54754  -0.52520  -0.46782
 Alpha  occ. eigenvalues --   -0.46038  -0.44588
 Alpha virt. eigenvalues --   -0.26111  -0.14570  -0.14073  -0.12654  -0.11181
 Alpha virt. eigenvalues --   -0.10093  -0.09245  -0.08028  -0.07950  -0.07482
 Alpha virt. eigenvalues --   -0.07211  -0.07125  -0.05640  -0.05581  -0.05314
 Alpha virt. eigenvalues --   -0.03855  -0.03692  -0.03278  -0.03130  -0.02166
 Alpha virt. eigenvalues --   -0.01380  -0.00957   0.00194   0.00545   0.00673
 Alpha virt. eigenvalues --    0.01065   0.01512   0.01958   0.02225   0.02281
 Alpha virt. eigenvalues --    0.02459   0.02667   0.02850   0.03215   0.03340
 Alpha virt. eigenvalues --    0.04232   0.04509   0.04704   0.05089   0.05378
 Alpha virt. eigenvalues --    0.05986   0.06307   0.06611   0.07040   0.07267
 Alpha virt. eigenvalues --    0.07909   0.08251   0.08347   0.08586   0.08924
 Alpha virt. eigenvalues --    0.09535   0.09558   0.10035   0.10856   0.11062
 Alpha virt. eigenvalues --    0.11138   0.12176   0.12224   0.12928   0.12955
 Alpha virt. eigenvalues --    0.13422   0.13483   0.14014   0.14482   0.16044
 Alpha virt. eigenvalues --    0.16236   0.16540   0.17317   0.17568   0.17739
 Alpha virt. eigenvalues --    0.18130   0.19147   0.19297   0.19678   0.19766
 Alpha virt. eigenvalues --    0.21608   0.21646   0.22678   0.23072   0.23559
 Alpha virt. eigenvalues --    0.23802   0.24592   0.25114   0.26885   0.27694
 Alpha virt. eigenvalues --    0.28843   0.29277   0.29841   0.31399   0.35808
 Alpha virt. eigenvalues --    0.36576   0.38172   0.39361   0.41126   0.41347
 Alpha virt. eigenvalues --    0.41976   0.42103   0.42958   0.43808   0.44238
 Alpha virt. eigenvalues --    0.44975   0.45177   0.45949   0.46175   0.47908
 Alpha virt. eigenvalues --    0.48486   0.48858   0.48999   0.50388   0.51292
 Alpha virt. eigenvalues --    0.51645   0.51741   0.52153   0.53142   0.53926
 Alpha virt. eigenvalues --    0.54035   0.54761   0.55728   0.55778   0.57371
 Alpha virt. eigenvalues --    0.58262   0.58818   0.61465   0.62210   0.62313
 Alpha virt. eigenvalues --    0.63194   0.63535   0.64728   0.65188   0.66962
 Alpha virt. eigenvalues --    0.70475   0.70534   0.71033   0.72452   0.72835
 Alpha virt. eigenvalues --    0.75752   0.75868   0.76314   0.76714   0.76995
 Alpha virt. eigenvalues --    0.77737   0.77835   0.78257   0.80310   0.80346
 Alpha virt. eigenvalues --    0.81347   0.81591   0.82172   0.83059   0.85051
 Alpha virt. eigenvalues --    0.87100   0.87939   0.88065   0.89657   0.90437
 Alpha virt. eigenvalues --    0.90941   0.91479   0.93441   0.94766   0.96336
 Alpha virt. eigenvalues --    0.96705   1.00258   1.01318   1.01814   1.02935
 Alpha virt. eigenvalues --    1.03198   1.04041   1.04680   1.05491   1.08983
 Alpha virt. eigenvalues --    1.19334   1.23225   1.24073   1.25381   1.28098
 Alpha virt. eigenvalues --    1.30011   1.31436   1.34479   1.35881   1.36180
 Alpha virt. eigenvalues --    1.39456   1.40106   1.41008   1.43325   1.43573
 Alpha virt. eigenvalues --    1.43682   1.45248   1.45473   1.46410   1.46644
 Alpha virt. eigenvalues --    1.47778   1.48370   1.51767   1.53716   1.55784
 Alpha virt. eigenvalues --    1.56084   1.56467   1.56734   1.57931   1.61637
 Alpha virt. eigenvalues --    1.63055   1.63273   1.63460   1.66211   1.68185
 Alpha virt. eigenvalues --    1.68540   1.68728   1.69727   1.74668   1.76004
 Alpha virt. eigenvalues --    1.77216   1.78091   1.79952   1.80503   1.81121
 Alpha virt. eigenvalues --    1.83086   1.83355   1.83450   1.84029   1.84120
 Alpha virt. eigenvalues --    1.84448   1.86057   1.86209   1.88341   1.91288
 Alpha virt. eigenvalues --    1.92179   1.94093   1.95173   1.97949   1.98544
 Alpha virt. eigenvalues --    2.00125   2.02334   2.04666   2.06903   2.11938
 Alpha virt. eigenvalues --    2.12140   2.14037   2.15297   2.19679   2.21201
 Alpha virt. eigenvalues --    2.23140   2.28866   2.30421   2.34429   2.35256
 Alpha virt. eigenvalues --    2.36282   2.38157   2.38842   2.42261   2.42930
 Alpha virt. eigenvalues --    2.46817   2.48155   2.49616   2.53099   2.53786
 Alpha virt. eigenvalues --    2.54144   2.56616   2.57968   2.58477   2.59752
 Alpha virt. eigenvalues --    2.59983   2.61510   2.62226   2.63550   2.64001
 Alpha virt. eigenvalues --    2.64772   2.65033   2.65382   2.65396   2.67957
 Alpha virt. eigenvalues --    2.68305   2.71110   2.71377   2.73454   2.74845
 Alpha virt. eigenvalues --    2.76426   2.79082   2.79911   2.83184   2.83363
 Alpha virt. eigenvalues --    2.85354   2.86418   2.92189   2.96773   2.99774
 Alpha virt. eigenvalues --    3.00387   3.04557   3.11709   3.11997   3.13800
 Alpha virt. eigenvalues --    3.20797   3.23541   3.27266   3.28511   3.31144
 Alpha virt. eigenvalues --    3.33585   3.33631   3.43495   3.46096   3.47625
 Alpha virt. eigenvalues --    3.49194   3.50783   3.56638   3.65131   3.67317
 Alpha virt. eigenvalues --    3.67652   3.93065   3.94007   3.94678   3.96172
 Alpha virt. eigenvalues --    4.03425   4.06916   4.07692   4.12537   4.35307
 Alpha virt. eigenvalues --    4.61022   4.70338   4.72220  23.45146  23.59789
 Alpha virt. eigenvalues --   23.82622  23.85146  23.88145  23.89784  23.90640
 Alpha virt. eigenvalues --   23.92442  23.98394  24.00676  24.01285  24.01606
 Alpha virt. eigenvalues --   24.11453  24.11660
          Condensed to atoms (all electrons):
               1          2          3          4          5          6
     1  C    8.494728   0.463873  -0.587395   1.771846  -0.006279  -0.095212
     2  C    0.463873   7.051180   0.372687  -0.938280  -0.043014  -0.016624
     3  C   -0.587395   0.372687   6.622635   0.725083  -0.116168   0.017759
     4  C    1.771846  -0.938280   0.725083  10.584811  -0.254980  -0.119619
     5  C   -0.006279  -0.043014  -0.116168  -0.254980  10.495317   0.737977
     6  C   -0.095212  -0.016624   0.017759  -0.119619   0.737977   6.629989
     7  C   -0.023922   0.006711  -0.016524  -0.041515  -0.936859   0.375252
     8  C    0.412388  -0.026614  -0.095255   0.004458   1.735416  -0.576475
     9  C   -1.351318  -0.681085   0.278703  -0.347025  -0.389253   0.277412
    10  C   -1.184216   0.190366  -0.360684  -2.463500  -2.450622  -0.378012
    11  C    0.266619  -0.979027   1.012902  -0.196293  -1.534496  -0.194813
    12  C   -1.799610   1.126979  -1.333325  -1.252537  -0.269989  -0.193987
    13  C    0.192546  -0.178632  -0.193597  -1.555674  -0.207620   1.025545
    14  C   -1.054668  -0.217543  -0.195572  -0.299724  -1.145017  -1.359878
    15  H    0.363259  -0.101269  -0.002643   0.024227   0.005870   0.001201
    16  H   -0.019084   0.378459  -0.015163   0.014169  -0.001645  -0.000353
    17  H   -0.020871  -0.019356   0.371969  -0.063346   0.000366   0.000408
    18  H    0.048051   0.004171  -0.086914   0.449730   0.008394  -0.005002
    19  H   -0.046001  -0.007745   0.050346  -0.065611  -0.062186   0.050762
    20  H    0.007693   0.001826  -0.004922   0.008537   0.448130  -0.085995
    21  H   -0.001328  -0.000397   0.000404   0.000372  -0.062651   0.372042
    22  H    0.000731   0.000375  -0.000350  -0.001658   0.013754  -0.014521
    23  H    0.005894  -0.002673   0.001177   0.006028   0.023821  -0.002392
    24  H    0.044509   0.014038  -0.000894  -0.012544  -0.011127  -0.001351
    25  H    0.023047   0.014756  -0.002539  -0.011153  -0.011925  -0.001964
               7          8          9         10         11         12
     1  C   -0.023922   0.412388  -1.351318  -1.184216   0.266619  -1.799610
     2  C    0.006711  -0.026614  -0.681085   0.190366  -0.979027   1.126979
     3  C   -0.016524  -0.095255   0.278703  -0.360684   1.012902  -1.333325
     4  C   -0.041515   0.004458  -0.347025  -2.463500  -0.196293  -1.252537
     5  C   -0.936859   1.735416  -0.389253  -2.450622  -1.534496  -0.269989
     6  C    0.375252  -0.576475   0.277412  -0.378012  -0.194813  -0.193987
     7  C    7.065897   0.472060  -0.677331   0.193217  -0.188253  -0.222217
     8  C    0.472060   8.495202  -1.387170  -1.180839   0.180927  -1.073056
     9  C   -0.677331  -1.387170   9.305936   0.386569   1.577690  -1.592792
    10  C    0.193217  -1.180839   0.386569   9.198586  -0.518902   2.288635
    11  C   -0.188253   0.180927   1.577690  -0.518902  14.282988  -3.774900
    12  C   -0.222217  -1.073056  -1.592792   2.288635  -3.774900  15.477794
    13  C   -0.987191   0.290800   1.601083  -0.540973   1.251474  -4.619502
    14  C    1.114152  -1.748246  -1.566856   2.250870  -4.642010   2.816725
    15  H   -0.002714   0.005875   0.086487  -0.008983  -0.023251  -0.021414
    16  H    0.000380   0.000821   0.004573  -0.010568   0.031149  -0.038882
    17  H   -0.000396  -0.001339  -0.004556   0.019477  -0.025146   0.084646
    18  H    0.001807   0.007838  -0.027228   0.018386  -0.008925  -0.050349
    19  H   -0.007779  -0.045950   0.075264   0.422069   0.067000  -0.062476
    20  H    0.003801   0.047401  -0.027510   0.018892  -0.010135  -0.012098
    21  H   -0.018899  -0.020796  -0.004592   0.019433  -0.006309   0.004876
    22  H    0.379118  -0.020639   0.004096  -0.010475   0.003275  -0.009420
    23  H   -0.101151   0.362010   0.085284  -0.008851  -0.000227   0.006916
    24  H    0.012810   0.041515   0.346986   0.004948   0.017865  -0.071112
    25  H    0.016119   0.027221   0.362166   0.004627   0.006864  -0.046749
              13         14         15         16         17         18
     1  C    0.192546  -1.054668   0.363259  -0.019084  -0.020871   0.048051
     2  C   -0.178632  -0.217543  -0.101269   0.378459  -0.019356   0.004171
     3  C   -0.193597  -0.195572  -0.002643  -0.015163   0.371969  -0.086914
     4  C   -1.555674  -0.299724   0.024227   0.014169  -0.063346   0.449730
     5  C   -0.207620  -1.145017   0.005870  -0.001645   0.000366   0.008394
     6  C    1.025545  -1.359878   0.001201  -0.000353   0.000408  -0.005002
     7  C   -0.987191   1.114152  -0.002714   0.000380  -0.000396   0.001807
     8  C    0.290800  -1.748246   0.005875   0.000821  -0.001339   0.007838
     9  C    1.601083  -1.566856   0.086487   0.004573  -0.004556  -0.027228
    10  C   -0.540973   2.250870  -0.008983  -0.010568   0.019477   0.018386
    11  C    1.251474  -4.642010  -0.023251   0.031149  -0.025146  -0.008925
    12  C   -4.619502   2.816725  -0.021414  -0.038882   0.084646  -0.050349
    13  C   14.259471  -3.784954  -0.000169   0.003232  -0.006082  -0.010615
    14  C   -3.784954  15.405140   0.006943  -0.009455   0.004871  -0.012213
    15  H   -0.000169   0.006943   0.438635  -0.009027   0.001397   0.000210
    16  H    0.003232  -0.009455  -0.009027   0.419319  -0.006575   0.001942
    17  H   -0.006082   0.004871   0.001397  -0.006575   0.421261  -0.010032
    18  H   -0.010615  -0.012213   0.000210   0.001942  -0.010032   0.454198
    19  H    0.070191  -0.061885   0.000337  -0.000528   0.001353  -0.005880
    20  H   -0.009086  -0.049330  -0.000116   0.000015  -0.000142   0.001287
    21  H   -0.026072   0.084779   0.000015  -0.000007   0.000010  -0.000143
    22  H    0.030728  -0.037108  -0.000126   0.000007  -0.000007   0.000014
    23  H   -0.022890  -0.019758   0.000617  -0.000125   0.000014  -0.000115
    24  H    0.020329  -0.072701  -0.000492   0.000498  -0.000094   0.000178
    25  H    0.005002  -0.045735  -0.001333   0.000777  -0.000187   0.000197
              19         20         21         22         23         24
     1  C   -0.046001   0.007693  -0.001328   0.000731   0.005894   0.044509
     2  C   -0.007745   0.001826  -0.000397   0.000375  -0.002673   0.014038
     3  C    0.050346  -0.004922   0.000404  -0.000350   0.001177  -0.000894
     4  C   -0.065611   0.008537   0.000372  -0.001658   0.006028  -0.012544
     5  C   -0.062186   0.448130  -0.062651   0.013754   0.023821  -0.011127
     6  C    0.050762  -0.085995   0.372042  -0.014521  -0.002392  -0.001351
     7  C   -0.007779   0.003801  -0.018899   0.379118  -0.101151   0.012810
     8  C   -0.045950   0.047401  -0.020796  -0.020639   0.362010   0.041515
     9  C    0.075264  -0.027510  -0.004592   0.004096   0.085284   0.346986
    10  C    0.422069   0.018892   0.019433  -0.010475  -0.008851   0.004948
    11  C    0.067000  -0.010135  -0.006309   0.003275  -0.000227   0.017865
    12  C   -0.062476  -0.012098   0.004876  -0.009420   0.006916  -0.071112
    13  C    0.070191  -0.009086  -0.026072   0.030728  -0.022890   0.020329
    14  C   -0.061885  -0.049330   0.084779  -0.037108  -0.019758  -0.072701
    15  H    0.000337  -0.000116   0.000015  -0.000126   0.000617  -0.000492
    16  H   -0.000528   0.000015  -0.000007   0.000007  -0.000125   0.000498
    17  H    0.001353  -0.000142   0.000010  -0.000007   0.000014  -0.000094
    18  H   -0.005880   0.001287  -0.000143   0.000014  -0.000115   0.000178
    19  H    0.441342  -0.005721   0.001342  -0.000523   0.000324   0.000571
    20  H   -0.005721   0.454165  -0.010077   0.001903   0.000208   0.000211
    21  H    0.001342  -0.010077   0.421476  -0.006610   0.001421  -0.000110
    22  H   -0.000523   0.001903  -0.006610   0.419410  -0.008983   0.000551
    23  H    0.000324   0.000208   0.001421  -0.008983   0.438429  -0.000559
    24  H    0.000571   0.000211  -0.000110   0.000551  -0.000559   0.495051
    25  H    0.000519   0.000169  -0.000176   0.000734  -0.001206  -0.079759
              25
     1  C    0.023047
     2  C    0.014756
     3  C   -0.002539
     4  C   -0.011153
     5  C   -0.011925
     6  C   -0.001964
     7  C    0.016119
     8  C    0.027221
     9  C    0.362166
    10  C    0.004627
    11  C    0.006864
    12  C   -0.046749
    13  C    0.005002
    14  C   -0.045735
    15  H   -0.001333
    16  H    0.000777
    17  H   -0.000187
    18  H    0.000197
    19  H    0.000519
    20  H    0.000169
    21  H   -0.000176
    22  H    0.000734
    23  H   -0.001206
    24  H   -0.079759
    25  H    0.494562
 Mulliken charges:
               1
     1  C    0.094719
     2  C   -0.413160
     3  C   -0.441719
     4  C    0.034198
     5  C    0.034785
     6  C   -0.442149
     7  C   -0.416573
     8  C    0.092449
     9  C   -0.335534
    10  C    0.100550
    11  C   -0.596064
    12  C    0.637846
    13  C   -0.607344
    14  C    0.639173
    15  H    0.236465
    16  H    0.256070
    17  H    0.252357
    18  H    0.221014
    19  H    0.190866
    20  H    0.220896
    21  H    0.251997
    22  H    0.255722
    23  H    0.236787
    24  H    0.250682
    25  H    0.245967
 Sum of Mulliken charges =   1.00000
 Mulliken charges with hydrogens summed into heavy atoms:
               1
     1  C    0.331185
     2  C   -0.157090
     3  C   -0.189362
     4  C    0.255212
     5  C    0.255681
     6  C   -0.190151
     7  C   -0.160852
     8  C    0.329236
     9  C    0.161115
    10  C    0.291416
    11  C   -0.596064
    12  C    0.637846
    13  C   -0.607344
    14  C    0.639173
 Electronic spatial extent (au):  <R**2>=           2848.1860
 Charge=              1.0000 electrons
 Dipole moment (field-independent basis, Debye):
    X=              0.0077    Y=              0.1830    Z=             -0.0007  Tot=              0.1831
 Quadrupole moment (field-independent basis, Debye-Ang):
   XX=            -31.2895   YY=            -56.2628   ZZ=            -84.0774
   XY=              0.0043   XZ=             -0.0073   YZ=              0.0951
 Traceless Quadrupole moment (field-independent basis, Debye-Ang):
   XX=             25.9204   YY=              0.9471   ZZ=            -26.8675
   XY=              0.0043   XZ=             -0.0073   YZ=              0.0951
 Octapole moment (field-independent basis, Debye-Ang**2):
  XXX=              0.3259  YYY=              5.2004  ZZZ=             -0.0329  XYY=             -0.0019
  XXY=             -5.8288  XXZ=              0.1588  XZZ=             -0.0413  YZZ=             -3.0943
  YYZ=              0.1185  XYZ=             -0.0365
 Hexadecapole moment (field-independent basis, Debye-Ang**3):
 XXXX=          -2119.2753 YYYY=           -609.2957 ZZZZ=            -99.1710 XXXY=              0.1866
 XXXZ=             -0.2039 YYYX=             -0.0792 YYYZ=              1.0331 ZZZX=             -0.0087
 ZZZY=              0.0445 XXYY=           -506.3915 XXZZ=           -588.5762 YYZZ=           -145.6217
 XXYZ=              1.0285 YYXZ=             -0.0009 ZZXY=              0.0036
 N-N= 7.821050728278D+02 E-N=-2.800602286797D+03  KE= 5.375647079232D+02
 Unable to Open any file for archive entry.
 1\1\GINC-GADI-CPU-CLX-0113\SP\RM062X TD-FC\6-311++G(d,p)\C14H11(1+)\TS
 1578\28-Jul-2022\0\\#n M062X/6-311++G(d,p) TD(NStates=1) EmpiricalDisp
 ersion=GD3 SP\\SP_-25\\1,1\C,0,-0.01655,2.494155,1.360431\C,0,-0.01787
 5,3.694983,0.671989\C,0,-0.0055,3.672961,-0.71383\C,0,0.01545,2.454356
 ,-1.407538\C,0,0.01575,-2.453756,-1.407538\C,0,-0.0037,-3.669961,-0.71
 383\C,0,-0.015025,-3.693933,0.671989\C,0,-0.01085,-2.492355,1.360431\C
 ,0,-0.008675,-0.0066,1.453369\C,0,0.0244,0.0003,-1.429189\C,0,0.003425
 ,1.26963,0.677065\C,0,0.0106,1.235821,-0.730804\C,0,0.003875,-1.26978,
 0.677065\C,0,0.0094,-1.236721,-0.730804\H,0,-0.0075,2.489496,2.443647\
 H,0,-0.018375,4.632128,1.211689\H,0,0.00245,4.611587,-1.272349\H,0,0.0
 0775,2.458925,-2.490059\H,0,0.0225,0.00015,-2.510266\H,0,0.00685,-2.45
 8475,-2.490059\H,0,0.00335,-4.607837,-1.272349\H,0,-0.014925,-4.629878
 ,1.211689\H,0,-0.0009,-2.487546,2.443647\H,0,-0.891585,-0.0015,2.14743
 7\H,0,0.827585,-0.0015,2.144137\\Version=ES64L-G16RevC.01\State=1-A\HF
 =-539.7594485\RMSD=4.776e-09\PG=C01 [X(C14H11)]\\@
 The archive entry for this job was punched.


 ARTHROPOD AXIOM: A COMPUTER SYSTEM IS LIKE A SPIDER'S WEB.
 YOU CANNOT PULL ON ONE END WITHOUT MAKING THE OTHER END MOVE.
     -- GREG WETTSTEIN
 Job cpu time:       0 days  1 hours 20 minutes  4.4 seconds.
 Elapsed time:       0 days  0 hours  1 minutes 40.2 seconds.
 File lengths (MBytes):  RWF=    460 Int=      0 D2E=      0 Chk=     15 Scr=      1
 Normal termination of Gaussian 16 at Thu Jul 28 14:38:58 2022.
