 Entering Gaussian System, Link 0=g16
 Initial command:
 /apps/gaussian/g16c01/g16/l1.exe "/jobfs/53002009.gadi-pbs/Gau-811197.inp" -scrdir="/jobfs/53002009.gadi-pbs/"
 Entering Link 1 = /apps/gaussian/g16c01/g16/l1.exe PID=    811198.
  
 Copyright (c) 1988-2019, Gaussian, Inc.  All Rights Reserved.
  
 This is part of the Gaussian(R) 16 program.  It is based on
 the Gaussian(R) 09 system (copyright 2009, Gaussian, Inc.),
 the Gaussian(R) 03 system (copyright 2003, Gaussian, Inc.),
 the Gaussian(R) 98 system (copyright 1998, Gaussian, Inc.),
 the Gaussian(R) 94 system (copyright 1995, Gaussian, Inc.),
 the Gaussian 92(TM) system (copyright 1992, Gaussian, Inc.),
 the Gaussian 90(TM) system (copyright 1990, Gaussian, Inc.),
 the Gaussian 88(TM) system (copyright 1988, Gaussian, Inc.),
 the Gaussian 86(TM) system (copyright 1986, Carnegie Mellon
 University), and the Gaussian 82(TM) system (copyright 1983,
 Carnegie Mellon University). Gaussian is a federally registered
 trademark of Gaussian, Inc.
  
 This software contains proprietary and confidential information,
 including trade secrets, belonging to Gaussian, Inc.
  
 This software is provided under written license and may be
 used, copied, transmitted, or stored only in accord with that
 written license.
  
 The following legend is applicable only to US Government
 contracts under FAR:
  
                    RESTRICTED RIGHTS LEGEND
  
 Use, reproduction and disclosure by the US Government is
 subject to restrictions as set forth in subparagraphs (a)
 and (c) of the Commercial Computer Software - Restricted
 Rights clause in FAR 52.227-19.
  
 Gaussian, Inc.
 340 Quinnipiac St., Bldg. 40, Wallingford CT 06492
  
  
 ---------------------------------------------------------------
 Warning -- This program may not be used in any manner that
 competes with the business of Gaussian, Inc. or will provide
 assistance to any competitor of Gaussian, Inc.  The licensee
 of this program is prohibited from giving any competitor of
 Gaussian, Inc. access to this program.  By using this program,
 the user acknowledges that Gaussian, Inc. is engaged in the
 business of creating and licensing software in the field of
 computational chemistry and represents and warrants to the
 licensee that it is not a competitor of Gaussian, Inc. and that
 it will not use this program in any manner prohibited above.
 ---------------------------------------------------------------
  

 Cite this work as:
 Gaussian 16, Revision C.01,
 M. J. Frisch, G. W. Trucks, H. B. Schlegel, G. E. Scuseria, 
 M. A. Robb, J. R. Cheeseman, G. Scalmani, V. Barone, 
 G. A. Petersson, H. Nakatsuji, X. Li, M. Caricato, A. V. Marenich, 
 J. Bloino, B. G. Janesko, R. Gomperts, B. Mennucci, H. P. Hratchian, 
 J. V. Ortiz, A. F. Izmaylov, J. L. Sonnenberg, D. Williams-Young, 
 F. Ding, F. Lipparini, F. Egidi, J. Goings, B. Peng, A. Petrone, 
 T. Henderson, D. Ranasinghe, V. G. Zakrzewski, J. Gao, N. Rega, 
 G. Zheng, W. Liang, M. Hada, M. Ehara, K. Toyota, R. Fukuda, 
 J. Hasegawa, M. Ishida, T. Nakajima, Y. Honda, O. Kitao, H. Nakai, 
 T. Vreven, K. Throssell, J. A. Montgomery, Jr., J. E. Peralta, 
 F. Ogliaro, M. J. Bearpark, J. J. Heyd, E. N. Brothers, K. N. Kudin, 
 V. N. Staroverov, T. A. Keith, R. Kobayashi, J. Normand, 
 K. Raghavachari, A. P. Rendell, J. C. Burant, S. S. Iyengar, 
 J. Tomasi, M. Cossi, J. M. Millam, M. Klene, C. Adamo, R. Cammi, 
 J. W. Ochterski, R. L. Martin, K. Morokuma, O. Farkas, 
 J. B. Foresman, and D. J. Fox, Gaussian, Inc., Wallingford CT, 2019.
 
 ******************************************
 Gaussian 16:  ES64L-G16RevC.01  3-Jul-2019
                28-Jul-2022 
 ******************************************
 %NProcShared=48
 Will use up to   48 processors via shared memory.
 %mem = 190GB
 ---------------------------------------------------------------
 #n M062X/6-311++G(d,p) TD(NStates=1) EmpiricalDispersion=GD3 SP
 ---------------------------------------------------------------
 1/38=1,172=1/1;
 2/12=2,17=6,18=5,40=1/2;
 3/5=4,6=6,7=1111,11=9,25=1,30=1,74=-55,124=31/1,2,3,8;
 4//1;
 5/5=2,38=5/2;
 8/6=1,10=2,108=1/1;
 9/41=1,42=1,70=2/14;
 6/7=2,8=2,9=2,10=2/1;
 99/5=1,9=1/99;
 ------
 SP_150
 ------
 Symbolic Z-matrix:
 Charge =  1 Multiplicity = 1
 C                    -0.0099    2.49206   1.36043 
 C                    -0.01455   3.69376   0.67199 
 C                    -0.0034    3.66946  -0.71383 
 C                     0.0158    2.45366  -1.40754 
 C                     0.0154   -2.45446  -1.40754 
 C                    -0.0058   -3.67346  -0.71383 
 C                    -0.01835  -3.69516   0.67199 
 C                    -0.0175   -2.49446   1.36043 
 C                    -0.00885   0.0088    1.45337 
 C                     0.0244   -0.0004   -1.42919 
 C                     0.00395   1.26981   0.67707 
 C                     0.0092    1.23687  -0.7308 
 C                     0.00335  -1.26961   0.67707 
 C                     0.0108   -1.23567  -0.7308 
 H                     0.0002    2.48722   2.44365 
 H                    -0.01435   4.6295    1.21169 
 H                     0.0035    4.60721  -1.27235 
 H                     0.0067    2.4584   -2.49006 
 H                     0.0225   -0.0002   -2.51027 
 H                     0.0079   -2.459    -2.49006 
 H                     0.0023   -4.61221  -1.27235 
 H                    -0.01895  -4.6325    1.21169 
 H                    -0.0086   -2.48982   2.44365 
 H                    -0.89159   0.002     2.14359 
 H                     0.82759   0.002     2.14799 
 
                          Input orientation:                          
 ---------------------------------------------------------------------
 Center     Atomic      Atomic             Coordinates (Angstroms)
 Number     Number       Type             X           Y           Z
 ---------------------------------------------------------------------
      1          6           0       -0.009900    2.492055    1.360431
      2          6           0       -0.014550    3.693758    0.671989
      3          6           0       -0.003400    3.669461   -0.713830
      4          6           0        0.015800    2.453656   -1.407538
      5          6           0        0.015400   -2.454456   -1.407538
      6          6           0       -0.005800   -3.673461   -0.713830
      7          6           0       -0.018350   -3.695158    0.671989
      8          6           0       -0.017500   -2.494455    1.360431
      9          6           0       -0.008850    0.008800    1.453369
     10          6           0        0.024400   -0.000400   -1.429189
     11          6           0        0.003950    1.269805    0.677065
     12          6           0        0.009200    1.236871   -0.730804
     13          6           0        0.003350   -1.269605    0.677065
     14          6           0        0.010800   -1.235671   -0.730804
     15          1           0        0.000200    2.487221    2.443647
     16          1           0       -0.014350    4.629503    1.211689
     17          1           0        0.003500    4.607212   -1.272349
     18          1           0        0.006700    2.458400   -2.490059
     19          1           0        0.022500   -0.000200   -2.510266
     20          1           0        0.007900   -2.459000   -2.490059
     21          1           0        0.002300   -4.612212   -1.272349
     22          1           0       -0.018950   -4.632503    1.211689
     23          1           0       -0.008600   -2.489821    2.443647
     24          1           0       -0.891585    0.002000    2.143587
     25          1           0        0.827585    0.002000    2.147987
 ---------------------------------------------------------------------
                    Distance matrix (angstroms):
                    1          2          3          4          5
     1  C    0.000000
     2  C    1.384942   0.000000
     3  C    2.385139   1.386077   0.000000
     4  C    2.768355   2.421406   1.399922   0.000000
     5  C    5.668356   6.490444   6.163112   4.908112   0.000000
     6  C    6.505087   7.496432   7.342922   6.166300   1.402731
     7  C    6.225402   7.388917   7.493886   6.491033   2.421758
     8  C    4.986516   6.226391   6.503585   5.669794   2.768453
     9  C    2.484994   3.766896   4.254083   3.763339   3.775315
    10  C    3.741054   4.250091   3.739036   2.454167   2.454168
    11  C    1.400384   2.424029   2.773624   2.397335   4.268000
    12  C    2.439081   2.829255   2.432682   1.392328   3.752853
    13  C    3.823251   4.963398   5.131180   4.267130   2.397830
    14  C    4.274299   5.125206   4.905182   3.750884   1.394068
    15  H    1.083274   2.143530   3.371552   3.851363   6.265144
    16  H    2.142622   1.080229   2.151610   3.405227   7.552729
    17  H    3.377218   2.148296   1.091498   2.157830   7.062972
    18  H    3.850673   3.394865   2.149828   1.082570   5.030714
    19  H    4.603768   4.875802   4.085862   2.690253   2.690619
    20  H    6.272124   6.917766   6.380686   5.030517   1.082557
    21  H    7.576430   8.530526   8.300487   7.067174   2.162027
    22  H    7.126116   8.343735   8.522351   7.554813   3.406673
    23  H    5.098279   6.432376   6.921448   6.266593   3.851422
    24  H    2.755191   4.069873   4.733284   4.409587   4.412175
    25  H    2.742626   4.064091   4.725548   4.394470   4.397224
                    6          7          8          9         10
     6  C    0.000000
     7  C    1.386046   0.000000
     8  C    2.385949   1.384067   0.000000
     9  C    4.272681   3.785492   2.504995   0.000000
    10  C    3.742196   4.250649   3.742198   2.882764   0.000000
    11  C    5.135228   4.965016   3.825847   1.480860   2.459704
    12  C    4.910384   5.127719   4.277472   2.505812   1.420849
    13  C    2.777264   2.425655   1.402741   1.495699   2.459193
    14  C    2.437906   2.831564   2.441025   2.513903   1.419092
    15  H    6.922695   6.431246   5.098114   2.668952   4.603010
    16  H    8.523316   8.342138   7.125511   4.627022   5.330266
    17  H    8.299492   8.527032   7.574011   5.345567   4.610328
    18  H    6.383954   6.918486   6.273566   4.642349   2.677957
    19  H    4.089111   4.876590   4.604911   3.963769   1.081079
    20  H    2.151765   3.395191   3.850737   4.651983   2.677766
    21  H    1.092366   2.149852   3.378878   5.365018   4.614531
    22  H    2.151176   1.081616   2.143216   4.647602   5.332213
    23  H    3.372043   2.142826   1.083262   2.687705   4.604038
    24  H    4.739036   4.073956   2.758559   1.120566   3.688328
    25  H    4.732181   4.069785   2.750764   1.087274   3.666238
                   11         12         13         14         15
    11  C    0.000000
    12  C    1.408264   0.000000
    13  C    2.539410   2.874813   0.000000
    14  C    2.873944   2.472543   1.408298   0.000000
    15  H    2.145443   3.411832   4.151453   4.892563   0.000000
    16  H    3.402018   3.909448   5.923311   6.178526   2.471296
    17  H    3.865036   3.413576   6.191704   5.867930   4.278200
    18  H    3.382815   2.141756   4.891698   4.091596   4.933794
    19  H    3.431084   2.167258   3.430865   2.166336   5.543376
    20  H    4.892308   4.093219   3.383099   2.142783   6.986173
    21  H    6.196640   5.874103   3.869527   3.419704   8.013150
    22  H    5.926516   6.182526   3.405202   3.913136   7.225549
    23  H    4.154005   4.895476   2.147064   3.413269   4.977050
    24  H    2.135415   3.255525   2.137422   3.257031   2.657375
    25  H    2.109340   3.237607   2.111860   3.238272   2.635964
                   16         17         18         19         20
    16  H    0.000000
    17  H    2.484202   0.000000
    18  H    4.291511   2.469863   0.000000
    19  H    5.940409   4.770854   2.458734   0.000000
    20  H    7.996894   7.170369   4.917400   2.458926   0.000000
    21  H    9.569745   9.219424   7.174705   4.775301   2.473696
    22  H    9.262007   9.567825   7.999031   5.942466   4.292758
    23  H    7.225132   8.011033   6.987602   5.544406   4.933830
    24  H    4.801225   5.803255   5.320854   4.742774   5.323182
    25  H    4.795758   5.795325   5.312177   4.727313   5.314120
                   21         22         23         24         25
    21  H    0.000000
    22  H    2.484212   0.000000
    23  H    4.279403   2.471622   0.000000
    24  H    5.810215   4.807135   2.660615   0.000000
    25  H    5.802650   4.803321   2.644956   1.719176   0.000000
 Stoichiometry    C14H11(1+)
 Framework group  C1[X(C14H11)]
 Deg. of freedom    69
 Full point group                 C1      NOp   1
 Largest Abelian subgroup         C1      NOp   1
 Largest concise Abelian subgroup C1      NOp   1
                         Standard orientation:                         
 ---------------------------------------------------------------------
 Center     Atomic      Atomic             Coordinates (Angstroms)
 Number     Number       Type             X           Y           Z
 ---------------------------------------------------------------------
      1          6           0        2.492281   -1.360053   -0.001227
      2          6           0        3.693866   -0.671481    0.010042
      3          6           0        3.669341    0.714378    0.011048
      4          6           0        2.453429    1.408029   -0.002642
      5          6           0       -2.454683    1.407219   -0.004589
      6          6           0       -3.673581    0.713152    0.009937
      7          6           0       -3.695051   -0.672728    0.010309
      8          6           0       -2.494232   -1.360938    0.003989
      9          6           0        0.009043   -1.453386   -0.004280
     10          6           0       -0.000627    1.429351   -0.012225
     11          6           0        1.269923   -0.676792   -0.009661
     12          6           0        1.236754    0.731063   -0.002566
     13          6           0       -1.269487   -0.677215   -0.010275
     14          6           0       -1.235786    0.730671   -0.005348
     15          1           0        2.487634   -2.443139   -0.020839
     16          1           0        4.629702   -1.211005    0.005551
     17          1           0        4.607001    1.273090    0.009500
     18          1           0        2.457986    2.490429    0.015964
     19          1           0       -0.000610    2.510370   -0.000834
     20          1           0       -2.459413    2.489632    0.012413
     21          1           0       -4.612422    1.271566    0.006292
     22          1           0       -4.632305   -1.212566    0.005723
     23          1           0       -2.489411   -2.444034   -0.014419
     24          1           0        0.001938   -2.151329    0.872358
     25          1           0        0.002758   -2.140635   -0.846784
 ---------------------------------------------------------------------
 Rotational constants (GHZ):           2.1359407           0.4462829           0.3699637
 Standard basis: 6-311++G(d,p) (5D, 7F)
 There are   399 symmetry adapted cartesian basis functions of A   symmetry.
 There are   385 symmetry adapted basis functions of A   symmetry.
   385 basis functions,   603 primitive gaussians,   399 cartesian basis functions
    47 alpha electrons       47 beta electrons
       nuclear repulsion energy       782.1053680894 Hartrees.
 NAtoms=   25 NActive=   25 NUniq=   25 SFac= 1.00D+00 NAtFMM=   60 NAOKFM=F Big=F
 Integral buffers will be    131072 words long.
 Regular integral format.
 Two-electron integral symmetry is turned on.
 Nuclear repulsion after empirical dispersion term =      782.1043888857 Hartrees.
 One-electron integrals computed using PRISM.
 NBasis=   385 RedAO= T EigKep=  1.18D-06  NBF=   385
 NBsUse=   379 1.00D-06 EigRej=  8.29D-07 NBFU=   379
 ExpMin= 3.60D-02 ExpMax= 4.56D+03 ExpMxC= 6.82D+02 IAcc=3 IRadAn=         5 AccDes= 0.00D+00
 Harris functional with IExCor= 1009 and IRadAn=       5 diagonalized for initial guess.
 HarFok:  IExCor= 1009 AccDes= 0.00D+00 IRadAn=         5 IDoV= 1 UseB2=F ITyADJ=14
 ICtDFT=  3500011 ScaDFX=  1.000000  1.000000  1.000000  1.000000
 FoFCou: FMM=F IPFlag=           0 FMFlag=      100000 FMFlg1=           0
         NFxFlg=           0 DoJE=T BraDBF=F KetDBF=T FulRan=T
         wScrn=  0.000000 ICntrl=       500 IOpCl=  0 I1Cent=   200000004 NGrid=           0
         NMat0=    1 NMatS0=      1 NMatT0=    0 NMatD0=    1 NMtDS0=    0 NMtDT0=    0
 Petite list used in FoFCou.
 Requested convergence on RMS density matrix=1.00D-08 within 128 cycles.
 Requested convergence on MAX density matrix=1.00D-06.
 Requested convergence on             energy=1.00D-06.
 No special actions if energy rises.
 SCF Done:  E(RM062X) =  -539.759520622     A.U. after   15 cycles
            NFock= 15  Conv=0.48D-08     -V/T= 2.0041
 DoSCS=F DFT=T ScalE2(SS,OS)=  1.000000  1.000000
 ExpMin= 3.60D-02 ExpMax= 4.56D+03 ExpMxC= 6.82D+02 IAcc=3 IRadAn=         5 AccDes= 0.00D+00
 HarFok:  IExCor=  205 AccDes= 0.00D+00 IRadAn=         5 IDoV=-2 UseB2=F ITyADJ=14
 ICtDFT= 12500011 ScaDFX=  1.000000  1.000000  1.000000  1.000000
 Range of M.O.s used for correlation:    15   379
 NBasis=   385 NAE=    47 NBE=    47 NFC=    14 NFV=     0
 NROrb=    365 NOA=    33 NOB=    33 NVA=   332 NVB=   332

 **** Warning!!: The largest alpha MO coefficient is  0.15025181D+03

 Orbital symmetries:
       Occupied  (A) (A) (A) (A) (A) (A) (A) (A) (A) (A) (A) (A)
                 (A) (A) (A) (A) (A) (A) (A) (A) (A) (A) (A) (A)
                 (A) (A) (A) (A) (A) (A) (A) (A) (A) (A) (A) (A)
                 (A) (A) (A) (A) (A) (A) (A) (A) (A) (A) (A)
       Virtual   (A) (A) (A) (A) (A) (A) (A) (A) (A) (A) (A) (A)
                 (A) (A) (A) (A) (A) (A) (A) (A) (A) (A) (A) (A)
                 (A) (A) (A) (A) (A) (A) (A) (A) (A) (A) (A) (A)
                 (A) (A) (A) (A) (A) (A) (A) (A) (A) (A) (A) (A)
                 (A) (A) (A) (A) (A) (A) (A) (A) (A) (A) (A) (A)
                 (A) (A) (A) (A) (A) (A) (A) (A) (A) (A) (A) (A)
                 (A) (A) (A) (A) (A) (A) (A) (A) (A) (A) (A) (A)
                 (A) (A) (A) (A) (A) (A) (A) (A) (A) (A) (A) (A)
                 (A) (A) (A) (A) (A) (A) (A) (A) (A) (A) (A) (A)
                 (A) (A) (A) (A) (A) (A) (A) (A) (A) (A) (A) (A)
                 (A) (A) (A) (A) (A) (A) (A) (A) (A) (A) (A) (A)
                 (A) (A) (A) (A) (A) (A) (A) (A) (A) (A) (A) (A)
                 (A) (A) (A) (A) (A) (A) (A) (A) (A) (A) (A) (A)
                 (A) (A) (A) (A) (A) (A) (A) (A) (A) (A) (A) (A)
                 (A) (A) (A) (A) (A) (A) (A) (A) (A) (A) (A) (A)
                 (A) (A) (A) (A) (A) (A) (A) (A) (A) (A) (A) (A)
                 (A) (A) (A) (A) (A) (A) (A) (A) (A) (A) (A) (A)
                 (A) (A) (A) (A) (A) (A) (A) (A) (A) (A) (A) (A)
                 (A) (A) (A) (A) (A) (A) (A) (A) (A) (A) (A) (A)
                 (A) (A) (A) (A) (A) (A) (A) (A) (A) (A) (A) (A)
                 (A) (A) (A) (A) (A) (A) (A) (A) (A) (A) (A) (A)
                 (A) (A) (A) (A) (A) (A) (A) (A) (A) (A) (A) (A)
                 (A) (A) (A) (A) (A) (A) (A) (A) (A) (A) (A) (A)
                 (A) (A) (A) (A) (A) (A) (A) (A) (A) (A) (A) (A)
                 (A) (A) (A) (A) (A) (A) (A) (A) (A) (A) (A) (A)
                 (A) (A) (A) (A) (A) (A) (A) (A) (A) (A) (A) (A)
                 (A) (A) (A) (A) (A) (A) (A) (A) (A) (A) (A) (A)
                 (A) (A) (A) (A) (A) (A) (A) (A)
     4 initial guesses have been made.
 Convergence on wavefunction:    0.001000000000000
 Iteration     1 Dimension     4 NMult     0 NNew      4
 CISAX will form     4 AO SS matrices at one time.
 Iteration     2 Dimension     6 NMult     4 NNew      2
 Iteration     3 Dimension     8 NMult     6 NNew      2
 Iteration     4 Dimension    10 NMult     8 NNew      2
 Iteration     5 Dimension    12 NMult    10 NNew      2
 Iteration     6 Dimension    14 NMult    12 NNew      2
 ***********************************************************************
 Excited states from <AA,BB:AA,BB> singles matrix:
 ***********************************************************************
 
 Ground to excited state transition densities written to RWF  633
 Ground to excited state transition electric dipole moments (Au):
       state          X           Y           Z        Dip. S.      Osc.
         1         0.0111     -0.6507      0.0039      0.4236      0.0294
 Ground to excited state transition velocity dipole moments (Au):
       state          X           Y           Z        Dip. S.      Osc.
         1        -0.0012      0.0754     -0.0005      0.0057      0.0364
 Ground to excited state transition magnetic dipole moments (Au):
       state          X           Y           Z
         1        -0.0056     -0.0008     -0.0007
 Ground to excited state transition velocity quadrupole moments (Au):
       state          XX          YY          ZZ          XY          XZ          YZ
         1         0.2854      0.0374     -0.0100     -0.0018      0.0000      0.0005
 <0|del|b> * <b|rxdel|0> + <0|del|b> * <b|delr+rdel|0>
 Rotatory Strengths (R) in cgs (10**-40 erg-esu-cm/Gauss)
       state          XX          YY          ZZ    R(velocity)    E-M Angle
         1        -0.2149      0.0189     -0.1804     -0.1254       90.00
 1/2[<0|r|b>*<b|rxdel|0> + (<0|rxdel|b>*<b|r|0>)*]
 Rotatory Strengths (R) in cgs (10**-40 erg-esu-cm/Gauss)
       state          XX          YY          ZZ     R(length)
         1         0.0441     -0.3818      0.0020     -0.1119
  1/2[<0|del|b>*<b|r|0> + (<0|r|b>*<b|del|0>)*] (Au)
       state          X           Y           Z        Dip. S.   Osc.(frdel)
         1        -0.0000     -0.0491     -0.0000      0.0491      0.0327

 Excitation energies and oscillator strengths:
 
 Excited State   1:      Singlet-A      2.8367 eV  437.07 nm  f=0.0294  <S**2>=0.000
      47 -> 48         0.70424
 This state for optimization and/or second-order correction.
 Total Energy, E(TD-HF/TD-DFT) =  -539.655272945    
 Copying the excited state density for this state as the 1-particle RhoCI density.
 SavETr:  write IOETrn=   770 NScale= 10 NData=  16 NLR=1 NState=    1 LETran=      28.

 **********************************************************************

            Population analysis using the SCF Density.

 **********************************************************************

 Orbital symmetries:
       Occupied  (A) (A) (A) (A) (A) (A) (A) (A) (A) (A) (A) (A)
                 (A) (A) (A) (A) (A) (A) (A) (A) (A) (A) (A) (A)
                 (A) (A) (A) (A) (A) (A) (A) (A) (A) (A) (A) (A)
                 (A) (A) (A) (A) (A) (A) (A) (A) (A) (A) (A)
       Virtual   (A) (A) (A) (A) (A) (A) (A) (A) (A) (A) (A) (A)
                 (A) (A) (A) (A) (A) (A) (A) (A) (A) (A) (A) (A)
                 (A) (A) (A) (A) (A) (A) (A) (A) (A) (A) (A) (A)
                 (A) (A) (A) (A) (A) (A) (A) (A) (A) (A) (A) (A)
                 (A) (A) (A) (A) (A) (A) (A) (A) (A) (A) (A) (A)
                 (A) (A) (A) (A) (A) (A) (A) (A) (A) (A) (A) (A)
                 (A) (A) (A) (A) (A) (A) (A) (A) (A) (A) (A) (A)
                 (A) (A) (A) (A) (A) (A) (A) (A) (A) (A) (A) (A)
                 (A) (A) (A) (A) (A) (A) (A) (A) (A) (A) (A) (A)
                 (A) (A) (A) (A) (A) (A) (A) (A) (A) (A) (A) (A)
                 (A) (A) (A) (A) (A) (A) (A) (A) (A) (A) (A) (A)
                 (A) (A) (A) (A) (A) (A) (A) (A) (A) (A) (A) (A)
                 (A) (A) (A) (A) (A) (A) (A) (A) (A) (A) (A) (A)
                 (A) (A) (A) (A) (A) (A) (A) (A) (A) (A) (A) (A)
                 (A) (A) (A) (A) (A) (A) (A) (A) (A) (A) (A) (A)
                 (A) (A) (A) (A) (A) (A) (A) (A) (A) (A) (A) (A)
                 (A) (A) (A) (A) (A) (A) (A) (A) (A) (A) (A) (A)
                 (A) (A) (A) (A) (A) (A) (A) (A) (A) (A) (A) (A)
                 (A) (A) (A) (A) (A) (A) (A) (A) (A) (A) (A) (A)
                 (A) (A) (A) (A) (A) (A) (A) (A) (A) (A) (A) (A)
                 (A) (A) (A) (A) (A) (A) (A) (A) (A) (A) (A) (A)
                 (A) (A) (A) (A) (A) (A) (A) (A) (A) (A) (A) (A)
                 (A) (A) (A) (A) (A) (A) (A) (A) (A) (A) (A) (A)
                 (A) (A) (A) (A) (A) (A) (A) (A) (A) (A) (A) (A)
                 (A) (A) (A) (A) (A) (A) (A) (A) (A) (A) (A) (A)
                 (A) (A) (A) (A) (A) (A) (A) (A) (A) (A) (A) (A)
                 (A) (A) (A) (A) (A) (A) (A) (A) (A) (A) (A) (A)
                 (A) (A) (A) (A) (A) (A) (A) (A)
 The electronic state is 1-A.
 Alpha  occ. eigenvalues --  -10.77675 -10.73267 -10.73155 -10.72357 -10.72351
 Alpha  occ. eigenvalues --  -10.71295 -10.71235 -10.70976 -10.70953 -10.70934
 Alpha  occ. eigenvalues --  -10.69885 -10.69842 -10.69694 -10.69640  -1.16512
 Alpha  occ. eigenvalues --   -1.12676  -1.07060  -1.05663  -1.01526  -1.00146
 Alpha  occ. eigenvalues --   -0.95861  -0.91034  -0.86433  -0.85938  -0.83824
 Alpha  occ. eigenvalues --   -0.78420  -0.76038  -0.74459  -0.69560  -0.69224
 Alpha  occ. eigenvalues --   -0.68496  -0.68117  -0.67978  -0.64897  -0.64420
 Alpha  occ. eigenvalues --   -0.62931  -0.61723  -0.60066  -0.59830  -0.59034
 Alpha  occ. eigenvalues --   -0.56876  -0.55169  -0.54749  -0.52520  -0.46782
 Alpha  occ. eigenvalues --   -0.46038  -0.44587
 Alpha virt. eigenvalues --   -0.26111  -0.14570  -0.14073  -0.12655  -0.11182
 Alpha virt. eigenvalues --   -0.10093  -0.09245  -0.08027  -0.07951  -0.07482
 Alpha virt. eigenvalues --   -0.07213  -0.07123  -0.05640  -0.05581  -0.05314
 Alpha virt. eigenvalues --   -0.03855  -0.03692  -0.03278  -0.03130  -0.02166
 Alpha virt. eigenvalues --   -0.01380  -0.00957   0.00195   0.00545   0.00673
 Alpha virt. eigenvalues --    0.01065   0.01512   0.01959   0.02224   0.02281
 Alpha virt. eigenvalues --    0.02459   0.02667   0.02850   0.03215   0.03341
 Alpha virt. eigenvalues --    0.04232   0.04509   0.04703   0.05090   0.05378
 Alpha virt. eigenvalues --    0.05986   0.06306   0.06610   0.07040   0.07268
 Alpha virt. eigenvalues --    0.07909   0.08251   0.08347   0.08586   0.08924
 Alpha virt. eigenvalues --    0.09534   0.09556   0.10034   0.10843   0.11074
 Alpha virt. eigenvalues --    0.11138   0.12171   0.12229   0.12927   0.12955
 Alpha virt. eigenvalues --    0.13424   0.13483   0.14014   0.14482   0.16055
 Alpha virt. eigenvalues --    0.16238   0.16529   0.17317   0.17567   0.17739
 Alpha virt. eigenvalues --    0.18131   0.19147   0.19297   0.19678   0.19766
 Alpha virt. eigenvalues --    0.21607   0.21648   0.22678   0.23072   0.23556
 Alpha virt. eigenvalues --    0.23802   0.24589   0.25112   0.26885   0.27693
 Alpha virt. eigenvalues --    0.28843   0.29276   0.29842   0.31399   0.35807
 Alpha virt. eigenvalues --    0.36577   0.38174   0.39361   0.41126   0.41347
 Alpha virt. eigenvalues --    0.41978   0.42099   0.42958   0.43808   0.44240
 Alpha virt. eigenvalues --    0.44975   0.45176   0.45945   0.46175   0.47910
 Alpha virt. eigenvalues --    0.48486   0.48860   0.48999   0.50388   0.51290
 Alpha virt. eigenvalues --    0.51648   0.51740   0.52148   0.53143   0.53924
 Alpha virt. eigenvalues --    0.54035   0.54760   0.55728   0.55778   0.57387
 Alpha virt. eigenvalues --    0.58264   0.58814   0.61466   0.62205   0.62314
 Alpha virt. eigenvalues --    0.63188   0.63540   0.64725   0.65184   0.66958
 Alpha virt. eigenvalues --    0.70460   0.70526   0.71034   0.72445   0.72834
 Alpha virt. eigenvalues --    0.75748   0.75869   0.76311   0.76712   0.76995
 Alpha virt. eigenvalues --    0.77729   0.77841   0.78256   0.80309   0.80346
 Alpha virt. eigenvalues --    0.81349   0.81589   0.82172   0.83059   0.85050
 Alpha virt. eigenvalues --    0.87099   0.87952   0.88064   0.89650   0.90436
 Alpha virt. eigenvalues --    0.90934   0.91479   0.93444   0.94767   0.96332
 Alpha virt. eigenvalues --    0.96704   1.00258   1.01320   1.01812   1.02936
 Alpha virt. eigenvalues --    1.03199   1.04042   1.04670   1.05498   1.08985
 Alpha virt. eigenvalues --    1.19326   1.23227   1.24071   1.25375   1.28097
 Alpha virt. eigenvalues --    1.30016   1.31436   1.34478   1.35878   1.36182
 Alpha virt. eigenvalues --    1.39461   1.40106   1.41011   1.43310   1.43589
 Alpha virt. eigenvalues --    1.43667   1.45234   1.45487   1.46408   1.46646
 Alpha virt. eigenvalues --    1.47778   1.48373   1.51769   1.53713   1.55784
 Alpha virt. eigenvalues --    1.56096   1.56466   1.56734   1.57929   1.61637
 Alpha virt. eigenvalues --    1.63053   1.63276   1.63460   1.66208   1.68184
 Alpha virt. eigenvalues --    1.68540   1.68728   1.69733   1.74667   1.76003
 Alpha virt. eigenvalues --    1.77216   1.78092   1.79953   1.80502   1.81120
 Alpha virt. eigenvalues --    1.83092   1.83356   1.83454   1.84035   1.84115
 Alpha virt. eigenvalues --    1.84450   1.86057   1.86205   1.88340   1.91292
 Alpha virt. eigenvalues --    1.92177   1.94089   1.95172   1.97947   1.98545
 Alpha virt. eigenvalues --    2.00116   2.02339   2.04673   2.06901   2.11917
 Alpha virt. eigenvalues --    2.12160   2.14031   2.15299   2.19670   2.21214
 Alpha virt. eigenvalues --    2.23163   2.28857   2.30426   2.34425   2.35243
 Alpha virt. eigenvalues --    2.36281   2.38156   2.38847   2.42347   2.43083
 Alpha virt. eigenvalues --    2.46813   2.47880   2.49613   2.53087   2.53785
 Alpha virt. eigenvalues --    2.54172   2.56627   2.57968   2.58463   2.59748
 Alpha virt. eigenvalues --    2.59983   2.61502   2.62220   2.63549   2.63998
 Alpha virt. eigenvalues --    2.64771   2.65038   2.65365   2.65394   2.67956
 Alpha virt. eigenvalues --    2.68311   2.71111   2.71375   2.73450   2.74848
 Alpha virt. eigenvalues --    2.76426   2.79071   2.79911   2.83181   2.83369
 Alpha virt. eigenvalues --    2.85355   2.86418   2.92189   2.96777   2.99777
 Alpha virt. eigenvalues --    3.00388   3.04543   3.11706   3.11996   3.13806
 Alpha virt. eigenvalues --    3.20759   3.23597   3.27263   3.28515   3.31141
 Alpha virt. eigenvalues --    3.33589   3.33627   3.43495   3.46096   3.47619
 Alpha virt. eigenvalues --    3.49193   3.50783   3.56641   3.65206   3.67191
 Alpha virt. eigenvalues --    3.67672   3.93059   3.94009   3.94672   3.96175
 Alpha virt. eigenvalues --    4.03412   4.06906   4.07695   4.12534   4.35300
 Alpha virt. eigenvalues --    4.61010   4.70334   4.72222  23.45141  23.59785
 Alpha virt. eigenvalues --   23.82619  23.85106  23.88175  23.89791  23.90630
 Alpha virt. eigenvalues --   23.92433  23.98390  24.00669  24.01242  24.01658
 Alpha virt. eigenvalues --   24.11423  24.11691
          Condensed to atoms (all electrons):
               1          2          3          4          5          6
     1  C    8.496403   0.472933  -0.574262   1.729947   0.006146  -0.095301
     2  C    0.472933   7.068049   0.374875  -0.936169  -0.041312  -0.016502
     3  C   -0.574262   0.374875   6.632096   0.740440  -0.120204   0.017760
     4  C    1.729947  -0.936169   0.740440  10.476240  -0.254498  -0.115592
     5  C    0.006146  -0.041312  -0.120204  -0.254498  10.595827   0.723233
     6  C   -0.095301  -0.016502   0.017760  -0.115592   0.723233   6.622167
     7  C   -0.026963   0.006732  -0.016638  -0.043329  -0.938116   0.371535
     8  C    0.412667  -0.023379  -0.095263  -0.008150   1.778519  -0.588820
     9  C   -1.393067  -0.675681   0.277476  -0.397523  -0.341068   0.279171
    10  C   -1.180680   0.193651  -0.381372  -2.446267  -2.463531  -0.358203
    11  C    0.294300  -0.987744   1.027783  -0.212442  -1.558576  -0.193403
    12  C   -1.740991   1.110647  -1.364895  -1.123218  -0.304796  -0.195826
    13  C    0.179262  -0.189468  -0.195062  -1.530390  -0.197242   1.010919
    14  C   -1.076137  -0.222873  -0.193707  -0.265202  -1.267010  -1.329538
    15  H    0.361813  -0.101108  -0.002342   0.023748   0.006051   0.001173
    16  H   -0.020908   0.379252  -0.014430   0.013668  -0.001660  -0.000349
    17  H   -0.020774  -0.018846   0.372075  -0.062482   0.000370   0.000403
    18  H    0.047301   0.003764  -0.085900   0.447767   0.008578  -0.004910
    19  H   -0.045943  -0.007783   0.050838  -0.061560  -0.066133   0.050280
    20  H    0.007862   0.001802  -0.005017   0.008386   0.449908  -0.087119
    21  H   -0.001340  -0.000395   0.000408   0.000363  -0.063411   0.371977
    22  H    0.000836   0.000381  -0.000354  -0.001642   0.014221  -0.015283
    23  H    0.005877  -0.002719   0.001206   0.005841   0.024285  -0.002679
    24  H    0.041819   0.012559  -0.001464  -0.010815  -0.012709  -0.000854
    25  H    0.026979   0.016337  -0.001817  -0.012110  -0.011080  -0.002584
               7          8          9         10         11         12
     1  C   -0.026963   0.412667  -1.393067  -1.180680   0.294300  -1.740991
     2  C    0.006732  -0.023379  -0.675681   0.193651  -0.987744   1.110647
     3  C   -0.016638  -0.095263   0.277476  -0.381372   1.027783  -1.364895
     4  C   -0.043329  -0.008150  -0.397523  -2.446267  -0.212442  -1.123218
     5  C   -0.938116   1.778519  -0.341068  -2.463531  -1.558576  -0.304796
     6  C    0.371535  -0.588820   0.279171  -0.358203  -0.193403  -0.195826
     7  C    7.048592   0.462133  -0.680838   0.189835  -0.176660  -0.216728
     8  C    0.462133   8.495861  -1.345487  -1.185158   0.194648  -1.051721
     9  C   -0.680838  -1.345487   9.303346   0.387999   1.602666  -1.559248
    10  C    0.189835  -1.185158   0.387999   9.196255  -0.543307   2.242337
    11  C   -0.176660   0.194648   1.602666  -0.543307  14.249980  -3.782641
    12  C   -0.216728  -1.051721  -1.559248   2.242337  -3.782641  15.385617
    13  C   -0.976835   0.261967   1.571601  -0.513946   1.252990  -4.643602
    14  C    1.127730  -1.809269  -1.593914   2.292832  -4.613201   2.816385
    15  H   -0.002665   0.005902   0.084979  -0.008829  -0.022855  -0.019394
    16  H    0.000375   0.000717   0.004007  -0.010448   0.030641  -0.036775
    17  H   -0.000397  -0.001326  -0.004577   0.019392  -0.026151   0.084688
    18  H    0.001827   0.007670  -0.027582   0.019039  -0.009190  -0.049076
    19  H   -0.007736  -0.046014   0.075233   0.422005   0.070713  -0.061785
    20  H    0.004255   0.048167  -0.027206   0.018362  -0.010665  -0.012216
    21  H   -0.019457  -0.020871  -0.004529   0.019451  -0.006042   0.004862
    22  H    0.378377  -0.018839   0.004644  -0.010573   0.003222  -0.009463
    23  H   -0.101282   0.363473   0.086581  -0.009003  -0.000190   0.006963
    24  H    0.014201   0.045808   0.345844   0.004682   0.021483  -0.073919
    25  H    0.014517   0.021408   0.363326   0.004903   0.003991  -0.044516
              13         14         15         16         17         18
     1  C    0.179262  -1.076137   0.361813  -0.020908  -0.020774   0.047301
     2  C   -0.189468  -0.222873  -0.101108   0.379252  -0.018846   0.003764
     3  C   -0.195062  -0.193707  -0.002342  -0.014430   0.372075  -0.085900
     4  C   -1.530390  -0.265202   0.023748   0.013668  -0.062482   0.447767
     5  C   -0.197242  -1.267010   0.006051  -0.001660   0.000370   0.008578
     6  C    1.010919  -1.329538   0.001173  -0.000349   0.000403  -0.004910
     7  C   -0.976835   1.127730  -0.002665   0.000375  -0.000397   0.001827
     8  C    0.261967  -1.809269   0.005902   0.000717  -0.001326   0.007670
     9  C    1.571601  -1.593914   0.084979   0.004007  -0.004577  -0.027582
    10  C   -0.513946   2.292832  -0.008829  -0.010448   0.019392   0.019039
    11  C    1.252990  -4.613201  -0.022855   0.030641  -0.026151  -0.009190
    12  C   -4.643602   2.816385  -0.019394  -0.036775   0.084688  -0.049076
    13  C   14.281695  -3.769361  -0.000270   0.003279  -0.006346  -0.010024
    14  C   -3.769361  15.482301   0.006921  -0.009416   0.004869  -0.012064
    15  H   -0.000270   0.006921   0.438422  -0.008975   0.001425   0.000208
    16  H    0.003279  -0.009416  -0.008975   0.419425  -0.006616   0.001897
    17  H   -0.006346   0.004869   0.001425  -0.006616   0.421513  -0.010084
    18  H   -0.010024  -0.012064   0.000208   0.001897  -0.010084   0.454171
    19  H    0.066458  -0.062571   0.000322  -0.000522   0.001341  -0.005697
    20  H   -0.008980  -0.050435  -0.000115   0.000014  -0.000143   0.001289
    21  H   -0.024916   0.084511   0.000014  -0.000007   0.000010  -0.000142
    22  H    0.031205  -0.039143  -0.000125   0.000007  -0.000007   0.000015
    23  H   -0.023335  -0.021587   0.000617  -0.000127   0.000015  -0.000116
    24  H    0.018165  -0.071810  -0.000521   0.000560  -0.000114   0.000226
    25  H    0.006524  -0.045845  -0.001231   0.000726  -0.000172   0.000154
              19         20         21         22         23         24
     1  C   -0.045943   0.007862  -0.001340   0.000836   0.005877   0.041819
     2  C   -0.007783   0.001802  -0.000395   0.000381  -0.002719   0.012559
     3  C    0.050838  -0.005017   0.000408  -0.000354   0.001206  -0.001464
     4  C   -0.061560   0.008386   0.000363  -0.001642   0.005841  -0.010815
     5  C   -0.066133   0.449908  -0.063411   0.014221   0.024285  -0.012709
     6  C    0.050280  -0.087119   0.371977  -0.015283  -0.002679  -0.000854
     7  C   -0.007736   0.004255  -0.019457   0.378377  -0.101282   0.014201
     8  C   -0.046014   0.048167  -0.020871  -0.018839   0.363473   0.045808
     9  C    0.075233  -0.027206  -0.004529   0.004644   0.086581   0.345844
    10  C    0.422005   0.018362   0.019451  -0.010573  -0.009003   0.004682
    11  C    0.070713  -0.010665  -0.006042   0.003222  -0.000190   0.021483
    12  C   -0.061785  -0.012216   0.004862  -0.009463   0.006963  -0.073919
    13  C    0.066458  -0.008980  -0.024916   0.031205  -0.023335   0.018165
    14  C   -0.062571  -0.050435   0.084511  -0.039143  -0.021587  -0.071810
    15  H    0.000322  -0.000115   0.000014  -0.000125   0.000617  -0.000521
    16  H   -0.000522   0.000014  -0.000007   0.000007  -0.000127   0.000560
    17  H    0.001341  -0.000143   0.000010  -0.000007   0.000015  -0.000114
    18  H   -0.005697   0.001289  -0.000142   0.000015  -0.000116   0.000226
    19  H    0.441348  -0.005907   0.001355  -0.000528   0.000339   0.000562
    20  H   -0.005907   0.454214  -0.010025   0.001949   0.000210   0.000181
    21  H    0.001355  -0.010025   0.421226  -0.006570   0.001393  -0.000092
    22  H   -0.000528   0.001949  -0.006570   0.419304  -0.009036   0.000490
    23  H    0.000339   0.000210   0.001393  -0.009036   0.438701  -0.000433
    24  H    0.000562   0.000181  -0.000092   0.000490  -0.000433   0.494719
    25  H    0.000530   0.000191  -0.000187   0.000782  -0.001400  -0.079735
              25
     1  C    0.026979
     2  C    0.016337
     3  C   -0.001817
     4  C   -0.012110
     5  C   -0.011080
     6  C   -0.002584
     7  C    0.014517
     8  C    0.021408
     9  C    0.363326
    10  C    0.004903
    11  C    0.003991
    12  C   -0.044516
    13  C    0.006524
    14  C   -0.045845
    15  H   -0.001231
    16  H    0.000726
    17  H   -0.000172
    18  H    0.000154
    19  H    0.000530
    20  H    0.000191
    21  H   -0.000187
    22  H    0.000782
    23  H   -0.001400
    24  H   -0.079735
    25  H    0.494684
 Mulliken charges:
               1
     1  C    0.092222
     2  C   -0.417002
     3  C   -0.442232
     4  C    0.034989
     5  C    0.034208
     6  C   -0.441656
     7  C   -0.412464
     8  C    0.095357
     9  C   -0.336153
    10  C    0.100575
    11  C   -0.609350
    12  C    0.639309
    13  C   -0.594289
    14  C    0.637534
    15  H    0.236834
    16  H    0.255666
    17  H    0.251936
    18  H    0.220880
    19  H    0.190857
    20  H    0.221038
    21  H    0.252416
    22  H    0.256129
    23  H    0.236406
    24  H    0.251166
    25  H    0.245624
 Sum of Mulliken charges =   1.00000
 Mulliken charges with hydrogens summed into heavy atoms:
               1
     1  C    0.329056
     2  C   -0.161337
     3  C   -0.190296
     4  C    0.255869
     5  C    0.255246
     6  C   -0.189240
     7  C   -0.156334
     8  C    0.331764
     9  C    0.160637
    10  C    0.291431
    11  C   -0.609350
    12  C    0.639309
    13  C   -0.594289
    14  C    0.637534
 Electronic spatial extent (au):  <R**2>=           2848.1879
 Charge=              1.0000 electrons
 Dipole moment (field-independent basis, Debye):
    X=             -0.0103    Y=              0.1829    Z=              0.0002  Tot=              0.1832
 Quadrupole moment (field-independent basis, Debye-Ang):
   XX=            -31.2901   YY=            -56.2629   ZZ=            -84.0775
   XY=             -0.0057   XZ=              0.0098   YZ=              0.0974
 Traceless Quadrupole moment (field-independent basis, Debye-Ang):
   XX=             25.9201   YY=              0.9472   ZZ=            -26.8673
   XY=             -0.0057   XZ=              0.0098   YZ=              0.0974
 Octapole moment (field-independent basis, Debye-Ang**2):
  XXX=             -0.4346  YYY=              5.2010  ZZZ=             -0.0220  XYY=              0.0025
  XXY=             -5.8283  XXZ=              0.1590  XZZ=              0.0551  YZZ=             -3.0942
  YYZ=              0.0966  XYZ=              0.0487
 Hexadecapole moment (field-independent basis, Debye-Ang**3):
 XXXX=          -2119.2806 YYYY=           -609.2980 ZZZZ=            -99.1719 XXXY=             -0.2488
 XXXZ=              0.2719 YYYX=              0.1057 YYYZ=              1.0991 ZZZX=              0.0116
 ZZZY=              0.0302 XXYY=           -506.3932 XXZZ=           -588.5771 YYZZ=           -145.6226
 XXYZ=              1.0147 YYXZ=              0.0013 ZZXY=             -0.0048
 N-N= 7.821043888857D+02 E-N=-2.800600852712D+03  KE= 5.375643907888D+02
 Unable to Open any file for archive entry.
 1\1\GINC-GADI-CPU-CLX-0113\SP\RM062X TD-FC\6-311++G(d,p)\C14H11(1+)\TS
 1578\28-Jul-2022\0\\#n M062X/6-311++G(d,p) TD(NStates=1) EmpiricalDisp
 ersion=GD3 SP\\SP_150\\1,1\C,0,-0.0099,2.492055,1.360431\C,0,-0.01455,
 3.693758,0.671989\C,0,-0.0034,3.669461,-0.71383\C,0,0.0158,2.453656,-1
 .407538\C,0,0.0154,-2.454456,-1.407538\C,0,-0.0058,-3.673461,-0.71383\
 C,0,-0.01835,-3.695158,0.671989\C,0,-0.0175,-2.494455,1.360431\C,0,-0.
 00885,0.0088,1.453369\C,0,0.0244,-0.0004,-1.429189\C,0,0.00395,1.26980
 5,0.677065\C,0,0.0092,1.236871,-0.730804\C,0,0.00335,-1.269605,0.67706
 5\C,0,0.0108,-1.235671,-0.730804\H,0,0.0002,2.487221,2.443647\H,0,-0.0
 1435,4.629503,1.211689\H,0,0.0035,4.607212,-1.272349\H,0,0.0067,2.4584
 ,-2.490059\H,0,0.0225,-0.0002,-2.510266\H,0,0.0079,-2.459,-2.490059\H,
 0,0.0023,-4.612212,-1.272349\H,0,-0.01895,-4.632503,1.211689\H,0,-0.00
 86,-2.489821,2.443647\H,0,-0.891585,0.002,2.143587\H,0,0.827585,0.002,
 2.147987\\Version=ES64L-G16RevC.01\State=1-A\HF=-539.7595206\RMSD=4.75
 7e-09\PG=C01 [X(C14H11)]\\@
 The archive entry for this job was punched.


 GOD GAVE US TWO ENDS... ONE TO SIT ON...    
 AND THE OTHER TO THINK WITH...              
 YOUR SUCCESS DEPENDS UPON WHICH END YOU     
 USE THE MOST...                             
                                             
 IT'S A CASE OF HEADS YOU WIN TAILS YOU LOSE.
          SOURCE UNKNOWN(IT'S JUST AS WELL.) 
 Job cpu time:       0 days  1 hours 19 minutes 51.5 seconds.
 Elapsed time:       0 days  0 hours  1 minutes 40.0 seconds.
 File lengths (MBytes):  RWF=    460 Int=      0 D2E=      0 Chk=     15 Scr=      1
 Normal termination of Gaussian 16 at Thu Jul 28 17:17:44 2022.
