 Entering Gaussian System, Link 0=g16
 Initial command:
 /apps/gaussian/g16c01/g16/l1.exe "/jobfs/53002009.gadi-pbs/Gau-771244.inp" -scrdir="/jobfs/53002009.gadi-pbs/"
 Entering Link 1 = /apps/gaussian/g16c01/g16/l1.exe PID=    771245.
  
 Copyright (c) 1988-2019, Gaussian, Inc.  All Rights Reserved.
  
 This is part of the Gaussian(R) 16 program.  It is based on
 the Gaussian(R) 09 system (copyright 2009, Gaussian, Inc.),
 the Gaussian(R) 03 system (copyright 2003, Gaussian, Inc.),
 the Gaussian(R) 98 system (copyright 1998, Gaussian, Inc.),
 the Gaussian(R) 94 system (copyright 1995, Gaussian, Inc.),
 the Gaussian 92(TM) system (copyright 1992, Gaussian, Inc.),
 the Gaussian 90(TM) system (copyright 1990, Gaussian, Inc.),
 the Gaussian 88(TM) system (copyright 1988, Gaussian, Inc.),
 the Gaussian 86(TM) system (copyright 1986, Carnegie Mellon
 University), and the Gaussian 82(TM) system (copyright 1983,
 Carnegie Mellon University). Gaussian is a federally registered
 trademark of Gaussian, Inc.
  
 This software contains proprietary and confidential information,
 including trade secrets, belonging to Gaussian, Inc.
  
 This software is provided under written license and may be
 used, copied, transmitted, or stored only in accord with that
 written license.
  
 The following legend is applicable only to US Government
 contracts under FAR:
  
                    RESTRICTED RIGHTS LEGEND
  
 Use, reproduction and disclosure by the US Government is
 subject to restrictions as set forth in subparagraphs (a)
 and (c) of the Commercial Computer Software - Restricted
 Rights clause in FAR 52.227-19.
  
 Gaussian, Inc.
 340 Quinnipiac St., Bldg. 40, Wallingford CT 06492
  
  
 ---------------------------------------------------------------
 Warning -- This program may not be used in any manner that
 competes with the business of Gaussian, Inc. or will provide
 assistance to any competitor of Gaussian, Inc.  The licensee
 of this program is prohibited from giving any competitor of
 Gaussian, Inc. access to this program.  By using this program,
 the user acknowledges that Gaussian, Inc. is engaged in the
 business of creating and licensing software in the field of
 computational chemistry and represents and warrants to the
 licensee that it is not a competitor of Gaussian, Inc. and that
 it will not use this program in any manner prohibited above.
 ---------------------------------------------------------------
  

 Cite this work as:
 Gaussian 16, Revision C.01,
 M. J. Frisch, G. W. Trucks, H. B. Schlegel, G. E. Scuseria, 
 M. A. Robb, J. R. Cheeseman, G. Scalmani, V. Barone, 
 G. A. Petersson, H. Nakatsuji, X. Li, M. Caricato, A. V. Marenich, 
 J. Bloino, B. G. Janesko, R. Gomperts, B. Mennucci, H. P. Hratchian, 
 J. V. Ortiz, A. F. Izmaylov, J. L. Sonnenberg, D. Williams-Young, 
 F. Ding, F. Lipparini, F. Egidi, J. Goings, B. Peng, A. Petrone, 
 T. Henderson, D. Ranasinghe, V. G. Zakrzewski, J. Gao, N. Rega, 
 G. Zheng, W. Liang, M. Hada, M. Ehara, K. Toyota, R. Fukuda, 
 J. Hasegawa, M. Ishida, T. Nakajima, Y. Honda, O. Kitao, H. Nakai, 
 T. Vreven, K. Throssell, J. A. Montgomery, Jr., J. E. Peralta, 
 F. Ogliaro, M. J. Bearpark, J. J. Heyd, E. N. Brothers, K. N. Kudin, 
 V. N. Staroverov, T. A. Keith, R. Kobayashi, J. Normand, 
 K. Raghavachari, A. P. Rendell, J. C. Burant, S. S. Iyengar, 
 J. Tomasi, M. Cossi, J. M. Millam, M. Klene, C. Adamo, R. Cammi, 
 J. W. Ochterski, R. L. Martin, K. Morokuma, O. Farkas, 
 J. B. Foresman, and D. J. Fox, Gaussian, Inc., Wallingford CT, 2019.
 
 ******************************************
 Gaussian 16:  ES64L-G16RevC.01  3-Jul-2019
                28-Jul-2022 
 ******************************************
 %NProcShared=48
 Will use up to   48 processors via shared memory.
 %mem = 190GB
 ---------------------------------------------------------------
 #n M062X/6-311++G(d,p) TD(NStates=1) EmpiricalDispersion=GD3 SP
 ---------------------------------------------------------------
 1/38=1,172=1/1;
 2/12=2,17=6,18=5,40=1/2;
 3/5=4,6=6,7=1111,11=9,25=1,30=1,74=-55,124=31/1,2,3,8;
 4//1;
 5/5=2,38=5/2;
 8/6=1,10=2,108=1/1;
 9/41=1,42=1,70=2/14;
 6/7=2,8=2,9=2,10=2/1;
 99/5=1,9=1/99;
 -----
 SP_25
 -----
 Symbolic Z-matrix:
 Charge =  1 Multiplicity = 1
 C                     0.00875   2.49176   1.36043 
 C                     0.00918   3.70468   0.67199 
 C                     0.0029    3.68906  -0.71383 
 C                    -0.0077    2.46751  -1.40754 
 C                    -0.0079   -2.46791  -1.40754 
 C                     0.0017   -3.69106  -0.71383 
 C                     0.00727  -3.70538   0.67199 
 C                     0.00495  -2.49296   1.36043 
 C                     0.00433   0.0044    1.45337 
 C                    -0.0122   -0.0002   -1.42919 
 C                    -0.00168   1.25828   0.67707 
 C                    -0.0054    1.23837  -0.7308 
 C                    -0.00198  -1.25818   0.67707 
 C                    -0.0046   -1.23777  -0.7308 
 H                     0.0043    2.4872    2.44365 
 H                     0.00948   4.63888   1.21169 
 H                    -0.00115   4.60779  -1.27235 
 H                    -0.00395   2.47182  -2.49006 
 H                    -0.01125  -0.0001   -2.51027 
 H                    -0.00335  -2.47213  -2.49006 
 H                    -0.00175  -4.61029  -1.27235 
 H                     0.00718  -4.64038   1.21169 
 H                    -0.0001   -2.4885    2.44365 
 H                    -0.84359   0.001     2.14469 
 H                     0.87559   0.001     2.14689 
 
                          Input orientation:                          
 ---------------------------------------------------------------------
 Center     Atomic      Atomic             Coordinates (Angstroms)
 Number     Number       Type             X           Y           Z
 ---------------------------------------------------------------------
      1          6           0        0.008750    2.491755    1.360431
      2          6           0        0.009175    3.704683    0.671989
      3          6           0        0.002900    3.689061   -0.713830
      4          6           0       -0.007700    2.467506   -1.407538
      5          6           0       -0.007900   -2.467906   -1.407538
      6          6           0        0.001700   -3.691061   -0.713830
      7          6           0        0.007275   -3.705383    0.671989
      8          6           0        0.004950   -2.492955    1.360431
      9          6           0        0.004325    0.004400    1.453369
     10          6           0       -0.012200   -0.000200   -1.429189
     11          6           0       -0.001675    1.258280    0.677065
     12          6           0       -0.005400    1.238371   -0.730804
     13          6           0       -0.001975   -1.258180    0.677065
     14          6           0       -0.004600   -1.237771   -0.730804
     15          1           0        0.004300    2.487196    2.443647
     16          1           0        0.009475    4.638878    1.211689
     17          1           0       -0.001150    4.607787   -1.272349
     18          1           0       -0.003950    2.471825   -2.490059
     19          1           0       -0.011250   -0.000100   -2.510266
     20          1           0       -0.003350   -2.472125   -2.490059
     21          1           0       -0.001750   -4.610287   -1.272349
     22          1           0        0.007175   -4.640378    1.211689
     23          1           0       -0.000100   -2.488496    2.443647
     24          1           0       -0.843585    0.001000    2.144687
     25          1           0        0.875585    0.001000    2.146887
 ---------------------------------------------------------------------
                    Distance matrix (angstroms):
                    1          2          3          4          5
     1  C    0.000000
     2  C    1.394685   0.000000
     3  C    2.395023   1.385921   0.000000
     4  C    2.768124   2.419778   1.404827   0.000000
     5  C    5.679803   6.513492   6.195933   4.935412   0.000000
     6  C    6.521489   7.524465   7.380122   6.197521   1.406212
     7  C    6.235261   7.410066   7.523185   6.513771   2.419920
     8  C    4.984711   6.235759   6.520727   5.680492   2.768112
     9  C    2.489095   3.781887   4.274749   3.775159   3.781169
    10  C    3.740623   4.259291   3.758007   2.467805   2.467805
    11  C    1.410163   2.446432   2.800590   2.409945   4.269669
    12  C    2.438121   2.837382   2.450763   1.403120   3.767554
    13  C    3.811708   4.962878   5.139047   4.269232   2.410195
    14  C    4.275840   5.137691   4.926867   3.766571   1.403999
    15  H    1.083235   2.149668   3.378482   3.851254   6.275732
    16  H    2.152269   1.078887   2.147049   3.402279   7.574103
    17  H    3.377754   2.143864   1.075182   2.144556   7.076988
    18  H    3.850563   3.393915   2.153300   1.082536   5.056957
    19  H    4.603481   4.883910   4.103327   2.702795   2.702977
    20  H    6.282239   6.939140   6.412117   5.056859   1.082539
    21  H    7.574341   8.539280   8.318121   7.079086   2.146651
    22  H    7.133684   8.362495   8.549105   7.575129   3.402971
    23  H    5.096698   6.441609   6.937714   6.276435   3.851248
    24  H    2.746888   4.075942   4.742304   4.404618   4.405924
    25  H    2.752049   4.079615   4.748376   4.415629   4.417010
                    6          7          8          9         10
     6  C    0.000000
     7  C    1.385904   0.000000
     8  C    2.395418   1.394252   0.000000
     9  C    4.284062   3.791181   2.499084   0.000000
    10  C    3.759573   4.259543   3.741136   2.882609   0.000000
    11  C    5.141068   4.963674   3.812977   1.474754   2.453607
    12  C    4.929466   5.138939   4.277402   2.508663   1.421916
    13  C    2.802412   2.447226   1.411278   1.482159   2.453350
    14  C    2.453357   2.838499   2.439025   2.512704   1.421049
    15  H    6.938338   6.441026   5.096593   2.673000   4.602855
    16  H    8.549595   8.361697   7.133385   4.640778   5.338141
    17  H    8.317622   8.537524   7.573117   5.349836   4.610669
    18  H    6.413750   6.939494   6.282945   4.651761   2.690060
    19  H    4.104941   4.884282   4.604007   3.963668   1.081077
    20  H    2.154256   3.394052   3.850555   4.656593   2.689970
    21  H    1.075608   2.144617   3.378560   5.359563   4.612766
    22  H    2.146825   1.079579   2.152569   4.651062   5.339088
    23  H    3.378732   2.149335   1.083237   2.682387   4.603327
    24  H    4.745202   4.077999   2.748614   1.094022   3.669304
    25  H    4.751704   4.082470   2.756144   1.113586   3.684628
                   11         12         13         14         15
    11  C    0.000000
    12  C    1.408015   0.000000
    13  C    2.516460   2.866160   0.000000
    14  C    2.865724   2.476142   1.408019   0.000000
    15  H    2.151995   3.411275   4.141098   4.894139   0.000000
    16  H    3.422629   3.916242   5.921254   6.189385   2.479412
    17  H    3.875489   3.412661   6.181406   5.870590   4.278500
    18  H    3.391662   2.148578   4.893221   4.105616   4.933737
    19  H    3.426761   2.168024   3.426650   2.167570   5.543297
    20  H    4.893526   4.106429   3.391805   2.149095   6.995454
    21  H    6.183874   5.873677   3.877736   3.415720   8.011425
    22  H    5.922843   6.191375   3.424204   3.918055   7.233259
    23  H    4.142360   4.895580   2.152787   3.411960   4.975694
    24  H    2.107956   3.240693   2.108970   3.241435   2.643758
    25  H    2.123844   3.253971   2.125094   3.254287   2.651108
                   16         17         18         19         20
    16  H    0.000000
    17  H    2.484255   0.000000
    18  H    4.289433   2.458691   0.000000
    19  H    5.947562   4.771285   2.472018   0.000000
    20  H    8.016824   7.183869   4.943950   2.472120   0.000000
    21  H    9.576932   9.218074   7.186037   4.773505   2.460601
    22  H    9.279256   9.575963   8.017886   5.948569   4.290031
    23  H    7.233068   8.010360   6.996160   5.543780   4.933734
    24  H    4.807089   5.797268   5.318913   4.728781   5.320076
    25  H    4.809850   5.803648   5.327272   4.740839   5.328240
                   21         22         23         24         25
    21  H    0.000000
    22  H    2.484236   0.000000
    23  H    4.279092   2.479591   0.000000
    24  H    5.800758   4.810059   2.645455   0.000000
    25  H    5.807311   4.813639   2.655651   1.719171   0.000000
 Stoichiometry    C14H11(1+)
 Framework group  C1[X(C14H11)]
 Deg. of freedom    69
 Full point group                 C1      NOp   1
 Largest Abelian subgroup         C1      NOp   1
 Largest concise Abelian subgroup C1      NOp   1
                         Standard orientation:                         
 ---------------------------------------------------------------------
 Center     Atomic      Atomic             Coordinates (Angstroms)
 Number     Number       Type             X           Y           Z
 ---------------------------------------------------------------------
      1          6           0       -2.491873   -1.360242    0.001977
      2          6           0       -3.704743   -0.671705    0.005151
      3          6           0       -3.689002    0.714127    0.004992
      4          6           0       -2.467386    1.407770   -0.002259
      5          6           0        2.468026    1.407349   -0.001286
      6          6           0        3.691120    0.713501    0.005544
      7          6           0        3.705323   -0.672331    0.005011
      8          6           0        2.492838   -1.360652   -0.000639
      9          6           0       -0.004525   -1.453373   -0.002267
     10          6           0        0.000323    1.429230   -0.006077
     11          6           0       -1.258338   -0.676943   -0.005141
     12          6           0       -1.238309    0.730927   -0.002651
     13          6           0        1.258122   -0.677157   -0.004843
     14          6           0        1.237833    0.730712   -0.001263
     15          1           0       -2.487404   -2.443429   -0.007249
     16          1           0       -4.638984   -1.211321    0.002849
     17          1           0       -4.607680    1.272737    0.003187
     18          1           0       -2.471615    2.490264    0.006265
     19          1           0        0.000314    2.510292   -0.000359
     20          1           0        2.472335    2.489839    0.008039
     21          1           0        4.610394    1.271951    0.004776
     22          1           0        4.640273   -1.212105    0.002752
     23          1           0        2.488288   -2.443835   -0.010467
     24          1           0       -0.000982   -2.140945   -0.853217
     25          1           0       -0.001391   -2.150727    0.865927
 ---------------------------------------------------------------------
 Rotational constants (GHZ):           2.1361555           0.4437969           0.3682552
 Standard basis: 6-311++G(d,p) (5D, 7F)
 There are   399 symmetry adapted cartesian basis functions of A   symmetry.
 There are   385 symmetry adapted basis functions of A   symmetry.
   385 basis functions,   603 primitive gaussians,   399 cartesian basis functions
    47 alpha electrons       47 beta electrons
       nuclear repulsion energy       780.7329083368 Hartrees.
 NAtoms=   25 NActive=   25 NUniq=   25 SFac= 1.00D+00 NAtFMM=   60 NAOKFM=F Big=F
 Integral buffers will be    131072 words long.
 Regular integral format.
 Two-electron integral symmetry is turned on.
 Nuclear repulsion after empirical dispersion term =      780.7319286854 Hartrees.
 One-electron integrals computed using PRISM.
 NBasis=   385 RedAO= T EigKep=  1.15D-06  NBF=   385
 NBsUse=   379 1.00D-06 EigRej=  8.51D-07 NBFU=   379
 ExpMin= 3.60D-02 ExpMax= 4.56D+03 ExpMxC= 6.82D+02 IAcc=3 IRadAn=         5 AccDes= 0.00D+00
 Harris functional with IExCor= 1009 and IRadAn=       5 diagonalized for initial guess.
 HarFok:  IExCor= 1009 AccDes= 0.00D+00 IRadAn=         5 IDoV= 1 UseB2=F ITyADJ=14
 ICtDFT=  3500011 ScaDFX=  1.000000  1.000000  1.000000  1.000000
 FoFCou: FMM=F IPFlag=           0 FMFlag=      100000 FMFlg1=           0
         NFxFlg=           0 DoJE=T BraDBF=F KetDBF=T FulRan=T
         wScrn=  0.000000 ICntrl=       500 IOpCl=  0 I1Cent=   200000004 NGrid=           0
         NMat0=    1 NMatS0=      1 NMatT0=    0 NMatD0=    1 NMtDS0=    0 NMtDT0=    0
 Petite list used in FoFCou.
 Requested convergence on RMS density matrix=1.00D-08 within 128 cycles.
 Requested convergence on MAX density matrix=1.00D-06.
 Requested convergence on             energy=1.00D-06.
 No special actions if energy rises.
 SCF Done:  E(RM062X) =  -539.759714188     A.U. after   15 cycles
            NFock= 15  Conv=0.46D-08     -V/T= 2.0042
 DoSCS=F DFT=T ScalE2(SS,OS)=  1.000000  1.000000
 ExpMin= 3.60D-02 ExpMax= 4.56D+03 ExpMxC= 6.82D+02 IAcc=3 IRadAn=         5 AccDes= 0.00D+00
 HarFok:  IExCor=  205 AccDes= 0.00D+00 IRadAn=         5 IDoV=-2 UseB2=F ITyADJ=14
 ICtDFT= 12500011 ScaDFX=  1.000000  1.000000  1.000000  1.000000
 Range of M.O.s used for correlation:    15   379
 NBasis=   385 NAE=    47 NBE=    47 NFC=    14 NFV=     0
 NROrb=    365 NOA=    33 NOB=    33 NVA=   332 NVB=   332

 **** Warning!!: The largest alpha MO coefficient is  0.14887281D+03

 Orbital symmetries:
       Occupied  (A) (A) (A) (A) (A) (A) (A) (A) (A) (A) (A) (A)
                 (A) (A) (A) (A) (A) (A) (A) (A) (A) (A) (A) (A)
                 (A) (A) (A) (A) (A) (A) (A) (A) (A) (A) (A) (A)
                 (A) (A) (A) (A) (A) (A) (A) (A) (A) (A) (A)
       Virtual   (A) (A) (A) (A) (A) (A) (A) (A) (A) (A) (A) (A)
                 (A) (A) (A) (A) (A) (A) (A) (A) (A) (A) (A) (A)
                 (A) (A) (A) (A) (A) (A) (A) (A) (A) (A) (A) (A)
                 (A) (A) (A) (A) (A) (A) (A) (A) (A) (A) (A) (A)
                 (A) (A) (A) (A) (A) (A) (A) (A) (A) (A) (A) (A)
                 (A) (A) (A) (A) (A) (A) (A) (A) (A) (A) (A) (A)
                 (A) (A) (A) (A) (A) (A) (A) (A) (A) (A) (A) (A)
                 (A) (A) (A) (A) (A) (A) (A) (A) (A) (A) (A) (A)
                 (A) (A) (A) (A) (A) (A) (A) (A) (A) (A) (A) (A)
                 (A) (A) (A) (A) (A) (A) (A) (A) (A) (A) (A) (A)
                 (A) (A) (A) (A) (A) (A) (A) (A) (A) (A) (A) (A)
                 (A) (A) (A) (A) (A) (A) (A) (A) (A) (A) (A) (A)
                 (A) (A) (A) (A) (A) (A) (A) (A) (A) (A) (A) (A)
                 (A) (A) (A) (A) (A) (A) (A) (A) (A) (A) (A) (A)
                 (A) (A) (A) (A) (A) (A) (A) (A) (A) (A) (A) (A)
                 (A) (A) (A) (A) (A) (A) (A) (A) (A) (A) (A) (A)
                 (A) (A) (A) (A) (A) (A) (A) (A) (A) (A) (A) (A)
                 (A) (A) (A) (A) (A) (A) (A) (A) (A) (A) (A) (A)
                 (A) (A) (A) (A) (A) (A) (A) (A) (A) (A) (A) (A)
                 (A) (A) (A) (A) (A) (A) (A) (A) (A) (A) (A) (A)
                 (A) (A) (A) (A) (A) (A) (A) (A) (A) (A) (A) (A)
                 (A) (A) (A) (A) (A) (A) (A) (A) (A) (A) (A) (A)
                 (A) (A) (A) (A) (A) (A) (A) (A) (A) (A) (A) (A)
                 (A) (A) (A) (A) (A) (A) (A) (A) (A) (A) (A) (A)
                 (A) (A) (A) (A) (A) (A) (A) (A) (A) (A) (A) (A)
                 (A) (A) (A) (A) (A) (A) (A) (A) (A) (A) (A) (A)
                 (A) (A) (A) (A) (A) (A) (A) (A) (A) (A) (A) (A)
                 (A) (A) (A) (A) (A) (A) (A) (A)
     4 initial guesses have been made.
 Convergence on wavefunction:    0.001000000000000
 Iteration     1 Dimension     4 NMult     0 NNew      4
 CISAX will form     4 AO SS matrices at one time.
 Iteration     2 Dimension     6 NMult     4 NNew      2
 Iteration     3 Dimension     8 NMult     6 NNew      2
 Iteration     4 Dimension    10 NMult     8 NNew      2
 Iteration     5 Dimension    12 NMult    10 NNew      2
 Iteration     6 Dimension    14 NMult    12 NNew      2
 ***********************************************************************
 Excited states from <AA,BB:AA,BB> singles matrix:
 ***********************************************************************
 
 Ground to excited state transition densities written to RWF  633
 Ground to excited state transition electric dipole moments (Au):
       state          X           Y           Z        Dip. S.      Osc.
         1        -0.0058     -0.6409      0.0021      0.4108      0.0283
 Ground to excited state transition velocity dipole moments (Au):
       state          X           Y           Z        Dip. S.      Osc.
         1         0.0006      0.0740     -0.0003      0.0055      0.0353
 Ground to excited state transition magnetic dipole moments (Au):
       state          X           Y           Z
         1        -0.0026     -0.0004      0.0002
 Ground to excited state transition velocity quadrupole moments (Au):
       state          XX          YY          ZZ          XY          XZ          YZ
         1         0.3031      0.0338     -0.0097      0.0009      0.0000      0.0005
 <0|del|b> * <b|rxdel|0> + <0|del|b> * <b|delr+rdel|0>
 Rotatory Strengths (R) in cgs (10**-40 erg-esu-cm/Gauss)
       state          XX          YY          ZZ    R(velocity)    E-M Angle
         1        -0.1023     -0.0038     -0.0983     -0.0681       90.00
 1/2[<0|r|b>*<b|rxdel|0> + (<0|rxdel|b>*<b|r|0>)*]
 Rotatory Strengths (R) in cgs (10**-40 erg-esu-cm/Gauss)
       state          XX          YY          ZZ     R(length)
         1        -0.0107     -0.1731     -0.0002     -0.0613
  1/2[<0|del|b>*<b|r|0> + (<0|r|b>*<b|del|0>)*] (Au)
       state          X           Y           Z        Dip. S.   Osc.(frdel)
         1        -0.0000     -0.0474     -0.0000      0.0474      0.0316

 Excitation energies and oscillator strengths:
 
 Excited State   1:      Singlet-A      2.8144 eV  440.53 nm  f=0.0283  <S**2>=0.000
      47 -> 48         0.70427
 This state for optimization and/or second-order correction.
 Total Energy, E(TD-HF/TD-DFT) =  -539.656286116    
 Copying the excited state density for this state as the 1-particle RhoCI density.
 SavETr:  write IOETrn=   770 NScale= 10 NData=  16 NLR=1 NState=    1 LETran=      28.

 **********************************************************************

            Population analysis using the SCF Density.

 **********************************************************************

 Orbital symmetries:
       Occupied  (A) (A) (A) (A) (A) (A) (A) (A) (A) (A) (A) (A)
                 (A) (A) (A) (A) (A) (A) (A) (A) (A) (A) (A) (A)
                 (A) (A) (A) (A) (A) (A) (A) (A) (A) (A) (A) (A)
                 (A) (A) (A) (A) (A) (A) (A) (A) (A) (A) (A)
       Virtual   (A) (A) (A) (A) (A) (A) (A) (A) (A) (A) (A) (A)
                 (A) (A) (A) (A) (A) (A) (A) (A) (A) (A) (A) (A)
                 (A) (A) (A) (A) (A) (A) (A) (A) (A) (A) (A) (A)
                 (A) (A) (A) (A) (A) (A) (A) (A) (A) (A) (A) (A)
                 (A) (A) (A) (A) (A) (A) (A) (A) (A) (A) (A) (A)
                 (A) (A) (A) (A) (A) (A) (A) (A) (A) (A) (A) (A)
                 (A) (A) (A) (A) (A) (A) (A) (A) (A) (A) (A) (A)
                 (A) (A) (A) (A) (A) (A) (A) (A) (A) (A) (A) (A)
                 (A) (A) (A) (A) (A) (A) (A) (A) (A) (A) (A) (A)
                 (A) (A) (A) (A) (A) (A) (A) (A) (A) (A) (A) (A)
                 (A) (A) (A) (A) (A) (A) (A) (A) (A) (A) (A) (A)
                 (A) (A) (A) (A) (A) (A) (A) (A) (A) (A) (A) (A)
                 (A) (A) (A) (A) (A) (A) (A) (A) (A) (A) (A) (A)
                 (A) (A) (A) (A) (A) (A) (A) (A) (A) (A) (A) (A)
                 (A) (A) (A) (A) (A) (A) (A) (A) (A) (A) (A) (A)
                 (A) (A) (A) (A) (A) (A) (A) (A) (A) (A) (A) (A)
                 (A) (A) (A) (A) (A) (A) (A) (A) (A) (A) (A) (A)
                 (A) (A) (A) (A) (A) (A) (A) (A) (A) (A) (A) (A)
                 (A) (A) (A) (A) (A) (A) (A) (A) (A) (A) (A) (A)
                 (A) (A) (A) (A) (A) (A) (A) (A) (A) (A) (A) (A)
                 (A) (A) (A) (A) (A) (A) (A) (A) (A) (A) (A) (A)
                 (A) (A) (A) (A) (A) (A) (A) (A) (A) (A) (A) (A)
                 (A) (A) (A) (A) (A) (A) (A) (A) (A) (A) (A) (A)
                 (A) (A) (A) (A) (A) (A) (A) (A) (A) (A) (A) (A)
                 (A) (A) (A) (A) (A) (A) (A) (A) (A) (A) (A) (A)
                 (A) (A) (A) (A) (A) (A) (A) (A) (A) (A) (A) (A)
                 (A) (A) (A) (A) (A) (A) (A) (A) (A) (A) (A) (A)
                 (A) (A) (A) (A) (A) (A) (A) (A)
 The electronic state is 1-A.
 Alpha  occ. eigenvalues --  -10.77661 -10.73284 -10.73229 -10.72479 -10.72476
 Alpha  occ. eigenvalues --  -10.71436 -10.71406 -10.71041 -10.71031 -10.70980
 Alpha  occ. eigenvalues --  -10.70039 -10.70018 -10.69626 -10.69599  -1.16410
 Alpha  occ. eigenvalues --   -1.12360  -1.06890  -1.05765  -1.01214  -1.00195
 Alpha  occ. eigenvalues --   -0.95743  -0.91066  -0.86414  -0.85883  -0.83811
 Alpha  occ. eigenvalues --   -0.78394  -0.76020  -0.74397  -0.69567  -0.69271
 Alpha  occ. eigenvalues --   -0.68539  -0.68223  -0.68130  -0.64660  -0.64217
 Alpha  occ. eigenvalues --   -0.63122  -0.61934  -0.59964  -0.59601  -0.59119
 Alpha  occ. eigenvalues --   -0.56910  -0.55241  -0.54870  -0.52397  -0.46555
 Alpha  occ. eigenvalues --   -0.46056  -0.44455
 Alpha virt. eigenvalues --   -0.26079  -0.14726  -0.14112  -0.12837  -0.11178
 Alpha virt. eigenvalues --   -0.10083  -0.09222  -0.07990  -0.07953  -0.07472
 Alpha virt. eigenvalues --   -0.07207  -0.07149  -0.05644  -0.05582  -0.05342
 Alpha virt. eigenvalues --   -0.03810  -0.03639  -0.03281  -0.03134  -0.02163
 Alpha virt. eigenvalues --   -0.01363  -0.00920   0.00191   0.00615   0.00675
 Alpha virt. eigenvalues --    0.01050   0.01513   0.01923   0.02213   0.02289
 Alpha virt. eigenvalues --    0.02440   0.02678   0.02700   0.03320   0.03381
 Alpha virt. eigenvalues --    0.04245   0.04503   0.04691   0.05002   0.05360
 Alpha virt. eigenvalues --    0.06036   0.06291   0.06595   0.07041   0.07241
 Alpha virt. eigenvalues --    0.07879   0.08116   0.08364   0.08511   0.08931
 Alpha virt. eigenvalues --    0.09554   0.09565   0.10035   0.10836   0.11027
 Alpha virt. eigenvalues --    0.11115   0.12188   0.12258   0.12900   0.13000
 Alpha virt. eigenvalues --    0.13404   0.13533   0.14022   0.14330   0.16181
 Alpha virt. eigenvalues --    0.16273   0.16459   0.17366   0.17610   0.17760
 Alpha virt. eigenvalues --    0.18112   0.19024   0.19205   0.19616   0.19717
 Alpha virt. eigenvalues --    0.21517   0.21551   0.22731   0.23121   0.23563
 Alpha virt. eigenvalues --    0.23718   0.24564   0.25231   0.26900   0.27554
 Alpha virt. eigenvalues --    0.28842   0.29292   0.29851   0.31306   0.35813
 Alpha virt. eigenvalues --    0.36348   0.38122   0.39226   0.41162   0.41438
 Alpha virt. eigenvalues --    0.41956   0.42262   0.43002   0.43625   0.44297
 Alpha virt. eigenvalues --    0.44854   0.44946   0.45971   0.46090   0.47945
 Alpha virt. eigenvalues --    0.48559   0.48881   0.49049   0.50440   0.51142
 Alpha virt. eigenvalues --    0.51522   0.51581   0.52116   0.52771   0.53987
 Alpha virt. eigenvalues --    0.54106   0.54589   0.55696   0.55759   0.57469
 Alpha virt. eigenvalues --    0.58221   0.58800   0.61421   0.62150   0.62338
 Alpha virt. eigenvalues --    0.63129   0.63537   0.64882   0.65143   0.67224
 Alpha virt. eigenvalues --    0.70407   0.70619   0.70998   0.72345   0.72830
 Alpha virt. eigenvalues --    0.75763   0.75926   0.76233   0.76850   0.77057
 Alpha virt. eigenvalues --    0.77749   0.77800   0.78198   0.80040   0.80404
 Alpha virt. eigenvalues --    0.81204   0.81627   0.82103   0.82961   0.85113
 Alpha virt. eigenvalues --    0.87073   0.88154   0.88207   0.89306   0.90415
 Alpha virt. eigenvalues --    0.90947   0.91325   0.93116   0.94639   0.96451
 Alpha virt. eigenvalues --    0.96643   1.00449   1.01280   1.01626   1.02636
 Alpha virt. eigenvalues --    1.03143   1.03843   1.04658   1.05527   1.08739
 Alpha virt. eigenvalues --    1.19665   1.23309   1.24058   1.25279   1.27974
 Alpha virt. eigenvalues --    1.29531   1.31900   1.34109   1.35642   1.35959
 Alpha virt. eigenvalues --    1.39256   1.40188   1.40816   1.42913   1.43336
 Alpha virt. eigenvalues --    1.43470   1.45124   1.45228   1.46396   1.46713
 Alpha virt. eigenvalues --    1.47598   1.47840   1.51681   1.53603   1.55699
 Alpha virt. eigenvalues --    1.55871   1.56202   1.56514   1.57704   1.61354
 Alpha virt. eigenvalues --    1.63325   1.63707   1.63881   1.66055   1.68185
 Alpha virt. eigenvalues --    1.68424   1.68653   1.69720   1.74229   1.75969
 Alpha virt. eigenvalues --    1.77119   1.77994   1.79917   1.80009   1.80491
 Alpha virt. eigenvalues --    1.83142   1.83183   1.83563   1.83707   1.84172
 Alpha virt. eigenvalues --    1.84239   1.85821   1.85952   1.88167   1.91432
 Alpha virt. eigenvalues --    1.91955   1.94134   1.95215   1.97573   1.97959
 Alpha virt. eigenvalues --    1.99558   2.02426   2.04265   2.07405   2.11730
 Alpha virt. eigenvalues --    2.12008   2.13971   2.15174   2.18850   2.21182
 Alpha virt. eigenvalues --    2.22559   2.28521   2.29973   2.34580   2.35033
 Alpha virt. eigenvalues --    2.36143   2.38908   2.39909   2.42244   2.43899
 Alpha virt. eigenvalues --    2.46322   2.46927   2.49130   2.52775   2.53789
 Alpha virt. eigenvalues --    2.54214   2.56847   2.57800   2.58268   2.59630
 Alpha virt. eigenvalues --    2.59738   2.61642   2.61985   2.63451   2.63767
 Alpha virt. eigenvalues --    2.64689   2.64983   2.65168   2.65200   2.67899
 Alpha virt. eigenvalues --    2.68654   2.70907   2.71396   2.73336   2.74815
 Alpha virt. eigenvalues --    2.76268   2.78592   2.79643   2.82640   2.82993
 Alpha virt. eigenvalues --    2.84645   2.86270   2.92080   2.96915   2.99421
 Alpha virt. eigenvalues --    2.99898   3.05347   3.10738   3.11136   3.12581
 Alpha virt. eigenvalues --    3.20986   3.23740   3.26425   3.28031   3.30572
 Alpha virt. eigenvalues --    3.32337   3.33383   3.43370   3.45675   3.46112
 Alpha virt. eigenvalues --    3.48144   3.49824   3.56386   3.65744   3.67026
 Alpha virt. eigenvalues --    3.67386   3.94521   3.94752   3.95578   3.96353
 Alpha virt. eigenvalues --    4.04259   4.06940   4.07300   4.12519   4.35595
 Alpha virt. eigenvalues --    4.61463   4.69501   4.71270  23.45439  23.60895
 Alpha virt. eigenvalues --   23.82000  23.85763  23.87710  23.89158  23.90477
 Alpha virt. eigenvalues --   23.92228  23.97403  23.98803  23.99041  23.99749
 Alpha virt. eigenvalues --   24.10052  24.10216
          Condensed to atoms (all electrons):
               1          2          3          4          5          6
     1  C    8.539249   0.344434  -0.545066   1.923915  -0.018231  -0.093329
     2  C    0.344434   7.104279   0.355985  -1.046884  -0.019771  -0.014112
     3  C   -0.545066   0.355985   6.578628   0.736639  -0.122819   0.016667
     4  C    1.923915  -1.046884   0.736639  10.916335  -0.313557  -0.121413
     5  C   -0.018231  -0.019771  -0.122819  -0.313557  10.926929   0.724746
     6  C   -0.093329  -0.014112   0.016667  -0.121413   0.724746   6.575473
     7  C   -0.021739   0.002011  -0.014191  -0.020689  -1.036365   0.353035
     8  C    0.399942  -0.019605  -0.093481  -0.025597   1.942415  -0.552042
     9  C   -1.189429  -0.790015   0.293162  -0.242816  -0.228575   0.295044
    10  C   -1.257802   0.243081  -0.350599  -2.542993  -2.542653  -0.343678
    11  C    0.292187  -0.916020   1.028864  -0.351347  -1.519445  -0.162877
    12  C   -1.968331   1.323437  -1.392509  -1.460245  -0.304128  -0.203392
    13  C    0.177822  -0.245209  -0.165104  -1.518151  -0.359531   1.029315
    14  C   -1.071616  -0.197531  -0.203041  -0.297624  -1.493045  -1.379730
    15  H    0.365536  -0.105935  -0.000945   0.027272   0.005676   0.001092
    16  H   -0.020240   0.379483  -0.017229   0.013408  -0.001508  -0.000321
    17  H   -0.024334  -0.017167   0.376974  -0.066995   0.000216   0.000392
    18  H    0.049082   0.003678  -0.086097   0.455670   0.007265  -0.004994
    19  H   -0.046680  -0.007870   0.051630  -0.072137  -0.073079   0.051577
    20  H    0.007265   0.001985  -0.005023   0.007168   0.455182  -0.086700
    21  H   -0.001312  -0.000394   0.000394   0.000226  -0.067007   0.376867
    22  H    0.000718   0.000361  -0.000323  -0.001517   0.013668  -0.017543
    23  H    0.005717  -0.002679   0.001097   0.005664   0.027231  -0.001026
    24  H    0.026841   0.014392  -0.001837  -0.012011  -0.012956  -0.001552
    25  H    0.038327   0.014471  -0.001027  -0.012832  -0.012055  -0.001395
               7          8          9         10         11         12
     1  C   -0.021739   0.399942  -1.189429  -1.257802   0.292187  -1.968331
     2  C    0.002011  -0.019605  -0.790015   0.243081  -0.916020   1.323437
     3  C   -0.014191  -0.093481   0.293162  -0.350599   1.028864  -1.392509
     4  C   -0.020689  -0.025597  -0.242816  -2.542993  -0.351347  -1.460245
     5  C   -1.036365   1.942415  -0.228575  -2.542653  -1.519445  -0.304128
     6  C    0.353035  -0.552042   0.295044  -0.343678  -0.162877  -0.203392
     7  C    7.082654   0.345970  -0.783704   0.238862  -0.236360  -0.194909
     8  C    0.345970   8.535458  -1.170649  -1.258069   0.187364  -1.058073
     9  C   -0.783704  -1.170649   9.521225   0.256738   1.638969  -1.904646
    10  C    0.238862  -1.258069   0.256738   9.135067  -0.431322   2.358688
    11  C   -0.236360   0.187364   1.638969  -0.431322  14.474705  -3.738324
    12  C   -0.194909  -1.058073  -1.904646   2.358688  -3.738324  15.897716
    13  C   -0.909642   0.263038   1.625483  -0.431669   1.126096  -4.825765
    14  C    1.315953  -1.987761  -1.916514   2.367752  -4.805953   3.002876
    15  H   -0.002624   0.005668   0.091132  -0.009683  -0.029043  -0.024213
    16  H    0.000356   0.000659   0.003284  -0.009337   0.026031  -0.031518
    17  H   -0.000392  -0.001296  -0.005516   0.020351  -0.027107   0.090194
    18  H    0.001985   0.007154  -0.025034   0.014789  -0.010412  -0.050709
    19  H   -0.007917  -0.046661   0.075156   0.422262   0.081449  -0.066769
    20  H    0.004146   0.049166  -0.024913   0.015140  -0.012178  -0.012453
    21  H   -0.017481  -0.024032  -0.005500   0.020309  -0.006127   0.005152
    22  H    0.379040  -0.019279   0.003658  -0.009479   0.002959  -0.008972
    23  H   -0.105332   0.366357   0.091499  -0.009668   0.001409   0.006439
    24  H    0.015271   0.028825   0.361116   0.005617   0.010819  -0.054471
    25  H    0.013394   0.035577   0.352946   0.005496   0.016638  -0.065727
              13         14         15         16         17         18
     1  C    0.177822  -1.071616   0.365536  -0.020240  -0.024334   0.049082
     2  C   -0.245209  -0.197531  -0.105935   0.379483  -0.017167   0.003678
     3  C   -0.165104  -0.203041  -0.000945  -0.017229   0.376974  -0.086097
     4  C   -1.518151  -0.297624   0.027272   0.013408  -0.066995   0.455670
     5  C   -0.359531  -1.493045   0.005676  -0.001508   0.000216   0.007265
     6  C    1.029315  -1.379730   0.001092  -0.000321   0.000392  -0.004994
     7  C   -0.909642   1.315953  -0.002624   0.000356  -0.000392   0.001985
     8  C    0.263038  -1.987761   0.005668   0.000659  -0.001296   0.007154
     9  C    1.625483  -1.916514   0.091132   0.003284  -0.005516  -0.025034
    10  C   -0.431669   2.367752  -0.009683  -0.009337   0.020351   0.014789
    11  C    1.126096  -4.805953  -0.029043   0.026031  -0.027107  -0.010412
    12  C   -4.825765   3.002876  -0.024213  -0.031518   0.090194  -0.050709
    13  C   14.541776  -3.724599   0.001519   0.002930  -0.006222  -0.012320
    14  C   -3.724599  15.928557   0.006514  -0.008895   0.005169  -0.012756
    15  H    0.001519   0.006514   0.439448  -0.009007   0.001505   0.000160
    16  H    0.002930  -0.008895  -0.009007   0.419653  -0.006739   0.001925
    17  H   -0.006222   0.005169   0.001505  -0.006739   0.423335  -0.010390
    18  H   -0.012320  -0.012756   0.000160   0.001925  -0.010390   0.453585
    19  H    0.080879  -0.066417   0.000308  -0.000552   0.001448  -0.006318
    20  H   -0.010594  -0.051018  -0.000116   0.000015  -0.000145   0.001282
    21  H   -0.026682   0.089688   0.000015  -0.000007   0.000011  -0.000144
    22  H    0.026457  -0.032775  -0.000127   0.000007  -0.000007   0.000015
    23  H   -0.029663  -0.024812   0.000574  -0.000127   0.000014  -0.000115
    24  H    0.010097  -0.053238  -0.001158   0.000698  -0.000168   0.000185
    25  H    0.016731  -0.066974  -0.000666   0.000555  -0.000118   0.000175
              19         20         21         22         23         24
     1  C   -0.046680   0.007265  -0.001312   0.000718   0.005717   0.026841
     2  C   -0.007870   0.001985  -0.000394   0.000361  -0.002679   0.014392
     3  C    0.051630  -0.005023   0.000394  -0.000323   0.001097  -0.001837
     4  C   -0.072137   0.007168   0.000226  -0.001517   0.005664  -0.012011
     5  C   -0.073079   0.455182  -0.067007   0.013668   0.027231  -0.012956
     6  C    0.051577  -0.086700   0.376867  -0.017543  -0.001026  -0.001552
     7  C   -0.007917   0.004146  -0.017481   0.379040  -0.105332   0.015271
     8  C   -0.046661   0.049166  -0.024032  -0.019279   0.366357   0.028825
     9  C    0.075156  -0.024913  -0.005500   0.003658   0.091499   0.361116
    10  C    0.422262   0.015140   0.020309  -0.009479  -0.009668   0.005617
    11  C    0.081449  -0.012178  -0.006127   0.002959   0.001409   0.010819
    12  C   -0.066769  -0.012453   0.005152  -0.008972   0.006439  -0.054471
    13  C    0.080879  -0.010594  -0.026682   0.026457  -0.029663   0.010097
    14  C   -0.066417  -0.051018   0.089688  -0.032775  -0.024812  -0.053238
    15  H    0.000308  -0.000116   0.000015  -0.000127   0.000574  -0.001158
    16  H   -0.000552   0.000015  -0.000007   0.000007  -0.000127   0.000698
    17  H    0.001448  -0.000145   0.000011  -0.000007   0.000014  -0.000168
    18  H   -0.006318   0.001282  -0.000144   0.000015  -0.000115   0.000185
    19  H    0.443901  -0.006357   0.001443  -0.000550   0.000314   0.000602
    20  H   -0.006357   0.453645  -0.010323   0.001944   0.000152   0.000165
    21  H    0.001443  -0.010323   0.423103  -0.006716   0.001500  -0.000159
    22  H   -0.000550   0.001944  -0.006716   0.419630  -0.009024   0.000664
    23  H    0.000314   0.000152   0.001500  -0.009024   0.439276  -0.001063
    24  H    0.000602   0.000165  -0.000159   0.000664  -0.001063   0.493134
    25  H    0.000611   0.000197  -0.000127   0.000587  -0.000773  -0.079370
              25
     1  C    0.038327
     2  C    0.014471
     3  C   -0.001027
     4  C   -0.012832
     5  C   -0.012055
     6  C   -0.001395
     7  C    0.013394
     8  C    0.035577
     9  C    0.352946
    10  C    0.005496
    11  C    0.016638
    12  C   -0.065727
    13  C    0.016731
    14  C   -0.066974
    15  H   -0.000666
    16  H    0.000555
    17  H   -0.000118
    18  H    0.000175
    19  H    0.000611
    20  H    0.000197
    21  H   -0.000127
    22  H    0.000587
    23  H   -0.000773
    24  H   -0.079370
    25  H    0.493360
 Mulliken charges:
               1
     1  C    0.087073
     2  C   -0.404405
     3  C   -0.440751
     4  C    0.020512
     5  C    0.021394
     6  C   -0.440105
     7  C   -0.401332
     8  C    0.088950
     9  C   -0.322101
    10  C    0.092799
    11  C   -0.640974
    12  C    0.680652
    13  C   -0.636990
    14  C    0.677790
    15  H    0.237098
    16  H    0.256473
    17  H    0.246985
    18  H    0.222340
    19  H    0.189724
    20  H    0.222367
    21  H    0.247302
    22  H    0.256603
    23  H    0.237039
    24  H    0.249557
    25  H    0.252001
 Sum of Mulliken charges =   1.00000
 Mulliken charges with hydrogens summed into heavy atoms:
               1
     1  C    0.324171
     2  C   -0.147932
     3  C   -0.193765
     4  C    0.242852
     5  C    0.243761
     6  C   -0.192803
     7  C   -0.144730
     8  C    0.325989
     9  C    0.179457
    10  C    0.282522
    11  C   -0.640974
    12  C    0.680652
    13  C   -0.636990
    14  C    0.677790
 Electronic spatial extent (au):  <R**2>=           2859.8416
 Charge=              1.0000 electrons
 Dipole moment (field-independent basis, Debye):
    X=              0.0053    Y=              0.1894    Z=              0.0000  Tot=              0.1895
 Quadrupole moment (field-independent basis, Debye-Ang):
   XX=            -31.0290   YY=            -56.2618   ZZ=            -84.1742
   XY=              0.0030   XZ=              0.0049   YZ=              0.0474
 Traceless Quadrupole moment (field-independent basis, Debye-Ang):
   XX=             26.1260   YY=              0.8932   ZZ=            -27.0192
   XY=              0.0030   XZ=              0.0049   YZ=              0.0474
 Octapole moment (field-independent basis, Debye-Ang**2):
  XXX=              0.2200  YYY=              5.2094  ZZZ=             -0.0158  XYY=             -0.0022
  XXY=             -4.8528  XXZ=              0.0862  XZZ=             -0.0263  YZZ=             -3.0870
  YYZ=              0.0630  XYZ=              0.0247
 Hexadecapole moment (field-independent basis, Debye-Ang**3):
 XXXX=          -2124.0228 YYYY=           -609.2709 ZZZZ=            -99.4409 XXXY=              0.1243
 XXXZ=              0.1394 YYYX=             -0.0515 YYYZ=              0.5117 ZZZX=              0.0065
 ZZZY=              0.0240 XXYY=           -508.3985 XXZZ=           -591.8483 YYZZ=           -145.7458
 XXYZ=              0.5242 YYXZ=              0.0002 ZZXY=              0.0025
 N-N= 7.807319286854D+02 E-N=-2.797779342353D+03  KE= 5.374766892735D+02
 Unable to Open any file for archive entry.
 1\1\GINC-GADI-CPU-CLX-0113\SP\RM062X TD-FC\6-311++G(d,p)\C14H11(1+)\TS
 1578\28-Jul-2022\0\\#n M062X/6-311++G(d,p) TD(NStates=1) EmpiricalDisp
 ersion=GD3 SP\\SP_25\\1,1\C,0,0.00875,2.491755,1.360431\C,0,0.009175,3
 .704683,0.671989\C,0,0.0029,3.689061,-0.71383\C,0,-0.0077,2.467506,-1.
 407538\C,0,-0.0079,-2.467906,-1.407538\C,0,0.0017,-3.691061,-0.71383\C
 ,0,0.007275,-3.705383,0.671989\C,0,0.00495,-2.492955,1.360431\C,0,0.00
 4325,0.0044,1.453369\C,0,-0.0122,-0.0002,-1.429189\C,0,-0.001675,1.258
 28,0.677065\C,0,-0.0054,1.238371,-0.730804\C,0,-0.001975,-1.25818,0.67
 7065\C,0,-0.0046,-1.237771,-0.730804\H,0,0.0043,2.487196,2.443647\H,0,
 0.009475,4.638878,1.211689\H,0,-0.00115,4.607787,-1.272349\H,0,-0.0039
 5,2.471825,-2.490059\H,0,-0.01125,-0.0001,-2.510266\H,0,-0.00335,-2.47
 2125,-2.490059\H,0,-0.00175,-4.610287,-1.272349\H,0,0.007175,-4.640378
 ,1.211689\H,0,-0.0001,-2.488496,2.443647\H,0,-0.843585,0.001,2.144687\
 H,0,0.875585,0.001,2.146887\\Version=ES64L-G16RevC.01\State=1-A\HF=-53
 9.7597142\RMSD=4.628e-09\PG=C01 [X(C14H11)]\\@
 The archive entry for this job was punched.


 ANYONE WHO IS NOT SHOCKED BY QUANTUM THEORY HAS
 NOT UNDERSTOOD IT. -- NIELS BOHR(1885-1962)
 Job cpu time:       0 days  1 hours 19 minutes 50.6 seconds.
 Elapsed time:       0 days  0 hours  1 minutes 40.0 seconds.
 File lengths (MBytes):  RWF=    460 Int=      0 D2E=      0 Chk=     15 Scr=      1
 Normal termination of Gaussian 16 at Thu Jul 28 15:33:41 2022.
