 Entering Gaussian System, Link 0=g16
 Initial command:
 /apps/gaussian/g16c01/g16/l1.exe "/jobfs/53002009.gadi-pbs/Gau-736448.inp" -scrdir="/jobfs/53002009.gadi-pbs/"
 Entering Link 1 = /apps/gaussian/g16c01/g16/l1.exe PID=    736449.
  
 Copyright (c) 1988-2019, Gaussian, Inc.  All Rights Reserved.
  
 This is part of the Gaussian(R) 16 program.  It is based on
 the Gaussian(R) 09 system (copyright 2009, Gaussian, Inc.),
 the Gaussian(R) 03 system (copyright 2003, Gaussian, Inc.),
 the Gaussian(R) 98 system (copyright 1998, Gaussian, Inc.),
 the Gaussian(R) 94 system (copyright 1995, Gaussian, Inc.),
 the Gaussian 92(TM) system (copyright 1992, Gaussian, Inc.),
 the Gaussian 90(TM) system (copyright 1990, Gaussian, Inc.),
 the Gaussian 88(TM) system (copyright 1988, Gaussian, Inc.),
 the Gaussian 86(TM) system (copyright 1986, Carnegie Mellon
 University), and the Gaussian 82(TM) system (copyright 1983,
 Carnegie Mellon University). Gaussian is a federally registered
 trademark of Gaussian, Inc.
  
 This software contains proprietary and confidential information,
 including trade secrets, belonging to Gaussian, Inc.
  
 This software is provided under written license and may be
 used, copied, transmitted, or stored only in accord with that
 written license.
  
 The following legend is applicable only to US Government
 contracts under FAR:
  
                    RESTRICTED RIGHTS LEGEND
  
 Use, reproduction and disclosure by the US Government is
 subject to restrictions as set forth in subparagraphs (a)
 and (c) of the Commercial Computer Software - Restricted
 Rights clause in FAR 52.227-19.
  
 Gaussian, Inc.
 340 Quinnipiac St., Bldg. 40, Wallingford CT 06492
  
  
 ---------------------------------------------------------------
 Warning -- This program may not be used in any manner that
 competes with the business of Gaussian, Inc. or will provide
 assistance to any competitor of Gaussian, Inc.  The licensee
 of this program is prohibited from giving any competitor of
 Gaussian, Inc. access to this program.  By using this program,
 the user acknowledges that Gaussian, Inc. is engaged in the
 business of creating and licensing software in the field of
 computational chemistry and represents and warrants to the
 licensee that it is not a competitor of Gaussian, Inc. and that
 it will not use this program in any manner prohibited above.
 ---------------------------------------------------------------
  

 Cite this work as:
 Gaussian 16, Revision C.01,
 M. J. Frisch, G. W. Trucks, H. B. Schlegel, G. E. Scuseria, 
 M. A. Robb, J. R. Cheeseman, G. Scalmani, V. Barone, 
 G. A. Petersson, H. Nakatsuji, X. Li, M. Caricato, A. V. Marenich, 
 J. Bloino, B. G. Janesko, R. Gomperts, B. Mennucci, H. P. Hratchian, 
 J. V. Ortiz, A. F. Izmaylov, J. L. Sonnenberg, D. Williams-Young, 
 F. Ding, F. Lipparini, F. Egidi, J. Goings, B. Peng, A. Petrone, 
 T. Henderson, D. Ranasinghe, V. G. Zakrzewski, J. Gao, N. Rega, 
 G. Zheng, W. Liang, M. Hada, M. Ehara, K. Toyota, R. Fukuda, 
 J. Hasegawa, M. Ishida, T. Nakajima, Y. Honda, O. Kitao, H. Nakai, 
 T. Vreven, K. Throssell, J. A. Montgomery, Jr., J. E. Peralta, 
 F. Ogliaro, M. J. Bearpark, J. J. Heyd, E. N. Brothers, K. N. Kudin, 
 V. N. Staroverov, T. A. Keith, R. Kobayashi, J. Normand, 
 K. Raghavachari, A. P. Rendell, J. C. Burant, S. S. Iyengar, 
 J. Tomasi, M. Cossi, J. M. Millam, M. Klene, C. Adamo, R. Cammi, 
 J. W. Ochterski, R. L. Martin, K. Morokuma, O. Farkas, 
 J. B. Foresman, and D. J. Fox, Gaussian, Inc., Wallingford CT, 2019.
 
 ******************************************
 Gaussian 16:  ES64L-G16RevC.01  3-Jul-2019
                28-Jul-2022 
 ******************************************
 %NProcShared=48
 Will use up to   48 processors via shared memory.
 %mem = 190GB
 ---------------------------------------------------------------
 #n M062X/6-311++G(d,p) TD(NStates=1) EmpiricalDispersion=GD3 SP
 ---------------------------------------------------------------
 1/38=1,172=1/1;
 2/12=2,17=6,18=5,40=1/2;
 3/5=4,6=6,7=1111,11=9,25=1,30=1,74=-55,124=31/1,2,3,8;
 4//1;
 5/5=2,38=5/2;
 8/6=1,10=2,108=1/1;
 9/41=1,42=1,70=2/14;
 6/7=2,8=2,9=2,10=2/1;
 99/5=1,9=1/99;
 ------
 SP_-75
 ------
 Symbolic Z-matrix:
 Charge =  1 Multiplicity = 1
 C                     0.00495   2.49296   1.36043 
 C                     0.00727   3.70538   0.67199 
 C                     0.0017    3.69106  -0.71383 
 C                    -0.0079    2.46791  -1.40754 
 C                    -0.0077   -2.46751  -1.40754 
 C                     0.0029   -3.68906  -0.71383 
 C                     0.00918  -3.70468   0.67199 
 C                     0.00875  -2.49176   1.36043 
 C                     0.00443  -0.0044    1.45337 
 C                    -0.0122    0.0002   -1.42919 
 C                    -0.00198   1.25818   0.67707 
 C                    -0.0046    1.23777  -0.7308 
 C                    -0.00168  -1.25828   0.67707 
 C                    -0.0054   -1.23837  -0.7308 
 H                    -0.0001    2.4885    2.44365 
 H                     0.00718   4.64038   1.21169 
 H                    -0.00175   4.61029  -1.27235 
 H                    -0.00335   2.47213  -2.49006 
 H                    -0.01125   0.0001   -2.51027 
 H                    -0.00395  -2.47182  -2.49006 
 H                    -0.00115  -4.60779  -1.27235 
 H                     0.00948  -4.63888   1.21169 
 H                     0.0043   -2.4872    2.44365 
 H                    -0.84359  -0.001     2.14689 
 H                     0.87559  -0.001     2.14469 
 
                          Input orientation:                          
 ---------------------------------------------------------------------
 Center     Atomic      Atomic             Coordinates (Angstroms)
 Number     Number       Type             X           Y           Z
 ---------------------------------------------------------------------
      1          6           0        0.004950    2.492955    1.360431
      2          6           0        0.007275    3.705383    0.671989
      3          6           0        0.001700    3.691061   -0.713830
      4          6           0       -0.007900    2.467906   -1.407538
      5          6           0       -0.007700   -2.467506   -1.407538
      6          6           0        0.002900   -3.689061   -0.713830
      7          6           0        0.009175   -3.704683    0.671989
      8          6           0        0.008750   -2.491755    1.360431
      9          6           0        0.004425   -0.004400    1.453369
     10          6           0       -0.012200    0.000200   -1.429189
     11          6           0       -0.001975    1.258180    0.677065
     12          6           0       -0.004600    1.237771   -0.730804
     13          6           0       -0.001675   -1.258280    0.677065
     14          6           0       -0.005400   -1.238371   -0.730804
     15          1           0       -0.000100    2.488496    2.443647
     16          1           0        0.007175    4.640378    1.211689
     17          1           0       -0.001750    4.610287   -1.272349
     18          1           0       -0.003350    2.472125   -2.490059
     19          1           0       -0.011250    0.000100   -2.510266
     20          1           0       -0.003950   -2.471825   -2.490059
     21          1           0       -0.001150   -4.607787   -1.272349
     22          1           0        0.009475   -4.638878    1.211689
     23          1           0        0.004300   -2.487196    2.443647
     24          1           0       -0.843585   -0.001000    2.146887
     25          1           0        0.875585   -0.001000    2.144687
 ---------------------------------------------------------------------
                    Distance matrix (angstroms):
                    1          2          3          4          5
     1  C    0.000000
     2  C    1.394252   0.000000
     3  C    2.395418   1.385904   0.000000
     4  C    2.768112   2.419920   1.406212   0.000000
     5  C    5.680492   6.513771   6.197521   4.935412   0.000000
     6  C    6.520727   7.523185   7.380122   6.195933   1.404827
     7  C    6.235759   7.410066   7.524465   6.513492   2.419778
     8  C    4.984711   6.235261   6.521489   5.679803   2.768124
     9  C    2.499084   3.791181   4.284062   3.781169   3.775159
    10  C    3.741136   4.259543   3.759573   2.467805   2.467805
    11  C    1.411278   2.447226   2.802412   2.410195   4.269232
    12  C    2.439025   2.838499   2.453357   1.403999   3.766571
    13  C    3.812977   4.963674   5.141068   4.269669   2.409945
    14  C    4.277402   5.138939   4.929466   3.767554   1.403120
    15  H    1.083237   2.149335   3.378732   3.851248   6.276435
    16  H    2.152569   1.079579   2.146825   3.402971   7.575129
    17  H    3.378560   2.144617   1.075608   2.146651   7.079086
    18  H    3.850555   3.394052   2.154256   1.082539   5.056859
    19  H    4.604007   4.884282   4.104941   2.702977   2.702795
    20  H    6.282945   6.939494   6.413750   5.056957   1.082536
    21  H    7.573117   8.537524   8.317622   7.076988   2.144556
    22  H    7.133385   8.361697   8.549595   7.574103   3.402279
    23  H    5.096593   6.441026   6.938338   6.275732   3.851254
    24  H    2.749243   4.078794   4.746527   4.407698   4.406392
    25  H    2.755517   4.081676   4.750380   4.415240   4.413858
                    6          7          8          9         10
     6  C    0.000000
     7  C    1.385921   0.000000
     8  C    2.395023   1.394685   0.000000
     9  C    4.274749   3.781887   2.489094   0.000000
    10  C    3.758007   4.259291   3.740623   2.882610   0.000000
    11  C    5.139047   4.962878   3.811708   1.482160   2.453350
    12  C    4.926867   5.137691   4.275840   2.512704   1.421049
    13  C    2.800590   2.446432   1.410163   1.474754   2.453607
    14  C    2.450763   2.837382   2.438121   2.508664   1.421916
    15  H    6.937714   6.441609   5.096698   2.682387   4.603327
    16  H    8.549105   8.362495   7.133684   4.651062   5.339088
    17  H    8.318121   8.539280   7.574341   5.359563   4.612766
    18  H    6.412117   6.939140   6.282239   4.656593   2.689970
    19  H    4.103327   4.883910   4.603481   3.963669   1.081077
    20  H    2.153300   3.393915   3.850563   4.651761   2.690060
    21  H    1.075182   2.143864   3.377754   5.349836   4.610669
    22  H    2.147049   1.078887   2.152269   4.640778   5.338141
    23  H    3.378482   2.149668   1.083235   2.673000   4.602855
    24  H    4.743631   4.076738   2.747517   1.095491   3.671447
    25  H    4.747051   4.078820   2.751422   1.112138   3.682493
                   11         12         13         14         15
    11  C    0.000000
    12  C    1.408019   0.000000
    13  C    2.516460   2.865724   0.000000
    14  C    2.866160   2.476142   1.408015   0.000000
    15  H    2.152787   3.411960   4.142360   4.895580   0.000000
    16  H    3.424204   3.918055   5.922843   6.191375   2.479591
    17  H    3.877736   3.415720   6.183874   5.873677   4.279092
    18  H    3.391805   2.149095   4.893526   4.106429   4.933734
    19  H    3.426650   2.167570   3.426761   2.168024   5.543780
    20  H    4.893221   4.105616   3.391662   2.148578   6.996160
    21  H    6.181406   5.870590   3.875489   3.412661   8.010360
    22  H    5.921254   6.189385   3.422629   3.916242   7.233068
    23  H    4.141098   4.894139   2.151995   3.411275   4.975694
    24  H    2.110502   3.243386   2.109489   3.242645   2.645208
    25  H    2.123572   3.252342   2.122322   3.252026   2.655898
                   16         17         18         19         20
    16  H    0.000000
    17  H    2.484236   0.000000
    18  H    4.290031   2.460601   0.000000
    19  H    5.948569   4.773505   2.472120   0.000000
    20  H    8.017886   7.186037   4.943950   2.472018   0.000000
    21  H    9.575963   9.218074   7.183869   4.771285   2.458691
    22  H    9.279256   9.576932   8.016824   5.947562   4.289433
    23  H    7.233259   8.011425   6.995454   5.543297   4.933737
    24  H    4.810486   5.802054   5.321993   4.730947   5.320830
    25  H    4.813212   5.806016   5.326326   4.738678   5.325357
                   21         22         23         24         25
    21  H    0.000000
    22  H    2.484255   0.000000
    23  H    4.278500   2.479412   0.000000
    24  H    5.798565   4.807517   2.643510   0.000000
    25  H    5.802352   4.809422   2.651355   1.719171   0.000000
 Stoichiometry    C14H11(1+)
 Framework group  C1[X(C14H11)]
 Deg. of freedom    69
 Full point group                 C1      NOp   1
 Largest Abelian subgroup         C1      NOp   1
 Largest concise Abelian subgroup C1      NOp   1
                         Standard orientation:                         
 ---------------------------------------------------------------------
 Center     Atomic      Atomic             Coordinates (Angstroms)
 Number     Number       Type             X           Y           Z
 ---------------------------------------------------------------------
      1          6           0       -2.492838   -1.360652   -0.000616
      2          6           0       -3.705323   -0.672331    0.005018
      3          6           0       -3.691120    0.713501    0.005523
      4          6           0       -2.468026    1.407349   -0.001322
      5          6           0        2.467386    1.407770   -0.002294
      6          6           0        3.689002    0.714127    0.004970
      7          6           0        3.704743   -0.671705    0.005158
      8          6           0        2.491873   -1.360242    0.002000
      9          6           0        0.004525   -1.453373   -0.002143
     10          6           0       -0.000323    1.429230   -0.006113
     11          6           0       -1.258122   -0.677157   -0.004835
     12          6           0       -1.237833    0.730712   -0.001285
     13          6           0        1.258338   -0.676943   -0.005133
     14          6           0        1.238309    0.730927   -0.002673
     15          1           0       -2.488288   -2.443835   -0.010422
     16          1           0       -4.640273   -1.212105    0.002771
     17          1           0       -4.610394    1.271951    0.004743
     18          1           0       -2.472335    2.489839    0.007981
     19          1           0       -0.000314    2.510292   -0.000418
     20          1           0        2.471615    2.490265    0.006206
     21          1           0        4.607680    1.272737    0.003154
     22          1           0        4.638984   -1.211321    0.002868
     23          1           0        2.487404   -2.443429   -0.007204
     24          1           0        0.000982   -2.143162   -0.853188
     25          1           0        0.001391   -2.148509    0.865975
 ---------------------------------------------------------------------
 Rotational constants (GHZ):           2.1361554           0.4437969           0.3682552
 Standard basis: 6-311++G(d,p) (5D, 7F)
 There are   399 symmetry adapted cartesian basis functions of A   symmetry.
 There are   385 symmetry adapted basis functions of A   symmetry.
   385 basis functions,   603 primitive gaussians,   399 cartesian basis functions
    47 alpha electrons       47 beta electrons
       nuclear repulsion energy       780.7326446133 Hartrees.
 NAtoms=   25 NActive=   25 NUniq=   25 SFac= 1.00D+00 NAtFMM=   60 NAOKFM=F Big=F
 Integral buffers will be    131072 words long.
 Regular integral format.
 Two-electron integral symmetry is turned on.
 Nuclear repulsion after empirical dispersion term =      780.7316649620 Hartrees.
 One-electron integrals computed using PRISM.
 NBasis=   385 RedAO= T EigKep=  1.15D-06  NBF=   385
 NBsUse=   379 1.00D-06 EigRej=  8.51D-07 NBFU=   379
 ExpMin= 3.60D-02 ExpMax= 4.56D+03 ExpMxC= 6.82D+02 IAcc=3 IRadAn=         5 AccDes= 0.00D+00
 Harris functional with IExCor= 1009 and IRadAn=       5 diagonalized for initial guess.
 HarFok:  IExCor= 1009 AccDes= 0.00D+00 IRadAn=         5 IDoV= 1 UseB2=F ITyADJ=14
 ICtDFT=  3500011 ScaDFX=  1.000000  1.000000  1.000000  1.000000
 FoFCou: FMM=F IPFlag=           0 FMFlag=      100000 FMFlg1=           0
         NFxFlg=           0 DoJE=T BraDBF=F KetDBF=T FulRan=T
         wScrn=  0.000000 ICntrl=       500 IOpCl=  0 I1Cent=   200000004 NGrid=           0
         NMat0=    1 NMatS0=      1 NMatT0=    0 NMatD0=    1 NMtDS0=    0 NMtDT0=    0
 Petite list used in FoFCou.
 Requested convergence on RMS density matrix=1.00D-08 within 128 cycles.
 Requested convergence on MAX density matrix=1.00D-06.
 Requested convergence on             energy=1.00D-06.
 No special actions if energy rises.
 SCF Done:  E(RM062X) =  -539.759745679     A.U. after   15 cycles
            NFock= 15  Conv=0.45D-08     -V/T= 2.0042
 DoSCS=F DFT=T ScalE2(SS,OS)=  1.000000  1.000000
 ExpMin= 3.60D-02 ExpMax= 4.56D+03 ExpMxC= 6.82D+02 IAcc=3 IRadAn=         5 AccDes= 0.00D+00
 HarFok:  IExCor=  205 AccDes= 0.00D+00 IRadAn=         5 IDoV=-2 UseB2=F ITyADJ=14
 ICtDFT= 12500011 ScaDFX=  1.000000  1.000000  1.000000  1.000000
 Range of M.O.s used for correlation:    15   379
 NBasis=   385 NAE=    47 NBE=    47 NFC=    14 NFV=     0
 NROrb=    365 NOA=    33 NOB=    33 NVA=   332 NVB=   332

 **** Warning!!: The largest alpha MO coefficient is  0.14887088D+03

 Orbital symmetries:
       Occupied  (A) (A) (A) (A) (A) (A) (A) (A) (A) (A) (A) (A)
                 (A) (A) (A) (A) (A) (A) (A) (A) (A) (A) (A) (A)
                 (A) (A) (A) (A) (A) (A) (A) (A) (A) (A) (A) (A)
                 (A) (A) (A) (A) (A) (A) (A) (A) (A) (A) (A)
       Virtual   (A) (A) (A) (A) (A) (A) (A) (A) (A) (A) (A) (A)
                 (A) (A) (A) (A) (A) (A) (A) (A) (A) (A) (A) (A)
                 (A) (A) (A) (A) (A) (A) (A) (A) (A) (A) (A) (A)
                 (A) (A) (A) (A) (A) (A) (A) (A) (A) (A) (A) (A)
                 (A) (A) (A) (A) (A) (A) (A) (A) (A) (A) (A) (A)
                 (A) (A) (A) (A) (A) (A) (A) (A) (A) (A) (A) (A)
                 (A) (A) (A) (A) (A) (A) (A) (A) (A) (A) (A) (A)
                 (A) (A) (A) (A) (A) (A) (A) (A) (A) (A) (A) (A)
                 (A) (A) (A) (A) (A) (A) (A) (A) (A) (A) (A) (A)
                 (A) (A) (A) (A) (A) (A) (A) (A) (A) (A) (A) (A)
                 (A) (A) (A) (A) (A) (A) (A) (A) (A) (A) (A) (A)
                 (A) (A) (A) (A) (A) (A) (A) (A) (A) (A) (A) (A)
                 (A) (A) (A) (A) (A) (A) (A) (A) (A) (A) (A) (A)
                 (A) (A) (A) (A) (A) (A) (A) (A) (A) (A) (A) (A)
                 (A) (A) (A) (A) (A) (A) (A) (A) (A) (A) (A) (A)
                 (A) (A) (A) (A) (A) (A) (A) (A) (A) (A) (A) (A)
                 (A) (A) (A) (A) (A) (A) (A) (A) (A) (A) (A) (A)
                 (A) (A) (A) (A) (A) (A) (A) (A) (A) (A) (A) (A)
                 (A) (A) (A) (A) (A) (A) (A) (A) (A) (A) (A) (A)
                 (A) (A) (A) (A) (A) (A) (A) (A) (A) (A) (A) (A)
                 (A) (A) (A) (A) (A) (A) (A) (A) (A) (A) (A) (A)
                 (A) (A) (A) (A) (A) (A) (A) (A) (A) (A) (A) (A)
                 (A) (A) (A) (A) (A) (A) (A) (A) (A) (A) (A) (A)
                 (A) (A) (A) (A) (A) (A) (A) (A) (A) (A) (A) (A)
                 (A) (A) (A) (A) (A) (A) (A) (A) (A) (A) (A) (A)
                 (A) (A) (A) (A) (A) (A) (A) (A) (A) (A) (A) (A)
                 (A) (A) (A) (A) (A) (A) (A) (A) (A) (A) (A) (A)
                 (A) (A) (A) (A) (A) (A) (A) (A)
     4 initial guesses have been made.
 Convergence on wavefunction:    0.001000000000000
 Iteration     1 Dimension     4 NMult     0 NNew      4
 CISAX will form     4 AO SS matrices at one time.
 Iteration     2 Dimension     6 NMult     4 NNew      2
 Iteration     3 Dimension     8 NMult     6 NNew      2
 Iteration     4 Dimension    10 NMult     8 NNew      2
 Iteration     5 Dimension    12 NMult    10 NNew      2
 Iteration     6 Dimension    14 NMult    12 NNew      2
 ***********************************************************************
 Excited states from <AA,BB:AA,BB> singles matrix:
 ***********************************************************************
 
 Ground to excited state transition densities written to RWF  633
 Ground to excited state transition electric dipole moments (Au):
       state          X           Y           Z        Dip. S.      Osc.
         1         0.0058     -0.6409      0.0019      0.4108      0.0283
 Ground to excited state transition velocity dipole moments (Au):
       state          X           Y           Z        Dip. S.      Osc.
         1        -0.0006      0.0740     -0.0002      0.0055      0.0353
 Ground to excited state transition magnetic dipole moments (Au):
       state          X           Y           Z
         1        -0.0027      0.0004     -0.0001
 Ground to excited state transition velocity quadrupole moments (Au):
       state          XX          YY          ZZ          XY          XZ          YZ
         1         0.3030      0.0338     -0.0097     -0.0009     -0.0000      0.0003
 <0|del|b> * <b|rxdel|0> + <0|del|b> * <b|delr+rdel|0>
 Rotatory Strengths (R) in cgs (10**-40 erg-esu-cm/Gauss)
       state          XX          YY          ZZ    R(velocity)    E-M Angle
         1         0.1015      0.0045      0.0986      0.0682       90.00
 1/2[<0|r|b>*<b|rxdel|0> + (<0|rxdel|b>*<b|r|0>)*]
 Rotatory Strengths (R) in cgs (10**-40 erg-esu-cm/Gauss)
       state          XX          YY          ZZ     R(length)
         1         0.0112      0.1728      0.0002      0.0614
  1/2[<0|del|b>*<b|r|0> + (<0|r|b>*<b|del|0>)*] (Au)
       state          X           Y           Z        Dip. S.   Osc.(frdel)
         1        -0.0000     -0.0474     -0.0000      0.0474      0.0316

 Excitation energies and oscillator strengths:
 
 Excited State   1:      Singlet-A      2.8144 eV  440.53 nm  f=0.0283  <S**2>=0.000
      47 -> 48         0.70427
 This state for optimization and/or second-order correction.
 Total Energy, E(TD-HF/TD-DFT) =  -539.656317198    
 Copying the excited state density for this state as the 1-particle RhoCI density.
 SavETr:  write IOETrn=   770 NScale= 10 NData=  16 NLR=1 NState=    1 LETran=      28.

 **********************************************************************

            Population analysis using the SCF Density.

 **********************************************************************

 Orbital symmetries:
       Occupied  (A) (A) (A) (A) (A) (A) (A) (A) (A) (A) (A) (A)
                 (A) (A) (A) (A) (A) (A) (A) (A) (A) (A) (A) (A)
                 (A) (A) (A) (A) (A) (A) (A) (A) (A) (A) (A) (A)
                 (A) (A) (A) (A) (A) (A) (A) (A) (A) (A) (A)
       Virtual   (A) (A) (A) (A) (A) (A) (A) (A) (A) (A) (A) (A)
                 (A) (A) (A) (A) (A) (A) (A) (A) (A) (A) (A) (A)
                 (A) (A) (A) (A) (A) (A) (A) (A) (A) (A) (A) (A)
                 (A) (A) (A) (A) (A) (A) (A) (A) (A) (A) (A) (A)
                 (A) (A) (A) (A) (A) (A) (A) (A) (A) (A) (A) (A)
                 (A) (A) (A) (A) (A) (A) (A) (A) (A) (A) (A) (A)
                 (A) (A) (A) (A) (A) (A) (A) (A) (A) (A) (A) (A)
                 (A) (A) (A) (A) (A) (A) (A) (A) (A) (A) (A) (A)
                 (A) (A) (A) (A) (A) (A) (A) (A) (A) (A) (A) (A)
                 (A) (A) (A) (A) (A) (A) (A) (A) (A) (A) (A) (A)
                 (A) (A) (A) (A) (A) (A) (A) (A) (A) (A) (A) (A)
                 (A) (A) (A) (A) (A) (A) (A) (A) (A) (A) (A) (A)
                 (A) (A) (A) (A) (A) (A) (A) (A) (A) (A) (A) (A)
                 (A) (A) (A) (A) (A) (A) (A) (A) (A) (A) (A) (A)
                 (A) (A) (A) (A) (A) (A) (A) (A) (A) (A) (A) (A)
                 (A) (A) (A) (A) (A) (A) (A) (A) (A) (A) (A) (A)
                 (A) (A) (A) (A) (A) (A) (A) (A) (A) (A) (A) (A)
                 (A) (A) (A) (A) (A) (A) (A) (A) (A) (A) (A) (A)
                 (A) (A) (A) (A) (A) (A) (A) (A) (A) (A) (A) (A)
                 (A) (A) (A) (A) (A) (A) (A) (A) (A) (A) (A) (A)
                 (A) (A) (A) (A) (A) (A) (A) (A) (A) (A) (A) (A)
                 (A) (A) (A) (A) (A) (A) (A) (A) (A) (A) (A) (A)
                 (A) (A) (A) (A) (A) (A) (A) (A) (A) (A) (A) (A)
                 (A) (A) (A) (A) (A) (A) (A) (A) (A) (A) (A) (A)
                 (A) (A) (A) (A) (A) (A) (A) (A) (A) (A) (A) (A)
                 (A) (A) (A) (A) (A) (A) (A) (A) (A) (A) (A) (A)
                 (A) (A) (A) (A) (A) (A) (A) (A) (A) (A) (A) (A)
                 (A) (A) (A) (A) (A) (A) (A) (A)
 The electronic state is 1-A.
 Alpha  occ. eigenvalues --  -10.77661 -10.73284 -10.73229 -10.72479 -10.72476
 Alpha  occ. eigenvalues --  -10.71436 -10.71406 -10.71041 -10.71031 -10.70981
 Alpha  occ. eigenvalues --  -10.70039 -10.70018 -10.69626 -10.69599  -1.16410
 Alpha  occ. eigenvalues --   -1.12360  -1.06890  -1.05765  -1.01214  -1.00195
 Alpha  occ. eigenvalues --   -0.95743  -0.91065  -0.86413  -0.85883  -0.83811
 Alpha  occ. eigenvalues --   -0.78393  -0.76020  -0.74397  -0.69567  -0.69271
 Alpha  occ. eigenvalues --   -0.68537  -0.68223  -0.68133  -0.64660  -0.64217
 Alpha  occ. eigenvalues --   -0.63122  -0.61934  -0.59965  -0.59601  -0.59120
 Alpha  occ. eigenvalues --   -0.56910  -0.55241  -0.54870  -0.52397  -0.46555
 Alpha  occ. eigenvalues --   -0.46056  -0.44455
 Alpha virt. eigenvalues --   -0.26079  -0.14726  -0.14112  -0.12837  -0.11178
 Alpha virt. eigenvalues --   -0.10083  -0.09222  -0.07989  -0.07954  -0.07472
 Alpha virt. eigenvalues --   -0.07208  -0.07148  -0.05644  -0.05582  -0.05342
 Alpha virt. eigenvalues --   -0.03810  -0.03639  -0.03281  -0.03134  -0.02163
 Alpha virt. eigenvalues --   -0.01363  -0.00920   0.00191   0.00615   0.00675
 Alpha virt. eigenvalues --    0.01050   0.01513   0.01924   0.02213   0.02289
 Alpha virt. eigenvalues --    0.02440   0.02678   0.02700   0.03320   0.03381
 Alpha virt. eigenvalues --    0.04245   0.04503   0.04691   0.05002   0.05360
 Alpha virt. eigenvalues --    0.06036   0.06291   0.06595   0.07042   0.07242
 Alpha virt. eigenvalues --    0.07879   0.08116   0.08363   0.08511   0.08931
 Alpha virt. eigenvalues --    0.09554   0.09564   0.10035   0.10836   0.11027
 Alpha virt. eigenvalues --    0.11115   0.12188   0.12258   0.12900   0.13000
 Alpha virt. eigenvalues --    0.13404   0.13533   0.14021   0.14330   0.16188
 Alpha virt. eigenvalues --    0.16273   0.16453   0.17365   0.17609   0.17759
 Alpha virt. eigenvalues --    0.18112   0.19024   0.19205   0.19616   0.19717
 Alpha virt. eigenvalues --    0.21517   0.21551   0.22731   0.23121   0.23563
 Alpha virt. eigenvalues --    0.23717   0.24564   0.25230   0.26899   0.27554
 Alpha virt. eigenvalues --    0.28842   0.29292   0.29851   0.31306   0.35813
 Alpha virt. eigenvalues --    0.36348   0.38122   0.39226   0.41162   0.41438
 Alpha virt. eigenvalues --    0.41957   0.42261   0.43002   0.43625   0.44297
 Alpha virt. eigenvalues --    0.44854   0.44946   0.45970   0.46090   0.47945
 Alpha virt. eigenvalues --    0.48559   0.48881   0.49049   0.50440   0.51142
 Alpha virt. eigenvalues --    0.51523   0.51580   0.52115   0.52771   0.53986
 Alpha virt. eigenvalues --    0.54106   0.54588   0.55696   0.55759   0.57474
 Alpha virt. eigenvalues --    0.58222   0.58799   0.61421   0.62149   0.62337
 Alpha virt. eigenvalues --    0.63127   0.63539   0.64881   0.65142   0.67223
 Alpha virt. eigenvalues --    0.70401   0.70619   0.70998   0.72344   0.72831
 Alpha virt. eigenvalues --    0.75762   0.75926   0.76233   0.76850   0.77057
 Alpha virt. eigenvalues --    0.77749   0.77800   0.78197   0.80041   0.80404
 Alpha virt. eigenvalues --    0.81205   0.81626   0.82102   0.82960   0.85113
 Alpha virt. eigenvalues --    0.87073   0.88154   0.88213   0.89301   0.90415
 Alpha virt. eigenvalues --    0.90945   0.91325   0.93116   0.94639   0.96451
 Alpha virt. eigenvalues --    0.96643   1.00449   1.01281   1.01626   1.02636
 Alpha virt. eigenvalues --    1.03143   1.03843   1.04655   1.05528   1.08739
 Alpha virt. eigenvalues --    1.19663   1.23309   1.24058   1.25279   1.27974
 Alpha virt. eigenvalues --    1.29534   1.31899   1.34109   1.35641   1.35959
 Alpha virt. eigenvalues --    1.39258   1.40188   1.40818   1.42908   1.43338
 Alpha virt. eigenvalues --    1.43469   1.45123   1.45229   1.46396   1.46713
 Alpha virt. eigenvalues --    1.47598   1.47840   1.51681   1.53602   1.55697
 Alpha virt. eigenvalues --    1.55877   1.56202   1.56514   1.57703   1.61354
 Alpha virt. eigenvalues --    1.63325   1.63707   1.63881   1.66054   1.68185
 Alpha virt. eigenvalues --    1.68425   1.68652   1.69722   1.74229   1.75969
 Alpha virt. eigenvalues --    1.77120   1.77994   1.79917   1.80010   1.80492
 Alpha virt. eigenvalues --    1.83154   1.83173   1.83564   1.83707   1.84172
 Alpha virt. eigenvalues --    1.84240   1.85821   1.85950   1.88167   1.91433
 Alpha virt. eigenvalues --    1.91954   1.94133   1.95215   1.97572   1.97960
 Alpha virt. eigenvalues --    1.99556   2.02428   2.04266   2.07407   2.11729
 Alpha virt. eigenvalues --    2.12007   2.13970   2.15175   2.18848   2.21186
 Alpha virt. eigenvalues --    2.22565   2.28519   2.29975   2.34581   2.35029
 Alpha virt. eigenvalues --    2.36143   2.38910   2.39909   2.42253   2.44017
 Alpha virt. eigenvalues --    2.46322   2.46790   2.49130   2.52770   2.53789
 Alpha virt. eigenvalues --    2.54220   2.56852   2.57800   2.58262   2.59629
 Alpha virt. eigenvalues --    2.59738   2.61640   2.61985   2.63451   2.63765
 Alpha virt. eigenvalues --    2.64689   2.64987   2.65167   2.65193   2.67900
 Alpha virt. eigenvalues --    2.68654   2.70907   2.71396   2.73335   2.74815
 Alpha virt. eigenvalues --    2.76267   2.78592   2.79643   2.82638   2.82993
 Alpha virt. eigenvalues --    2.84645   2.86269   2.92080   2.96916   2.99423
 Alpha virt. eigenvalues --    2.99898   3.05347   3.10737   3.11137   3.12581
 Alpha virt. eigenvalues --    3.20986   3.23740   3.26425   3.28031   3.30572
 Alpha virt. eigenvalues --    3.32336   3.33382   3.43370   3.45675   3.46112
 Alpha virt. eigenvalues --    3.48144   3.49824   3.56386   3.65793   3.66975
 Alpha virt. eigenvalues --    3.67380   3.94520   3.94752   3.95578   3.96353
 Alpha virt. eigenvalues --    4.04257   4.06939   4.07300   4.12519   4.35595
 Alpha virt. eigenvalues --    4.61461   4.69501   4.71270  23.45438  23.60895
 Alpha virt. eigenvalues --   23.82000  23.85760  23.87710  23.89158  23.90472
 Alpha virt. eigenvalues --   23.92223  23.97403  23.98803  23.99041  23.99749
 Alpha virt. eigenvalues --   24.10052  24.10216
          Condensed to atoms (all electrons):
               1          2          3          4          5          6
     1  C    8.535461   0.346097  -0.551971   1.942121  -0.025563  -0.093485
     2  C    0.346097   7.082432   0.352864  -1.036040  -0.020736  -0.014190
     3  C   -0.551971   0.352864   6.575711   0.724830  -0.121409   0.016666
     4  C    1.942121  -1.036040   0.724830  10.925034  -0.313196  -0.122812
     5  C   -0.025563  -0.020736  -0.121409  -0.313196  10.914623   0.736710
     6  C   -0.093485  -0.014190   0.016666  -0.122812   0.736710   6.578843
     7  C   -0.019603   0.002022  -0.014112  -0.019824  -1.046582   0.355827
     8  C    0.399968  -0.021735  -0.093337  -0.018203   1.923661  -0.544991
     9  C   -1.171055  -0.783295   0.295136  -0.229164  -0.243294   0.293253
    10  C   -1.258012   0.238816  -0.343863  -2.542058  -2.542388  -0.350764
    11  C    0.262885  -0.909602   1.029470  -0.360107  -1.518149  -0.165114
    12  C   -1.987298   1.315346  -1.379927  -1.491146  -0.297654  -0.203082
    13  C    0.187367  -0.236200  -0.162899  -1.519424  -0.351903   1.029028
    14  C   -1.058016  -0.194910  -0.203427  -0.304118  -1.458627  -1.392726
    15  H    0.366352  -0.105317  -0.001025   0.027225   0.005664   0.001097
    16  H   -0.019281   0.379042  -0.017545   0.013664  -0.001517  -0.000323
    17  H   -0.024021  -0.017490   0.376869  -0.066983   0.000226   0.000394
    18  H    0.049162   0.004154  -0.086718   0.455137   0.007177  -0.005023
    19  H   -0.046661  -0.007916   0.051579  -0.073061  -0.072122   0.051631
    20  H    0.007155   0.001984  -0.004994   0.007274   0.455629  -0.086114
    21  H   -0.001296  -0.000392   0.000392   0.000215  -0.066972   0.376975
    22  H    0.000659   0.000356  -0.000321  -0.001508   0.013404  -0.017230
    23  H    0.005670  -0.002624   0.001092   0.005676   0.027266  -0.000944
    24  H    0.028306   0.015271  -0.001528  -0.012989  -0.012046  -0.001811
    25  H    0.036061   0.013379  -0.001417  -0.012016  -0.012792  -0.001049
               7          8          9         10         11         12
     1  C   -0.019603   0.399968  -1.171055  -1.258012   0.262885  -1.987298
     2  C    0.002022  -0.021735  -0.783295   0.238816  -0.909602   1.315346
     3  C   -0.014112  -0.093337   0.295136  -0.343863   1.029470  -1.379927
     4  C   -0.019824  -0.018203  -0.229164  -2.542058  -0.360107  -1.491146
     5  C   -1.046582   1.923661  -0.243294  -2.542388  -1.518149  -0.297654
     6  C    0.355827  -0.544991   0.293253  -0.350764  -0.165114  -0.203082
     7  C    7.104095   0.344578  -0.789664   0.243024  -0.245040  -0.197546
     8  C    0.344578   8.539276  -1.189875  -1.257747   0.177815  -1.071572
     9  C   -0.789664  -1.189875   9.520201   0.257114   1.625167  -1.915230
    10  C    0.243024  -1.257747   0.257114   9.134901  -0.431675   2.367145
    11  C   -0.245040   0.177815   1.625167  -0.431675  14.540653  -3.723909
    12  C   -0.197546  -1.071572  -1.915230   2.367145  -3.723909  15.925985
    13  C   -0.915961   0.291992   1.638644  -0.431312   1.126716  -4.805571
    14  C    1.322856  -1.967867  -1.903479   2.358145  -4.825216   3.002208
    15  H   -0.002679   0.005719   0.091469  -0.009668  -0.029655  -0.024791
    16  H    0.000361   0.000718   0.003658  -0.009479   0.026460  -0.032771
    17  H   -0.000394  -0.001312  -0.005493   0.020301  -0.026665   0.089648
    18  H    0.001984   0.007266  -0.024925   0.015170  -0.010628  -0.050974
    19  H   -0.007869  -0.046681   0.075152   0.422252   0.080874  -0.066421
    20  H    0.003685   0.049078  -0.025046   0.014820  -0.012314  -0.012746
    21  H   -0.017177  -0.024322  -0.005509   0.020342  -0.006221   0.005166
    22  H    0.379486  -0.020244   0.003284  -0.009337   0.002929  -0.008896
    23  H   -0.105924   0.365531   0.091102  -0.009683   0.001510   0.006517
    24  H    0.014395   0.026323   0.361769   0.005770   0.009713  -0.052648
    25  H    0.014453   0.038807   0.352291   0.005345   0.017128  -0.067540
              13         14         15         16         17         18
     1  C    0.187367  -1.058016   0.366352  -0.019281  -0.024021   0.049162
     2  C   -0.236200  -0.194910  -0.105317   0.379042  -0.017490   0.004154
     3  C   -0.162899  -0.203427  -0.001025  -0.017545   0.376869  -0.086718
     4  C   -1.519424  -0.304118   0.027225   0.013664  -0.066983   0.455137
     5  C   -0.351903  -1.458627   0.005664  -0.001517   0.000226   0.007177
     6  C    1.029028  -1.392726   0.001097  -0.000323   0.000394  -0.005023
     7  C   -0.915961   1.322856  -0.002679   0.000361  -0.000394   0.001984
     8  C    0.291992  -1.967867   0.005719   0.000718  -0.001312   0.007266
     9  C    1.638644  -1.903479   0.091469   0.003658  -0.005493  -0.024925
    10  C   -0.431312   2.358145  -0.009668  -0.009479   0.020301   0.015170
    11  C    1.126716  -4.825216  -0.029655   0.026460  -0.026665  -0.010628
    12  C   -4.805571   3.002208  -0.024791  -0.032771   0.089648  -0.050974
    13  C   14.473752  -3.737665   0.001401   0.002959  -0.006127  -0.012171
    14  C   -3.737665  15.895266   0.006440  -0.008972   0.005149  -0.012443
    15  H    0.001401   0.006440   0.439280  -0.009024   0.001500   0.000152
    16  H    0.002959  -0.008972  -0.009024   0.419630  -0.006716   0.001944
    17  H   -0.006127   0.005149   0.001500  -0.006716   0.423103  -0.010323
    18  H   -0.012171  -0.012443   0.000152   0.001944  -0.010323   0.453646
    19  H    0.081444  -0.066772   0.000314  -0.000550   0.001443  -0.006357
    20  H   -0.010447  -0.050667  -0.000115   0.000015  -0.000144   0.001283
    21  H   -0.027089   0.090153   0.000014  -0.000007   0.000011  -0.000145
    22  H    0.026035  -0.031515  -0.000127   0.000007  -0.000007   0.000015
    23  H   -0.029037  -0.024190   0.000574  -0.000127   0.000015  -0.000116
    24  H    0.010429  -0.053880  -0.001090   0.000663  -0.000158   0.000160
    25  H    0.017047  -0.066287  -0.000745   0.000587  -0.000128   0.000202
              19         20         21         22         23         24
     1  C   -0.046661   0.007155  -0.001296   0.000659   0.005670   0.028306
     2  C   -0.007916   0.001984  -0.000392   0.000356  -0.002624   0.015271
     3  C    0.051579  -0.004994   0.000392  -0.000321   0.001092  -0.001528
     4  C   -0.073061   0.007274   0.000215  -0.001508   0.005676  -0.012989
     5  C   -0.072122   0.455629  -0.066972   0.013404   0.027266  -0.012046
     6  C    0.051631  -0.086114   0.376975  -0.017230  -0.000944  -0.001811
     7  C   -0.007869   0.003685  -0.017177   0.379486  -0.105924   0.014395
     8  C   -0.046681   0.049078  -0.024322  -0.020244   0.365531   0.026323
     9  C    0.075152  -0.025046  -0.005509   0.003284   0.091102   0.361769
    10  C    0.422252   0.014820   0.020342  -0.009337  -0.009683   0.005770
    11  C    0.080874  -0.012314  -0.006221   0.002929   0.001510   0.009713
    12  C   -0.066421  -0.012746   0.005166  -0.008896   0.006517  -0.052648
    13  C    0.081444  -0.010447  -0.027089   0.026035  -0.029037   0.010429
    14  C   -0.066772  -0.050667   0.090153  -0.031515  -0.024190  -0.053880
    15  H    0.000314  -0.000115   0.000014  -0.000127   0.000574  -0.001090
    16  H   -0.000550   0.000015  -0.000007   0.000007  -0.000127   0.000663
    17  H    0.001443  -0.000144   0.000011  -0.000007   0.000015  -0.000158
    18  H   -0.006357   0.001283  -0.000145   0.000015  -0.000116   0.000160
    19  H    0.443903  -0.006318   0.001448  -0.000552   0.000307   0.000608
    20  H   -0.006318   0.453586  -0.010390   0.001925   0.000160   0.000179
    21  H    0.001448  -0.010390   0.423335  -0.006739   0.001505  -0.000167
    22  H   -0.000552   0.001925  -0.006739   0.419653  -0.009007   0.000697
    23  H    0.000307   0.000160   0.001505  -0.009007   0.439453  -0.001185
    24  H    0.000608   0.000179  -0.000167   0.000697  -0.001185   0.493238
    25  H    0.000606   0.000180  -0.000119   0.000555  -0.000638  -0.079364
              25
     1  C    0.036061
     2  C    0.013379
     3  C   -0.001417
     4  C   -0.012016
     5  C   -0.012792
     6  C   -0.001049
     7  C    0.014453
     8  C    0.038807
     9  C    0.352291
    10  C    0.005345
    11  C    0.017128
    12  C   -0.067540
    13  C    0.017047
    14  C   -0.066287
    15  H   -0.000745
    16  H    0.000587
    17  H   -0.000128
    18  H    0.000202
    19  H    0.000606
    20  H    0.000180
    21  H   -0.000119
    22  H    0.000555
    23  H   -0.000638
    24  H   -0.079364
    25  H    0.493201
 Mulliken charges:
               1
     1  C    0.088995
     2  C   -0.401315
     3  C   -0.440121
     4  C    0.021472
     5  C    0.020591
     6  C   -0.440768
     7  C   -0.404392
     8  C    0.087151
     9  C   -0.322212
    10  C    0.092843
    11  C   -0.637027
    12  C    0.677707
    13  C   -0.641009
    14  C    0.680561
    15  H    0.237037
    16  H    0.256603
    17  H    0.247301
    18  H    0.222368
    19  H    0.189720
    20  H    0.222341
    21  H    0.246985
    22  H    0.256474
    23  H    0.237096
    24  H    0.249344
    25  H    0.252252
 Sum of Mulliken charges =   1.00000
 Mulliken charges with hydrogens summed into heavy atoms:
               1
     1  C    0.326032
     2  C   -0.144712
     3  C   -0.192819
     4  C    0.243841
     5  C    0.242933
     6  C   -0.193782
     7  C   -0.147918
     8  C    0.324247
     9  C    0.179384
    10  C    0.282563
    11  C   -0.637027
    12  C    0.677707
    13  C   -0.641009
    14  C    0.680561
 Electronic spatial extent (au):  <R**2>=           2859.8417
 Charge=              1.0000 electrons
 Dipole moment (field-independent basis, Debye):
    X=             -0.0053    Y=              0.1894    Z=              0.0005  Tot=              0.1895
 Quadrupole moment (field-independent basis, Debye-Ang):
   XX=            -31.0292   YY=            -56.2619   ZZ=            -84.1742
   XY=             -0.0030   XZ=             -0.0049   YZ=              0.0489
 Traceless Quadrupole moment (field-independent basis, Debye-Ang):
   XX=             26.1259   YY=              0.8932   ZZ=            -27.0191
   XY=             -0.0030   XZ=             -0.0049   YZ=              0.0489
 Octapole moment (field-independent basis, Debye-Ang**2):
  XXX=             -0.2200  YYY=              5.2096  ZZZ=             -0.0097  XYY=              0.0022
  XXY=             -4.8527  XXZ=              0.0864  XZZ=              0.0263  YZZ=             -3.0869
  YYZ=              0.0502  XYZ=             -0.0247
 Hexadecapole moment (field-independent basis, Debye-Ang**3):
 XXXX=          -2124.0239 YYYY=           -609.2716 ZZZZ=            -99.4411 XXXY=             -0.1244
 XXXZ=             -0.1394 YYYX=              0.0515 YYYZ=              0.5502 ZZZX=             -0.0065
 ZZZY=              0.0159 XXYY=           -508.3989 XXZZ=           -591.8485 YYZZ=           -145.7461
 XXYZ=              0.5164 YYXZ=             -0.0002 ZZXY=             -0.0025
 N-N= 7.807316649620D+02 E-N=-2.797778786612D+03  KE= 5.374765649858D+02
 Unable to Open any file for archive entry.
 1\1\GINC-GADI-CPU-CLX-0113\SP\RM062X TD-FC\6-311++G(d,p)\C14H11(1+)\TS
 1578\28-Jul-2022\0\\#n M062X/6-311++G(d,p) TD(NStates=1) EmpiricalDisp
 ersion=GD3 SP\\SP_-75\\1,1\C,0,0.00495,2.492955,1.360431\C,0,0.007275,
 3.705383,0.671989\C,0,0.0017,3.691061,-0.71383\C,0,-0.0079,2.467906,-1
 .407538\C,0,-0.0077,-2.467506,-1.407538\C,0,0.0029,-3.689061,-0.71383\
 C,0,0.009175,-3.704683,0.671989\C,0,0.00875,-2.491755,1.360431\C,0,0.0
 04425,-0.0044,1.453369\C,0,-0.0122,0.0002,-1.429189\C,0,-0.001975,1.25
 818,0.677065\C,0,-0.0046,1.237771,-0.730804\C,0,-0.001675,-1.25828,0.6
 77065\C,0,-0.0054,-1.238371,-0.730804\H,0,-0.0001,2.488496,2.443647\H,
 0,0.007175,4.640378,1.211689\H,0,-0.00175,4.610287,-1.272349\H,0,-0.00
 335,2.472125,-2.490059\H,0,-0.01125,0.0001,-2.510266\H,0,-0.00395,-2.4
 71825,-2.490059\H,0,-0.00115,-4.607787,-1.272349\H,0,0.009475,-4.63887
 8,1.211689\H,0,0.0043,-2.487196,2.443647\H,0,-0.843585,-0.001,2.146887
 \H,0,0.875585,-0.001,2.144687\\Version=ES64L-G16RevC.01\State=1-A\HF=-
 539.7597457\RMSD=4.513e-09\PG=C01 [X(C14H11)]\\@
 The archive entry for this job was punched.


 ADAM SMITH SAID, "THE REAL PRICE OF ANYTHING IS THE TOIL AND TROUBLE
 OF ACQUIRING IT."  BUT IN ALL UNDERTAKINGS WITH NATURE WE SHOULD FIRST
 READ CAREFULLY THE SMALL PRINT IN THE CONTRACT. THIS MIGHT DISCLOSE
 THAT THE REAL PRICE IS TO BE PAID BY THOSE WHO INHERIT THE DEPLETION
 AND DESPOILATION THAT FOLLOWS.
                               -- E. R. HARRISON IN "COSMOLOGY" (1980)
 Job cpu time:       0 days  1 hours 19 minutes 53.3 seconds.
 Elapsed time:       0 days  0 hours  1 minutes 40.1 seconds.
 File lengths (MBytes):  RWF=    460 Int=      0 D2E=      0 Chk=     15 Scr=      1
 Normal termination of Gaussian 16 at Thu Jul 28 14:03:40 2022.
