 Entering Gaussian System, Link 0=g16
 Initial command:
 /apps/gaussian/g16c01/g16/l1.exe "/jobfs/53002009.gadi-pbs/Gau-737694.inp" -scrdir="/jobfs/53002009.gadi-pbs/"
 Entering Link 1 = /apps/gaussian/g16c01/g16/l1.exe PID=    737695.
  
 Copyright (c) 1988-2019, Gaussian, Inc.  All Rights Reserved.
  
 This is part of the Gaussian(R) 16 program.  It is based on
 the Gaussian(R) 09 system (copyright 2009, Gaussian, Inc.),
 the Gaussian(R) 03 system (copyright 2003, Gaussian, Inc.),
 the Gaussian(R) 98 system (copyright 1998, Gaussian, Inc.),
 the Gaussian(R) 94 system (copyright 1995, Gaussian, Inc.),
 the Gaussian 92(TM) system (copyright 1992, Gaussian, Inc.),
 the Gaussian 90(TM) system (copyright 1990, Gaussian, Inc.),
 the Gaussian 88(TM) system (copyright 1988, Gaussian, Inc.),
 the Gaussian 86(TM) system (copyright 1986, Carnegie Mellon
 University), and the Gaussian 82(TM) system (copyright 1983,
 Carnegie Mellon University). Gaussian is a federally registered
 trademark of Gaussian, Inc.
  
 This software contains proprietary and confidential information,
 including trade secrets, belonging to Gaussian, Inc.
  
 This software is provided under written license and may be
 used, copied, transmitted, or stored only in accord with that
 written license.
  
 The following legend is applicable only to US Government
 contracts under FAR:
  
                    RESTRICTED RIGHTS LEGEND
  
 Use, reproduction and disclosure by the US Government is
 subject to restrictions as set forth in subparagraphs (a)
 and (c) of the Commercial Computer Software - Restricted
 Rights clause in FAR 52.227-19.
  
 Gaussian, Inc.
 340 Quinnipiac St., Bldg. 40, Wallingford CT 06492
  
  
 ---------------------------------------------------------------
 Warning -- This program may not be used in any manner that
 competes with the business of Gaussian, Inc. or will provide
 assistance to any competitor of Gaussian, Inc.  The licensee
 of this program is prohibited from giving any competitor of
 Gaussian, Inc. access to this program.  By using this program,
 the user acknowledges that Gaussian, Inc. is engaged in the
 business of creating and licensing software in the field of
 computational chemistry and represents and warrants to the
 licensee that it is not a competitor of Gaussian, Inc. and that
 it will not use this program in any manner prohibited above.
 ---------------------------------------------------------------
  

 Cite this work as:
 Gaussian 16, Revision C.01,
 M. J. Frisch, G. W. Trucks, H. B. Schlegel, G. E. Scuseria, 
 M. A. Robb, J. R. Cheeseman, G. Scalmani, V. Barone, 
 G. A. Petersson, H. Nakatsuji, X. Li, M. Caricato, A. V. Marenich, 
 J. Bloino, B. G. Janesko, R. Gomperts, B. Mennucci, H. P. Hratchian, 
 J. V. Ortiz, A. F. Izmaylov, J. L. Sonnenberg, D. Williams-Young, 
 F. Ding, F. Lipparini, F. Egidi, J. Goings, B. Peng, A. Petrone, 
 T. Henderson, D. Ranasinghe, V. G. Zakrzewski, J. Gao, N. Rega, 
 G. Zheng, W. Liang, M. Hada, M. Ehara, K. Toyota, R. Fukuda, 
 J. Hasegawa, M. Ishida, T. Nakajima, Y. Honda, O. Kitao, H. Nakai, 
 T. Vreven, K. Throssell, J. A. Montgomery, Jr., J. E. Peralta, 
 F. Ogliaro, M. J. Bearpark, J. J. Heyd, E. N. Brothers, K. N. Kudin, 
 V. N. Staroverov, T. A. Keith, R. Kobayashi, J. Normand, 
 K. Raghavachari, A. P. Rendell, J. C. Burant, S. S. Iyengar, 
 J. Tomasi, M. Cossi, J. M. Millam, M. Klene, C. Adamo, R. Cammi, 
 J. W. Ochterski, R. L. Martin, K. Morokuma, O. Farkas, 
 J. B. Foresman, and D. J. Fox, Gaussian, Inc., Wallingford CT, 2019.
 
 ******************************************
 Gaussian 16:  ES64L-G16RevC.01  3-Jul-2019
                28-Jul-2022 
 ******************************************
 %NProcShared=48
 Will use up to   48 processors via shared memory.
 %mem = 190GB
 ---------------------------------------------------------------
 #n M062X/6-311++G(d,p) TD(NStates=1) EmpiricalDispersion=GD3 SP
 ---------------------------------------------------------------
 1/38=1,172=1/1;
 2/12=2,17=6,18=5,40=1/2;
 3/5=4,6=6,7=1111,11=9,25=1,30=1,74=-55,124=31/1,2,3,8;
 4//1;
 5/5=2,38=5/2;
 8/6=1,10=2,108=1/1;
 9/41=1,42=1,70=2/14;
 6/7=2,8=2,9=2,10=2/1;
 99/5=1,9=1/99;
 ------
 SP_-75
 ------
 Symbolic Z-matrix:
 Charge =  1 Multiplicity = 1
 C                     0.01275   2.49236   1.36043 
 C                     0.01597   3.70873   0.67199 
 C                     0.0043    3.69676  -0.71383 
 C                    -0.01565   2.47236  -1.40754 
 C                    -0.01555  -2.47216  -1.40754 
 C                     0.0049   -3.69576  -0.71383 
 C                     0.01693  -3.70838   0.67199 
 C                     0.01465  -2.49176   1.36043 
 C                     0.00878  -0.0022    1.45337 
 C                    -0.0244    0.0001   -1.42919 
 C                    -0.00373   1.25438   0.67707 
 C                    -0.0098    1.23852  -0.7308 
 C                    -0.00358  -1.25443   0.67707 
 C                    -0.0102   -1.23882  -0.7308 
 H                     0.0031    2.48795   2.44365 
 H                     0.01608   4.64288   1.21169 
 H                    -0.00305   4.60944  -1.27235 
 H                    -0.00715   2.47648  -2.49006 
 H                    -0.0225    0.00005  -2.51027 
 H                    -0.00745  -2.47633  -2.49006 
 H                    -0.00275  -4.60819  -1.27235 
 H                     0.01723  -4.64213   1.21169 
 H                     0.0053   -2.4873    2.44365 
 H                    -0.82759  -0.0005    2.14634 
 H                     0.89159  -0.0005    2.14524 
 
                          Input orientation:                          
 ---------------------------------------------------------------------
 Center     Atomic      Atomic             Coordinates (Angstroms)
 Number     Number       Type             X           Y           Z
 ---------------------------------------------------------------------
      1          6           0        0.012750    2.492355    1.360431
      2          6           0        0.015975    3.708733    0.671989
      3          6           0        0.004300    3.696761   -0.713830
      4          6           0       -0.015650    2.472356   -1.407538
      5          6           0       -0.015550   -2.472156   -1.407538
      6          6           0        0.004900   -3.695761   -0.713830
      7          6           0        0.016925   -3.708383    0.671989
      8          6           0        0.014650   -2.491755    1.360431
      9          6           0        0.008775   -0.002200    1.453369
     10          6           0       -0.024400    0.000100   -1.429189
     11          6           0       -0.003725    1.254380    0.677065
     12          6           0       -0.009800    1.238521   -0.730804
     13          6           0       -0.003575   -1.254430    0.677065
     14          6           0       -0.010200   -1.238821   -0.730804
     15          1           0        0.003100    2.487946    2.443647
     16          1           0        0.016075    4.642878    1.211689
     17          1           0       -0.003050    4.609437   -1.272349
     18          1           0       -0.007150    2.476475   -2.490059
     19          1           0       -0.022500    0.000050   -2.510266
     20          1           0       -0.007450   -2.476325   -2.490059
     21          1           0       -0.002750   -4.608187   -1.272349
     22          1           0        0.017225   -4.642128    1.211689
     23          1           0        0.005300   -2.487296    2.443647
     24          1           0       -0.827585   -0.000500    2.146337
     25          1           0        0.891585   -0.000500    2.145237
 ---------------------------------------------------------------------
                    Distance matrix (angstroms):
                    1          2          3          4          5
     1  C    0.000000
     2  C    1.397690   0.000000
     3  C    2.398588   1.385920   0.000000
     4  C    2.768187   2.419517   1.407408   0.000000
     5  C    5.684085   6.521412   6.207831   4.944512   0.000000
     6  C    6.526515   7.533070   7.392522   6.207038   1.406719
     7  C    6.238840   7.417116   7.533712   6.521275   2.419451
     8  C    4.984110   6.238590   6.526898   5.683746   2.768203
     9  C    2.496289   3.792312   4.287083   3.782699   3.779691
    10  C    3.740948   4.262691   3.765351   2.472366   2.472367
    11  C    1.414158   2.454437   2.810672   2.414369   4.269986
    12  C    2.438416   2.840852   2.458339   1.407250   3.771886
    13  C    3.808629   4.963204   5.142854   4.270205   2.414243
    14  C    4.277320   5.142646   4.935632   3.772378   1.406809
    15  H    1.083268   2.151571   3.380961   3.851262   6.279696
    16  H    2.155663   1.078843   2.145437   3.401841   7.581890
    17  H    3.378434   2.142914   1.070035   2.141390   7.082894
    18  H    3.850574   3.393750   2.155045   1.082562   5.065656
    19  H    4.603816   4.886978   4.110179   2.707093   2.707002
    20  H    6.286053   6.946513   6.423560   5.065705   1.082559
    21  H    7.572943   8.541192   8.323710   7.081845   2.140343
    22  H    7.136035   8.368283   8.558321   7.581379   3.401500
    23  H    5.096110   6.444351   6.943502   6.279348   3.851271
    24  H    2.745567   4.079670   4.747876   4.405029   4.404374
    25  H    2.757281   4.086020   4.757234   4.422703   4.422012
                    6          7          8          9         10
     6  C    0.000000
     7  C    1.385929   0.000000
     8  C    2.398392   1.397906   0.000000
     9  C    4.282424   3.787666   2.491296   0.000000
    10  C    3.764570   4.262570   3.740701   2.882750   0.000000
    11  C    5.141844   4.962809   3.807999   1.477091   2.451520
    12  C    4.934333   5.142023   4.276543   2.512040   1.421844
    13  C    2.809761   2.454044   1.413610   1.473391   2.451649
    14  C    2.457045   2.840299   2.437976   2.510021   1.422276
    15  H    6.943191   6.444646   5.096166   2.679834   4.603150
    16  H    8.558075   8.368682   7.136183   4.651367   5.341466
    17  H    8.323961   8.542071   7.573557   5.356946   4.612054
    18  H    6.422743   6.946337   6.285703   4.657758   2.694100
    19  H    4.109374   4.886796   4.603560   3.963759   1.081079
    20  H    2.154569   3.393687   3.850584   4.655339   2.694144
    21  H    1.069824   2.142542   3.378035   5.352083   4.611006
    22  H    2.145550   1.078497   2.155513   4.646226   5.340997
    23  H    3.380836   2.151734   1.083266   2.675138   4.602921
    24  H    4.746424   4.078639   2.744697   1.086143   3.664627
    25  H    4.755568   4.084591   2.755229   1.121623   3.689925
                   11         12         13         14         15
    11  C    0.000000
    12  C    1.407971   0.000000
    13  C    2.508810   2.863030   0.000000
    14  C    2.863248   2.477342   1.407971   0.000000
    15  H    2.154656   3.411505   4.138386   4.895519   0.000000
    16  H    3.430471   3.919642   5.921524   6.194219   2.482261
    17  H    3.880286   3.414146   6.179414   5.873282   4.278947
    18  H    3.394732   2.151166   4.893908   4.110768   4.933730
    19  H    3.425314   2.168054   3.425370   2.168280   5.543603
    20  H    4.893756   4.110361   3.394660   2.150907   6.998968
    21  H    6.178180   5.871739   3.879162   3.412617   8.010229
    22  H    5.920732   6.193225   3.429687   3.918741   7.235736
    23  H    4.137757   4.894801   2.154263   3.411168   4.975242
    24  H    2.100531   3.237574   2.100022   3.237205   2.640226
    25  H    2.128810   3.258724   2.128187   3.258568   2.659101
                   16         17         18         19         20
    16  H    0.000000
    17  H    2.484337   0.000000
    18  H    4.289147   2.456087   0.000000
    19  H    5.950654   4.772763   2.476555   0.000000
    20  H    8.024123   7.189636   4.952800   2.476503   0.000000
    21  H    9.578779   9.217624   7.188551   4.771653   2.455132
    22  H    9.285006   9.579265   8.023593   5.950155   4.288852
    23  H    7.235829   8.010762   6.998616   5.543367   4.933735
    24  H    4.811059   5.798171   5.320215   4.725687   5.319633
    25  H    4.816533   5.807907   5.331894   4.744392   5.331411
                   21         22         23         24         25
    21  H    0.000000
    22  H    2.484350   0.000000
    23  H    4.278653   2.482169   0.000000
    24  H    5.796425   4.809572   2.639365   0.000000
    25  H    5.806075   4.814637   2.656822   1.719170   0.000000
 Stoichiometry    C14H11(1+)
 Framework group  C1[X(C14H11)]
 Deg. of freedom    69
 Full point group                 C1      NOp   1
 Largest Abelian subgroup         C1      NOp   1
 Largest concise Abelian subgroup C1      NOp   1
                         Standard orientation:                         
 ---------------------------------------------------------------------
 Center     Atomic      Atomic             Coordinates (Angstroms)
 Number     Number       Type             X           Y           Z
 ---------------------------------------------------------------------
      1          6           0       -2.492295   -1.360595    0.000711
      2          6           0       -3.708702   -0.672261    0.010135
      3          6           0       -3.696790    0.713608    0.010647
      4          6           0       -2.472417    1.407517   -0.003346
      5          6           0        2.472095    1.407731   -0.003832
      6          6           0        3.695732    0.713923    0.010371
      7          6           0        3.708414   -0.671948    0.010206
      8          6           0        2.491815   -1.360396    0.002020
      9          6           0        0.002263   -1.453387   -0.004377
     10          6           0       -0.000163    1.429352   -0.012198
     11          6           0       -1.254351   -0.677057   -0.009900
     12          6           0       -1.238553    0.730811   -0.003594
     13          6           0        1.254459   -0.676950   -0.010047
     14          6           0        1.238789    0.730922   -0.004288
     15          1           0       -2.487842   -2.443684   -0.018466
     16          1           0       -4.642824   -1.211982    0.005599
     17          1           0       -4.609491    1.272130    0.008318
     18          1           0       -2.476581    2.489921    0.014675
     19          1           0       -0.000158    2.510370   -0.000790
     20          1           0        2.476219    2.490139    0.013788
     21          1           0        4.608133    1.272527    0.007525
     22          1           0        4.642182   -1.211589    0.005649
     23          1           0        2.487400   -2.443488   -0.016856
     24          1           0        0.000493   -2.138972   -0.846799
     25          1           0        0.000697   -2.152992    0.872314
 ---------------------------------------------------------------------
 Rotational constants (GHZ):           2.1359430           0.4429665           0.3676817
 Standard basis: 6-311++G(d,p) (5D, 7F)
 There are   399 symmetry adapted cartesian basis functions of A   symmetry.
 There are   385 symmetry adapted basis functions of A   symmetry.
   385 basis functions,   603 primitive gaussians,   399 cartesian basis functions
    47 alpha electrons       47 beta electrons
       nuclear repulsion energy       780.2604285906 Hartrees.
 NAtoms=   25 NActive=   25 NUniq=   25 SFac= 1.00D+00 NAtFMM=   60 NAOKFM=F Big=F
 Integral buffers will be    131072 words long.
 Regular integral format.
 Two-electron integral symmetry is turned on.
 Nuclear repulsion after empirical dispersion term =      780.2594487676 Hartrees.
 One-electron integrals computed using PRISM.
 NBasis=   385 RedAO= T EigKep=  1.20D-06  NBF=   385
 NBsUse=   379 1.00D-06 EigRej=  8.67D-07 NBFU=   379
 ExpMin= 3.60D-02 ExpMax= 4.56D+03 ExpMxC= 6.82D+02 IAcc=3 IRadAn=         5 AccDes= 0.00D+00
 Harris functional with IExCor= 1009 and IRadAn=       5 diagonalized for initial guess.
 HarFok:  IExCor= 1009 AccDes= 0.00D+00 IRadAn=         5 IDoV= 1 UseB2=F ITyADJ=14
 ICtDFT=  3500011 ScaDFX=  1.000000  1.000000  1.000000  1.000000
 FoFCou: FMM=F IPFlag=           0 FMFlag=      100000 FMFlg1=           0
         NFxFlg=           0 DoJE=T BraDBF=F KetDBF=T FulRan=T
         wScrn=  0.000000 ICntrl=       500 IOpCl=  0 I1Cent=   200000004 NGrid=           0
         NMat0=    1 NMatS0=      1 NMatT0=    0 NMatD0=    1 NMtDS0=    0 NMtDT0=    0
 Petite list used in FoFCou.
 Requested convergence on RMS density matrix=1.00D-08 within 128 cycles.
 Requested convergence on MAX density matrix=1.00D-06.
 Requested convergence on             energy=1.00D-06.
 No special actions if energy rises.
 SCF Done:  E(RM062X) =  -539.758729434     A.U. after   15 cycles
            NFock= 15  Conv=0.46D-08     -V/T= 2.0043
 DoSCS=F DFT=T ScalE2(SS,OS)=  1.000000  1.000000
 ExpMin= 3.60D-02 ExpMax= 4.56D+03 ExpMxC= 6.82D+02 IAcc=3 IRadAn=         5 AccDes= 0.00D+00
 HarFok:  IExCor=  205 AccDes= 0.00D+00 IRadAn=         5 IDoV=-2 UseB2=F ITyADJ=14
 ICtDFT= 12500011 ScaDFX=  1.000000  1.000000  1.000000  1.000000
 Range of M.O.s used for correlation:    15   379
 NBasis=   385 NAE=    47 NBE=    47 NFC=    14 NFV=     0
 NROrb=    365 NOA=    33 NOB=    33 NVA=   332 NVB=   332

 **** Warning!!: The largest alpha MO coefficient is  0.14882773D+03

 Orbital symmetries:
       Occupied  (A) (A) (A) (A) (A) (A) (A) (A) (A) (A) (A) (A)
                 (A) (A) (A) (A) (A) (A) (A) (A) (A) (A) (A) (A)
                 (A) (A) (A) (A) (A) (A) (A) (A) (A) (A) (A) (A)
                 (A) (A) (A) (A) (A) (A) (A) (A) (A) (A) (A)
       Virtual   (A) (A) (A) (A) (A) (A) (A) (A) (A) (A) (A) (A)
                 (A) (A) (A) (A) (A) (A) (A) (A) (A) (A) (A) (A)
                 (A) (A) (A) (A) (A) (A) (A) (A) (A) (A) (A) (A)
                 (A) (A) (A) (A) (A) (A) (A) (A) (A) (A) (A) (A)
                 (A) (A) (A) (A) (A) (A) (A) (A) (A) (A) (A) (A)
                 (A) (A) (A) (A) (A) (A) (A) (A) (A) (A) (A) (A)
                 (A) (A) (A) (A) (A) (A) (A) (A) (A) (A) (A) (A)
                 (A) (A) (A) (A) (A) (A) (A) (A) (A) (A) (A) (A)
                 (A) (A) (A) (A) (A) (A) (A) (A) (A) (A) (A) (A)
                 (A) (A) (A) (A) (A) (A) (A) (A) (A) (A) (A) (A)
                 (A) (A) (A) (A) (A) (A) (A) (A) (A) (A) (A) (A)
                 (A) (A) (A) (A) (A) (A) (A) (A) (A) (A) (A) (A)
                 (A) (A) (A) (A) (A) (A) (A) (A) (A) (A) (A) (A)
                 (A) (A) (A) (A) (A) (A) (A) (A) (A) (A) (A) (A)
                 (A) (A) (A) (A) (A) (A) (A) (A) (A) (A) (A) (A)
                 (A) (A) (A) (A) (A) (A) (A) (A) (A) (A) (A) (A)
                 (A) (A) (A) (A) (A) (A) (A) (A) (A) (A) (A) (A)
                 (A) (A) (A) (A) (A) (A) (A) (A) (A) (A) (A) (A)
                 (A) (A) (A) (A) (A) (A) (A) (A) (A) (A) (A) (A)
                 (A) (A) (A) (A) (A) (A) (A) (A) (A) (A) (A) (A)
                 (A) (A) (A) (A) (A) (A) (A) (A) (A) (A) (A) (A)
                 (A) (A) (A) (A) (A) (A) (A) (A) (A) (A) (A) (A)
                 (A) (A) (A) (A) (A) (A) (A) (A) (A) (A) (A) (A)
                 (A) (A) (A) (A) (A) (A) (A) (A) (A) (A) (A) (A)
                 (A) (A) (A) (A) (A) (A) (A) (A) (A) (A) (A) (A)
                 (A) (A) (A) (A) (A) (A) (A) (A) (A) (A) (A) (A)
                 (A) (A) (A) (A) (A) (A) (A) (A) (A) (A) (A) (A)
                 (A) (A) (A) (A) (A) (A) (A) (A)
     4 initial guesses have been made.
 Convergence on wavefunction:    0.001000000000000
 Iteration     1 Dimension     4 NMult     0 NNew      4
 CISAX will form     4 AO SS matrices at one time.
 Iteration     2 Dimension     6 NMult     4 NNew      2
 Iteration     3 Dimension     8 NMult     6 NNew      2
 Iteration     4 Dimension    10 NMult     8 NNew      2
 Iteration     5 Dimension    12 NMult    10 NNew      2
 Iteration     6 Dimension    14 NMult    12 NNew      2
 ***********************************************************************
 Excited states from <AA,BB:AA,BB> singles matrix:
 ***********************************************************************
 
 Ground to excited state transition densities written to RWF  633
 Ground to excited state transition electric dipole moments (Au):
       state          X           Y           Z        Dip. S.      Osc.
         1         0.0029     -0.6374      0.0039      0.4063      0.0279
 Ground to excited state transition velocity dipole moments (Au):
       state          X           Y           Z        Dip. S.      Osc.
         1        -0.0003      0.0734     -0.0005      0.0054      0.0349
 Ground to excited state transition magnetic dipole moments (Au):
       state          X           Y           Z
         1        -0.0053      0.0002     -0.0000
 Ground to excited state transition velocity quadrupole moments (Au):
       state          XX          YY          ZZ          XY          XZ          YZ
         1         0.3081      0.0325     -0.0096     -0.0004     -0.0001      0.0007
 <0|del|b> * <b|rxdel|0> + <0|del|b> * <b|delr+rdel|0>
 Rotatory Strengths (R) in cgs (10**-40 erg-esu-cm/Gauss)
       state          XX          YY          ZZ    R(velocity)    E-M Angle
         1         0.0761      0.0041      0.0510      0.0437       90.00
 1/2[<0|r|b>*<b|rxdel|0> + (<0|rxdel|b>*<b|r|0>)*]
 Rotatory Strengths (R) in cgs (10**-40 erg-esu-cm/Gauss)
       state          XX          YY          ZZ     R(length)
         1         0.0110      0.1075      0.0001      0.0395
  1/2[<0|del|b>*<b|r|0> + (<0|r|b>*<b|del|0>)*] (Au)
       state          X           Y           Z        Dip. S.   Osc.(frdel)
         1        -0.0000     -0.0468     -0.0000      0.0468      0.0312

 Excitation energies and oscillator strengths:
 
 Excited State   1:      Singlet-A      2.8051 eV  441.99 nm  f=0.0279  <S**2>=0.000
      47 -> 48         0.70427
 This state for optimization and/or second-order correction.
 Total Energy, E(TD-HF/TD-DFT) =  -539.655643003    
 Copying the excited state density for this state as the 1-particle RhoCI density.
 SavETr:  write IOETrn=   770 NScale= 10 NData=  16 NLR=1 NState=    1 LETran=      28.

 **********************************************************************

            Population analysis using the SCF Density.

 **********************************************************************

 Orbital symmetries:
       Occupied  (A) (A) (A) (A) (A) (A) (A) (A) (A) (A) (A) (A)
                 (A) (A) (A) (A) (A) (A) (A) (A) (A) (A) (A) (A)
                 (A) (A) (A) (A) (A) (A) (A) (A) (A) (A) (A) (A)
                 (A) (A) (A) (A) (A) (A) (A) (A) (A) (A) (A)
       Virtual   (A) (A) (A) (A) (A) (A) (A) (A) (A) (A) (A) (A)
                 (A) (A) (A) (A) (A) (A) (A) (A) (A) (A) (A) (A)
                 (A) (A) (A) (A) (A) (A) (A) (A) (A) (A) (A) (A)
                 (A) (A) (A) (A) (A) (A) (A) (A) (A) (A) (A) (A)
                 (A) (A) (A) (A) (A) (A) (A) (A) (A) (A) (A) (A)
                 (A) (A) (A) (A) (A) (A) (A) (A) (A) (A) (A) (A)
                 (A) (A) (A) (A) (A) (A) (A) (A) (A) (A) (A) (A)
                 (A) (A) (A) (A) (A) (A) (A) (A) (A) (A) (A) (A)
                 (A) (A) (A) (A) (A) (A) (A) (A) (A) (A) (A) (A)
                 (A) (A) (A) (A) (A) (A) (A) (A) (A) (A) (A) (A)
                 (A) (A) (A) (A) (A) (A) (A) (A) (A) (A) (A) (A)
                 (A) (A) (A) (A) (A) (A) (A) (A) (A) (A) (A) (A)
                 (A) (A) (A) (A) (A) (A) (A) (A) (A) (A) (A) (A)
                 (A) (A) (A) (A) (A) (A) (A) (A) (A) (A) (A) (A)
                 (A) (A) (A) (A) (A) (A) (A) (A) (A) (A) (A) (A)
                 (A) (A) (A) (A) (A) (A) (A) (A) (A) (A) (A) (A)
                 (A) (A) (A) (A) (A) (A) (A) (A) (A) (A) (A) (A)
                 (A) (A) (A) (A) (A) (A) (A) (A) (A) (A) (A) (A)
                 (A) (A) (A) (A) (A) (A) (A) (A) (A) (A) (A) (A)
                 (A) (A) (A) (A) (A) (A) (A) (A) (A) (A) (A) (A)
                 (A) (A) (A) (A) (A) (A) (A) (A) (A) (A) (A) (A)
                 (A) (A) (A) (A) (A) (A) (A) (A) (A) (A) (A) (A)
                 (A) (A) (A) (A) (A) (A) (A) (A) (A) (A) (A) (A)
                 (A) (A) (A) (A) (A) (A) (A) (A) (A) (A) (A) (A)
                 (A) (A) (A) (A) (A) (A) (A) (A) (A) (A) (A) (A)
                 (A) (A) (A) (A) (A) (A) (A) (A) (A) (A) (A) (A)
                 (A) (A) (A) (A) (A) (A) (A) (A) (A) (A) (A) (A)
                 (A) (A) (A) (A) (A) (A) (A) (A)
 The electronic state is 1-A.
 Alpha  occ. eigenvalues --  -10.77658 -10.73287 -10.73260 -10.72521 -10.72519
 Alpha  occ. eigenvalues --  -10.71481 -10.71466 -10.71070 -10.71065 -10.70982
 Alpha  occ. eigenvalues --  -10.70091 -10.70080 -10.69604 -10.69590  -1.16378
 Alpha  occ. eigenvalues --   -1.12253  -1.06837  -1.05796  -1.01120  -1.00198
 Alpha  occ. eigenvalues --   -0.95704  -0.91074  -0.86409  -0.85866  -0.83806
 Alpha  occ. eigenvalues --   -0.78390  -0.76010  -0.74376  -0.69575  -0.69307
 Alpha  occ. eigenvalues --   -0.68593  -0.68246  -0.68135  -0.64583  -0.64151
 Alpha  occ. eigenvalues --   -0.63168  -0.62001  -0.59921  -0.59522  -0.59145
 Alpha  occ. eigenvalues --   -0.56924  -0.55263  -0.54900  -0.52356  -0.46492
 Alpha  occ. eigenvalues --   -0.46046  -0.44406
 Alpha virt. eigenvalues --   -0.26071  -0.14788  -0.14126  -0.12902  -0.11177
 Alpha virt. eigenvalues --   -0.10081  -0.09214  -0.08004  -0.07932  -0.07469
 Alpha virt. eigenvalues --   -0.07218  -0.07146  -0.05646  -0.05582  -0.05353
 Alpha virt. eigenvalues --   -0.03794  -0.03644  -0.03283  -0.03134  -0.02158
 Alpha virt. eigenvalues --   -0.01359  -0.00912   0.00191   0.00639   0.00700
 Alpha virt. eigenvalues --    0.01044   0.01513   0.01900   0.02204   0.02293
 Alpha virt. eigenvalues --    0.02428   0.02630   0.02719   0.03287   0.03392
 Alpha virt. eigenvalues --    0.04249   0.04500   0.04687   0.04974   0.05356
 Alpha virt. eigenvalues --    0.06022   0.06287   0.06598   0.07037   0.07224
 Alpha virt. eigenvalues --    0.07864   0.08066   0.08356   0.08490   0.08934
 Alpha virt. eigenvalues --    0.09560   0.09574   0.10030   0.10807   0.11010
 Alpha virt. eigenvalues --    0.11117   0.12216   0.12271   0.12883   0.13030
 Alpha virt. eigenvalues --    0.13402   0.13534   0.14027   0.14272   0.16063
 Alpha virt. eigenvalues --    0.16337   0.16556   0.17387   0.17553   0.17693
 Alpha virt. eigenvalues --    0.18097   0.18957   0.19178   0.19595   0.19715
 Alpha virt. eigenvalues --    0.21471   0.21505   0.22709   0.23129   0.23558
 Alpha virt. eigenvalues --    0.23571   0.24550   0.25009   0.26857   0.27499
 Alpha virt. eigenvalues --    0.28834   0.29285   0.29829   0.31235   0.35806
 Alpha virt. eigenvalues --    0.36260   0.38020   0.39171   0.41161   0.41470
 Alpha virt. eigenvalues --    0.41942   0.42328   0.43023   0.43575   0.44271
 Alpha virt. eigenvalues --    0.44759   0.44847   0.45611   0.46067   0.47927
 Alpha virt. eigenvalues --    0.48592   0.48902   0.49063   0.50456   0.51166
 Alpha virt. eigenvalues --    0.51442   0.51454   0.52123   0.52616   0.53999
 Alpha virt. eigenvalues --    0.54117   0.54524   0.55734   0.55760   0.57445
 Alpha virt. eigenvalues --    0.58197   0.58777   0.61393   0.62089   0.62319
 Alpha virt. eigenvalues --    0.63013   0.63594   0.64636   0.65135   0.67109
 Alpha virt. eigenvalues --    0.70414   0.70603   0.70970   0.72234   0.72772
 Alpha virt. eigenvalues --    0.75685   0.75724   0.76184   0.76697   0.76985
 Alpha virt. eigenvalues --    0.77567   0.77730   0.78142   0.80344   0.80407
 Alpha virt. eigenvalues --    0.81177   0.81558   0.82066   0.82885   0.84954
 Alpha virt. eigenvalues --    0.86910   0.87617   0.88080   0.89511   0.90445
 Alpha virt. eigenvalues --    0.90780   0.91413   0.93077   0.94682   0.96407
 Alpha virt. eigenvalues --    0.96680   1.00468   1.01282   1.01568   1.02622
 Alpha virt. eigenvalues --    1.03047   1.03876   1.04523   1.05761   1.08766
 Alpha virt. eigenvalues --    1.19759   1.23333   1.24075   1.25333   1.27966
 Alpha virt. eigenvalues --    1.29348   1.32031   1.33847   1.35486   1.35928
 Alpha virt. eigenvalues --    1.39135   1.40199   1.40632   1.42830   1.43200
 Alpha virt. eigenvalues --    1.43398   1.45043   1.45113   1.46460   1.46756
 Alpha virt. eigenvalues --    1.47572   1.47668   1.51622   1.53592   1.55590
 Alpha virt. eigenvalues --    1.56030   1.56050   1.56416   1.57635   1.61273
 Alpha virt. eigenvalues --    1.63413   1.63890   1.64013   1.65996   1.68056
 Alpha virt. eigenvalues --    1.68480   1.68610   1.69701   1.74061   1.75937
 Alpha virt. eigenvalues --    1.77058   1.77915   1.79682   1.79975   1.80281
 Alpha virt. eigenvalues --    1.83105   1.83162   1.83440   1.83603   1.84073
 Alpha virt. eigenvalues --    1.84300   1.85792   1.85837   1.88119   1.91481
 Alpha virt. eigenvalues --    1.91811   1.94128   1.95239   1.97466   1.97769
 Alpha virt. eigenvalues --    1.99378   2.02402   2.04122   2.07515   2.11659
 Alpha virt. eigenvalues --    2.11921   2.13744   2.15127   2.18619   2.21049
 Alpha virt. eigenvalues --    2.22316   2.28423   2.29758   2.34446   2.35220
 Alpha virt. eigenvalues --    2.36041   2.39087   2.40177   2.42021   2.42927
 Alpha virt. eigenvalues --    2.46117   2.47893   2.48830   2.52642   2.53759
 Alpha virt. eigenvalues --    2.54165   2.56878   2.57774   2.58270   2.59639
 Alpha virt. eigenvalues --    2.59669   2.61661   2.61784   2.63332   2.63782
 Alpha virt. eigenvalues --    2.64490   2.64700   2.65010   2.65217   2.67825
 Alpha virt. eigenvalues --    2.68767   2.70872   2.71360   2.73351   2.74812
 Alpha virt. eigenvalues --    2.76248   2.78402   2.79573   2.82432   2.82922
 Alpha virt. eigenvalues --    2.84413   2.86269   2.92051   2.96699   2.99368
 Alpha virt. eigenvalues --    2.99740   3.05578   3.10361   3.10818   3.12046
 Alpha virt. eigenvalues --    3.20960   3.23634   3.26129   3.27830   3.30372
 Alpha virt. eigenvalues --    3.31813   3.33079   3.43336   3.45235   3.45804
 Alpha virt. eigenvalues --    3.47726   3.49526   3.56271   3.65434   3.67245
 Alpha virt. eigenvalues --    3.67479   3.94452   3.95269   3.95760   3.96695
 Alpha virt. eigenvalues --    4.04454   4.07027   4.07074   4.12472   4.35636
 Alpha virt. eigenvalues --    4.61511   4.69135   4.70860  23.45534  23.61258
 Alpha virt. eigenvalues --   23.81718  23.85961  23.87386  23.89091  23.90447
 Alpha virt. eigenvalues --   23.92198  23.96983  23.98027  23.98184  23.99373
 Alpha virt. eigenvalues --   24.09627  24.09761
          Condensed to atoms (all electrons):
               1          2          3          4          5          6
     1  C    8.426802   0.431485  -0.566157   1.800595  -0.005363  -0.089743
     2  C    0.431485   6.996948   0.357371  -0.940919  -0.029919  -0.014139
     3  C   -0.566157   0.357371   6.571568   0.667869  -0.117407   0.016431
     4  C    1.800595  -0.940919   0.667869  10.650972  -0.203445  -0.117900
     5  C   -0.005363  -0.029919  -0.117407  -0.203445  10.654667   0.674192
     6  C   -0.089743  -0.014139   0.016431  -0.117900   0.674192   6.573048
     7  C   -0.025570   0.004066  -0.014089  -0.029542  -0.948099   0.358962
     8  C    0.392402  -0.026385  -0.089682  -0.002352   1.793994  -0.562677
     9  C   -1.255105  -0.719805   0.289789  -0.306816  -0.309282   0.288918
    10  C   -1.189389   0.210960  -0.341147  -2.452980  -2.453705  -0.343823
    11  C    0.233317  -0.931530   1.062908  -0.484698  -1.558969  -0.153218
    12  C   -1.731394   1.196600  -1.352584  -1.163693  -0.236097  -0.208252
    13  C    0.136103  -0.216590  -0.151765  -1.556702  -0.479287   1.061513
    14  C   -1.035310  -0.201664  -0.208195  -0.235758  -1.156688  -1.358478
    15  H    0.362651  -0.103312  -0.000629   0.026065   0.005596   0.001109
    16  H   -0.020488   0.379591  -0.018031   0.013577  -0.001496  -0.000318
    17  H   -0.021794  -0.019687   0.379296  -0.063956   0.000085   0.000385
    18  H    0.046885   0.005897  -0.089600   0.449141   0.009090  -0.004866
    19  H   -0.046126  -0.008252   0.051984  -0.075216  -0.075022   0.051973
    20  H    0.007261   0.001830  -0.004857   0.009144   0.449655  -0.089325
    21  H   -0.001283  -0.000379   0.000384   0.000078  -0.064008   0.379344
    22  H    0.000648   0.000350  -0.000317  -0.001487   0.013452  -0.017907
    23  H    0.005656  -0.002623   0.001107   0.005586   0.026151  -0.000599
    24  H    0.022742   0.015293  -0.001661  -0.013115  -0.012687  -0.001798
    25  H    0.041114   0.013076  -0.001084  -0.012272  -0.012675  -0.000906
               7          8          9         10         11         12
     1  C   -0.025570   0.392402  -1.255105  -1.189389   0.233317  -1.731394
     2  C    0.004066  -0.026385  -0.719805   0.210960  -0.931530   1.196600
     3  C   -0.014089  -0.089682   0.289789  -0.341147   1.062908  -1.352584
     4  C   -0.029542  -0.002352  -0.306816  -2.452980  -0.484698  -1.163693
     5  C   -0.948099   1.793994  -0.309282  -2.453705  -1.558969  -0.236097
     6  C    0.358962  -0.562677   0.288918  -0.343823  -0.153218  -0.208252
     7  C    7.008858   0.429662  -0.724811   0.213275  -0.220654  -0.202611
     8  C    0.429662   8.431200  -1.262304  -1.189662   0.132109  -1.042519
     9  C   -0.724811  -1.262304   9.300019   0.294303   1.640303  -1.746460
    10  C    0.213275  -1.189662   0.294303   9.095703  -0.410495   2.203110
    11  C   -0.220654   0.132109   1.640303  -0.410495  14.460899  -3.656988
    12  C   -0.202611  -1.042519  -1.746460   2.203110  -3.656988  15.471896
    13  C   -0.934575   0.246774   1.644369  -0.407092   1.239364  -4.766199
    14  C    1.203542  -1.726488  -1.743874   2.201580  -4.776398   2.793565
    15  H   -0.002655   0.005684   0.089134  -0.009606  -0.025564  -0.023326
    16  H    0.000353   0.000678   0.003767  -0.009743   0.026551  -0.031828
    17  H   -0.000380  -0.001291  -0.004748   0.019649  -0.025272   0.084066
    18  H    0.001832   0.007311  -0.025866   0.020069  -0.016729  -0.044110
    19  H   -0.008208  -0.046154   0.074044   0.422839   0.084138  -0.067418
    20  H    0.005628   0.046908  -0.025895   0.019798  -0.012451  -0.010123
    21  H   -0.019541  -0.021986  -0.004756   0.019670  -0.005951   0.004782
    22  H    0.379768  -0.020898   0.003582  -0.009648   0.002784  -0.008748
    23  H   -0.103729   0.362308   0.089092  -0.009634   0.000829   0.006438
    24  H    0.014869   0.021691   0.366892   0.006269   0.006840  -0.046592
    25  H    0.013622   0.042533   0.348463   0.005275   0.019701  -0.072991
              13         14         15         16         17         18
     1  C    0.136103  -1.035310   0.362651  -0.020488  -0.021794   0.046885
     2  C   -0.216590  -0.201664  -0.103312   0.379591  -0.019687   0.005897
     3  C   -0.151765  -0.208195  -0.000629  -0.018031   0.379296  -0.089600
     4  C   -1.556702  -0.235758   0.026065   0.013577  -0.063956   0.449141
     5  C   -0.479287  -1.156688   0.005596  -0.001496   0.000085   0.009090
     6  C    1.061513  -1.358478   0.001109  -0.000318   0.000385  -0.004866
     7  C   -0.934575   1.203542  -0.002655   0.000353  -0.000380   0.001832
     8  C    0.246774  -1.726488   0.005684   0.000678  -0.001291   0.007311
     9  C    1.644369  -1.743874   0.089134   0.003767  -0.004748  -0.025866
    10  C   -0.407092   2.201580  -0.009606  -0.009743   0.019649   0.020069
    11  C    1.239364  -4.776398  -0.025564   0.026551  -0.025272  -0.016729
    12  C   -4.766199   2.793565  -0.023326  -0.031828   0.084066  -0.044110
    13  C   14.423625  -3.662958   0.000745   0.002812  -0.005916  -0.012300
    14  C   -3.662958  15.462741   0.006391  -0.008798   0.004771  -0.009902
    15  H    0.000745   0.006391   0.439730  -0.009013   0.001539   0.000133
    16  H    0.002812  -0.008798  -0.009013   0.419906  -0.006857   0.001957
    17  H   -0.005916   0.004771   0.001539  -0.006857   0.424058  -0.010426
    18  H   -0.012300  -0.009902   0.000133   0.001957  -0.010426   0.453903
    19  H    0.084165  -0.067697   0.000326  -0.000563   0.001464  -0.006405
    20  H   -0.016618  -0.044028  -0.000122   0.000015  -0.000147   0.001307
    21  H   -0.025432   0.084366   0.000016  -0.000007   0.000011  -0.000147
    22  H    0.026305  -0.031197  -0.000127   0.000007  -0.000007   0.000016
    23  H   -0.025266  -0.023179   0.000577  -0.000127   0.000016  -0.000122
    24  H    0.007055  -0.047240  -0.001319   0.000716  -0.000180   0.000153
    25  H    0.019832  -0.072243  -0.000529   0.000524  -0.000110   0.000212
              19         20         21         22         23         24
     1  C   -0.046126   0.007261  -0.001283   0.000648   0.005656   0.022742
     2  C   -0.008252   0.001830  -0.000379   0.000350  -0.002623   0.015293
     3  C    0.051984  -0.004857   0.000384  -0.000317   0.001107  -0.001661
     4  C   -0.075216   0.009144   0.000078  -0.001487   0.005586  -0.013115
     5  C   -0.075022   0.449655  -0.064008   0.013452   0.026151  -0.012687
     6  C    0.051973  -0.089325   0.379344  -0.017907  -0.000599  -0.001798
     7  C   -0.008208   0.005628  -0.019541   0.379768  -0.103729   0.014869
     8  C   -0.046154   0.046908  -0.021986  -0.020898   0.362308   0.021691
     9  C    0.074044  -0.025895  -0.004756   0.003582   0.089092   0.366892
    10  C    0.422839   0.019798   0.019670  -0.009648  -0.009634   0.006269
    11  C    0.084138  -0.012451  -0.005951   0.002784   0.000829   0.006840
    12  C   -0.067418  -0.010123   0.004782  -0.008748   0.006438  -0.046592
    13  C    0.084165  -0.016618  -0.025432   0.026305  -0.025266   0.007055
    14  C   -0.067697  -0.044028   0.084366  -0.031197  -0.023179  -0.047240
    15  H    0.000326  -0.000122   0.000016  -0.000127   0.000577  -0.001319
    16  H   -0.000563   0.000015  -0.000007   0.000007  -0.000127   0.000716
    17  H    0.001464  -0.000147   0.000011  -0.000007   0.000016  -0.000180
    18  H   -0.006405   0.001307  -0.000147   0.000016  -0.000122   0.000153
    19  H    0.445309  -0.006400   0.001469  -0.000565   0.000322   0.000627
    20  H   -0.006400   0.453866  -0.010464   0.001949   0.000138   0.000162
    21  H    0.001469  -0.010464   0.424191  -0.006868   0.001540  -0.000184
    22  H   -0.000565   0.001949  -0.006868   0.419907  -0.009007   0.000733
    23  H    0.000322   0.000138   0.001540  -0.009007   0.439864  -0.001379
    24  H    0.000627   0.000162  -0.000184   0.000733  -0.001379   0.492377
    25  H    0.000593   0.000200  -0.000105   0.000508  -0.000469  -0.078935
              25
     1  C    0.041114
     2  C    0.013076
     3  C   -0.001084
     4  C   -0.012272
     5  C   -0.012675
     6  C   -0.000906
     7  C    0.013622
     8  C    0.042533
     9  C    0.348463
    10  C    0.005275
    11  C    0.019701
    12  C   -0.072991
    13  C    0.019832
    14  C   -0.072243
    15  H   -0.000529
    16  H    0.000524
    17  H   -0.000110
    18  H    0.000212
    19  H    0.000593
    20  H    0.000200
    21  H   -0.000105
    22  H    0.000508
    23  H   -0.000469
    24  H   -0.078935
    25  H    0.492455
 Mulliken charges:
               1
     1  C    0.080060
     2  C   -0.398264
     3  C   -0.441502
     4  C    0.037822
     5  C    0.037265
     6  C   -0.441928
     7  C   -0.399974
     8  C    0.079146
     9  C   -0.302954
    10  C    0.094424
    11  C   -0.630825
    12  C    0.651476
    13  C   -0.631963
    14  C    0.653141
    15  H    0.236506
    16  H    0.256814
    17  H    0.245430
    18  H    0.222569
    19  H    0.188774
    20  H    0.222564
    21  H    0.245261
    22  H    0.256766
    23  H    0.236509
    24  H    0.248671
    25  H    0.254212
 Sum of Mulliken charges =   1.00000
 Mulliken charges with hydrogens summed into heavy atoms:
               1
     1  C    0.316566
     2  C   -0.141449
     3  C   -0.196072
     4  C    0.260391
     5  C    0.259829
     6  C   -0.196667
     7  C   -0.143208
     8  C    0.315655
     9  C    0.199929
    10  C    0.283198
    11  C   -0.630825
    12  C    0.651476
    13  C   -0.631963
    14  C    0.653141
 Electronic spatial extent (au):  <R**2>=           2863.8036
 Charge=              1.0000 electrons
 Dipole moment (field-independent basis, Debye):
    X=             -0.0027    Y=              0.1909    Z=              0.0010  Tot=              0.1909
 Quadrupole moment (field-independent basis, Debye-Ang):
   XX=            -30.9423   YY=            -56.2606   ZZ=            -84.2066
   XY=             -0.0015   XZ=             -0.0025   YZ=              0.0967
 Traceless Quadrupole moment (field-independent basis, Debye-Ang):
   XX=             26.1942   YY=              0.8759   ZZ=            -27.0701
   XY=             -0.0015   XZ=             -0.0025   YZ=              0.0967
 Octapole moment (field-independent basis, Debye-Ang**2):
  XXX=             -0.1106  YYY=              5.2053  ZZZ=             -0.0230  XYY=              0.0013
  XXY=             -4.5355  XXZ=              0.1780  XZZ=              0.0130  YZZ=             -3.0867
  YYZ=              0.1114  XYZ=             -0.0124
 Hexadecapole moment (field-independent basis, Debye-Ang**3):
 XXXX=          -2125.6172 YYYY=           -609.3316 ZZZZ=            -99.5729 XXXY=             -0.0621
 XXXZ=             -0.0703 YYYX=              0.0255 YYYZ=              1.0710 ZZZX=             -0.0034
 ZZZY=              0.0385 XXYY=           -509.1024 XXZZ=           -592.9507 YYZZ=           -145.7895
 XXYZ=              1.0438 YYXZ=             -0.0000 ZZXY=             -0.0013
 N-N= 7.802594487676D+02 E-N=-2.796807480066D+03  KE= 5.374476921725D+02
 Unable to Open any file for archive entry.
 1\1\GINC-GADI-CPU-CLX-0113\SP\RM062X TD-FC\6-311++G(d,p)\C14H11(1+)\TS
 1578\28-Jul-2022\0\\#n M062X/6-311++G(d,p) TD(NStates=1) EmpiricalDisp
 ersion=GD3 SP\\SP_-75\\1,1\C,0,0.01275,2.492355,1.360431\C,0,0.015975,
 3.708733,0.671989\C,0,0.0043,3.696761,-0.71383\C,0,-0.01565,2.472356,-
 1.407538\C,0,-0.01555,-2.472156,-1.407538\C,0,0.0049,-3.695761,-0.7138
 3\C,0,0.016925,-3.708383,0.671989\C,0,0.01465,-2.491755,1.360431\C,0,0
 .008775,-0.0022,1.453369\C,0,-0.0244,0.0001,-1.429189\C,0,-0.003725,1.
 25438,0.677065\C,0,-0.0098,1.238521,-0.730804\C,0,-0.003575,-1.25443,0
 .677065\C,0,-0.0102,-1.238821,-0.730804\H,0,0.0031,2.487946,2.443647\H
 ,0,0.016075,4.642878,1.211689\H,0,-0.00305,4.609437,-1.272349\H,0,-0.0
 0715,2.476475,-2.490059\H,0,-0.0225,0.00005,-2.510266\H,0,-0.00745,-2.
 476325,-2.490059\H,0,-0.00275,-4.608187,-1.272349\H,0,0.017225,-4.6421
 28,1.211689\H,0,0.0053,-2.487296,2.443647\H,0,-0.827585,-0.0005,2.1463
 37\H,0,0.891585,-0.0005,2.145237\\Version=ES64L-G16RevC.01\State=1-A\H
 F=-539.7587294\RMSD=4.608e-09\PG=C01 [X(C14H11)]\\@
 The archive entry for this job was punched.


 "THE TIME HAS COME", THE WALRUS SAID,
 "TO TALK OF MANY THINGS,
 OF SHOES AND SHIPS AND SEALING WAX,
 OF CABBAGES AND KINGS,
 AND WHY THE SEA IS BOILING HOT,
 AND WHETHER PIGS HAVE WINGS."
 Job cpu time:       0 days  1 hours 19 minutes 25.9 seconds.
 Elapsed time:       0 days  0 hours  1 minutes 39.4 seconds.
 File lengths (MBytes):  RWF=    460 Int=      0 D2E=      0 Chk=     15 Scr=      1
 Normal termination of Gaussian 16 at Thu Jul 28 14:07:01 2022.
