 Entering Gaussian System, Link 0=g16
 Initial command:
 /apps/gaussian/g16c01/g16/l1.exe "/jobfs/53002009.gadi-pbs/Gau-783233.inp" -scrdir="/jobfs/53002009.gadi-pbs/"
 Entering Link 1 = /apps/gaussian/g16c01/g16/l1.exe PID=    783234.
  
 Copyright (c) 1988-2019, Gaussian, Inc.  All Rights Reserved.
  
 This is part of the Gaussian(R) 16 program.  It is based on
 the Gaussian(R) 09 system (copyright 2009, Gaussian, Inc.),
 the Gaussian(R) 03 system (copyright 2003, Gaussian, Inc.),
 the Gaussian(R) 98 system (copyright 1998, Gaussian, Inc.),
 the Gaussian(R) 94 system (copyright 1995, Gaussian, Inc.),
 the Gaussian 92(TM) system (copyright 1992, Gaussian, Inc.),
 the Gaussian 90(TM) system (copyright 1990, Gaussian, Inc.),
 the Gaussian 88(TM) system (copyright 1988, Gaussian, Inc.),
 the Gaussian 86(TM) system (copyright 1986, Carnegie Mellon
 University), and the Gaussian 82(TM) system (copyright 1983,
 Carnegie Mellon University). Gaussian is a federally registered
 trademark of Gaussian, Inc.
  
 This software contains proprietary and confidential information,
 including trade secrets, belonging to Gaussian, Inc.
  
 This software is provided under written license and may be
 used, copied, transmitted, or stored only in accord with that
 written license.
  
 The following legend is applicable only to US Government
 contracts under FAR:
  
                    RESTRICTED RIGHTS LEGEND
  
 Use, reproduction and disclosure by the US Government is
 subject to restrictions as set forth in subparagraphs (a)
 and (c) of the Commercial Computer Software - Restricted
 Rights clause in FAR 52.227-19.
  
 Gaussian, Inc.
 340 Quinnipiac St., Bldg. 40, Wallingford CT 06492
  
  
 ---------------------------------------------------------------
 Warning -- This program may not be used in any manner that
 competes with the business of Gaussian, Inc. or will provide
 assistance to any competitor of Gaussian, Inc.  The licensee
 of this program is prohibited from giving any competitor of
 Gaussian, Inc. access to this program.  By using this program,
 the user acknowledges that Gaussian, Inc. is engaged in the
 business of creating and licensing software in the field of
 computational chemistry and represents and warrants to the
 licensee that it is not a competitor of Gaussian, Inc. and that
 it will not use this program in any manner prohibited above.
 ---------------------------------------------------------------
  

 Cite this work as:
 Gaussian 16, Revision C.01,
 M. J. Frisch, G. W. Trucks, H. B. Schlegel, G. E. Scuseria, 
 M. A. Robb, J. R. Cheeseman, G. Scalmani, V. Barone, 
 G. A. Petersson, H. Nakatsuji, X. Li, M. Caricato, A. V. Marenich, 
 J. Bloino, B. G. Janesko, R. Gomperts, B. Mennucci, H. P. Hratchian, 
 J. V. Ortiz, A. F. Izmaylov, J. L. Sonnenberg, D. Williams-Young, 
 F. Ding, F. Lipparini, F. Egidi, J. Goings, B. Peng, A. Petrone, 
 T. Henderson, D. Ranasinghe, V. G. Zakrzewski, J. Gao, N. Rega, 
 G. Zheng, W. Liang, M. Hada, M. Ehara, K. Toyota, R. Fukuda, 
 J. Hasegawa, M. Ishida, T. Nakajima, Y. Honda, O. Kitao, H. Nakai, 
 T. Vreven, K. Throssell, J. A. Montgomery, Jr., J. E. Peralta, 
 F. Ogliaro, M. J. Bearpark, J. J. Heyd, E. N. Brothers, K. N. Kudin, 
 V. N. Staroverov, T. A. Keith, R. Kobayashi, J. Normand, 
 K. Raghavachari, A. P. Rendell, J. C. Burant, S. S. Iyengar, 
 J. Tomasi, M. Cossi, J. M. Millam, M. Klene, C. Adamo, R. Cammi, 
 J. W. Ochterski, R. L. Martin, K. Morokuma, O. Farkas, 
 J. B. Foresman, and D. J. Fox, Gaussian, Inc., Wallingford CT, 2019.
 
 ******************************************
 Gaussian 16:  ES64L-G16RevC.01  3-Jul-2019
                28-Jul-2022 
 ******************************************
 %NProcShared=48
 Will use up to   48 processors via shared memory.
 %mem = 190GB
 ---------------------------------------------------------------
 #n M062X/6-311++G(d,p) TD(NStates=1) EmpiricalDispersion=GD3 SP
 ---------------------------------------------------------------
 1/38=1,172=1/1;
 2/12=2,17=6,18=5,40=1/2;
 3/5=4,6=6,7=1111,11=9,25=1,30=1,74=-55,124=31/1,2,3,8;
 4//1;
 5/5=2,38=5/2;
 8/6=1,10=2,108=1/1;
 9/41=1,42=1,70=2/14;
 6/7=2,8=2,9=2,10=2/1;
 99/5=1,9=1/99;
 -----
 SP_75
 -----
 Symbolic Z-matrix:
 Charge =  1 Multiplicity = 1
 C                    -0.02445   2.49386   1.36043 
 C                    -0.02903   3.68926   0.67199 
 C                    -0.0082    3.66241  -0.71383 
 C                     0.02727   2.44728  -1.40754 
 C                     0.02732  -2.44718  -1.40754 
 C                    -0.0079   -3.66191  -0.71383 
 C                    -0.02855  -3.68908   0.67199 
 C                    -0.0235   -2.49356   1.36043 
 C                    -0.0153   -0.0011    1.45337 
 C                     0.0427    0.00005  -1.42919 
 C                     0.00635   1.27543   0.67707 
 C                     0.0176    1.2353   -0.7308 
 C                     0.00643  -1.27546   0.67707 
 C                     0.0174   -1.23545  -0.7308 
 H                    -0.0079    2.48902   2.44365 
 H                    -0.02943   4.62688   1.21169 
 H                     0.005     4.61036  -1.27235 
 H                     0.01285   2.4521   -2.49006 
 H                     0.03938   0.00003  -2.51027 
 H                     0.0127   -2.45203  -2.49006 
 H                     0.00515  -4.60974  -1.27235 
 H                    -0.02885  -4.6265    1.21169 
 H                    -0.0068   -2.4887    2.44365 
 H                    -0.91559  -0.00025   2.14606 
 H                     0.80359  -0.00025   2.14551 
 
                          Input orientation:                          
 ---------------------------------------------------------------------
 Center     Atomic      Atomic             Coordinates (Angstroms)
 Number     Number       Type             X           Y           Z
 ---------------------------------------------------------------------
      1          6           0       -0.024450    2.493855    1.360431
      2          6           0       -0.029025    3.689258    0.671989
      3          6           0       -0.008200    3.662411   -0.713830
      4          6           0        0.027275    2.447281   -1.407538
      5          6           0        0.027325   -2.447181   -1.407538
      6          6           0       -0.007900   -3.661911   -0.713830
      7          6           0       -0.028550   -3.689083    0.671989
      8          6           0       -0.023500   -2.493555    1.360431
      9          6           0       -0.015300   -0.001100    1.453369
     10          6           0        0.042700    0.000050   -1.429189
     11          6           0        0.006350    1.275430    0.677065
     12          6           0        0.017600    1.235296   -0.730804
     13          6           0        0.006425   -1.275455    0.677065
     14          6           0        0.017400   -1.235446   -0.730804
     15          1           0       -0.007900    2.489021    2.443647
     16          1           0       -0.029425    4.626878    1.211689
     17          1           0        0.005000    4.610362   -1.272349
     18          1           0        0.012850    2.452100   -2.490059
     19          1           0        0.039375    0.000025   -2.510266
     20          1           0        0.012700   -2.452025   -2.490059
     21          1           0        0.005150   -4.609737   -1.272349
     22          1           0       -0.028850   -4.626503    1.211689
     23          1           0       -0.006800   -2.488696    2.443647
     24          1           0       -0.915585   -0.000250    2.146062
     25          1           0        0.803585   -0.000250    2.145512
 ---------------------------------------------------------------------
                    Distance matrix (angstroms):
                    1          2          3          4          5
     1  C    0.000000
     2  C    1.379479   0.000000
     3  C    2.380829   1.386235   0.000000
     4  C    2.768844   2.422831   1.399654   0.000000
     5  C    5.663759   6.479467   6.148952   4.894462   0.000000
     6  C    6.495867   7.480684   7.324322   6.148552   1.399300
     7  C    6.221149   7.378341   7.481001   6.479391   2.422783
     8  C    4.987410   6.221026   6.496053   5.663576   2.768824
     9  C    2.496702   3.772199   4.256538   3.765790   3.764295
    10  C    3.742399   4.246216   3.731919   2.447375   2.447375
    11  C    1.397318   2.414093   2.762694   2.391494   4.266596
    12  C    2.441107   2.827000   2.427311   1.388154   3.744155
    13  C    3.830880   4.964842   5.130041   4.266705   2.391432
    14  C    4.275828   5.120810   4.897953   3.744402   1.387937
    15  H    1.083353   2.140044   3.368457   3.851572   6.260907
    16  H    2.138209   1.081854   2.153664   3.407962   7.543599
    17  H    3.378165   2.151753   1.100331   2.167416   7.058873
    18  H    3.850897   3.395712   2.149485   1.082628   5.017471
    19  H    4.604949   4.872563   4.079524   2.684254   2.684208
    20  H    6.268124   6.907651   6.367241   5.017496   1.082631
    21  H    7.575845   8.523786   8.290992   7.058347   2.166891
    22  H    7.121913   8.333256   8.509650   7.543336   3.407778
    23  H    5.098969   6.427004   6.914172   6.260723   3.851560
    24  H    2.762589   4.070792   4.734703   4.416726   4.416404
    25  H    2.742727   4.059184   4.716982   4.383746   4.383402
                    6          7          8          9         10
     6  C    0.000000
     7  C    1.386239   0.000000
     8  C    2.380726   1.379589   0.000000
     9  C    4.254215   3.769874   2.494201   0.000000
    10  C    3.731522   4.246143   3.742249   2.883142   0.000000
    11  C    5.129535   4.964638   3.830552   1.494204   2.462564
    12  C    4.897303   5.120495   4.275428   2.510054   1.419227
    13  C    2.762239   2.413887   1.397015   1.492347   2.462628
    14  C    2.426656   2.826707   2.440855   2.509042   1.419448
    15  H    6.914017   6.427143   5.098987   2.679815   4.603954
    16  H    8.509531   8.333456   7.121989   4.634306   5.327943
    17  H    8.291116   8.524222   7.576145   5.356821   4.613133
    18  H    6.366832   6.907560   6.267942   4.644309   2.671869
    19  H    4.079117   4.872461   4.604801   3.964012   1.081082
    20  H    2.149241   3.395668   3.850884   4.643107   2.671894
    21  H    1.100222   2.151555   3.377955   5.354390   4.612607
    22  H    2.153718   1.081680   2.138135   4.631732   5.327696
    23  H    3.368397   2.140134   1.083356   2.677472   4.603821
    24  H    4.733987   4.070284   2.762173   1.135930   3.701450
    25  H    4.716154   4.058474   2.741713   1.072210   3.654782
                   11         12         13         14         15
    11  C    0.000000
    12  C    1.408486   0.000000
    13  C    2.550885   2.878557   0.000000
    14  C    2.878666   2.470742   1.408480   0.000000
    15  H    2.143319   3.413153   4.158401   4.893816   0.000000
    16  H    3.394010   3.908749   5.926605   6.175946   2.467512
    17  H    3.862899   3.418260   6.200247   5.870851   4.278888
    18  H    3.378649   2.139068   4.891358   4.085706   4.933888
    19  H    3.433195   2.166300   3.433222   2.166416   5.544239
    20  H    4.891282   4.085503   3.378614   2.138940   6.982536
    21  H    6.199630   5.870080   3.862338   3.417493   8.012563
    22  H    5.926202   6.175445   3.393610   3.908284   7.221415
    23  H    4.158080   4.893450   2.143115   3.412969   4.977717
    24  H    2.152969   3.267073   2.152720   3.266884   2.666256
    25  H    2.102208   3.227621   2.101892   3.227536   2.635121
                   16         17         18         19         20
    16  H    0.000000
    17  H    2.484331   0.000000
    18  H    4.293528   2.478099   0.000000
    19  H    5.938472   4.773764   2.452302   0.000000
    20  H    7.988465   7.166602   4.904125   2.452278   0.000000
    21  H    9.564868   9.220099   7.166060   4.773208   2.477619
    22  H    9.253381   9.565107   7.988197   5.938212   4.293369
    23  H    7.221470   8.012827   6.982357   5.544107   4.933881
    24  H    4.802983   5.812981   5.326315   4.753245   5.326024
    25  H    4.793354   5.794588   5.303565   4.718081   5.303321
                   21         22         23         24         25
    21  H    0.000000
    22  H    2.484327   0.000000
    23  H    4.278736   2.467474   0.000000
    24  H    5.812113   4.802246   2.665860   0.000000
    25  H    5.793673   4.792410   2.634003   1.719170   0.000000
 Stoichiometry    C14H11(1+)
 Framework group  C1[X(C14H11)]
 Deg. of freedom    69
 Full point group                 C1      NOp   1
 Largest Abelian subgroup         C1      NOp   1
 Largest concise Abelian subgroup C1      NOp   1
                         Standard orientation:                         
 ---------------------------------------------------------------------
 Center     Atomic      Atomic             Coordinates (Angstroms)
 Number     Number       Type             X           Y           Z
 ---------------------------------------------------------------------
      1          6           0        2.493828   -1.360686    0.002700
      2          6           0        3.689245   -0.672421    0.017808
      3          6           0        3.662426    0.713555    0.018333
      4          6           0        2.447309    1.407752   -0.006380
      5          6           0       -2.447153    1.407851   -0.006136
      6          6           0       -3.661896    0.713707    0.018472
      7          6           0       -3.689096   -0.672265    0.017775
      8          6           0       -2.493582   -1.360572    0.002050
      9          6           0       -0.001130   -1.453422   -0.007730
     10          6           0        0.000077    1.429687   -0.021323
     11          6           0        1.275415   -0.676903   -0.017497
     12          6           0        1.235310    0.730973   -0.007057
     13          6           0       -1.275470   -0.676850   -0.017419
     14          6           0       -1.235432    0.731020   -0.006709
     15          1           0        2.488970   -2.443519   -0.030532
     16          1           0        4.626854   -1.212082    0.009838
     17          1           0        4.610388    1.272192    0.013680
     18          1           0        2.452151    2.489922    0.024717
     19          1           0        0.000075    2.510585   -0.001346
     20          1           0       -2.451974    2.490018    0.025162
     21          1           0       -4.609711    1.272380    0.014083
     22          1           0       -4.626527   -1.211887    0.009818
     23          1           0       -2.488747   -2.443402   -0.031334
     24          1           0       -0.000241   -2.159900    0.881778
     25          1           0       -0.000343   -2.132870   -0.837180
 ---------------------------------------------------------------------
 Rotational constants (GHZ):           2.1353583           0.4475238           0.3708114
 Standard basis: 6-311++G(d,p) (5D, 7F)
 There are   399 symmetry adapted cartesian basis functions of A   symmetry.
 There are   385 symmetry adapted basis functions of A   symmetry.
   385 basis functions,   603 primitive gaussians,   399 cartesian basis functions
    47 alpha electrons       47 beta electrons
       nuclear repulsion energy       782.7670432882 Hartrees.
 NAtoms=   25 NActive=   25 NUniq=   25 SFac= 1.00D+00 NAtFMM=   60 NAOKFM=F Big=F
 Integral buffers will be    131072 words long.
 Regular integral format.
 Two-electron integral symmetry is turned on.
 Nuclear repulsion after empirical dispersion term =      782.7660642663 Hartrees.
 One-electron integrals computed using PRISM.
 NBasis=   385 RedAO= T EigKep=  1.30D-06  NBF=   385
 NBsUse=   379 1.00D-06 EigRej=  8.25D-07 NBFU=   379
 ExpMin= 3.60D-02 ExpMax= 4.56D+03 ExpMxC= 6.82D+02 IAcc=3 IRadAn=         5 AccDes= 0.00D+00
 Harris functional with IExCor= 1009 and IRadAn=       5 diagonalized for initial guess.
 HarFok:  IExCor= 1009 AccDes= 0.00D+00 IRadAn=         5 IDoV= 1 UseB2=F ITyADJ=14
 ICtDFT=  3500011 ScaDFX=  1.000000  1.000000  1.000000  1.000000
 FoFCou: FMM=F IPFlag=           0 FMFlag=      100000 FMFlg1=           0
         NFxFlg=           0 DoJE=T BraDBF=F KetDBF=T FulRan=T
         wScrn=  0.000000 ICntrl=       500 IOpCl=  0 I1Cent=   200000004 NGrid=           0
         NMat0=    1 NMatS0=      1 NMatT0=    0 NMatD0=    1 NMtDS0=    0 NMtDT0=    0
 Petite list used in FoFCou.
 Requested convergence on RMS density matrix=1.00D-08 within 128 cycles.
 Requested convergence on MAX density matrix=1.00D-06.
 Requested convergence on             energy=1.00D-06.
 No special actions if energy rises.
 SCF Done:  E(RM062X) =  -539.757573649     A.U. after   15 cycles
            NFock= 15  Conv=0.53D-08     -V/T= 2.0040
 DoSCS=F DFT=T ScalE2(SS,OS)=  1.000000  1.000000
 ExpMin= 3.60D-02 ExpMax= 4.56D+03 ExpMxC= 6.82D+02 IAcc=3 IRadAn=         5 AccDes= 0.00D+00
 HarFok:  IExCor=  205 AccDes= 0.00D+00 IRadAn=         5 IDoV=-2 UseB2=F ITyADJ=14
 ICtDFT= 12500011 ScaDFX=  1.000000  1.000000  1.000000  1.000000
 Range of M.O.s used for correlation:    15   379
 NBasis=   385 NAE=    47 NBE=    47 NFC=    14 NFV=     0
 NROrb=    365 NOA=    33 NOB=    33 NVA=   332 NVB=   332

 **** Warning!!: The largest alpha MO coefficient is  0.14437387D+03

 Orbital symmetries:
       Occupied  (A) (A) (A) (A) (A) (A) (A) (A) (A) (A) (A) (A)
                 (A) (A) (A) (A) (A) (A) (A) (A) (A) (A) (A) (A)
                 (A) (A) (A) (A) (A) (A) (A) (A) (A) (A) (A) (A)
                 (A) (A) (A) (A) (A) (A) (A) (A) (A) (A) (A)
       Virtual   (A) (A) (A) (A) (A) (A) (A) (A) (A) (A) (A) (A)
                 (A) (A) (A) (A) (A) (A) (A) (A) (A) (A) (A) (A)
                 (A) (A) (A) (A) (A) (A) (A) (A) (A) (A) (A) (A)
                 (A) (A) (A) (A) (A) (A) (A) (A) (A) (A) (A) (A)
                 (A) (A) (A) (A) (A) (A) (A) (A) (A) (A) (A) (A)
                 (A) (A) (A) (A) (A) (A) (A) (A) (A) (A) (A) (A)
                 (A) (A) (A) (A) (A) (A) (A) (A) (A) (A) (A) (A)
                 (A) (A) (A) (A) (A) (A) (A) (A) (A) (A) (A) (A)
                 (A) (A) (A) (A) (A) (A) (A) (A) (A) (A) (A) (A)
                 (A) (A) (A) (A) (A) (A) (A) (A) (A) (A) (A) (A)
                 (A) (A) (A) (A) (A) (A) (A) (A) (A) (A) (A) (A)
                 (A) (A) (A) (A) (A) (A) (A) (A) (A) (A) (A) (A)
                 (A) (A) (A) (A) (A) (A) (A) (A) (A) (A) (A) (A)
                 (A) (A) (A) (A) (A) (A) (A) (A) (A) (A) (A) (A)
                 (A) (A) (A) (A) (A) (A) (A) (A) (A) (A) (A) (A)
                 (A) (A) (A) (A) (A) (A) (A) (A) (A) (A) (A) (A)
                 (A) (A) (A) (A) (A) (A) (A) (A) (A) (A) (A) (A)
                 (A) (A) (A) (A) (A) (A) (A) (A) (A) (A) (A) (A)
                 (A) (A) (A) (A) (A) (A) (A) (A) (A) (A) (A) (A)
                 (A) (A) (A) (A) (A) (A) (A) (A) (A) (A) (A) (A)
                 (A) (A) (A) (A) (A) (A) (A) (A) (A) (A) (A) (A)
                 (A) (A) (A) (A) (A) (A) (A) (A) (A) (A) (A) (A)
                 (A) (A) (A) (A) (A) (A) (A) (A) (A) (A) (A) (A)
                 (A) (A) (A) (A) (A) (A) (A) (A) (A) (A) (A) (A)
                 (A) (A) (A) (A) (A) (A) (A) (A) (A) (A) (A) (A)
                 (A) (A) (A) (A) (A) (A) (A) (A) (A) (A) (A) (A)
                 (A) (A) (A) (A) (A) (A) (A) (A) (A) (A) (A) (A)
                 (A) (A) (A) (A) (A) (A) (A) (A)
     4 initial guesses have been made.
 Convergence on wavefunction:    0.001000000000000
 Iteration     1 Dimension     4 NMult     0 NNew      4
 CISAX will form     4 AO SS matrices at one time.
 Iteration     2 Dimension     6 NMult     4 NNew      2
 Iteration     3 Dimension     8 NMult     6 NNew      2
 Iteration     4 Dimension    10 NMult     8 NNew      2
 Iteration     5 Dimension    12 NMult    10 NNew      2
 Iteration     6 Dimension    14 NMult    12 NNew      2
 ***********************************************************************
 Excited states from <AA,BB:AA,BB> singles matrix:
 ***********************************************************************
 
 Ground to excited state transition densities written to RWF  633
 Ground to excited state transition electric dipole moments (Au):
       state          X           Y           Z        Dip. S.      Osc.
         1        -0.0013     -0.6553      0.0073      0.4295      0.0299
 Ground to excited state transition velocity dipole moments (Au):
       state          X           Y           Z        Dip. S.      Osc.
         1         0.0001      0.0758     -0.0009      0.0058      0.0367
 Ground to excited state transition magnetic dipole moments (Au):
       state          X           Y           Z
         1        -0.0098      0.0001      0.0001
 Ground to excited state transition velocity quadrupole moments (Au):
       state          XX          YY          ZZ          XY          XZ          YZ
         1         0.2754      0.0389     -0.0101      0.0002     -0.0000      0.0012
 <0|del|b> * <b|rxdel|0> + <0|del|b> * <b|delr+rdel|0>
 Rotatory Strengths (R) in cgs (10**-40 erg-esu-cm/Gauss)
       state          XX          YY          ZZ    R(velocity)    E-M Angle
         1         0.0348     -0.0037      0.0205      0.0172       90.00
 1/2[<0|r|b>*<b|rxdel|0> + (<0|rxdel|b>*<b|r|0>)*]
 Rotatory Strengths (R) in cgs (10**-40 erg-esu-cm/Gauss)
       state          XX          YY          ZZ     R(length)
         1        -0.0093      0.0555     -0.0006      0.0152
  1/2[<0|del|b>*<b|r|0> + (<0|r|b>*<b|del|0>)*] (Au)
       state          X           Y           Z        Dip. S.   Osc.(frdel)
         1        -0.0000     -0.0497     -0.0000      0.0497      0.0331

 Excitation energies and oscillator strengths:
 
 Excited State   1:      Singlet-A      2.8447 eV  435.85 nm  f=0.0299  <S**2>=0.000
      47 -> 48         0.70423
 This state for optimization and/or second-order correction.
 Total Energy, E(TD-HF/TD-DFT) =  -539.653034112    
 Copying the excited state density for this state as the 1-particle RhoCI density.
 SavETr:  write IOETrn=   770 NScale= 10 NData=  16 NLR=1 NState=    1 LETran=      28.

 **********************************************************************

            Population analysis using the SCF Density.

 **********************************************************************

 Orbital symmetries:
       Occupied  (A) (A) (A) (A) (A) (A) (A) (A) (A) (A) (A) (A)
                 (A) (A) (A) (A) (A) (A) (A) (A) (A) (A) (A) (A)
                 (A) (A) (A) (A) (A) (A) (A) (A) (A) (A) (A) (A)
                 (A) (A) (A) (A) (A) (A) (A) (A) (A) (A) (A)
       Virtual   (A) (A) (A) (A) (A) (A) (A) (A) (A) (A) (A) (A)
                 (A) (A) (A) (A) (A) (A) (A) (A) (A) (A) (A) (A)
                 (A) (A) (A) (A) (A) (A) (A) (A) (A) (A) (A) (A)
                 (A) (A) (A) (A) (A) (A) (A) (A) (A) (A) (A) (A)
                 (A) (A) (A) (A) (A) (A) (A) (A) (A) (A) (A) (A)
                 (A) (A) (A) (A) (A) (A) (A) (A) (A) (A) (A) (A)
                 (A) (A) (A) (A) (A) (A) (A) (A) (A) (A) (A) (A)
                 (A) (A) (A) (A) (A) (A) (A) (A) (A) (A) (A) (A)
                 (A) (A) (A) (A) (A) (A) (A) (A) (A) (A) (A) (A)
                 (A) (A) (A) (A) (A) (A) (A) (A) (A) (A) (A) (A)
                 (A) (A) (A) (A) (A) (A) (A) (A) (A) (A) (A) (A)
                 (A) (A) (A) (A) (A) (A) (A) (A) (A) (A) (A) (A)
                 (A) (A) (A) (A) (A) (A) (A) (A) (A) (A) (A) (A)
                 (A) (A) (A) (A) (A) (A) (A) (A) (A) (A) (A) (A)
                 (A) (A) (A) (A) (A) (A) (A) (A) (A) (A) (A) (A)
                 (A) (A) (A) (A) (A) (A) (A) (A) (A) (A) (A) (A)
                 (A) (A) (A) (A) (A) (A) (A) (A) (A) (A) (A) (A)
                 (A) (A) (A) (A) (A) (A) (A) (A) (A) (A) (A) (A)
                 (A) (A) (A) (A) (A) (A) (A) (A) (A) (A) (A) (A)
                 (A) (A) (A) (A) (A) (A) (A) (A) (A) (A) (A) (A)
                 (A) (A) (A) (A) (A) (A) (A) (A) (A) (A) (A) (A)
                 (A) (A) (A) (A) (A) (A) (A) (A) (A) (A) (A) (A)
                 (A) (A) (A) (A) (A) (A) (A) (A) (A) (A) (A) (A)
                 (A) (A) (A) (A) (A) (A) (A) (A) (A) (A) (A) (A)
                 (A) (A) (A) (A) (A) (A) (A) (A) (A) (A) (A) (A)
                 (A) (A) (A) (A) (A) (A) (A) (A) (A) (A) (A) (A)
                 (A) (A) (A) (A) (A) (A) (A) (A) (A) (A) (A) (A)
                 (A) (A) (A) (A) (A) (A) (A) (A)
 The electronic state is 1-A.
 Alpha  occ. eigenvalues --  -10.77684 -10.73199 -10.73185 -10.72297 -10.72295
 Alpha  occ. eigenvalues --  -10.71193 -10.71185 -10.70970 -10.70900 -10.70898
 Alpha  occ. eigenvalues --  -10.69787 -10.69782 -10.69701 -10.69694  -1.16566
 Alpha  occ. eigenvalues --   -1.12832  -1.07150  -1.05606  -1.01695  -1.00108
 Alpha  occ. eigenvalues --   -0.95922  -0.91017  -0.86444  -0.85970  -0.83829
 Alpha  occ. eigenvalues --   -0.78442  -0.76041  -0.74490  -0.69566  -0.69230
 Alpha  occ. eigenvalues --   -0.68520  -0.68047  -0.67846  -0.65016  -0.64522
 Alpha  occ. eigenvalues --   -0.62802  -0.61624  -0.60094  -0.59942  -0.58985
 Alpha  occ. eigenvalues --   -0.56864  -0.55118  -0.54690  -0.52583  -0.46907
 Alpha  occ. eigenvalues --   -0.46012  -0.44646
 Alpha virt. eigenvalues --   -0.26132  -0.14509  -0.14057  -0.12572  -0.11184
 Alpha virt. eigenvalues --   -0.10100  -0.09257  -0.08066  -0.07936  -0.07487
 Alpha virt. eigenvalues --   -0.07224  -0.07103  -0.05638  -0.05582  -0.05303
 Alpha virt. eigenvalues --   -0.03879  -0.03752  -0.03279  -0.03126  -0.02162
 Alpha virt. eigenvalues --   -0.01392  -0.00982   0.00198   0.00511   0.00683
 Alpha virt. eigenvalues --    0.01070   0.01511   0.01957   0.02232   0.02280
 Alpha virt. eigenvalues --    0.02457   0.02693   0.02921   0.03144   0.03314
 Alpha virt. eigenvalues --    0.04226   0.04512   0.04712   0.05130   0.05393
 Alpha virt. eigenvalues --    0.05917   0.06316   0.06628   0.07028   0.07267
 Alpha virt. eigenvalues --    0.07914   0.08307   0.08330   0.08614   0.08922
 Alpha virt. eigenvalues --    0.09526   0.09569   0.10028   0.10858   0.11056
 Alpha virt. eigenvalues --    0.11161   0.12192   0.12199   0.12900   0.12978
 Alpha virt. eigenvalues --    0.13434   0.13436   0.14013   0.14546   0.15826
 Alpha virt. eigenvalues --    0.16211   0.16678   0.17302   0.17311   0.17729
 Alpha virt. eigenvalues --    0.18124   0.19203   0.19340   0.19710   0.19720
 Alpha virt. eigenvalues --    0.21578   0.21695   0.22665   0.23034   0.23566
 Alpha virt. eigenvalues --    0.23785   0.24601   0.24839   0.26836   0.27753
 Alpha virt. eigenvalues --    0.28827   0.29252   0.29796   0.31417   0.35784
 Alpha virt. eigenvalues --    0.36662   0.38056   0.39423   0.41078   0.41317
 Alpha virt. eigenvalues --    0.41969   0.42049   0.42949   0.43907   0.44175
 Alpha virt. eigenvalues --    0.44538   0.45305   0.45679   0.46226   0.47854
 Alpha virt. eigenvalues --    0.48452   0.48865   0.48995   0.50362   0.51220
 Alpha virt. eigenvalues --    0.51628   0.51767   0.52203   0.53331   0.53886
 Alpha virt. eigenvalues --    0.53975   0.54823   0.55763   0.55827   0.57238
 Alpha virt. eigenvalues --    0.58266   0.58804   0.61468   0.62189   0.62236
 Alpha virt. eigenvalues --    0.63098   0.63644   0.64145   0.65220   0.66521
 Alpha virt. eigenvalues --    0.70348   0.70650   0.70991   0.72376   0.72728
 Alpha virt. eigenvalues --    0.75592   0.75689   0.76284   0.76328   0.76789
 Alpha virt. eigenvalues --    0.77529   0.77776   0.78277   0.80290   0.80694
 Alpha virt. eigenvalues --    0.81232   0.81783   0.82187   0.83062   0.84737
 Alpha virt. eigenvalues --    0.86856   0.87239   0.87882   0.89668   0.90452
 Alpha virt. eigenvalues --    0.91110   0.91556   0.93691   0.94940   0.96146
 Alpha virt. eigenvalues --    0.96803   1.00211   1.01343   1.01937   1.02873
 Alpha virt. eigenvalues --    1.03385   1.04314   1.04457   1.05847   1.09233
 Alpha virt. eigenvalues --    1.19191   1.23235   1.24087   1.25512   1.28220
 Alpha virt. eigenvalues --    1.30206   1.31180   1.34585   1.35875   1.36362
 Alpha virt. eigenvalues --    1.39463   1.40063   1.40930   1.43570   1.43594
 Alpha virt. eigenvalues --    1.43819   1.45188   1.45535   1.46537   1.46648
 Alpha virt. eigenvalues --    1.47953   1.48644   1.51755   1.53817   1.55870
 Alpha virt. eigenvalues --    1.56336   1.56390   1.56962   1.58056   1.61787
 Alpha virt. eigenvalues --    1.62929   1.63106   1.63236   1.66274   1.68044
 Alpha virt. eigenvalues --    1.68638   1.68794   1.69701   1.74836   1.76005
 Alpha virt. eigenvalues --    1.77232   1.78068   1.79792   1.80714   1.81422
 Alpha virt. eigenvalues --    1.82988   1.83153   1.83458   1.84030   1.84296
 Alpha virt. eigenvalues --    1.84554   1.86201   1.86358   1.88449   1.91228
 Alpha virt. eigenvalues --    1.92158   1.94043   1.95182   1.98163   1.98835
 Alpha virt. eigenvalues --    2.00420   2.02198   2.04787   2.06649   2.12078
 Alpha virt. eigenvalues --    2.12126   2.13801   2.15341   2.20145   2.21049
 Alpha virt. eigenvalues --    2.23295   2.29070   2.30533   2.34219   2.35599
 Alpha virt. eigenvalues --    2.36214   2.37741   2.38204   2.41040   2.42435
 Alpha virt. eigenvalues --    2.46986   2.49625   2.49749   2.53184   2.53728
 Alpha virt. eigenvalues --    2.53976   2.56533   2.58099   2.58634   2.59902
 Alpha virt. eigenvalues --    2.60119   2.61434   2.62215   2.63347   2.64093
 Alpha virt. eigenvalues --    2.64672   2.64892   2.65355   2.65452   2.67885
 Alpha virt. eigenvalues --    2.68096   2.71252   2.71285   2.73618   2.74859
 Alpha virt. eigenvalues --    2.76557   2.79273   2.80080   2.83301   2.83752
 Alpha virt. eigenvalues --    2.85682   2.86579   2.92262   2.96293   3.00034
 Alpha virt. eigenvalues --    3.00635   3.04127   3.12085   3.12406   3.14311
 Alpha virt. eigenvalues --    3.20630   3.23105   3.27665   3.28675   3.31405
 Alpha virt. eigenvalues --    3.33437   3.34008   3.43572   3.46150   3.48307
 Alpha virt. eigenvalues --    3.49611   3.51220   3.56699   3.64469   3.67678
 Alpha virt. eigenvalues --    3.67890   3.92187   3.93053   3.94707   3.96153
 Alpha virt. eigenvalues --    4.02989   4.06979   4.07672   4.12461   4.35084
 Alpha virt. eigenvalues --    4.60643   4.70619   4.72532  23.44988  23.59237
 Alpha virt. eigenvalues --   23.82752  23.84931  23.88085  23.90234  23.90763
 Alpha virt. eigenvalues --   23.92578  23.98773  24.01068  24.02659  24.02767
 Alpha virt. eigenvalues --   24.12298  24.12365
          Condensed to atoms (all electrons):
               1          2          3          4          5          6
     1  C    8.436521   0.575877  -0.608807   1.569970   0.011897  -0.093738
     2  C    0.575877   6.961785   0.387059  -0.784683  -0.065760  -0.018592
     3  C   -0.608807   0.387059   6.652786   0.663688  -0.108441   0.018681
     4  C    1.569970  -0.784683   0.663688  10.073833  -0.115500  -0.109063
     5  C    0.011897  -0.065760  -0.108441  -0.115500  10.057562   0.665444
     6  C   -0.093738  -0.018592   0.018681  -0.109063   0.665444   6.654397
     7  C   -0.028951   0.011649  -0.018567  -0.065566  -0.784243   0.387442
     8  C    0.412261  -0.029273  -0.093792   0.013423   1.565443  -0.606989
     9  C   -1.514736  -0.536386   0.253622  -0.524592  -0.531115   0.253512
    10  C   -1.084269   0.116508  -0.357550  -2.282122  -2.277570  -0.360722
    11  C    0.226330  -0.985740   1.005753  -0.318724  -1.565384  -0.203361
    12  C   -1.543266   0.865074  -1.273630  -0.781548  -0.175676  -0.184148
    13  C    0.191198  -0.128293  -0.203094  -1.569304  -0.325180   1.008812
    14  C   -1.043361  -0.238733  -0.184362  -0.180946  -0.763318  -1.278705
    15  H    0.358900  -0.096775  -0.003364   0.020990   0.005839   0.001287
    16  H   -0.022194   0.380456  -0.013501   0.013390  -0.001691  -0.000369
    17  H   -0.017044  -0.022784   0.371360  -0.057585   0.000327   0.000401
    18  H    0.045827   0.005777  -0.089490   0.441042   0.010789  -0.004753
    19  H   -0.044696  -0.008086   0.049929  -0.059311  -0.058726   0.050012
    20  H    0.007997   0.001558  -0.004739   0.010810   0.440712  -0.089341
    21  H   -0.001313  -0.000383   0.000401   0.000329  -0.057427   0.371361
    22  H    0.000792   0.000378  -0.000369  -0.001694   0.013306  -0.013390
    23  H    0.005985  -0.002609   0.001282   0.005869   0.020925  -0.003307
    24  H    0.051271   0.012471  -0.000864  -0.011563  -0.011360  -0.000942
    25  H    0.018849   0.015936  -0.002692  -0.011019  -0.011120  -0.002596
               7          8          9         10         11         12
     1  C   -0.028951   0.412261  -1.514736  -1.084269   0.226330  -1.543266
     2  C    0.011649  -0.029273  -0.536386   0.116508  -0.985740   0.865074
     3  C   -0.018567  -0.093792   0.253622  -0.357550   1.005753  -1.273630
     4  C   -0.065566   0.013423  -0.524592  -2.282122  -0.318724  -0.781548
     5  C   -0.784243   1.565443  -0.531115  -2.277570  -1.565384  -0.175676
     6  C    0.387442  -0.606989   0.253512  -0.360722  -0.203361  -0.184148
     7  C    6.963295   0.577059  -0.535468   0.116561  -0.129198  -0.239474
     8  C    0.577059   8.437430  -1.520304  -1.083804   0.189739  -1.046262
     9  C   -0.535468  -1.520304   8.889926   0.577438   1.434241  -1.111728
    10  C    0.116561  -1.083804   0.577438   9.049483  -0.446938   1.960314
    11  C   -0.129198   0.189739   1.434241  -0.446938  13.845430  -3.544427
    12  C   -0.239474  -1.046262  -1.111728   1.960314  -3.544427  14.523185
    13  C   -0.985741   0.227639   1.436881  -0.450158   1.329796  -4.330286
    14  C    0.861992  -1.535158  -1.108508   1.952749  -4.331826   2.505639
    15  H   -0.002615   0.005980   0.078956  -0.008263  -0.016587  -0.015982
    16  H    0.000378   0.000807   0.004127  -0.011121   0.032858  -0.038752
    17  H   -0.000382  -0.001314  -0.002768   0.016915  -0.020055   0.073962
    18  H    0.001552   0.008016  -0.029650   0.023748  -0.012344  -0.046119
    19  H   -0.008079  -0.044703   0.073882   0.422849   0.060433  -0.059409
    20  H    0.005724   0.045711  -0.029675   0.023901  -0.008217  -0.009994
    21  H   -0.022716  -0.016996  -0.002782   0.016889  -0.005993   0.003929
    22  H    0.380553  -0.022439   0.004059  -0.011103   0.003007  -0.009425
    23  H   -0.096708   0.358750   0.078767  -0.008239  -0.001949   0.007102
    24  H    0.012294   0.050753   0.339800   0.004504   0.022435  -0.079858
    25  H    0.016146   0.019543   0.366443   0.004175   0.000001  -0.035200
              13         14         15         16         17         18
     1  C    0.191198  -1.043361   0.358900  -0.022194  -0.017044   0.045827
     2  C   -0.128293  -0.238733  -0.096775   0.380456  -0.022784   0.005777
     3  C   -0.203094  -0.184362  -0.003364  -0.013501   0.371360  -0.089490
     4  C   -1.569304  -0.180946   0.020990   0.013390  -0.057585   0.441042
     5  C   -0.325180  -0.763318   0.005839  -0.001691   0.000327   0.010789
     6  C    1.008812  -1.278705   0.001287  -0.000369   0.000401  -0.004753
     7  C   -0.985741   0.861992  -0.002615   0.000378  -0.000382   0.001552
     8  C    0.227639  -1.535158   0.005980   0.000807  -0.001314   0.008016
     9  C    1.436881  -1.108508   0.078956   0.004127  -0.002768  -0.029650
    10  C   -0.450158   1.952749  -0.008263  -0.011121   0.016915   0.023748
    11  C    1.329796  -4.331826  -0.016587   0.032858  -0.020055  -0.012344
    12  C   -4.330286   2.505639  -0.015982  -0.038752   0.073962  -0.046119
    13  C   13.848773  -3.543784  -0.001948   0.002999  -0.005952  -0.008333
    14  C   -3.543784  14.511472   0.007117  -0.009426   0.003928  -0.010029
    15  H   -0.001948   0.007117   0.439090  -0.008969   0.001342   0.000216
    16  H    0.002999  -0.009426  -0.008969   0.419441  -0.006592   0.001917
    17  H   -0.005952   0.003928   0.001342  -0.006592   0.420899  -0.009970
    18  H   -0.008333  -0.010029   0.000216   0.001917  -0.009970   0.455929
    19  H    0.061109  -0.059216   0.000369  -0.000521   0.001285  -0.005391
    20  H   -0.012417  -0.045998  -0.000124   0.000015  -0.000144   0.001263
    21  H   -0.020203   0.073940   0.000017  -0.000007   0.000009  -0.000144
    22  H    0.032813  -0.038472  -0.000126   0.000007  -0.000007   0.000015
    23  H   -0.016633  -0.015726   0.000624  -0.000126   0.000017  -0.000124
    24  H    0.022964  -0.080077  -0.000251   0.000443  -0.000079   0.000220
    25  H   -0.000392  -0.035082  -0.001541   0.000846  -0.000204   0.000175
              19         20         21         22         23         24
     1  C   -0.044696   0.007997  -0.001313   0.000792   0.005985   0.051271
     2  C   -0.008086   0.001558  -0.000383   0.000378  -0.002609   0.012471
     3  C    0.049929  -0.004739   0.000401  -0.000369   0.001282  -0.000864
     4  C   -0.059311   0.010810   0.000329  -0.001694   0.005869  -0.011563
     5  C   -0.058726   0.440712  -0.057427   0.013306   0.020925  -0.011360
     6  C    0.050012  -0.089341   0.371361  -0.013390  -0.003307  -0.000942
     7  C   -0.008079   0.005724  -0.022716   0.380553  -0.096708   0.012294
     8  C   -0.044703   0.045711  -0.016996  -0.022439   0.358750   0.050753
     9  C    0.073882  -0.029675  -0.002782   0.004059   0.078767   0.339800
    10  C    0.422849   0.023901   0.016889  -0.011103  -0.008239   0.004504
    11  C    0.060433  -0.008217  -0.005993   0.003007  -0.001949   0.022435
    12  C   -0.059409  -0.009994   0.003929  -0.009425   0.007102  -0.079858
    13  C    0.061109  -0.012417  -0.020203   0.032813  -0.016633   0.022964
    14  C   -0.059216  -0.045998   0.073940  -0.038472  -0.015726  -0.080077
    15  H    0.000369  -0.000124   0.000017  -0.000126   0.000624  -0.000251
    16  H   -0.000521   0.000015  -0.000007   0.000007  -0.000126   0.000443
    17  H    0.001285  -0.000144   0.000009  -0.000007   0.000017  -0.000079
    18  H   -0.005391   0.001263  -0.000144   0.000015  -0.000124   0.000220
    19  H    0.441100  -0.005364   0.001282  -0.000519   0.000366   0.000508
    20  H   -0.005364   0.455933  -0.009974   0.001909   0.000215   0.000225
    21  H    0.001282  -0.009974   0.420928  -0.006598   0.001346  -0.000082
    22  H   -0.000519   0.001909  -0.006598   0.419459  -0.008961   0.000452
    23  H    0.000366   0.000215   0.001346  -0.008961   0.439021  -0.000258
    24  H    0.000508   0.000225  -0.000082   0.000452  -0.000258   0.495307
    25  H    0.000474   0.000171  -0.000202   0.000840  -0.001523  -0.079439
              25
     1  C    0.018849
     2  C    0.015936
     3  C   -0.002692
     4  C   -0.011019
     5  C   -0.011120
     6  C   -0.002596
     7  C    0.016146
     8  C    0.019543
     9  C    0.366443
    10  C    0.004175
    11  C    0.000001
    12  C   -0.035200
    13  C   -0.000392
    14  C   -0.035082
    15  H   -0.001541
    16  H    0.000846
    17  H   -0.000204
    18  H    0.000175
    19  H    0.000474
    20  H    0.000171
    21  H   -0.000202
    22  H    0.000840
    23  H   -0.001523
    24  H   -0.079439
    25  H    0.494815
 Mulliken charges:
               1
     1  C    0.088699
     2  C   -0.416431
     3  C   -0.441300
     4  C    0.059876
     5  C    0.060268
     6  C   -0.441334
     7  C   -0.416939
     8  C    0.088478
     9  C   -0.343943
    10  C    0.095827
    11  C   -0.559281
    12  C    0.585979
    13  C   -0.561265
    14  C    0.585888
    15  H    0.235817
    16  H    0.255583
    17  H    0.254435
    18  H    0.219865
    19  H    0.190421
    20  H    0.219842
    21  H    0.254387
    22  H    0.255511
    23  H    0.235894
    24  H    0.251124
    25  H    0.242595
 Sum of Mulliken charges =   1.00000
 Mulliken charges with hydrogens summed into heavy atoms:
               1
     1  C    0.324517
     2  C   -0.160847
     3  C   -0.186864
     4  C    0.279742
     5  C    0.280110
     6  C   -0.186947
     7  C   -0.161428
     8  C    0.324372
     9  C    0.149777
    10  C    0.286248
    11  C   -0.559281
    12  C    0.585979
    13  C   -0.561265
    14  C    0.585888
 Electronic spatial extent (au):  <R**2>=           2842.4864
 Charge=              1.0000 electrons
 Dipole moment (field-independent basis, Debye):
    X=              0.0013    Y=              0.1787    Z=             -0.0014  Tot=              0.1787
 Quadrupole moment (field-independent basis, Debye-Ang):
   XX=            -31.4205   YY=            -56.2618   ZZ=            -84.0293
   XY=              0.0007   XZ=             -0.0012   YZ=              0.1675
 Traceless Quadrupole moment (field-independent basis, Debye-Ang):
   XX=             25.8167   YY=              0.9754   ZZ=            -26.7921
   XY=              0.0007   XZ=             -0.0012   YZ=              0.1675
 Octapole moment (field-independent basis, Debye-Ang**2):
  XXX=              0.0541  YYY=              5.1845  ZZZ=             -0.0524  XYY=             -0.0002
  XXY=             -6.3303  XXZ=              0.2685  XZZ=             -0.0070  YZZ=             -3.1017
  YYZ=              0.1886  XYZ=             -0.0060
 Hexadecapole moment (field-independent basis, Debye-Ang**3):
 XXXX=          -2116.9397 YYYY=           -609.4211 ZZZZ=            -99.1071 XXXY=              0.0311
 XXXZ=             -0.0335 YYYX=             -0.0134 YYYZ=              1.8496 ZZZX=             -0.0013
 ZZZY=              0.0667 XXYY=           -505.4434 XXZZ=           -586.9596 YYZZ=           -145.5643
 XXYZ=              1.7732 YYXZ=             -0.0002 ZZXY=              0.0006
 N-N= 7.827660642663D+02 E-N=-2.801960322101D+03  KE= 5.376091257287D+02
 Unable to Open any file for archive entry.
 1\1\GINC-GADI-CPU-CLX-0113\SP\RM062X TD-FC\6-311++G(d,p)\C14H11(1+)\TS
 1578\28-Jul-2022\0\\#n M062X/6-311++G(d,p) TD(NStates=1) EmpiricalDisp
 ersion=GD3 SP\\SP_75\\1,1\C,0,-0.02445,2.493855,1.360431\C,0,-0.029025
 ,3.689258,0.671989\C,0,-0.0082,3.662411,-0.71383\C,0,0.027275,2.447281
 ,-1.407538\C,0,0.027325,-2.447181,-1.407538\C,0,-0.0079,-3.661911,-0.7
 1383\C,0,-0.02855,-3.689083,0.671989\C,0,-0.0235,-2.493555,1.360431\C,
 0,-0.0153,-0.0011,1.453369\C,0,0.0427,0.00005,-1.429189\C,0,0.00635,1.
 27543,0.677065\C,0,0.0176,1.235296,-0.730804\C,0,0.006425,-1.275455,0.
 677065\C,0,0.0174,-1.235446,-0.730804\H,0,-0.0079,2.489021,2.443647\H,
 0,-0.029425,4.626878,1.211689\H,0,0.005,4.610362,-1.272349\H,0,0.01285
 ,2.4521,-2.490059\H,0,0.039375,0.000025,-2.510266\H,0,0.0127,-2.452025
 ,-2.490059\H,0,0.00515,-4.609737,-1.272349\H,0,-0.02885,-4.626503,1.21
 1689\H,0,-0.0068,-2.488696,2.443647\H,0,-0.915585,-0.00025,2.146062\H,
 0,0.803585,-0.00025,2.145512\\Version=ES64L-G16RevC.01\State=1-A\HF=-5
 39.7575736\RMSD=5.320e-09\PG=C01 [X(C14H11)]\\@
 The archive entry for this job was punched.


 ... IT IS NO ONE DREAME THAT
     CAN PLEASE THESE ALL ...

                -- BEN JONSON
 Job cpu time:       0 days  1 hours 20 minutes  7.3 seconds.
 Elapsed time:       0 days  0 hours  1 minutes 41.1 seconds.
 File lengths (MBytes):  RWF=    460 Int=      0 D2E=      0 Chk=     15 Scr=      1
 Normal termination of Gaussian 16 at Thu Jul 28 16:04:48 2022.
