 Entering Gaussian System, Link 0=g16
 Initial command:
 /apps/gaussian/g16c01/g16/l1.exe "/jobfs/53002009.gadi-pbs/Gau-742039.inp" -scrdir="/jobfs/53002009.gadi-pbs/"
 Entering Link 1 = /apps/gaussian/g16c01/g16/l1.exe PID=    742040.
  
 Copyright (c) 1988-2019, Gaussian, Inc.  All Rights Reserved.
  
 This is part of the Gaussian(R) 16 program.  It is based on
 the Gaussian(R) 09 system (copyright 2009, Gaussian, Inc.),
 the Gaussian(R) 03 system (copyright 2003, Gaussian, Inc.),
 the Gaussian(R) 98 system (copyright 1998, Gaussian, Inc.),
 the Gaussian(R) 94 system (copyright 1995, Gaussian, Inc.),
 the Gaussian 92(TM) system (copyright 1992, Gaussian, Inc.),
 the Gaussian 90(TM) system (copyright 1990, Gaussian, Inc.),
 the Gaussian 88(TM) system (copyright 1988, Gaussian, Inc.),
 the Gaussian 86(TM) system (copyright 1986, Carnegie Mellon
 University), and the Gaussian 82(TM) system (copyright 1983,
 Carnegie Mellon University). Gaussian is a federally registered
 trademark of Gaussian, Inc.
  
 This software contains proprietary and confidential information,
 including trade secrets, belonging to Gaussian, Inc.
  
 This software is provided under written license and may be
 used, copied, transmitted, or stored only in accord with that
 written license.
  
 The following legend is applicable only to US Government
 contracts under FAR:
  
                    RESTRICTED RIGHTS LEGEND
  
 Use, reproduction and disclosure by the US Government is
 subject to restrictions as set forth in subparagraphs (a)
 and (c) of the Commercial Computer Software - Restricted
 Rights clause in FAR 52.227-19.
  
 Gaussian, Inc.
 340 Quinnipiac St., Bldg. 40, Wallingford CT 06492
  
  
 ---------------------------------------------------------------
 Warning -- This program may not be used in any manner that
 competes with the business of Gaussian, Inc. or will provide
 assistance to any competitor of Gaussian, Inc.  The licensee
 of this program is prohibited from giving any competitor of
 Gaussian, Inc. access to this program.  By using this program,
 the user acknowledges that Gaussian, Inc. is engaged in the
 business of creating and licensing software in the field of
 computational chemistry and represents and warrants to the
 licensee that it is not a competitor of Gaussian, Inc. and that
 it will not use this program in any manner prohibited above.
 ---------------------------------------------------------------
  

 Cite this work as:
 Gaussian 16, Revision C.01,
 M. J. Frisch, G. W. Trucks, H. B. Schlegel, G. E. Scuseria, 
 M. A. Robb, J. R. Cheeseman, G. Scalmani, V. Barone, 
 G. A. Petersson, H. Nakatsuji, X. Li, M. Caricato, A. V. Marenich, 
 J. Bloino, B. G. Janesko, R. Gomperts, B. Mennucci, H. P. Hratchian, 
 J. V. Ortiz, A. F. Izmaylov, J. L. Sonnenberg, D. Williams-Young, 
 F. Ding, F. Lipparini, F. Egidi, J. Goings, B. Peng, A. Petrone, 
 T. Henderson, D. Ranasinghe, V. G. Zakrzewski, J. Gao, N. Rega, 
 G. Zheng, W. Liang, M. Hada, M. Ehara, K. Toyota, R. Fukuda, 
 J. Hasegawa, M. Ishida, T. Nakajima, Y. Honda, O. Kitao, H. Nakai, 
 T. Vreven, K. Throssell, J. A. Montgomery, Jr., J. E. Peralta, 
 F. Ogliaro, M. J. Bearpark, J. J. Heyd, E. N. Brothers, K. N. Kudin, 
 V. N. Staroverov, T. A. Keith, R. Kobayashi, J. Normand, 
 K. Raghavachari, A. P. Rendell, J. C. Burant, S. S. Iyengar, 
 J. Tomasi, M. Cossi, J. M. Millam, M. Klene, C. Adamo, R. Cammi, 
 J. W. Ochterski, R. L. Martin, K. Morokuma, O. Farkas, 
 J. B. Foresman, and D. J. Fox, Gaussian, Inc., Wallingford CT, 2019.
 
 ******************************************
 Gaussian 16:  ES64L-G16RevC.01  3-Jul-2019
                28-Jul-2022 
 ******************************************
 %NProcShared=48
 Will use up to   48 processors via shared memory.
 %mem = 190GB
 ---------------------------------------------------------------
 #n M062X/6-311++G(d,p) TD(NStates=1) EmpiricalDispersion=GD3 SP
 ---------------------------------------------------------------
 1/38=1,172=1/1;
 2/12=2,17=6,18=5,40=1/2;
 3/5=4,6=6,7=1111,11=9,25=1,30=1,74=-55,124=31/1,2,3,8;
 4//1;
 5/5=2,38=5/2;
 8/6=1,10=2,108=1/1;
 9/41=1,42=1,70=2/14;
 6/7=2,8=2,9=2,10=2/1;
 99/5=1,9=1/99;
 ------
 SP_-50
 ------
 Symbolic Z-matrix:
 Charge =  1 Multiplicity = 1
 C                    -0.0136    2.49416   1.36043 
 C                    -0.014     3.69683   0.67199 
 C                    -0.0045    3.67631  -0.71383 
 C                     0.01152   2.45668  -1.40754 
 C                     0.01187  -2.45598  -1.40754 
 C                    -0.0024   -3.67281  -0.71383 
 C                    -0.01067  -3.69561   0.67199 
 C                    -0.00695  -2.49206   1.36043 
 C                    -0.00648  -0.0077    1.45337 
 C                     0.0183    0.00035  -1.42919 
 C                     0.00248   1.2677    0.67707 
 C                     0.0082    1.23605  -0.7308 
 C                     0.003    -1.26788   0.67707 
 C                     0.0068   -1.2371   -0.7308 
 H                    -0.007     2.48955   2.44365 
 H                    -0.0145    4.63375   1.21169 
 H                     0.00165   4.61179  -1.27235 
 H                     0.006     2.46118  -2.49006 
 H                     0.01688   0.00018  -2.51027 
 H                     0.00495  -2.46065  -2.49006 
 H                     0.0027   -4.60741  -1.27235 
 H                    -0.01048  -4.63113   1.21169 
 H                     0.0007   -2.48727   2.44365 
 H                    -0.88359  -0.00175   2.14771 
 H                     0.83559  -0.00175   2.14386 
 
                          Input orientation:                          
 ---------------------------------------------------------------------
 Center     Atomic      Atomic             Coordinates (Angstroms)
 Number     Number       Type             X           Y           Z
 ---------------------------------------------------------------------
      1          6           0       -0.013600    2.494155    1.360431
      2          6           0       -0.014000    3.696833    0.671989
      3          6           0       -0.004500    3.676311   -0.713830
      4          6           0        0.011525    2.456681   -1.407538
      5          6           0        0.011875   -2.455981   -1.407538
      6          6           0       -0.002400   -3.672811   -0.713830
      7          6           0       -0.010675   -3.695608    0.671989
      8          6           0       -0.006950   -2.492055    1.360431
      9          6           0       -0.006475   -0.007700    1.453369
     10          6           0        0.018300    0.000350   -1.429189
     11          6           0        0.002475    1.267705    0.677065
     12          6           0        0.008200    1.236046   -0.730804
     13          6           0        0.003000   -1.267880    0.677065
     14          6           0        0.006800   -1.237096   -0.730804
     15          1           0       -0.007000    2.489546    2.443647
     16          1           0       -0.014500    4.633753    1.211689
     17          1           0        0.001650    4.611787   -1.272349
     18          1           0        0.006000    2.461175   -2.490059
     19          1           0        0.016875    0.000175   -2.510266
     20          1           0        0.004950   -2.460650   -2.490059
     21          1           0        0.002700   -4.607412   -1.272349
     22          1           0       -0.010475   -4.631128    1.211689
     23          1           0        0.000700   -2.487271    2.443647
     24          1           0       -0.883585   -0.001750    2.147712
     25          1           0        0.835585   -0.001750    2.143862
 ---------------------------------------------------------------------
                    Distance matrix (angstroms):
                    1          2          3          4          5
     1  C    0.000000
     2  C    1.385780   0.000000
     3  C    2.387495   1.386004   0.000000
     4  C    2.768337   2.421376   1.403205   0.000000
     5  C    5.671521   6.494784   6.171426   4.912662   0.000000
     6  C    6.506470   7.498819   7.349122   6.168638   1.400753
     7  C    6.227931   7.392442   7.501048   6.494273   2.421077
     8  C    4.986214   6.227065   6.507788   5.670272   2.768268
     9  C    2.503591   3.786050   4.274189   3.776015   3.765529
    10  C    3.741933   4.252056   3.744990   2.456436   2.456435
    11  C    1.404075   2.429189   2.781370   2.399857   4.267493
    12  C    2.440610   2.832630   2.440357   1.395683   3.753538
    13  C    3.823633   4.964745   5.136114   4.268255   2.399423
    14  C    4.277372   5.129514   4.913449   3.755260   1.394158
    15  H    1.083246   2.143913   3.373141   3.851370   6.268191
    16  H    2.144762   1.081247   2.150446   3.405976   7.558133
    17  H    3.378776   2.148915   1.089540   2.159365   7.069068
    18  H    3.850681   3.394967   2.152128   1.082544   5.034909
    19  H    4.604689   4.877805   4.091652   2.692668   2.692348
    20  H    6.275086   6.921958   6.388847   5.035081   1.082553
    21  H    7.573906   8.528846   8.302533   7.065392   2.155694
    22  H    7.126836   8.345431   8.527673   7.556313   3.404719
    23  H    5.097859   6.432894   6.925275   6.266929   3.851328
    24  H    2.757939   4.075960   4.742293   4.414171   4.411904
    25  H    2.750349   4.070347   4.732893   4.397204   4.394791
                    6          7          8          9         10
     6  C    0.000000
     7  C    1.386031   0.000000
     8  C    2.386790   1.386545   0.000000
     9  C    4.257911   3.769780   2.486093   0.000000
    10  C    3.742229   4.251575   3.740949   2.882676   0.000000
    11  C    5.132574   4.963333   3.821371   1.493113   2.458200
    12  C    4.908898   5.127319   4.274603   2.513510   1.419432
    13  C    2.778185   2.427772   1.402032   1.480132   2.458647
    14  C    2.435792   2.830621   2.438929   2.506432   1.420967
    15  H    6.924184   6.433888   5.098010   2.686427   4.603867
    16  H    8.526827   8.346828   7.127364   4.647748   5.333267
    17  H    8.303404   8.531906   7.576026   5.363699   4.614133
    18  H    6.385988   6.921330   6.273829   4.652539   2.679787
    19  H    4.088812   4.877122   4.603702   3.963712   1.081078
    20  H    2.150437   3.394689   3.850636   4.644106   2.679952
    21  H    1.088783   2.147560   3.377330   5.346679   4.610457
    22  H    2.150828   1.080034   2.144241   4.629742   5.331571
    23  H    3.372710   2.144523   1.083254   2.670014   4.602980
    24  H    4.737256   4.072385   2.754981   1.118691   3.688851
    25  H    4.727083   4.065360   2.743219   1.088982   3.665331
                   11         12         13         14         15
    11  C    0.000000
    12  C    1.408237   0.000000
    13  C    2.535585   2.872589   0.000000
    14  C    2.873350   2.473142   1.408211   0.000000
    15  H    2.147975   3.413009   4.152007   4.895425   0.000000
    16  H    3.408283   3.913848   5.925825   6.183899   2.472934
    17  H    3.870801   3.418909   6.194409   5.873902   4.279323
    18  H    3.384532   2.143811   4.892498   4.095386   4.933805
    19  H    3.430148   2.166550   3.430340   2.167355   5.544258
    20  H    4.891964   4.093965   3.384284   2.142911   6.988994
    21  H    6.190090   5.868501   3.866871   3.413549   8.010963
    22  H    5.923025   6.180401   3.405502   3.910630   7.226460
    23  H    4.149778   4.892881   2.146563   3.411761   4.976823
    24  H    2.135280   3.257802   2.133523   3.256489   2.657543
    25  H    2.111180   3.237346   2.108975   3.236768   2.646956
                   16         17         18         19         20
    16  H    0.000000
    17  H    2.484188   0.000000
    18  H    4.292255   2.471430   0.000000
    19  H    5.943398   4.774896   2.461107   0.000000
    20  H    8.002117   7.176503   4.921825   2.460937   0.000000
    21  H    9.569215   9.219199   7.172709   4.771006   2.468078
    22  H    9.264882   9.570897   8.000248   5.941605   4.291171
    23  H    7.226820   8.012818   6.987746   5.543366   4.933780
    24  H    4.808257   5.810782   5.326000   4.744217   5.323965
    25  H    4.804111   5.800920   5.312950   4.725590   5.311249
                   21         22         23         24         25
    21  H    0.000000
    22  H    2.484186   0.000000
    23  H    4.278274   2.472644   0.000000
    24  H    5.804691   4.803082   2.654685   0.000000
    25  H    5.794508   4.797489   2.639075   1.719174   0.000000
 Stoichiometry    C14H11(1+)
 Framework group  C1[X(C14H11)]
 Deg. of freedom    69
 Full point group                 C1      NOp   1
 Largest Abelian subgroup         C1      NOp   1
 Largest concise Abelian subgroup C1      NOp   1
                         Standard orientation:                         
 ---------------------------------------------------------------------
 Center     Atomic      Atomic             Coordinates (Angstroms)
 Number     Number       Type             X           Y           Z
 ---------------------------------------------------------------------
      1          6           0        2.493958   -1.360850    0.003283
      2          6           0        3.696737   -0.672600    0.007737
      3          6           0        3.676416    0.713255    0.007418
      4          6           0        2.456881    1.407230   -0.003505
      5          6           0       -2.455780    1.407943   -0.001802
      6          6           0       -3.672706    0.714332    0.008389
      7          6           0       -3.695704   -0.671509    0.007502
      8          6           0       -2.492254   -1.360085   -0.001283
      9          6           0       -0.007913   -1.453377   -0.003411
     10          6           0        0.000551    1.429281   -0.009110
     11          6           0        1.267602   -0.677215   -0.007756
     12          6           0        1.236148    0.730665   -0.004149
     13          6           0       -1.267983   -0.676845   -0.007221
     14          6           0       -1.236993    0.731014   -0.001716
     15          1           0        2.489187   -2.443998   -0.010484
     16          1           0        4.633578   -1.212427    0.004273
     17          1           0        4.611971    1.271667    0.004574
     18          1           0        2.461537    2.489690    0.009182
     19          1           0        0.000536    2.510324   -0.000530
     20          1           0       -2.460287    2.490395    0.012289
     21          1           0       -4.607227    1.273007    0.007377
     22          1           0       -4.631304   -1.211060    0.004120
     23          1           0       -2.487633   -2.443227   -0.016104
     24          1           0       -0.001700   -2.153511    0.869081
     25          1           0       -0.002416   -2.138282   -0.850025
 ---------------------------------------------------------------------
 Rotational constants (GHZ):           2.1360657           0.4458692           0.3696803
 Standard basis: 6-311++G(d,p) (5D, 7F)
 There are   399 symmetry adapted cartesian basis functions of A   symmetry.
 There are   385 symmetry adapted basis functions of A   symmetry.
   385 basis functions,   603 primitive gaussians,   399 cartesian basis functions
    47 alpha electrons       47 beta electrons
       nuclear repulsion energy       781.8819017683 Hartrees.
 NAtoms=   25 NActive=   25 NUniq=   25 SFac= 1.00D+00 NAtFMM=   60 NAOKFM=F Big=F
 Integral buffers will be    131072 words long.
 Regular integral format.
 Two-electron integral symmetry is turned on.
 Nuclear repulsion after empirical dispersion term =      781.8809224966 Hartrees.
 One-electron integrals computed using PRISM.
 NBasis=   385 RedAO= T EigKep=  1.15D-06  NBF=   385
 NBsUse=   379 1.00D-06 EigRej=  8.31D-07 NBFU=   379
 ExpMin= 3.60D-02 ExpMax= 4.56D+03 ExpMxC= 6.82D+02 IAcc=3 IRadAn=         5 AccDes= 0.00D+00
 Harris functional with IExCor= 1009 and IRadAn=       5 diagonalized for initial guess.
 HarFok:  IExCor= 1009 AccDes= 0.00D+00 IRadAn=         5 IDoV= 1 UseB2=F ITyADJ=14
 ICtDFT=  3500011 ScaDFX=  1.000000  1.000000  1.000000  1.000000
 FoFCou: FMM=F IPFlag=           0 FMFlag=      100000 FMFlg1=           0
         NFxFlg=           0 DoJE=T BraDBF=F KetDBF=T FulRan=T
         wScrn=  0.000000 ICntrl=       500 IOpCl=  0 I1Cent=   200000004 NGrid=           0
         NMat0=    1 NMatS0=      1 NMatT0=    0 NMatD0=    1 NMtDS0=    0 NMtDT0=    0
 Petite list used in FoFCou.
 Requested convergence on RMS density matrix=1.00D-08 within 128 cycles.
 Requested convergence on MAX density matrix=1.00D-06.
 Requested convergence on             energy=1.00D-06.
 No special actions if energy rises.
 SCF Done:  E(RM062X) =  -539.759814439     A.U. after   15 cycles
            NFock= 15  Conv=0.45D-08     -V/T= 2.0041
 DoSCS=F DFT=T ScalE2(SS,OS)=  1.000000  1.000000
 ExpMin= 3.60D-02 ExpMax= 4.56D+03 ExpMxC= 6.82D+02 IAcc=3 IRadAn=         5 AccDes= 0.00D+00
 HarFok:  IExCor=  205 AccDes= 0.00D+00 IRadAn=         5 IDoV=-2 UseB2=F ITyADJ=14
 ICtDFT= 12500011 ScaDFX=  1.000000  1.000000  1.000000  1.000000
 Range of M.O.s used for correlation:    15   379
 NBasis=   385 NAE=    47 NBE=    47 NFC=    14 NFV=     0
 NROrb=    365 NOA=    33 NOB=    33 NVA=   332 NVB=   332

 **** Warning!!: The largest alpha MO coefficient is  0.14874349D+03

 Orbital symmetries:
       Occupied  (A) (A) (A) (A) (A) (A) (A) (A) (A) (A) (A) (A)
                 (A) (A) (A) (A) (A) (A) (A) (A) (A) (A) (A) (A)
                 (A) (A) (A) (A) (A) (A) (A) (A) (A) (A) (A) (A)
                 (A) (A) (A) (A) (A) (A) (A) (A) (A) (A) (A)
       Virtual   (A) (A) (A) (A) (A) (A) (A) (A) (A) (A) (A) (A)
                 (A) (A) (A) (A) (A) (A) (A) (A) (A) (A) (A) (A)
                 (A) (A) (A) (A) (A) (A) (A) (A) (A) (A) (A) (A)
                 (A) (A) (A) (A) (A) (A) (A) (A) (A) (A) (A) (A)
                 (A) (A) (A) (A) (A) (A) (A) (A) (A) (A) (A) (A)
                 (A) (A) (A) (A) (A) (A) (A) (A) (A) (A) (A) (A)
                 (A) (A) (A) (A) (A) (A) (A) (A) (A) (A) (A) (A)
                 (A) (A) (A) (A) (A) (A) (A) (A) (A) (A) (A) (A)
                 (A) (A) (A) (A) (A) (A) (A) (A) (A) (A) (A) (A)
                 (A) (A) (A) (A) (A) (A) (A) (A) (A) (A) (A) (A)
                 (A) (A) (A) (A) (A) (A) (A) (A) (A) (A) (A) (A)
                 (A) (A) (A) (A) (A) (A) (A) (A) (A) (A) (A) (A)
                 (A) (A) (A) (A) (A) (A) (A) (A) (A) (A) (A) (A)
                 (A) (A) (A) (A) (A) (A) (A) (A) (A) (A) (A) (A)
                 (A) (A) (A) (A) (A) (A) (A) (A) (A) (A) (A) (A)
                 (A) (A) (A) (A) (A) (A) (A) (A) (A) (A) (A) (A)
                 (A) (A) (A) (A) (A) (A) (A) (A) (A) (A) (A) (A)
                 (A) (A) (A) (A) (A) (A) (A) (A) (A) (A) (A) (A)
                 (A) (A) (A) (A) (A) (A) (A) (A) (A) (A) (A) (A)
                 (A) (A) (A) (A) (A) (A) (A) (A) (A) (A) (A) (A)
                 (A) (A) (A) (A) (A) (A) (A) (A) (A) (A) (A) (A)
                 (A) (A) (A) (A) (A) (A) (A) (A) (A) (A) (A) (A)
                 (A) (A) (A) (A) (A) (A) (A) (A) (A) (A) (A) (A)
                 (A) (A) (A) (A) (A) (A) (A) (A) (A) (A) (A) (A)
                 (A) (A) (A) (A) (A) (A) (A) (A) (A) (A) (A) (A)
                 (A) (A) (A) (A) (A) (A) (A) (A) (A) (A) (A) (A)
                 (A) (A) (A) (A) (A) (A) (A) (A) (A) (A) (A) (A)
                 (A) (A) (A) (A) (A) (A) (A) (A)
     4 initial guesses have been made.
 Convergence on wavefunction:    0.001000000000000
 Iteration     1 Dimension     4 NMult     0 NNew      4
 CISAX will form     4 AO SS matrices at one time.
 Iteration     2 Dimension     6 NMult     4 NNew      2
 Iteration     3 Dimension     8 NMult     6 NNew      2
 Iteration     4 Dimension    10 NMult     8 NNew      2
 Iteration     5 Dimension    12 NMult    10 NNew      2
 Iteration     6 Dimension    14 NMult    12 NNew      2
 ***********************************************************************
 Excited states from <AA,BB:AA,BB> singles matrix:
 ***********************************************************************
 
 Ground to excited state transition densities written to RWF  633
 Ground to excited state transition electric dipole moments (Au):
       state          X           Y           Z        Dip. S.      Osc.
         1        -0.0098     -0.6492      0.0032      0.4215      0.0293
 Ground to excited state transition velocity dipole moments (Au):
       state          X           Y           Z        Dip. S.      Osc.
         1         0.0011      0.0752     -0.0004      0.0057      0.0362
 Ground to excited state transition magnetic dipole moments (Au):
       state          X           Y           Z
         1        -0.0040      0.0007      0.0005
 Ground to excited state transition velocity quadrupole moments (Au):
       state          XX          YY          ZZ          XY          XZ          YZ
         1         0.2886      0.0369     -0.0100      0.0015     -0.0000      0.0007
 <0|del|b> * <b|rxdel|0> + <0|del|b> * <b|delr+rdel|0>
 Rotatory Strengths (R) in cgs (10**-40 erg-esu-cm/Gauss)
       state          XX          YY          ZZ    R(velocity)    E-M Angle
         1         0.1884     -0.0104      0.1615      0.1132       90.00
 1/2[<0|r|b>*<b|rxdel|0> + (<0|rxdel|b>*<b|r|0>)*]
 Rotatory Strengths (R) in cgs (10**-40 erg-esu-cm/Gauss)
       state          XX          YY          ZZ     R(length)
         1        -0.0277      0.3321     -0.0012      0.1011
  1/2[<0|del|b>*<b|r|0> + (<0|r|b>*<b|del|0>)*] (Au)
       state          X           Y           Z        Dip. S.   Osc.(frdel)
         1        -0.0000     -0.0488     -0.0000      0.0488      0.0326

 Excitation energies and oscillator strengths:
 
 Excited State   1:      Singlet-A      2.8336 eV  437.55 nm  f=0.0293  <S**2>=0.000
      47 -> 48         0.70425
 This state for optimization and/or second-order correction.
 Total Energy, E(TD-HF/TD-DFT) =  -539.655682387    
 Copying the excited state density for this state as the 1-particle RhoCI density.
 SavETr:  write IOETrn=   770 NScale= 10 NData=  16 NLR=1 NState=    1 LETran=      28.

 **********************************************************************

            Population analysis using the SCF Density.

 **********************************************************************

 Orbital symmetries:
       Occupied  (A) (A) (A) (A) (A) (A) (A) (A) (A) (A) (A) (A)
                 (A) (A) (A) (A) (A) (A) (A) (A) (A) (A) (A) (A)
                 (A) (A) (A) (A) (A) (A) (A) (A) (A) (A) (A) (A)
                 (A) (A) (A) (A) (A) (A) (A) (A) (A) (A) (A)
       Virtual   (A) (A) (A) (A) (A) (A) (A) (A) (A) (A) (A) (A)
                 (A) (A) (A) (A) (A) (A) (A) (A) (A) (A) (A) (A)
                 (A) (A) (A) (A) (A) (A) (A) (A) (A) (A) (A) (A)
                 (A) (A) (A) (A) (A) (A) (A) (A) (A) (A) (A) (A)
                 (A) (A) (A) (A) (A) (A) (A) (A) (A) (A) (A) (A)
                 (A) (A) (A) (A) (A) (A) (A) (A) (A) (A) (A) (A)
                 (A) (A) (A) (A) (A) (A) (A) (A) (A) (A) (A) (A)
                 (A) (A) (A) (A) (A) (A) (A) (A) (A) (A) (A) (A)
                 (A) (A) (A) (A) (A) (A) (A) (A) (A) (A) (A) (A)
                 (A) (A) (A) (A) (A) (A) (A) (A) (A) (A) (A) (A)
                 (A) (A) (A) (A) (A) (A) (A) (A) (A) (A) (A) (A)
                 (A) (A) (A) (A) (A) (A) (A) (A) (A) (A) (A) (A)
                 (A) (A) (A) (A) (A) (A) (A) (A) (A) (A) (A) (A)
                 (A) (A) (A) (A) (A) (A) (A) (A) (A) (A) (A) (A)
                 (A) (A) (A) (A) (A) (A) (A) (A) (A) (A) (A) (A)
                 (A) (A) (A) (A) (A) (A) (A) (A) (A) (A) (A) (A)
                 (A) (A) (A) (A) (A) (A) (A) (A) (A) (A) (A) (A)
                 (A) (A) (A) (A) (A) (A) (A) (A) (A) (A) (A) (A)
                 (A) (A) (A) (A) (A) (A) (A) (A) (A) (A) (A) (A)
                 (A) (A) (A) (A) (A) (A) (A) (A) (A) (A) (A) (A)
                 (A) (A) (A) (A) (A) (A) (A) (A) (A) (A) (A) (A)
                 (A) (A) (A) (A) (A) (A) (A) (A) (A) (A) (A) (A)
                 (A) (A) (A) (A) (A) (A) (A) (A) (A) (A) (A) (A)
                 (A) (A) (A) (A) (A) (A) (A) (A) (A) (A) (A) (A)
                 (A) (A) (A) (A) (A) (A) (A) (A) (A) (A) (A) (A)
                 (A) (A) (A) (A) (A) (A) (A) (A) (A) (A) (A) (A)
                 (A) (A) (A) (A) (A) (A) (A) (A) (A) (A) (A) (A)
                 (A) (A) (A) (A) (A) (A) (A) (A)
 The electronic state is 1-A.
 Alpha  occ. eigenvalues --  -10.77672 -10.73267 -10.73169 -10.72377 -10.72372
 Alpha  occ. eigenvalues --  -10.71317 -10.71265 -10.70976 -10.70967 -10.70950
 Alpha  occ. eigenvalues --  -10.69909 -10.69872 -10.69681 -10.69633  -1.16495
 Alpha  occ. eigenvalues --   -1.12623  -1.07030  -1.05681  -1.01472  -1.00158
 Alpha  occ. eigenvalues --   -0.95842  -0.91040  -0.86429  -0.85929  -0.83823
 Alpha  occ. eigenvalues --   -0.78414  -0.76036  -0.74449  -0.69561  -0.69226
 Alpha  occ. eigenvalues --   -0.68496  -0.68138  -0.68010  -0.64857  -0.64386
 Alpha  occ. eigenvalues --   -0.62968  -0.61759  -0.60052  -0.59793  -0.59049
 Alpha  occ. eigenvalues --   -0.56881  -0.55180  -0.54773  -0.52500  -0.46741
 Alpha  occ. eigenvalues --   -0.46044  -0.44567
 Alpha virt. eigenvalues --   -0.26105  -0.14593  -0.14079  -0.12683  -0.11181
 Alpha virt. eigenvalues --   -0.10091  -0.09242  -0.08016  -0.07955  -0.07481
 Alpha virt. eigenvalues --   -0.07207  -0.07132  -0.05641  -0.05581  -0.05319
 Alpha virt. eigenvalues --   -0.03848  -0.03676  -0.03278  -0.03131  -0.02166
 Alpha virt. eigenvalues --   -0.01377  -0.00949   0.00193   0.00557   0.00668
 Alpha virt. eigenvalues --    0.01063   0.01512   0.01956   0.02223   0.02282
 Alpha virt. eigenvalues --    0.02458   0.02663   0.02824   0.03246   0.03348
 Alpha virt. eigenvalues --    0.04234   0.04508   0.04701   0.05075   0.05374
 Alpha virt. eigenvalues --    0.06004   0.06304   0.06606   0.07042   0.07265
 Alpha virt. eigenvalues --    0.07906   0.08231   0.08352   0.08574   0.08925
 Alpha virt. eigenvalues --    0.09538   0.09556   0.10036   0.10850   0.11066
 Alpha virt. eigenvalues --    0.11131   0.12171   0.12231   0.12936   0.12948
 Alpha virt. eigenvalues --    0.13419   0.13496   0.14014   0.14459   0.16112
 Alpha virt. eigenvalues --    0.16235   0.16491   0.17324   0.17608   0.17758
 Alpha virt. eigenvalues --    0.18129   0.19129   0.19282   0.19668   0.19765
 Alpha virt. eigenvalues --    0.21607   0.21632   0.22690   0.23083   0.23557
 Alpha virt. eigenvalues --    0.23814   0.24589   0.25201   0.26900   0.27673
 Alpha virt. eigenvalues --    0.28846   0.29283   0.29851   0.31394   0.35812
 Alpha virt. eigenvalues --    0.36543   0.38191   0.39340   0.41137   0.41360
 Alpha virt. eigenvalues --    0.41976   0.42125   0.42963   0.43774   0.44256
 Alpha virt. eigenvalues --    0.45018   0.45128   0.46050   0.46159   0.47923
 Alpha virt. eigenvalues --    0.48496   0.48858   0.49002   0.50397   0.51265
 Alpha virt. eigenvalues --    0.51640   0.51739   0.52139   0.53085   0.53937
 Alpha virt. eigenvalues --    0.54051   0.54735   0.55712   0.55769   0.57405
 Alpha virt. eigenvalues --    0.58258   0.58819   0.61461   0.62207   0.62332
 Alpha virt. eigenvalues --    0.63222   0.63504   0.64842   0.65178   0.67083
 Alpha virt. eigenvalues --    0.70472   0.70541   0.71035   0.72452   0.72856
 Alpha virt. eigenvalues --    0.75765   0.75936   0.76319   0.76799   0.77041
 Alpha virt. eigenvalues --    0.77791   0.77862   0.78250   0.80143   0.80360
 Alpha virt. eigenvalues --    0.81325   0.81610   0.82165   0.83054   0.85117
 Alpha virt. eigenvalues --    0.87146   0.88108   0.88168   0.89544   0.90426
 Alpha virt. eigenvalues --    0.90960   0.91429   0.93367   0.94717   0.96380
 Alpha virt. eigenvalues --    0.96678   1.00289   1.01306   1.01781   1.02889
 Alpha virt. eigenvalues --    1.03195   1.03976   1.04724   1.05424   1.08915
 Alpha virt. eigenvalues --    1.19387   1.23231   1.24065   1.25345   1.28065
 Alpha virt. eigenvalues --    1.29939   1.31519   1.34451   1.35869   1.36125
 Alpha virt. eigenvalues --    1.39439   1.40122   1.41015   1.43244   1.43557
 Alpha virt. eigenvalues --    1.43638   1.45243   1.45450   1.46383   1.46648
 Alpha virt. eigenvalues --    1.47734   1.48281   1.51763   1.53688   1.55766
 Alpha virt. eigenvalues --    1.56005   1.56483   1.56668   1.57891   1.61587
 Alpha virt. eigenvalues --    1.63098   1.63334   1.63533   1.66187   1.68229
 Alpha virt. eigenvalues --    1.68488   1.68721   1.69732   1.74603   1.76001
 Alpha virt. eigenvalues --    1.77208   1.78088   1.79981   1.80419   1.81017
 Alpha virt. eigenvalues --    1.83110   1.83318   1.83523   1.83994   1.84102
 Alpha virt. eigenvalues --    1.84408   1.86010   1.86172   1.88308   1.91311
 Alpha virt. eigenvalues --    1.92165   1.94105   1.95176   1.97881   1.98446
 Alpha virt. eigenvalues --    2.00028   2.02367   2.04608   2.06994   2.11895
 Alpha virt. eigenvalues --    2.12137   2.14091   2.15279   2.19527   2.21232
 Alpha virt. eigenvalues --    2.23068   2.28801   2.30368   2.34496   2.35151
 Alpha virt. eigenvalues --    2.36280   2.38293   2.39044   2.42373   2.43380
 Alpha virt. eigenvalues --    2.46747   2.47586   2.49578   2.53061   2.53796
 Alpha virt. eigenvalues --    2.54184   2.56657   2.57930   2.58427   2.59715
 Alpha virt. eigenvalues --    2.59940   2.61535   2.62218   2.63571   2.63943
 Alpha virt. eigenvalues --    2.64790   2.65066   2.65363   2.65397   2.67967
 Alpha virt. eigenvalues --    2.68371   2.71066   2.71395   2.73414   2.74838
 Alpha virt. eigenvalues --    2.76390   2.79007   2.79860   2.83145   2.83243
 Alpha virt. eigenvalues --    2.85240   2.86378   2.92168   2.96879   2.99696
 Alpha virt. eigenvalues --    3.00305   3.04691   3.11566   3.11859   3.13630
 Alpha virt. eigenvalues --    3.20833   3.23655   3.27129   3.28445   3.31052
 Alpha virt. eigenvalues --    3.33419   3.33658   3.43471   3.46066   3.47368
 Alpha virt. eigenvalues --    3.49040   3.50625   3.56608   3.65346   3.67152
 Alpha virt. eigenvalues --    3.67615   3.93351   3.94312   3.94662   3.96178
 Alpha virt. eigenvalues --    4.03571   4.06898   4.07668   4.12550   4.35369
 Alpha virt. eigenvalues --    4.61123   4.70223   4.72093  23.45196  23.59973
 Alpha virt. eigenvalues --   23.82546  23.85226  23.88142  23.89644  23.90604
 Alpha virt. eigenvalues --   23.92402  23.98251  24.00512  24.00865  24.01207
 Alpha virt. eigenvalues --   24.11190  24.11428
          Condensed to atoms (all electrons):
               1          2          3          4          5          6
     1  C    8.528091   0.415319  -0.576377   1.850857  -0.016081  -0.095749
     2  C    0.415319   7.080615   0.366308  -0.988590  -0.035055  -0.015992
     3  C   -0.576377   0.366308   6.612418   0.741248  -0.118625   0.017501
     4  C    1.850857  -0.988590   0.741248  10.753296  -0.300158  -0.122450
     5  C   -0.016081  -0.035055  -0.118625  -0.300158  10.657704   0.757363
     6  C   -0.095749  -0.015992   0.017501  -0.122450   0.757363   6.620113
     7  C   -0.021369   0.004999  -0.015884  -0.033241  -0.988822   0.369608
     8  C    0.411720  -0.024845  -0.095692  -0.002986   1.806169  -0.563624
     9  C   -1.285212  -0.725421   0.285342  -0.291304  -0.340040   0.283372
    10  C   -1.220366   0.211337  -0.358111  -2.511661  -2.501994  -0.377170
    11  C    0.275907  -0.961817   1.010665  -0.192157  -1.519669  -0.190543
    12  C   -1.910041   1.209145  -1.352529  -1.407881  -0.294773  -0.195741
    13  C    0.201179  -0.196638  -0.189013  -1.542413  -0.195617   1.022552
    14  C   -1.060361  -0.209371  -0.197642  -0.327386  -1.287722  -1.381766
    15  H    0.364986  -0.102836  -0.002365   0.025305   0.005838   0.001174
    16  H   -0.018477   0.378206  -0.015694   0.014187  -0.001619  -0.000347
    17  H   -0.022226  -0.018319   0.372452  -0.065119   0.000372   0.000408
    18  H    0.048931   0.003718  -0.086123   0.452790   0.007550  -0.005064
    19  H   -0.046340  -0.007674   0.050505  -0.067328  -0.063526   0.050936
    20  H    0.007532   0.001910  -0.004976   0.007718   0.451214  -0.085041
    21  H   -0.001325  -0.000400   0.000403   0.000374  -0.064441   0.372572
    22  H    0.000709   0.000373  -0.000343  -0.001632   0.013729  -0.014964
    23  H    0.005860  -0.002670   0.001150   0.006005   0.024861  -0.002103
    24  H    0.042039   0.014468  -0.000958  -0.012792  -0.011081  -0.001485
    25  H    0.024730   0.014389  -0.002420  -0.011216  -0.012197  -0.001751
               7          8          9         10         11         12
     1  C   -0.021369   0.411720  -1.285212  -1.220366   0.275907  -1.910041
     2  C    0.004999  -0.024845  -0.725421   0.211337  -0.961817   1.209145
     3  C   -0.015884  -0.095692   0.285342  -0.358111   1.010665  -1.352529
     4  C   -0.033241  -0.002986  -0.291304  -2.511661  -0.192157  -1.407881
     5  C   -0.988822   1.806169  -0.340040  -2.501994  -1.519669  -0.294773
     6  C    0.369608  -0.563624   0.283372  -0.377170  -0.190543  -0.195741
     7  C    7.100893   0.424306  -0.722434   0.215654  -0.209394  -0.214942
     8  C    0.424306   8.526665  -1.327745  -1.216778   0.186573  -1.082126
     9  C   -0.722434  -1.327745   9.423166   0.337762   1.594016  -1.729003
    10  C    0.215654  -1.216778   0.337762   9.208542  -0.511281   2.366783
    11  C   -0.209394   0.186573   1.594016  -0.511281  14.380065  -3.796614
    12  C   -0.214942  -1.082126  -1.729003   2.366783  -3.796614  15.735325
    13  C   -0.973538   0.311753   1.624014  -0.535272   1.203286  -4.683776
    14  C    1.197414  -1.850595  -1.697352   2.327146  -4.713499   2.919493
    15  H   -0.002722   0.005852   0.088603  -0.009194  -0.025789  -0.022909
    16  H    0.000379   0.000814   0.004461  -0.010258   0.030081  -0.038025
    17  H   -0.000399  -0.001341  -0.005035   0.019983  -0.026113   0.087591
    18  H    0.001893   0.007711  -0.026365   0.016300  -0.007699  -0.052268
    19  H   -0.007724  -0.046253   0.075538   0.421920   0.069329  -0.063227
    20  H    0.003243   0.048219  -0.026724   0.016678  -0.010643  -0.012940
    21  H   -0.017771  -0.022237  -0.005067   0.019968  -0.006386   0.005091
    22  H    0.379013  -0.020319   0.003882  -0.010145   0.003271  -0.009347
    23  H   -0.102845   0.363407   0.087220  -0.009056   0.000348   0.006831
    24  H    0.012985   0.038610   0.349435   0.005068   0.016411  -0.067962
    25  H    0.016028   0.029579   0.360628   0.004785   0.008938  -0.050600
              13         14         15         16         17         18
     1  C    0.201179  -1.060361   0.364986  -0.018477  -0.022226   0.048931
     2  C   -0.196638  -0.209371  -0.102836   0.378206  -0.018319   0.003718
     3  C   -0.189013  -0.197642  -0.002365  -0.015694   0.372452  -0.086123
     4  C   -1.542413  -0.327386   0.025305   0.014187  -0.065119   0.452790
     5  C   -0.195617  -1.287722   0.005838  -0.001619   0.000372   0.007550
     6  C    1.022552  -1.381766   0.001174  -0.000347   0.000408  -0.005064
     7  C   -0.973538   1.197414  -0.002722   0.000379  -0.000399   0.001893
     8  C    0.311753  -1.850595   0.005852   0.000814  -0.001341   0.007711
     9  C    1.624014  -1.697352   0.088603   0.004461  -0.005035  -0.026365
    10  C   -0.535272   2.327146  -0.009194  -0.010258   0.019983   0.016300
    11  C    1.203286  -4.713499  -0.025789   0.030081  -0.026113  -0.007699
    12  C   -4.683776   2.919493  -0.022909  -0.038025   0.087591  -0.052268
    13  C   14.332698  -3.813897   0.000407   0.003232  -0.006132  -0.011093
    14  C   -3.813897  15.651366   0.006833  -0.009401   0.005084  -0.012999
    15  H    0.000407   0.006833   0.438648  -0.009036   0.001412   0.000202
    16  H    0.003232  -0.009401  -0.009036   0.419309  -0.006571   0.001944
    17  H   -0.006132   0.005084   0.001412  -0.006571   0.421452  -0.010074
    18  H   -0.011093  -0.012999   0.000202   0.001944  -0.010074   0.453922
    19  H    0.072611  -0.062810   0.000329  -0.000530   0.001371  -0.006005
    20  H   -0.007755  -0.051044  -0.000114   0.000015  -0.000142   0.001281
    21  H   -0.027176   0.087867   0.000014  -0.000007   0.000010  -0.000143
    22  H    0.029547  -0.035937  -0.000127   0.000007  -0.000007   0.000014
    23  H   -0.025132  -0.021000   0.000608  -0.000125   0.000013  -0.000113
    24  H    0.018990  -0.069893  -0.000581   0.000521  -0.000101   0.000169
    25  H    0.007038  -0.049282  -0.001252   0.000750  -0.000179   0.000201
              19         20         21         22         23         24
     1  C   -0.046340   0.007532  -0.001325   0.000709   0.005860   0.042039
     2  C   -0.007674   0.001910  -0.000400   0.000373  -0.002670   0.014468
     3  C    0.050505  -0.004976   0.000403  -0.000343   0.001150  -0.000958
     4  C   -0.067328   0.007718   0.000374  -0.001632   0.006005  -0.012792
     5  C   -0.063526   0.451214  -0.064441   0.013729   0.024861  -0.011081
     6  C    0.050936  -0.085041   0.372572  -0.014964  -0.002103  -0.001485
     7  C   -0.007724   0.003243  -0.017771   0.379013  -0.102845   0.012985
     8  C   -0.046253   0.048219  -0.022237  -0.020319   0.363407   0.038610
     9  C    0.075538  -0.026724  -0.005067   0.003882   0.087220   0.349435
    10  C    0.421920   0.016678   0.019968  -0.010145  -0.009056   0.005068
    11  C    0.069329  -0.010643  -0.006386   0.003271   0.000348   0.016411
    12  C   -0.063227  -0.012940   0.005091  -0.009347   0.006831  -0.067962
    13  C    0.072611  -0.007755  -0.027176   0.029547  -0.025132   0.018990
    14  C   -0.062810  -0.051044   0.087867  -0.035937  -0.021000  -0.069893
    15  H    0.000329  -0.000114   0.000014  -0.000127   0.000608  -0.000581
    16  H   -0.000530   0.000015  -0.000007   0.000007  -0.000125   0.000521
    17  H    0.001371  -0.000142   0.000010  -0.000007   0.000013  -0.000101
    18  H   -0.006005   0.001281  -0.000143   0.000014  -0.000113   0.000169
    19  H    0.441568  -0.005831   0.001362  -0.000526   0.000315   0.000582
    20  H   -0.005831   0.453865  -0.010137   0.001901   0.000202   0.000208
    21  H    0.001362  -0.010137   0.421724  -0.006613   0.001438  -0.000120
    22  H   -0.000526   0.001901  -0.006613   0.419408  -0.008985   0.000582
    23  H    0.000315   0.000202   0.001438  -0.008985   0.438496  -0.000669
    24  H    0.000582   0.000208  -0.000120   0.000582  -0.000669   0.494868
    25  H    0.000538   0.000167  -0.000166   0.000699  -0.001097  -0.079792
              25
     1  C    0.024730
     2  C    0.014389
     3  C   -0.002420
     4  C   -0.011216
     5  C   -0.012197
     6  C   -0.001751
     7  C    0.016028
     8  C    0.029579
     9  C    0.360628
    10  C    0.004785
    11  C    0.008938
    12  C   -0.050600
    13  C    0.007038
    14  C   -0.049282
    15  H   -0.001252
    16  H    0.000750
    17  H   -0.000179
    18  H    0.000201
    19  H    0.000538
    20  H    0.000167
    21  H   -0.000166
    22  H    0.000699
    23  H   -0.001097
    24  H   -0.079792
    25  H    0.494414
 Mulliken charges:
               1
     1  C    0.096065
     2  C   -0.411160
     3  C   -0.441240
     4  C    0.026533
     5  C    0.026621
     6  C   -0.441809
     7  C   -0.415328
     8  C    0.093161
     9  C   -0.335736
    10  C    0.099361
    11  C   -0.607286
    12  C    0.654446
    13  C   -0.619855
    14  C    0.656753
    15  H    0.236714
    16  H    0.256185
    17  H    0.251608
    18  H    0.221320
    19  H    0.190870
    20  H    0.221194
    21  H    0.251163
    22  H    0.255809
    23  H    0.237042
    24  H    0.250500
    25  H    0.247071
 Sum of Mulliken charges =   1.00000
 Mulliken charges with hydrogens summed into heavy atoms:
               1
     1  C    0.332779
     2  C   -0.154975
     3  C   -0.189632
     4  C    0.247853
     5  C    0.247815
     6  C   -0.190646
     7  C   -0.159519
     8  C    0.330202
     9  C    0.161835
    10  C    0.290232
    11  C   -0.607286
    12  C    0.654446
    13  C   -0.619855
    14  C    0.656753
 Electronic spatial extent (au):  <R**2>=           2850.1053
 Charge=              1.0000 electrons
 Dipole moment (field-independent basis, Debye):
    X=              0.0090    Y=              0.1842    Z=             -0.0006  Tot=              0.1845
 Quadrupole moment (field-independent basis, Debye-Ang):
   XX=            -31.2462   YY=            -56.2629   ZZ=            -84.0934
   XY=              0.0050   XZ=             -0.0086   YZ=              0.0709
 Traceless Quadrupole moment (field-independent basis, Debye-Ang):
   XX=             25.9547   YY=              0.9379   ZZ=            -26.8926
   XY=              0.0050   XZ=             -0.0086   YZ=              0.0709
 Octapole moment (field-independent basis, Debye-Ang**2):
  XXX=              0.3809  YYY=              5.2040  ZZZ=             -0.0262  XYY=             -0.0025
  XXY=             -5.6637  XXZ=              0.1205  XZZ=             -0.0479  YZZ=             -3.0924
  YYZ=              0.0934  XYZ=             -0.0427
 Hexadecapole moment (field-independent basis, Debye-Ang**3):
 XXXX=          -2120.0643 YYYY=           -609.2705 ZZZZ=            -99.2030 XXXY=              0.2178
 XXXZ=             -0.2389 YYYX=             -0.0921 YYYZ=              0.7631 ZZZX=             -0.0103
 ZZZY=              0.0361 XXYY=           -506.7158 XXZZ=           -589.1181 YYZZ=           -145.6416
 XXYZ=              0.7762 YYXZ=             -0.0010 ZZXY=              0.0042
 N-N= 7.818809224966D+02 E-N=-2.800141638996D+03  KE= 5.375499642303D+02
 Unable to Open any file for archive entry.
 1\1\GINC-GADI-CPU-CLX-0113\SP\RM062X TD-FC\6-311++G(d,p)\C14H11(1+)\TS
 1578\28-Jul-2022\0\\#n M062X/6-311++G(d,p) TD(NStates=1) EmpiricalDisp
 ersion=GD3 SP\\SP_-50\\1,1\C,0,-0.0136,2.494155,1.360431\C,0,-0.014,3.
 696833,0.671989\C,0,-0.0045,3.676311,-0.71383\C,0,0.011525,2.456681,-1
 .407538\C,0,0.011875,-2.455981,-1.407538\C,0,-0.0024,-3.672811,-0.7138
 3\C,0,-0.010675,-3.695608,0.671989\C,0,-0.00695,-2.492055,1.360431\C,0
 ,-0.006475,-0.0077,1.453369\C,0,0.0183,0.00035,-1.429189\C,0,0.002475,
 1.267705,0.677065\C,0,0.0082,1.236046,-0.730804\C,0,0.003,-1.26788,0.6
 77065\C,0,0.0068,-1.237096,-0.730804\H,0,-0.007,2.489546,2.443647\H,0,
 -0.0145,4.633753,1.211689\H,0,0.00165,4.611787,-1.272349\H,0,0.006,2.4
 61175,-2.490059\H,0,0.016875,0.000175,-2.510266\H,0,0.00495,-2.46065,-
 2.490059\H,0,0.0027,-4.607412,-1.272349\H,0,-0.010475,-4.631128,1.2116
 89\H,0,0.0007,-2.487271,2.443647\H,0,-0.883585,-0.00175,2.147712\H,0,0
 .835585,-0.00175,2.143862\\Version=ES64L-G16RevC.01\State=1-A\HF=-539.
 7598144\RMSD=4.507e-09\PG=C01 [X(C14H11)]\\@
 The archive entry for this job was punched.


 LIFE CAN ONLY BE UNDERSTOOD BACKWARD, BUT MUST
 BE LIVED FORWARD. -- KIRKEGAARD
 Job cpu time:       0 days  1 hours 19 minutes 33.5 seconds.
 Elapsed time:       0 days  0 hours  1 minutes 39.6 seconds.
 File lengths (MBytes):  RWF=    460 Int=      0 D2E=      0 Chk=     15 Scr=      1
 Normal termination of Gaussian 16 at Thu Jul 28 14:17:57 2022.
