 Entering Gaussian System, Link 0=g16
 Initial command:
 /apps/gaussian/g16c01/g16/l1.exe "/jobfs/53002009.gadi-pbs/Gau-753231.inp" -scrdir="/jobfs/53002009.gadi-pbs/"
 Entering Link 1 = /apps/gaussian/g16c01/g16/l1.exe PID=    753232.
  
 Copyright (c) 1988-2019, Gaussian, Inc.  All Rights Reserved.
  
 This is part of the Gaussian(R) 16 program.  It is based on
 the Gaussian(R) 09 system (copyright 2009, Gaussian, Inc.),
 the Gaussian(R) 03 system (copyright 2003, Gaussian, Inc.),
 the Gaussian(R) 98 system (copyright 1998, Gaussian, Inc.),
 the Gaussian(R) 94 system (copyright 1995, Gaussian, Inc.),
 the Gaussian 92(TM) system (copyright 1992, Gaussian, Inc.),
 the Gaussian 90(TM) system (copyright 1990, Gaussian, Inc.),
 the Gaussian 88(TM) system (copyright 1988, Gaussian, Inc.),
 the Gaussian 86(TM) system (copyright 1986, Carnegie Mellon
 University), and the Gaussian 82(TM) system (copyright 1983,
 Carnegie Mellon University). Gaussian is a federally registered
 trademark of Gaussian, Inc.
  
 This software contains proprietary and confidential information,
 including trade secrets, belonging to Gaussian, Inc.
  
 This software is provided under written license and may be
 used, copied, transmitted, or stored only in accord with that
 written license.
  
 The following legend is applicable only to US Government
 contracts under FAR:
  
                    RESTRICTED RIGHTS LEGEND
  
 Use, reproduction and disclosure by the US Government is
 subject to restrictions as set forth in subparagraphs (a)
 and (c) of the Commercial Computer Software - Restricted
 Rights clause in FAR 52.227-19.
  
 Gaussian, Inc.
 340 Quinnipiac St., Bldg. 40, Wallingford CT 06492
  
  
 ---------------------------------------------------------------
 Warning -- This program may not be used in any manner that
 competes with the business of Gaussian, Inc. or will provide
 assistance to any competitor of Gaussian, Inc.  The licensee
 of this program is prohibited from giving any competitor of
 Gaussian, Inc. access to this program.  By using this program,
 the user acknowledges that Gaussian, Inc. is engaged in the
 business of creating and licensing software in the field of
 computational chemistry and represents and warrants to the
 licensee that it is not a competitor of Gaussian, Inc. and that
 it will not use this program in any manner prohibited above.
 ---------------------------------------------------------------
  

 Cite this work as:
 Gaussian 16, Revision C.01,
 M. J. Frisch, G. W. Trucks, H. B. Schlegel, G. E. Scuseria, 
 M. A. Robb, J. R. Cheeseman, G. Scalmani, V. Barone, 
 G. A. Petersson, H. Nakatsuji, X. Li, M. Caricato, A. V. Marenich, 
 J. Bloino, B. G. Janesko, R. Gomperts, B. Mennucci, H. P. Hratchian, 
 J. V. Ortiz, A. F. Izmaylov, J. L. Sonnenberg, D. Williams-Young, 
 F. Ding, F. Lipparini, F. Egidi, J. Goings, B. Peng, A. Petrone, 
 T. Henderson, D. Ranasinghe, V. G. Zakrzewski, J. Gao, N. Rega, 
 G. Zheng, W. Liang, M. Hada, M. Ehara, K. Toyota, R. Fukuda, 
 J. Hasegawa, M. Ishida, T. Nakajima, Y. Honda, O. Kitao, H. Nakai, 
 T. Vreven, K. Throssell, J. A. Montgomery, Jr., J. E. Peralta, 
 F. Ogliaro, M. J. Bearpark, J. J. Heyd, E. N. Brothers, K. N. Kudin, 
 V. N. Staroverov, T. A. Keith, R. Kobayashi, J. Normand, 
 K. Raghavachari, A. P. Rendell, J. C. Burant, S. S. Iyengar, 
 J. Tomasi, M. Cossi, J. M. Millam, M. Klene, C. Adamo, R. Cammi, 
 J. W. Ochterski, R. L. Martin, K. Morokuma, O. Farkas, 
 J. B. Foresman, and D. J. Fox, Gaussian, Inc., Wallingford CT, 2019.
 
 ******************************************
 Gaussian 16:  ES64L-G16RevC.01  3-Jul-2019
                28-Jul-2022 
 ******************************************
 %NProcShared=48
 Will use up to   48 processors via shared memory.
 %mem = 190GB
 ---------------------------------------------------------------
 #n M062X/6-311++G(d,p) TD(NStates=1) EmpiricalDispersion=GD3 SP
 ---------------------------------------------------------------
 1/38=1,172=1/1;
 2/12=2,17=6,18=5,40=1/2;
 3/5=4,6=6,7=1111,11=9,25=1,30=1,74=-55,124=31/1,2,3,8;
 4//1;
 5/5=2,38=5/2;
 8/6=1,10=2,108=1/1;
 9/41=1,42=1,70=2/14;
 6/7=2,8=2,9=2,10=2/1;
 99/5=1,9=1/99;
 ------
 SP_-25
 ------
 Symbolic Z-matrix:
 Charge =  1 Multiplicity = 1
 C                     0.00295   2.49266   1.36043 
 C                     0.00387   3.70336   0.67199 
 C                     0.001     3.68721  -0.71383 
 C                    -0.00392   2.46548  -1.40754 
 C                    -0.00387  -2.46538  -1.40754 
 C                     0.0013   -3.68671  -0.71383 
 C                     0.00435  -3.70318   0.67199 
 C                     0.0039   -2.49236   1.36043 
 C                     0.0022   -0.0011    1.45337 
 C                    -0.0061    0.00005  -1.42919 
 C                    -0.00095   1.26013   0.67707 
 C                    -0.0024    1.2377   -0.7308 
 C                    -0.00088  -1.26016   0.67707 
 C                    -0.0026   -1.23785  -0.7308 
 H                     0.0005    2.48812   2.44365 
 H                     0.00388   4.63838   1.21169 
 H                    -0.0008    4.60946  -1.27235 
 H                    -0.00175   2.4698   -2.49006 
 H                    -0.00563   0.00003  -2.51027 
 H                    -0.0019   -2.46973  -2.49006 
 H                    -0.00065  -4.60884  -1.27235 
 H                     0.00445  -4.638     1.21169 
 H                     0.0016   -2.4878    2.44365 
 H                    -0.85159  -0.00025   2.14606 
 H                     0.86759  -0.00025   2.14551 
 
                          Input orientation:                          
 ---------------------------------------------------------------------
 Center     Atomic      Atomic             Coordinates (Angstroms)
 Number     Number       Type             X           Y           Z
 ---------------------------------------------------------------------
      1          6           0        0.002950    2.492655    1.360431
      2          6           0        0.003875    3.703358    0.671989
      3          6           0        0.001000    3.687211   -0.713830
      4          6           0       -0.003925    2.465481   -1.407538
      5          6           0       -0.003875   -2.465381   -1.407538
      6          6           0        0.001300   -3.686711   -0.713830
      7          6           0        0.004350   -3.703183    0.671989
      8          6           0        0.003900   -2.492355    1.360431
      9          6           0        0.002200   -0.001100    1.453369
     10          6           0       -0.006100    0.000050   -1.429189
     11          6           0       -0.000950    1.260130    0.677065
     12          6           0       -0.002400    1.237696   -0.730804
     13          6           0       -0.000875   -1.260155    0.677065
     14          6           0       -0.002600   -1.237846   -0.730804
     15          1           0        0.000500    2.488121    2.443647
     16          1           0        0.003875    4.638378    1.211689
     17          1           0       -0.000800    4.609462   -1.272349
     18          1           0       -0.001750    2.469800   -2.490059
     19          1           0       -0.005625    0.000025   -2.510266
     20          1           0       -0.001900   -2.469725   -2.490059
     21          1           0       -0.000650   -4.608837   -1.272349
     22          1           0        0.004450   -4.638003    1.211689
     23          1           0        0.001600   -2.487796    2.443647
     24          1           0       -0.851585   -0.000250    2.146062
     25          1           0        0.867585   -0.000250    2.145512
 ---------------------------------------------------------------------
                    Distance matrix (angstroms):
                    1          2          3          4          5
     1  C    0.000000
     2  C    1.392751   0.000000
     3  C    2.393643   1.385916   0.000000
     4  C    2.768111   2.420089   1.404948   0.000000
     5  C    5.678364   6.509826   6.191578   4.930862   0.000000
     6  C    6.518215   7.518884   7.373922   6.191181   1.404601
     7  C    6.233968   7.406541   7.519204   6.509755   2.420052
     8  C    4.985010   6.233844   6.518405   5.678191   2.768111
     9  C    2.495486   3.785970   4.277896   3.777413   3.775911
    10  C    3.741008   4.257880   3.755921   2.465527   2.465527
    11  C    1.409298   2.443238   2.797376   2.407997   4.269076
    12  C    2.438896   2.836786   2.449576   1.401937   3.764406
    13  C    3.814523   4.963518   5.139166   4.269185   2.407934
    14  C    4.276673   5.136474   4.925088   3.764652   1.401718
    15  H    1.083228   2.148391   3.377496   3.851254   6.274458
    16  H    2.150872   1.079601   2.147638   3.403218   7.571248
    17  H    3.378227   2.145110   1.078190   2.148241   7.076135
    18  H    3.850561   3.394149   2.153390   1.082532   5.052511
    19  H    4.603865   4.882777   4.101532   2.700830   2.700785
    20  H    6.281044   6.935815   6.408031   5.052535   1.082532
    21  H    7.573819   8.536572   8.314828   7.075610   2.147717
    22  H    7.132209   8.358803   8.544988   7.570991   3.403044
    23  H    5.096886   6.439656   6.935443   6.274282   3.851254
    24  H    2.749913   4.076937   4.743759   4.407542   4.407216
    25  H    2.752911   4.078477   4.745964   4.411748   4.411403
                    6          7          8          9         10
     6  C    0.000000
     7  C    1.385920   0.000000
     8  C    2.393544   1.392859   0.000000
     9  C    4.275568   3.783646   2.492989   0.000000
    10  C    3.755529   4.257816   3.740877   2.882570   0.000000
    11  C    5.138660   4.963318   3.814205   1.480999   2.454411
    12  C    4.924438   5.136162   4.276282   2.511025   1.421099
    13  C    2.796921   2.443039   1.409017   1.479147   2.454475
    14  C    2.448927   2.836505   2.438667   2.510015   1.421316
    15  H    6.935287   6.439801   5.096912   2.678969   4.603194
    16  H    8.544866   8.359002   7.132284   4.645769   5.337455
    17  H    8.314952   8.537010   7.574124   5.356009   4.612083
    18  H    6.407623   6.935727   6.280867   4.653599   2.687960
    19  H    4.101128   4.882683   4.603732   3.963643   1.081077
    20  H    2.153150   3.394113   3.850561   4.652392   2.687983
    21  H    1.078083   2.144921   3.378024   5.353577   4.611558
    22  H    2.147694   1.079428   2.150797   4.643198   5.337217
    23  H    3.377434   2.148475   1.083228   2.676622   4.603075
    24  H    4.743036   4.076424   2.749483   1.099442   3.673862
    25  H    4.745132   4.077764   2.751889   1.108131   3.679920
                   11         12         13         14         15
    11  C    0.000000
    12  C    1.408048   0.000000
    13  C    2.520285   2.867291   0.000000
    14  C    2.867400   2.475542   1.408047   0.000000
    15  H    2.151459   3.411849   4.143717   4.894893   0.000000
    16  H    3.420293   3.916370   5.922714   6.188968   2.478172
    17  H    3.875337   3.414979   6.184870   5.872332   4.278868
    18  H    3.390277   2.147803   4.893183   4.103854   4.933741
    19  H    3.427385   2.167562   3.427412   2.167676   5.543637
    20  H    4.893107   4.103651   3.390241   2.147674   6.994405
    21  H    6.184253   5.871560   3.874776   3.414214   8.010958
    22  H    5.922316   6.188470   3.419899   3.915916   7.231831
    23  H    4.143401   4.894532   2.151260   3.411676   4.975917
    24  H    2.114259   3.244994   2.114006   3.244808   2.646998
    25  H    2.121143   3.250012   2.120830   3.249932   2.651926
                   16         17         18         19         20
    16  H    0.000000
    17  H    2.484211   0.000000
    18  H    4.290187   2.461904   0.000000
    19  H    5.947046   4.772774   2.469861   0.000000
    20  H    8.014244   7.183154   4.939525   2.469835   0.000000
    21  H    9.575043   9.218299   7.182612   4.772219   2.461426
    22  H    9.276381   9.575285   8.013978   5.946794   4.290036
    23  H    7.231880   8.011224   6.994228   5.543515   4.933740
    24  H    4.808506   5.801622   5.321371   4.732551   5.321080
    25  H    4.809874   5.803905   5.324041   4.736957   5.323798
                   21         22         23         24         25
    21  H    0.000000
    22  H    2.484214   0.000000
    23  H    4.278720   2.478128   0.000000
    24  H    5.800750   4.807765   2.646576   0.000000
    25  H    5.802989   4.808927   2.650792   1.719170   0.000000
 Stoichiometry    C14H11(1+)
 Framework group  C1[X(C14H11)]
 Deg. of freedom    69
 Full point group                 C1      NOp   1
 Largest Abelian subgroup         C1      NOp   1
 Largest concise Abelian subgroup C1      NOp   1
                         Standard orientation:                         
 ---------------------------------------------------------------------
 Center     Atomic      Atomic             Coordinates (Angstroms)
 Number     Number       Type             X           Y           Z
 ---------------------------------------------------------------------
      1          6           0       -2.492626   -1.360487    0.000016
      2          6           0       -3.703343   -0.672074    0.002526
      3          6           0       -3.687226    0.713748    0.002695
      4          6           0       -2.465511    1.407491   -0.000778
      5          6           0        2.465351    1.407596   -0.001021
      6          6           0        3.686696    0.713904    0.002557
      7          6           0        3.703198   -0.671918    0.002561
      8          6           0        2.492384   -1.360383    0.000670
      9          6           0        0.001131   -1.453370   -0.001086
     10          6           0       -0.000080    1.429199   -0.003052
     11          6           0       -1.260116   -0.677088   -0.002456
     12          6           0       -1.237711    0.730781   -0.000813
     13          6           0        1.260169   -0.677034   -0.002530
     14          6           0        1.237831    0.730834   -0.001160
     15          1           0       -2.488069   -2.443695   -0.004814
     16          1           0       -4.638352   -1.211793    0.001395
     17          1           0       -4.609489    1.272250    0.002177
     18          1           0       -2.469852    2.490005    0.003776
     19          1           0       -0.000078    2.510273   -0.000202
     20          1           0        2.469673    2.490110    0.003332
     21          1           0        4.608810    1.272445    0.001779
     22          1           0        4.638029   -1.211597    0.001419
     23          1           0        2.487848   -2.443592   -0.004010
     24          1           0        0.000245   -2.144185   -0.856391
     25          1           0        0.000347   -2.147413    0.862776
 ---------------------------------------------------------------------
 Rotational constants (GHZ):           2.1362092           0.4442120           0.3685414
 Standard basis: 6-311++G(d,p) (5D, 7F)
 There are   399 symmetry adapted cartesian basis functions of A   symmetry.
 There are   385 symmetry adapted basis functions of A   symmetry.
   385 basis functions,   603 primitive gaussians,   399 cartesian basis functions
    47 alpha electrons       47 beta electrons
       nuclear repulsion energy       780.9659760724 Hartrees.
 NAtoms=   25 NActive=   25 NUniq=   25 SFac= 1.00D+00 NAtFMM=   60 NAOKFM=F Big=F
 Integral buffers will be    131072 words long.
 Regular integral format.
 Two-electron integral symmetry is turned on.
 Nuclear repulsion after empirical dispersion term =      780.9649965019 Hartrees.
 One-electron integrals computed using PRISM.
 NBasis=   385 RedAO= T EigKep=  1.13D-06  NBF=   385
 NBsUse=   379 1.00D-06 EigRej=  8.44D-07 NBFU=   379
 ExpMin= 3.60D-02 ExpMax= 4.56D+03 ExpMxC= 6.82D+02 IAcc=3 IRadAn=         5 AccDes= 0.00D+00
 Harris functional with IExCor= 1009 and IRadAn=       5 diagonalized for initial guess.
 HarFok:  IExCor= 1009 AccDes= 0.00D+00 IRadAn=         5 IDoV= 1 UseB2=F ITyADJ=14
 ICtDFT=  3500011 ScaDFX=  1.000000  1.000000  1.000000  1.000000
 FoFCou: FMM=F IPFlag=           0 FMFlag=      100000 FMFlg1=           0
         NFxFlg=           0 DoJE=T BraDBF=F KetDBF=T FulRan=T
         wScrn=  0.000000 ICntrl=       500 IOpCl=  0 I1Cent=   200000004 NGrid=           0
         NMat0=    1 NMatS0=      1 NMatT0=    0 NMatD0=    1 NMtDS0=    0 NMtDT0=    0
 Petite list used in FoFCou.
 Requested convergence on RMS density matrix=1.00D-08 within 128 cycles.
 Requested convergence on MAX density matrix=1.00D-06.
 Requested convergence on             energy=1.00D-06.
 No special actions if energy rises.
 SCF Done:  E(RM062X) =  -539.760062536     A.U. after   15 cycles
            NFock= 15  Conv=0.46D-08     -V/T= 2.0042
 DoSCS=F DFT=T ScalE2(SS,OS)=  1.000000  1.000000
 ExpMin= 3.60D-02 ExpMax= 4.56D+03 ExpMxC= 6.82D+02 IAcc=3 IRadAn=         5 AccDes= 0.00D+00
 HarFok:  IExCor=  205 AccDes= 0.00D+00 IRadAn=         5 IDoV=-2 UseB2=F ITyADJ=14
 ICtDFT= 12500011 ScaDFX=  1.000000  1.000000  1.000000  1.000000
 Range of M.O.s used for correlation:    15   379
 NBasis=   385 NAE=    47 NBE=    47 NFC=    14 NFV=     0
 NROrb=    365 NOA=    33 NOB=    33 NVA=   332 NVB=   332

 **** Warning!!: The largest alpha MO coefficient is  0.14766736D+03

 Orbital symmetries:
       Occupied  (A) (A) (A) (A) (A) (A) (A) (A) (A) (A) (A) (A)
                 (A) (A) (A) (A) (A) (A) (A) (A) (A) (A) (A) (A)
                 (A) (A) (A) (A) (A) (A) (A) (A) (A) (A) (A) (A)
                 (A) (A) (A) (A) (A) (A) (A) (A) (A) (A) (A)
       Virtual   (A) (A) (A) (A) (A) (A) (A) (A) (A) (A) (A) (A)
                 (A) (A) (A) (A) (A) (A) (A) (A) (A) (A) (A) (A)
                 (A) (A) (A) (A) (A) (A) (A) (A) (A) (A) (A) (A)
                 (A) (A) (A) (A) (A) (A) (A) (A) (A) (A) (A) (A)
                 (A) (A) (A) (A) (A) (A) (A) (A) (A) (A) (A) (A)
                 (A) (A) (A) (A) (A) (A) (A) (A) (A) (A) (A) (A)
                 (A) (A) (A) (A) (A) (A) (A) (A) (A) (A) (A) (A)
                 (A) (A) (A) (A) (A) (A) (A) (A) (A) (A) (A) (A)
                 (A) (A) (A) (A) (A) (A) (A) (A) (A) (A) (A) (A)
                 (A) (A) (A) (A) (A) (A) (A) (A) (A) (A) (A) (A)
                 (A) (A) (A) (A) (A) (A) (A) (A) (A) (A) (A) (A)
                 (A) (A) (A) (A) (A) (A) (A) (A) (A) (A) (A) (A)
                 (A) (A) (A) (A) (A) (A) (A) (A) (A) (A) (A) (A)
                 (A) (A) (A) (A) (A) (A) (A) (A) (A) (A) (A) (A)
                 (A) (A) (A) (A) (A) (A) (A) (A) (A) (A) (A) (A)
                 (A) (A) (A) (A) (A) (A) (A) (A) (A) (A) (A) (A)
                 (A) (A) (A) (A) (A) (A) (A) (A) (A) (A) (A) (A)
                 (A) (A) (A) (A) (A) (A) (A) (A) (A) (A) (A) (A)
                 (A) (A) (A) (A) (A) (A) (A) (A) (A) (A) (A) (A)
                 (A) (A) (A) (A) (A) (A) (A) (A) (A) (A) (A) (A)
                 (A) (A) (A) (A) (A) (A) (A) (A) (A) (A) (A) (A)
                 (A) (A) (A) (A) (A) (A) (A) (A) (A) (A) (A) (A)
                 (A) (A) (A) (A) (A) (A) (A) (A) (A) (A) (A) (A)
                 (A) (A) (A) (A) (A) (A) (A) (A) (A) (A) (A) (A)
                 (A) (A) (A) (A) (A) (A) (A) (A) (A) (A) (A) (A)
                 (A) (A) (A) (A) (A) (A) (A) (A) (A) (A) (A) (A)
                 (A) (A) (A) (A) (A) (A) (A) (A) (A) (A) (A) (A)
                 (A) (A) (A) (A) (A) (A) (A) (A)
     4 initial guesses have been made.
 Convergence on wavefunction:    0.001000000000000
 Iteration     1 Dimension     4 NMult     0 NNew      4
 CISAX will form     4 AO SS matrices at one time.
 Iteration     2 Dimension     6 NMult     4 NNew      2
 Iteration     3 Dimension     8 NMult     6 NNew      2
 Iteration     4 Dimension    10 NMult     8 NNew      2
 Iteration     5 Dimension    12 NMult    10 NNew      2
 Iteration     6 Dimension    14 NMult    12 NNew      2
 ***********************************************************************
 Excited states from <AA,BB:AA,BB> singles matrix:
 ***********************************************************************
 
 Ground to excited state transition densities written to RWF  633
 Ground to excited state transition electric dipole moments (Au):
       state          X           Y           Z        Dip. S.      Osc.
         1         0.0014     -0.6426      0.0010      0.4130      0.0285
 Ground to excited state transition velocity dipole moments (Au):
       state          X           Y           Z        Dip. S.      Osc.
         1        -0.0002      0.0743     -0.0001      0.0055      0.0355
 Ground to excited state transition magnetic dipole moments (Au):
       state          X           Y           Z
         1        -0.0013      0.0001     -0.0000
 Ground to excited state transition velocity quadrupole moments (Au):
       state          XX          YY          ZZ          XY          XZ          YZ
         1         0.3003      0.0345     -0.0098     -0.0002     -0.0000      0.0002
 <0|del|b> * <b|rxdel|0> + <0|del|b> * <b|delr+rdel|0>
 Rotatory Strengths (R) in cgs (10**-40 erg-esu-cm/Gauss)
       state          XX          YY          ZZ    R(velocity)    E-M Angle
         1         0.0295      0.0005      0.0243      0.0181       90.00
 1/2[<0|r|b>*<b|rxdel|0> + (<0|rxdel|b>*<b|r|0>)*]
 Rotatory Strengths (R) in cgs (10**-40 erg-esu-cm/Gauss)
       state          XX          YY          ZZ     R(length)
         1         0.0014      0.0474      0.0000      0.0163
  1/2[<0|del|b>*<b|r|0> + (<0|r|b>*<b|del|0>)*] (Au)
       state          X           Y           Z        Dip. S.   Osc.(frdel)
         1        -0.0000     -0.0477     -0.0000      0.0477      0.0318

 Excitation energies and oscillator strengths:
 
 Excited State   1:      Singlet-A      2.8188 eV  439.86 nm  f=0.0285  <S**2>=0.000
      47 -> 48         0.70426
 This state for optimization and/or second-order correction.
 Total Energy, E(TD-HF/TD-DFT) =  -539.656475336    
 Copying the excited state density for this state as the 1-particle RhoCI density.
 SavETr:  write IOETrn=   770 NScale= 10 NData=  16 NLR=1 NState=    1 LETran=      28.

 **********************************************************************

            Population analysis using the SCF Density.

 **********************************************************************

 Orbital symmetries:
       Occupied  (A) (A) (A) (A) (A) (A) (A) (A) (A) (A) (A) (A)
                 (A) (A) (A) (A) (A) (A) (A) (A) (A) (A) (A) (A)
                 (A) (A) (A) (A) (A) (A) (A) (A) (A) (A) (A) (A)
                 (A) (A) (A) (A) (A) (A) (A) (A) (A) (A) (A)
       Virtual   (A) (A) (A) (A) (A) (A) (A) (A) (A) (A) (A) (A)
                 (A) (A) (A) (A) (A) (A) (A) (A) (A) (A) (A) (A)
                 (A) (A) (A) (A) (A) (A) (A) (A) (A) (A) (A) (A)
                 (A) (A) (A) (A) (A) (A) (A) (A) (A) (A) (A) (A)
                 (A) (A) (A) (A) (A) (A) (A) (A) (A) (A) (A) (A)
                 (A) (A) (A) (A) (A) (A) (A) (A) (A) (A) (A) (A)
                 (A) (A) (A) (A) (A) (A) (A) (A) (A) (A) (A) (A)
                 (A) (A) (A) (A) (A) (A) (A) (A) (A) (A) (A) (A)
                 (A) (A) (A) (A) (A) (A) (A) (A) (A) (A) (A) (A)
                 (A) (A) (A) (A) (A) (A) (A) (A) (A) (A) (A) (A)
                 (A) (A) (A) (A) (A) (A) (A) (A) (A) (A) (A) (A)
                 (A) (A) (A) (A) (A) (A) (A) (A) (A) (A) (A) (A)
                 (A) (A) (A) (A) (A) (A) (A) (A) (A) (A) (A) (A)
                 (A) (A) (A) (A) (A) (A) (A) (A) (A) (A) (A) (A)
                 (A) (A) (A) (A) (A) (A) (A) (A) (A) (A) (A) (A)
                 (A) (A) (A) (A) (A) (A) (A) (A) (A) (A) (A) (A)
                 (A) (A) (A) (A) (A) (A) (A) (A) (A) (A) (A) (A)
                 (A) (A) (A) (A) (A) (A) (A) (A) (A) (A) (A) (A)
                 (A) (A) (A) (A) (A) (A) (A) (A) (A) (A) (A) (A)
                 (A) (A) (A) (A) (A) (A) (A) (A) (A) (A) (A) (A)
                 (A) (A) (A) (A) (A) (A) (A) (A) (A) (A) (A) (A)
                 (A) (A) (A) (A) (A) (A) (A) (A) (A) (A) (A) (A)
                 (A) (A) (A) (A) (A) (A) (A) (A) (A) (A) (A) (A)
                 (A) (A) (A) (A) (A) (A) (A) (A) (A) (A) (A) (A)
                 (A) (A) (A) (A) (A) (A) (A) (A) (A) (A) (A) (A)
                 (A) (A) (A) (A) (A) (A) (A) (A) (A) (A) (A) (A)
                 (A) (A) (A) (A) (A) (A) (A) (A) (A) (A) (A) (A)
                 (A) (A) (A) (A) (A) (A) (A) (A)
 The electronic state is 1-A.
 Alpha  occ. eigenvalues --  -10.77663 -10.73255 -10.73241 -10.72457 -10.72455
 Alpha  occ. eigenvalues --  -10.71398 -10.71391 -10.71022 -10.71019 -10.70980
 Alpha  occ. eigenvalues --  -10.70003 -10.69997 -10.69624 -10.69618  -1.16426
 Alpha  occ. eigenvalues --   -1.12413  -1.06917  -1.05748  -1.01263  -1.00191
 Alpha  occ. eigenvalues --   -0.95762  -0.91061  -0.86416  -0.85893  -0.83814
 Alpha  occ. eigenvalues --   -0.78396  -0.76024  -0.74408  -0.69563  -0.69257
 Alpha  occ. eigenvalues --   -0.68518  -0.68208  -0.68120  -0.64700  -0.64251
 Alpha  occ. eigenvalues --   -0.63095  -0.61901  -0.59984  -0.59641  -0.59106
 Alpha  occ. eigenvalues --   -0.56903  -0.55227  -0.54857  -0.52417  -0.46589
 Alpha  occ. eigenvalues --   -0.46057  -0.44478
 Alpha virt. eigenvalues --   -0.26083  -0.14697  -0.14105  -0.12805  -0.11178
 Alpha virt. eigenvalues --   -0.10085  -0.09226  -0.07984  -0.07964  -0.07474
 Alpha virt. eigenvalues --   -0.07205  -0.07148  -0.05644  -0.05582  -0.05337
 Alpha virt. eigenvalues --   -0.03818  -0.03641  -0.03280  -0.03133  -0.02164
 Alpha virt. eigenvalues --   -0.01365  -0.00925   0.00192   0.00604   0.00667
 Alpha virt. eigenvalues --    0.01053   0.01513   0.01933   0.02217   0.02287
 Alpha virt. eigenvalues --    0.02445   0.02676   0.02720   0.03326   0.03375
 Alpha virt. eigenvalues --    0.04243   0.04504   0.04693   0.05016   0.05362
 Alpha virt. eigenvalues --    0.06037   0.06294   0.06595   0.07043   0.07249
 Alpha virt. eigenvalues --    0.07886   0.08141   0.08364   0.08524   0.08930
 Alpha virt. eigenvalues --    0.09551   0.09561   0.10038   0.10860   0.11025
 Alpha virt. eigenvalues --    0.11115   0.12180   0.12250   0.12909   0.12987
 Alpha virt. eigenvalues --    0.13405   0.13529   0.14019   0.14357   0.16244
 Alpha virt. eigenvalues --    0.16251   0.16399   0.17356   0.17620   0.17785
 Alpha virt. eigenvalues --    0.18118   0.19051   0.19220   0.19627   0.19723
 Alpha virt. eigenvalues --    0.21540   0.21570   0.22731   0.23116   0.23562
 Alpha virt. eigenvalues --    0.23769   0.24570   0.25299   0.26913   0.27580
 Alpha virt. eigenvalues --    0.28844   0.29295   0.29857   0.31335   0.35817
 Alpha virt. eigenvalues --    0.36388   0.38157   0.39252   0.41160   0.41421
 Alpha virt. eigenvalues --    0.41962   0.42230   0.42993   0.43651   0.44298
 Alpha virt. eigenvalues --    0.44909   0.44982   0.46082   0.46103   0.47948
 Alpha virt. eigenvalues --    0.48544   0.48873   0.49038   0.50432   0.51142
 Alpha virt. eigenvalues --    0.51558   0.51632   0.52114   0.52841   0.53978
 Alpha virt. eigenvalues --    0.54099   0.54620   0.55687   0.55759   0.57474
 Alpha virt. eigenvalues --    0.58232   0.58807   0.61432   0.62175   0.62342
 Alpha virt. eigenvalues --    0.63176   0.63512   0.64942   0.65148   0.67253
 Alpha virt. eigenvalues --    0.70408   0.70616   0.71009   0.72382   0.72853
 Alpha virt. eigenvalues --    0.75775   0.75987   0.76260   0.76890   0.77080
 Alpha virt. eigenvalues --    0.77823   0.77826   0.78221   0.79931   0.80400
 Alpha virt. eigenvalues --    0.81223   0.81649   0.82118   0.82990   0.85159
 Alpha virt. eigenvalues --    0.87128   0.88172   0.88460   0.89180   0.90408
 Alpha virt. eigenvalues --    0.91032   0.91276   0.93148   0.94629   0.96460
 Alpha virt. eigenvalues --    0.96636   1.00426   1.01284   1.01660   1.02664
 Alpha virt. eigenvalues --    1.03175   1.03844   1.04703   1.05449   1.08745
 Alpha virt. eigenvalues --    1.19610   1.23293   1.24054   1.25272   1.27984
 Alpha virt. eigenvalues --    1.29622   1.31828   1.34218   1.35708   1.35978
 Alpha virt. eigenvalues --    1.39308   1.40179   1.40891   1.42961   1.43399
 Alpha virt. eigenvalues --    1.43500   1.45175   1.45264   1.46376   1.46694
 Alpha virt. eigenvalues --    1.47616   1.47925   1.51706   1.53611   1.55749
 Alpha virt. eigenvalues --    1.55825   1.56277   1.56549   1.57739   1.61397
 Alpha virt. eigenvalues --    1.63281   1.63620   1.63814   1.66083   1.68246
 Alpha virt. eigenvalues --    1.68391   1.68673   1.69728   1.74310   1.75980
 Alpha virt. eigenvalues --    1.77146   1.78024   1.80016   1.80031   1.80599
 Alpha virt. eigenvalues --    1.83168   1.83185   1.83598   1.83761   1.84200
 Alpha virt. eigenvalues --    1.84224   1.85849   1.86004   1.88193   1.91408
 Alpha virt. eigenvalues --    1.92016   1.94132   1.95203   1.97630   1.98056
 Alpha virt. eigenvalues --    1.99647   2.02430   2.04335   2.07337   2.11777
 Alpha virt. eigenvalues --    2.12029   2.14052   2.15198   2.18972   2.21224
 Alpha virt. eigenvalues --    2.22682   2.28571   2.30069   2.34631   2.34968
 Alpha virt. eigenvalues --    2.36184   2.38805   2.39755   2.42321   2.44447
 Alpha virt. eigenvalues --    2.46376   2.46419   2.49255   2.52840   2.53799
 Alpha virt. eigenvalues --    2.54231   2.56823   2.57817   2.58276   2.59634
 Alpha virt. eigenvalues --    2.59775   2.61623   2.62069   2.63500   2.63773
 Alpha virt. eigenvalues --    2.64745   2.65081   2.65198   2.65246   2.67930
 Alpha virt. eigenvalues --    2.68595   2.70929   2.71408   2.73336   2.74816
 Alpha virt. eigenvalues --    2.76283   2.78693   2.79682   2.82743   2.83025
 Alpha virt. eigenvalues --    2.84764   2.86277   2.92095   2.96976   2.99462
 Alpha virt. eigenvalues --    2.99976   3.05236   3.10917   3.11291   3.12821
 Alpha virt. eigenvalues --    3.21013   3.23719   3.26571   3.28123   3.30673
 Alpha virt. eigenvalues --    3.32576   3.33494   3.43389   3.45810   3.46330
 Alpha virt. eigenvalues --    3.48340   3.49979   3.56437   3.65881   3.66882
 Alpha virt. eigenvalues --    3.67383   3.94453   3.94589   3.95390   3.96263
 Alpha virt. eigenvalues --    4.04142   4.06921   4.07397   4.12536   4.35568
 Alpha virt. eigenvalues --    4.61423   4.69671   4.71456  23.45391  23.60715
 Alpha virt. eigenvalues --   23.82133  23.85690  23.87803  23.89213  23.90482
 Alpha virt. eigenvalues --   23.92244  23.97595  23.99260  23.99409  23.99925
 Alpha virt. eigenvalues --   24.10307  24.10412
          Condensed to atoms (all electrons):
               1          2          3          4          5          6
     1  C    8.573639   0.322710  -0.545854   1.972642  -0.028372  -0.094748
     2  C    0.322710   7.118778   0.353813  -1.067005  -0.018313  -0.014306
     3  C   -0.545854   0.353813   6.581322   0.749018  -0.123226   0.016802
     4  C    1.972642  -1.067005   0.749018  10.994477  -0.347617  -0.123623
     5  C   -0.028372  -0.018313  -0.123226  -0.347617  10.989360   0.751880
     6  C   -0.094748  -0.014306   0.016802  -0.123623   0.751880   6.582131
     7  C   -0.018769   0.001586  -0.014289  -0.018069  -1.069062   0.354507
     8  C    0.402646  -0.019337  -0.094710  -0.026436   1.967331  -0.544092
     9  C   -1.161878  -0.800837   0.294987  -0.217355  -0.221971   0.294520
    10  C   -1.276446   0.247110  -0.349001  -2.567213  -2.567238  -0.350929
    11  C    0.285495  -0.908630   1.017468  -0.308088  -1.506559  -0.169648
    12  C   -2.054405   1.347081  -1.392475  -1.572245  -0.320316  -0.201076
    13  C    0.200833  -0.243434  -0.169181  -1.507624  -0.306159   1.017665
    14  C   -1.072182  -0.194915  -0.201224  -0.322745  -1.561756  -1.395822
    15  H    0.367022  -0.106010  -0.001206   0.027447   0.005701   0.001097
    16  H   -0.019346   0.379033  -0.017086   0.013591  -0.001526  -0.000325
    17  H   -0.024713  -0.016716   0.375840  -0.067756   0.000277   0.000397
    18  H    0.049849   0.003352  -0.085478   0.457114   0.006619  -0.005059
    19  H   -0.046784  -0.007782   0.051405  -0.071400  -0.071091   0.051428
    20  H    0.007189   0.002028  -0.005051   0.006642   0.457159  -0.085323
    21  H   -0.001308  -0.000397   0.000396   0.000274  -0.067737   0.375867
    22  H    0.000694   0.000361  -0.000325  -0.001525   0.013526  -0.017001
    23  H    0.005709  -0.002650   0.001095   0.005709   0.027438  -0.001183
    24  H    0.030387   0.014775  -0.001579  -0.012475  -0.012230  -0.001651
    25  H    0.034715   0.014065  -0.001422  -0.012238  -0.012424  -0.001329
               7          8          9         10         11         12
     1  C   -0.018769   0.402646  -1.161878  -1.276446   0.285495  -2.054405
     2  C    0.001586  -0.019337  -0.800837   0.247110  -0.908630   1.347081
     3  C   -0.014289  -0.094710   0.294987  -0.349001   1.017468  -1.392475
     4  C   -0.018069  -0.026436  -0.217355  -2.567213  -0.308088  -1.572245
     5  C   -1.069062   1.967331  -0.221971  -2.567238  -1.506559  -0.320316
     6  C    0.354507  -0.544092   0.294520  -0.350929  -0.169648  -0.201076
     7  C    7.123760   0.322710  -0.801925   0.248110  -0.245680  -0.195640
     8  C    0.322710   8.573996  -1.167108  -1.276291   0.198394  -1.075482
     9  C   -0.801925  -1.167108   9.577906   0.252972   1.621775  -1.944622
    10  C    0.248110  -1.276291   0.252972   9.149635  -0.442406   2.411161
    11  C   -0.245680   0.198394   1.621775  -0.442406  14.516500  -3.751506
    12  C   -0.195640  -1.075482  -1.944622   2.411161  -3.751506  16.033642
    13  C   -0.910352   0.292906   1.625742  -0.443170   1.097085  -4.813973
    14  C    1.348132  -2.048421  -1.940984   2.408212  -4.818885   3.061000
    15  H   -0.002662   0.005719   0.091746  -0.009654  -0.030324  -0.024802
    16  H    0.000362   0.000709   0.003493  -0.009384   0.026481  -0.032806
    17  H   -0.000397  -0.001312  -0.005689   0.020470  -0.027223   0.091420
    18  H    0.002028   0.007218  -0.024792   0.013565  -0.008419  -0.053203
    19  H   -0.007776  -0.046782   0.075500   0.422069   0.079277  -0.065950
    20  H    0.003245   0.049809  -0.024831   0.013503  -0.012083  -0.013472
    21  H   -0.016635  -0.024776  -0.005693   0.020480  -0.006267   0.005267
    22  H    0.379151  -0.019599   0.003401  -0.009355   0.003008  -0.009003
    23  H   -0.106129   0.366800   0.091622  -0.009652   0.001597   0.006517
    24  H    0.014553   0.029902   0.358925   0.005509   0.011730  -0.056598
    25  H    0.014329   0.035397   0.354403   0.005373   0.015353  -0.063640
              13         14         15         16         17         18
     1  C    0.200833  -1.072182   0.367022  -0.019346  -0.024713   0.049849
     2  C   -0.243434  -0.194915  -0.106010   0.379033  -0.016716   0.003352
     3  C   -0.169181  -0.201224  -0.001206  -0.017086   0.375840  -0.085478
     4  C   -1.507624  -0.322745   0.027447   0.013591  -0.067756   0.457114
     5  C   -0.306159  -1.561756   0.005701  -0.001526   0.000277   0.006619
     6  C    1.017665  -1.395822   0.001097  -0.000325   0.000397  -0.005059
     7  C   -0.910352   1.348132  -0.002662   0.000362  -0.000397   0.002028
     8  C    0.292906  -2.048421   0.005719   0.000709  -0.001312   0.007218
     9  C    1.625742  -1.940984   0.091746   0.003493  -0.005689  -0.024792
    10  C   -0.443170   2.408212  -0.009654  -0.009384   0.020470   0.013565
    11  C    1.097085  -4.818885  -0.030324   0.026481  -0.027223  -0.008419
    12  C   -4.813973   3.061000  -0.024802  -0.032806   0.091420  -0.053203
    13  C   14.500958  -3.755137   0.001578   0.003012  -0.006240  -0.012069
    14  C   -3.755137  16.024568   0.006501  -0.009019   0.005263  -0.013415
    15  H    0.001578   0.006501   0.439165  -0.009017   0.001483   0.000165
    16  H    0.003012  -0.009019  -0.009017   0.419534  -0.006671   0.001929
    17  H   -0.006240   0.005263   0.001483  -0.006671   0.422791  -0.010304
    18  H   -0.012069  -0.013415   0.000165   0.001929  -0.010304   0.453591
    19  H    0.079483  -0.066015   0.000309  -0.000545   0.001432  -0.006286
    20  H   -0.008379  -0.053098  -0.000114   0.000015  -0.000144   0.001272
    21  H   -0.027342   0.091531   0.000014  -0.000007   0.000011  -0.000144
    22  H    0.026382  -0.032495  -0.000127   0.000007  -0.000007   0.000015
    23  H   -0.030168  -0.024616   0.000575  -0.000127   0.000014  -0.000114
    24  H    0.011946  -0.056901  -0.001008   0.000652  -0.000151   0.000174
    25  H    0.015279  -0.063356  -0.000816   0.000604  -0.000134   0.000187
              19         20         21         22         23         24
     1  C   -0.046784   0.007189  -0.001308   0.000694   0.005709   0.030387
     2  C   -0.007782   0.002028  -0.000397   0.000361  -0.002650   0.014775
     3  C    0.051405  -0.005051   0.000396  -0.000325   0.001095  -0.001579
     4  C   -0.071400   0.006642   0.000274  -0.001525   0.005709  -0.012475
     5  C   -0.071091   0.457159  -0.067737   0.013526   0.027438  -0.012230
     6  C    0.051428  -0.085323   0.375867  -0.017001  -0.001183  -0.001651
     7  C   -0.007776   0.003245  -0.016635   0.379151  -0.106129   0.014553
     8  C   -0.046782   0.049809  -0.024776  -0.019599   0.366800   0.029902
     9  C    0.075500  -0.024831  -0.005693   0.003401   0.091622   0.358925
    10  C    0.422069   0.013503   0.020480  -0.009355  -0.009652   0.005509
    11  C    0.079277  -0.012083  -0.006267   0.003008   0.001597   0.011730
    12  C   -0.065950  -0.013472   0.005267  -0.009003   0.006517  -0.056598
    13  C    0.079483  -0.008379  -0.027342   0.026382  -0.030168   0.011946
    14  C   -0.066015  -0.053098   0.091531  -0.032495  -0.024616  -0.056901
    15  H    0.000309  -0.000114   0.000014  -0.000127   0.000575  -0.001008
    16  H   -0.000545   0.000015  -0.000007   0.000007  -0.000127   0.000652
    17  H    0.001432  -0.000144   0.000011  -0.000007   0.000014  -0.000151
    18  H   -0.006286   0.001272  -0.000144   0.000015  -0.000114   0.000174
    19  H    0.443286  -0.006272   0.001433  -0.000545   0.000307   0.000600
    20  H   -0.006272   0.453577  -0.010320   0.001924   0.000167   0.000179
    21  H    0.001433  -0.010320   0.422845  -0.006677   0.001485  -0.000154
    22  H   -0.000545   0.001924  -0.006677   0.419542  -0.009012   0.000660
    23  H    0.000307   0.000167   0.001485  -0.009012   0.439195  -0.001029
    24  H    0.000600   0.000179  -0.000154   0.000660  -0.001029   0.493577
    25  H    0.000604   0.000182  -0.000131   0.000597  -0.000790  -0.079532
              25
     1  C    0.034715
     2  C    0.014065
     3  C   -0.001422
     4  C   -0.012238
     5  C   -0.012424
     6  C   -0.001329
     7  C    0.014329
     8  C    0.035397
     9  C    0.354403
    10  C    0.005373
    11  C    0.015353
    12  C   -0.063640
    13  C    0.015279
    14  C   -0.063356
    15  H   -0.000816
    16  H    0.000604
    17  H   -0.000134
    18  H    0.000187
    19  H    0.000604
    20  H    0.000182
    21  H   -0.000131
    22  H    0.000597
    23  H   -0.000790
    24  H   -0.079532
    25  H    0.493600
 Mulliken charges:
               1
     1  C    0.091276
     2  C   -0.404359
     3  C   -0.440040
     4  C    0.016500
     5  C    0.016307
     6  C   -0.440179
     7  C   -0.405088
     8  C    0.090808
     9  C   -0.329306
    10  C    0.092570
    11  C   -0.638446
    12  C    0.685124
    13  C   -0.639643
    14  C    0.685780
    15  H    0.237217
    16  H    0.256436
    17  H    0.248061
    18  H    0.222205
    19  H    0.190096
    20  H    0.222196
    21  H    0.247985
    22  H    0.256399
    23  H    0.237238
    24  H    0.249738
    25  H    0.251124
 Sum of Mulliken charges =   1.00000
 Mulliken charges with hydrogens summed into heavy atoms:
               1
     1  C    0.328492
     2  C   -0.147923
     3  C   -0.191979
     4  C    0.238705
     5  C    0.238503
     6  C   -0.192194
     7  C   -0.148688
     8  C    0.328046
     9  C    0.171557
    10  C    0.282666
    11  C   -0.638446
    12  C    0.685124
    13  C   -0.639643
    14  C    0.685780
 Electronic spatial extent (au):  <R**2>=           2857.8742
 Charge=              1.0000 electrons
 Dipole moment (field-independent basis, Debye):
    X=             -0.0013    Y=              0.1885    Z=              0.0002  Tot=              0.1886
 Quadrupole moment (field-independent basis, Debye-Ang):
   XX=            -31.0726   YY=            -56.2624   ZZ=            -84.1580
   XY=             -0.0007   XZ=             -0.0012   YZ=              0.0243
 Traceless Quadrupole moment (field-independent basis, Debye-Ang):
   XX=             26.0918   YY=              0.9020   ZZ=            -26.9937
   XY=             -0.0007   XZ=             -0.0012   YZ=              0.0243
 Octapole moment (field-independent basis, Debye-Ang**2):
  XXX=             -0.0549  YYY=              5.2104  ZZZ=             -0.0057  XYY=              0.0005
  XXY=             -5.0130  XXZ=              0.0425  XZZ=              0.0066  YZZ=             -3.0875
  YYZ=              0.0265  XYZ=             -0.0062
 Hexadecapole moment (field-independent basis, Debye-Ang**3):
 XXXX=          -2123.2287 YYYY=           -609.2542 ZZZZ=            -99.3826 XXXY=             -0.0311
 XXXZ=             -0.0347 YYYX=              0.0129 YYYZ=              0.2703 ZZZX=             -0.0016
 ZZZY=              0.0089 XXYY=           -508.0531 XXZZ=           -591.2992 YYZZ=           -145.7246
 XXYZ=              0.2585 YYXZ=             -0.0001 ZZXY=             -0.0006
 N-N= 7.809649965019D+02 E-N=-2.798258626300D+03  KE= 5.374910517869D+02
 Unable to Open any file for archive entry.
 1\1\GINC-GADI-CPU-CLX-0113\SP\RM062X TD-FC\6-311++G(d,p)\C14H11(1+)\TS
 1578\28-Jul-2022\0\\#n M062X/6-311++G(d,p) TD(NStates=1) EmpiricalDisp
 ersion=GD3 SP\\SP_-25\\1,1\C,0,0.00295,2.492655,1.360431\C,0,0.003875,
 3.703358,0.671989\C,0,0.001,3.687211,-0.71383\C,0,-0.003925,2.465481,-
 1.407538\C,0,-0.003875,-2.465381,-1.407538\C,0,0.0013,-3.686711,-0.713
 83\C,0,0.00435,-3.703183,0.671989\C,0,0.0039,-2.492355,1.360431\C,0,0.
 0022,-0.0011,1.453369\C,0,-0.0061,0.00005,-1.429189\C,0,-0.00095,1.260
 13,0.677065\C,0,-0.0024,1.237696,-0.730804\C,0,-0.000875,-1.260155,0.6
 77065\C,0,-0.0026,-1.237846,-0.730804\H,0,0.0005,2.488121,2.443647\H,0
 ,0.003875,4.638378,1.211689\H,0,-0.0008,4.609462,-1.272349\H,0,-0.0017
 5,2.4698,-2.490059\H,0,-0.005625,0.000025,-2.510266\H,0,-0.0019,-2.469
 725,-2.490059\H,0,-0.00065,-4.608837,-1.272349\H,0,0.00445,-4.638003,1
 .211689\H,0,0.0016,-2.487796,2.443647\H,0,-0.851585,-0.00025,2.146062\
 H,0,0.867585,-0.00025,2.145512\\Version=ES64L-G16RevC.01\State=1-A\HF=
 -539.7600625\RMSD=4.602e-09\PG=C01 [X(C14H11)]\\@
 The archive entry for this job was punched.


 If your ship doesn't come in, swim out to it!
                          -- Jonathan Winters
 Job cpu time:       0 days  1 hours 19 minutes 47.3 seconds.
 Elapsed time:       0 days  0 hours  1 minutes 40.3 seconds.
 File lengths (MBytes):  RWF=    460 Int=      0 D2E=      0 Chk=     15 Scr=      1
 Normal termination of Gaussian 16 at Thu Jul 28 14:47:20 2022.
