 Entering Gaussian System, Link 0=g16
 Initial command:
 /apps/gaussian/g16c01/g16/l1.exe "/jobfs/53002009.gadi-pbs/Gau-732716.inp" -scrdir="/jobfs/53002009.gadi-pbs/"
 Entering Link 1 = /apps/gaussian/g16c01/g16/l1.exe PID=    732717.
  
 Copyright (c) 1988-2019, Gaussian, Inc.  All Rights Reserved.
  
 This is part of the Gaussian(R) 16 program.  It is based on
 the Gaussian(R) 09 system (copyright 2009, Gaussian, Inc.),
 the Gaussian(R) 03 system (copyright 2003, Gaussian, Inc.),
 the Gaussian(R) 98 system (copyright 1998, Gaussian, Inc.),
 the Gaussian(R) 94 system (copyright 1995, Gaussian, Inc.),
 the Gaussian 92(TM) system (copyright 1992, Gaussian, Inc.),
 the Gaussian 90(TM) system (copyright 1990, Gaussian, Inc.),
 the Gaussian 88(TM) system (copyright 1988, Gaussian, Inc.),
 the Gaussian 86(TM) system (copyright 1986, Carnegie Mellon
 University), and the Gaussian 82(TM) system (copyright 1983,
 Carnegie Mellon University). Gaussian is a federally registered
 trademark of Gaussian, Inc.
  
 This software contains proprietary and confidential information,
 including trade secrets, belonging to Gaussian, Inc.
  
 This software is provided under written license and may be
 used, copied, transmitted, or stored only in accord with that
 written license.
  
 The following legend is applicable only to US Government
 contracts under FAR:
  
                    RESTRICTED RIGHTS LEGEND
  
 Use, reproduction and disclosure by the US Government is
 subject to restrictions as set forth in subparagraphs (a)
 and (c) of the Commercial Computer Software - Restricted
 Rights clause in FAR 52.227-19.
  
 Gaussian, Inc.
 340 Quinnipiac St., Bldg. 40, Wallingford CT 06492
  
  
 ---------------------------------------------------------------
 Warning -- This program may not be used in any manner that
 competes with the business of Gaussian, Inc. or will provide
 assistance to any competitor of Gaussian, Inc.  The licensee
 of this program is prohibited from giving any competitor of
 Gaussian, Inc. access to this program.  By using this program,
 the user acknowledges that Gaussian, Inc. is engaged in the
 business of creating and licensing software in the field of
 computational chemistry and represents and warrants to the
 licensee that it is not a competitor of Gaussian, Inc. and that
 it will not use this program in any manner prohibited above.
 ---------------------------------------------------------------
  

 Cite this work as:
 Gaussian 16, Revision C.01,
 M. J. Frisch, G. W. Trucks, H. B. Schlegel, G. E. Scuseria, 
 M. A. Robb, J. R. Cheeseman, G. Scalmani, V. Barone, 
 G. A. Petersson, H. Nakatsuji, X. Li, M. Caricato, A. V. Marenich, 
 J. Bloino, B. G. Janesko, R. Gomperts, B. Mennucci, H. P. Hratchian, 
 J. V. Ortiz, A. F. Izmaylov, J. L. Sonnenberg, D. Williams-Young, 
 F. Ding, F. Lipparini, F. Egidi, J. Goings, B. Peng, A. Petrone, 
 T. Henderson, D. Ranasinghe, V. G. Zakrzewski, J. Gao, N. Rega, 
 G. Zheng, W. Liang, M. Hada, M. Ehara, K. Toyota, R. Fukuda, 
 J. Hasegawa, M. Ishida, T. Nakajima, Y. Honda, O. Kitao, H. Nakai, 
 T. Vreven, K. Throssell, J. A. Montgomery, Jr., J. E. Peralta, 
 F. Ogliaro, M. J. Bearpark, J. J. Heyd, E. N. Brothers, K. N. Kudin, 
 V. N. Staroverov, T. A. Keith, R. Kobayashi, J. Normand, 
 K. Raghavachari, A. P. Rendell, J. C. Burant, S. S. Iyengar, 
 J. Tomasi, M. Cossi, J. M. Millam, M. Klene, C. Adamo, R. Cammi, 
 J. W. Ochterski, R. L. Martin, K. Morokuma, O. Farkas, 
 J. B. Foresman, and D. J. Fox, Gaussian, Inc., Wallingford CT, 2019.
 
 ******************************************
 Gaussian 16:  ES64L-G16RevC.01  3-Jul-2019
                28-Jul-2022 
 ******************************************
 %NProcShared=48
 Will use up to   48 processors via shared memory.
 %mem = 190GB
 ---------------------------------------------------------------
 #n M062X/6-311++G(d,p) TD(NStates=1) EmpiricalDispersion=GD3 SP
 ---------------------------------------------------------------
 1/38=1,172=1/1;
 2/12=2,17=6,18=5,40=1/2;
 3/5=4,6=6,7=1111,11=9,25=1,30=1,74=-55,124=31/1,2,3,8;
 4//1;
 5/5=2,38=5/2;
 8/6=1,10=2,108=1/1;
 9/41=1,42=1,70=2/14;
 6/7=2,8=2,9=2,10=2/1;
 99/5=1,9=1/99;
 -------
 SP_-100
 -------
 Symbolic Z-matrix:
 Charge =  1 Multiplicity = 1
 C                     0.0352    2.49086   1.36043 
 C                     0.0416    3.71896   0.67199 
 C                     0.0118    3.71436  -0.71383 
 C                    -0.03895   2.48581  -1.40754 
 C                    -0.03905  -2.48601  -1.40754 
 C                     0.0112   -3.71536  -0.71383 
 C                     0.04065  -3.71931   0.67199 
 C                     0.0333   -2.49146   1.36043 
 C                     0.02185   0.0022    1.45337 
 C                    -0.061    -0.0001   -1.42919 
 C                    -0.00905   1.24296   0.67707 
 C                    -0.0252    1.24062  -0.7308 
 C                    -0.0092   -1.24291   0.67707 
 C                    -0.0248   -1.24032  -0.7308 
 H                     0.0116    2.48662   2.44365 
 H                     0.0422    4.65075   1.21169 
 H                    -0.0071    4.60751  -1.27235 
 H                    -0.0184    2.4896   -2.49006 
 H                    -0.05625  -0.00005  -2.51027 
 H                    -0.0181   -2.48975  -2.49006 
 H                    -0.0074   -4.60876  -1.27235 
 H                     0.04105  -4.6515    1.21169 
 H                     0.0094   -2.48727   2.44365 
 H                    -0.77959   0.0005    2.14524 
 H                     0.93959   0.0005    2.14634 
 
                          Input orientation:                          
 ---------------------------------------------------------------------
 Center     Atomic      Atomic             Coordinates (Angstroms)
 Number     Number       Type             X           Y           Z
 ---------------------------------------------------------------------
      1          6           0        0.035200    2.490855    1.360431
      2          6           0        0.041600    3.718958    0.671989
      3          6           0        0.011800    3.714361   -0.713830
      4          6           0       -0.038950    2.485806   -1.407538
      5          6           0       -0.039050   -2.486006   -1.407538
      6          6           0        0.011200   -3.715361   -0.713830
      7          6           0        0.040650   -3.719308    0.671989
      8          6           0        0.033300   -2.491455    1.360431
      9          6           0        0.021850    0.002200    1.453369
     10          6           0       -0.061000   -0.000100   -1.429189
     11          6           0       -0.009050    1.242955    0.677065
     12          6           0       -0.025200    1.240621   -0.730804
     13          6           0       -0.009200   -1.242905    0.677065
     14          6           0       -0.024800   -1.240321   -0.730804
     15          1           0        0.011600    2.486621    2.443647
     16          1           0        0.042200    4.650753    1.211689
     17          1           0       -0.007100    4.607512   -1.272349
     18          1           0       -0.018400    2.489600   -2.490059
     19          1           0       -0.056250   -0.000050   -2.510266
     20          1           0       -0.018100   -2.489750   -2.490059
     21          1           0       -0.007400   -4.608762   -1.272349
     22          1           0        0.041050   -4.651503    1.211689
     23          1           0        0.009400   -2.487271    2.443647
     24          1           0       -0.779585    0.000500    2.145237
     25          1           0        0.939585    0.000500    2.146337
 ---------------------------------------------------------------------
                    Distance matrix (angstroms):
                    1          2          3          4          5
     1  C    0.000000
     2  C    1.407917   0.000000
     3  C    2.408334   1.386147   0.000000
     4  C    2.768967   2.419005   1.411791   0.000000
     5  C    5.695288   6.544655   6.239260   4.971812   0.000000
     6  C    6.543718   7.562441   7.429722   6.240050   1.412469
     7  C    6.248208   7.438266   7.561796   6.544785   2.419053
     8  C    4.982310   6.248460   6.543330   5.695612   2.768920
     9  C    2.490426   3.798057   4.298487   3.789035   3.792053
    10  C    3.741135   4.272806   3.783419   2.486098   2.486097
    11  C    1.423447   2.476526   2.835996   2.427168   4.272191
    12  C    2.437211   2.848586   2.474075   1.417266   3.787599
    13  C    3.796041   4.962126   5.148739   4.271971   2.427295
    14  C    4.277679   5.154288   4.954846   3.787109   1.417711
    15  H    1.083481   2.158316   3.387773   3.851517   6.289770
    16  H    2.165025   1.076809   2.141349   3.399107   7.602650
    17  H    3.378396   2.138305   1.053575   2.126247   7.094878
    18  H    3.850863   3.393150   2.157763   1.082723   5.092046
    19  H    4.603832   4.895645   4.126580   2.719520   2.719611
    20  H    6.295676   6.967795   6.453439   5.091998   1.082730
    21  H    7.572180   8.551829   8.341864   7.095926   2.127292
    22  H    7.143909   8.387842   8.584647   7.603153   3.399433
    23  H    5.094680   6.454230   6.959160   6.290108   3.851490
    24  H    2.735263   4.083104   4.753243   4.398579   4.399240
    25  H    2.763590   4.099635   4.778504   4.445706   4.446399
                    6          7          8          9         10
     6  C    0.000000
     7  C    1.386138   0.000000
     8  C    2.408525   1.407704   0.000000
     9  C    4.303153   3.802700   2.495413   0.000000
    10  C    3.784193   4.272914   3.741353   2.883749   0.000000
    11  C    5.149747   4.962514   3.796657   1.463925   2.446261
    12  C    4.956145   5.154906   4.278443   2.511277   1.424223
    13  C    2.836907   2.476910   1.423964   1.467617   2.446130
    14  C    2.475360   2.849121   2.437617   2.513294   1.423798
    15  H    6.959471   6.453927   5.094612   2.674529   4.603033
    16  H    8.584896   8.387443   7.143762   4.654876   5.349329
    17  H    8.341612   8.550945   7.571558   5.351568   4.610596
    18  H    6.454255   6.967968   6.296019   4.662553   2.706634
    19  H    4.127380   4.895816   4.604065   3.964405   1.081087
    20  H    2.158233   3.393201   3.850833   4.664980   2.706592
    21  H    1.053781   2.138665   3.378783   5.356432   4.611641
    22  H    2.141232   1.077155   2.165177   4.660014   5.349785
    23  H    3.387900   2.158162   1.083488   2.679230   4.603242
    24  H    4.754706   4.084142   2.736155   1.058765   3.645941
    25  H    4.780175   4.101068   2.765654   1.149976   3.712891
                   11         12         13         14         15
    11  C    0.000000
    12  C    1.407964   0.000000
    13  C    2.485860   2.854865   0.000000
    14  C    2.854646   2.480942   1.407958   0.000000
    15  H    2.160542   3.410427   4.126816   4.895770   0.000000
    16  H    3.449860   3.925152   5.918080   6.203428   2.490406
    17  H    3.888504   3.410213   6.166652   5.872881   4.278686
    18  H    3.403658   2.157539   4.895136   4.123994   4.933798
    19  H    3.421457   2.169496   3.421400   2.169273   5.543410
    20  H    4.895288   4.124403   3.403730   2.157799   7.007611
    21  H    6.167885   5.874425   3.889629   3.411740   8.009585
    22  H    5.918865   6.204417   3.450636   3.926038   7.243715
    23  H    4.127437   4.896480   2.160927   3.410747   4.973892
    24  H    2.071943   3.221585   2.072457   3.221948   2.625989
    25  H    2.145312   3.278208   2.145929   3.278356   2.670271
                   16         17         18         19         20
    16  H    0.000000
    17  H    2.484903   0.000000
    18  H    4.286863   2.443051   0.000000
    19  H    5.957567   4.771214   2.490020   0.000000
    20  H    8.043218   7.200977   4.979350   2.490074   0.000000
    21  H    9.587050   9.216274   7.202061   4.772321   2.444002
    22  H    9.302256   9.586559   8.043744   5.958056   4.287145
    23  H    7.243631   8.009048   7.007958   5.543630   4.933783
    24  H    4.813699   5.788021   5.316107   4.711361   5.316688
    25  H    4.827393   5.814481   5.348787   4.761894   5.349269
                   21         22         23         24         25
    21  H    0.000000
    22  H    2.484878   0.000000
    23  H    4.278976   2.490506   0.000000
    24  H    5.789772   4.815193   2.626890   0.000000
    25  H    5.816312   4.829292   2.672572   1.719170   0.000000
 Stoichiometry    C14H11(1+)
 Framework group  C1[X(C14H11)]
 Deg. of freedom    69
 Full point group                 C1      NOp   1
 Largest Abelian subgroup         C1      NOp   1
 Largest concise Abelian subgroup C1      NOp   1
                         Standard orientation:                         
 ---------------------------------------------------------------------
 Center     Atomic      Atomic             Coordinates (Angstroms)
 Number     Number       Type             X           Y           Z
 ---------------------------------------------------------------------
      1          6           0       -2.490917   -1.360744    0.004043
      2          6           0       -3.718992   -0.672554    0.025447
      3          6           0       -3.714332    0.713585    0.026152
      4          6           0       -2.485742    1.408186   -0.009174
      5          6           0        2.486070    1.407965   -0.008689
      6          6           0        3.715390    0.713263    0.026427
      7          6           0        3.719274   -0.672868    0.025373
      8          6           0        2.491393   -1.360926    0.002730
      9          6           0       -0.002265   -1.453478   -0.011056
     10          6           0        0.000168    1.430205   -0.030450
     11          6           0       -1.242983   -0.676626   -0.025011
     12          6           0       -1.240587    0.731258   -0.010174
     13          6           0        1.242877   -0.676734   -0.024868
     14          6           0        1.240355    0.731137   -0.009482
     15          1           0       -2.486727   -2.443178   -0.043389
     16          1           0       -4.650810   -1.212094    0.014061
     17          1           0       -4.607458    1.272425    0.019443
     18          1           0       -2.489492    2.489993    0.035193
     19          1           0        0.000163    2.510916   -0.001910
     20          1           0        2.489857    2.489762    0.036079
     21          1           0        4.608816    1.272016    0.020228
     22          1           0        4.651446   -1.212488    0.014006
     23          1           0        2.487166   -2.443354   -0.045003
     24          1           0       -0.000499   -2.127541   -0.827522
     25          1           0       -0.000703   -2.166474    0.891207
 ---------------------------------------------------------------------
 Rotational constants (GHZ):           2.1344550           0.4404703           0.3659488
 Standard basis: 6-311++G(d,p) (5D, 7F)
 There are   399 symmetry adapted cartesian basis functions of A   symmetry.
 There are   385 symmetry adapted basis functions of A   symmetry.
   385 basis functions,   603 primitive gaussians,   399 cartesian basis functions
    47 alpha electrons       47 beta electrons
       nuclear repulsion energy       778.8015018654 Hartrees.
 NAtoms=   25 NActive=   25 NUniq=   25 SFac= 1.00D+00 NAtFMM=   60 NAOKFM=F Big=F
 Integral buffers will be    131072 words long.
 Regular integral format.
 Two-electron integral symmetry is turned on.
 Nuclear repulsion after empirical dispersion term =      778.8005214587 Hartrees.
 One-electron integrals computed using PRISM.
 NBasis=   385 RedAO= T EigKep=  1.57D-06  NBF=   385
 NBsUse=   379 1.00D-06 EigRej=  9.24D-07 NBFU=   379
 ExpMin= 3.60D-02 ExpMax= 4.56D+03 ExpMxC= 6.82D+02 IAcc=3 IRadAn=         5 AccDes= 0.00D+00
 Harris functional with IExCor= 1009 and IRadAn=       5 diagonalized for initial guess.
 HarFok:  IExCor= 1009 AccDes= 0.00D+00 IRadAn=         5 IDoV= 1 UseB2=F ITyADJ=14
 ICtDFT=  3500011 ScaDFX=  1.000000  1.000000  1.000000  1.000000
 FoFCou: FMM=F IPFlag=           0 FMFlag=      100000 FMFlg1=           0
         NFxFlg=           0 DoJE=T BraDBF=F KetDBF=T FulRan=T
         wScrn=  0.000000 ICntrl=       500 IOpCl=  0 I1Cent=   200000004 NGrid=           0
         NMat0=    1 NMatS0=      1 NMatT0=    0 NMatD0=    1 NMtDS0=    0 NMtDT0=    0
 Petite list used in FoFCou.
 Requested convergence on RMS density matrix=1.00D-08 within 128 cycles.
 Requested convergence on MAX density matrix=1.00D-06.
 Requested convergence on             energy=1.00D-06.
 No special actions if energy rises.
 SCF Done:  E(RM062X) =  -539.752248791     A.U. after   15 cycles
            NFock= 15  Conv=0.52D-08     -V/T= 2.0044
 DoSCS=F DFT=T ScalE2(SS,OS)=  1.000000  1.000000
 ExpMin= 3.60D-02 ExpMax= 4.56D+03 ExpMxC= 6.82D+02 IAcc=3 IRadAn=         5 AccDes= 0.00D+00
 HarFok:  IExCor=  205 AccDes= 0.00D+00 IRadAn=         5 IDoV=-2 UseB2=F ITyADJ=14
 ICtDFT= 12500011 ScaDFX=  1.000000  1.000000  1.000000  1.000000
 Range of M.O.s used for correlation:    15   379
 NBasis=   385 NAE=    47 NBE=    47 NFC=    14 NFV=     0
 NROrb=    365 NOA=    33 NOB=    33 NVA=   332 NVB=   332

 **** Warning!!: The largest alpha MO coefficient is  0.14826871D+03

 Orbital symmetries:
       Occupied  (A) (A) (A) (A) (A) (A) (A) (A) (A) (A) (A) (A)
                 (A) (A) (A) (A) (A) (A) (A) (A) (A) (A) (A) (A)
                 (A) (A) (A) (A) (A) (A) (A) (A) (A) (A) (A) (A)
                 (A) (A) (A) (A) (A) (A) (A) (A) (A) (A) (A)
       Virtual   (A) (A) (A) (A) (A) (A) (A) (A) (A) (A) (A) (A)
                 (A) (A) (A) (A) (A) (A) (A) (A) (A) (A) (A) (A)
                 (A) (A) (A) (A) (A) (A) (A) (A) (A) (A) (A) (A)
                 (A) (A) (A) (A) (A) (A) (A) (A) (A) (A) (A) (A)
                 (A) (A) (A) (A) (A) (A) (A) (A) (A) (A) (A) (A)
                 (A) (A) (A) (A) (A) (A) (A) (A) (A) (A) (A) (A)
                 (A) (A) (A) (A) (A) (A) (A) (A) (A) (A) (A) (A)
                 (A) (A) (A) (A) (A) (A) (A) (A) (A) (A) (A) (A)
                 (A) (A) (A) (A) (A) (A) (A) (A) (A) (A) (A) (A)
                 (A) (A) (A) (A) (A) (A) (A) (A) (A) (A) (A) (A)
                 (A) (A) (A) (A) (A) (A) (A) (A) (A) (A) (A) (A)
                 (A) (A) (A) (A) (A) (A) (A) (A) (A) (A) (A) (A)
                 (A) (A) (A) (A) (A) (A) (A) (A) (A) (A) (A) (A)
                 (A) (A) (A) (A) (A) (A) (A) (A) (A) (A) (A) (A)
                 (A) (A) (A) (A) (A) (A) (A) (A) (A) (A) (A) (A)
                 (A) (A) (A) (A) (A) (A) (A) (A) (A) (A) (A) (A)
                 (A) (A) (A) (A) (A) (A) (A) (A) (A) (A) (A) (A)
                 (A) (A) (A) (A) (A) (A) (A) (A) (A) (A) (A) (A)
                 (A) (A) (A) (A) (A) (A) (A) (A) (A) (A) (A) (A)
                 (A) (A) (A) (A) (A) (A) (A) (A) (A) (A) (A) (A)
                 (A) (A) (A) (A) (A) (A) (A) (A) (A) (A) (A) (A)
                 (A) (A) (A) (A) (A) (A) (A) (A) (A) (A) (A) (A)
                 (A) (A) (A) (A) (A) (A) (A) (A) (A) (A) (A) (A)
                 (A) (A) (A) (A) (A) (A) (A) (A) (A) (A) (A) (A)
                 (A) (A) (A) (A) (A) (A) (A) (A) (A) (A) (A) (A)
                 (A) (A) (A) (A) (A) (A) (A) (A) (A) (A) (A) (A)
                 (A) (A) (A) (A) (A) (A) (A) (A) (A) (A) (A) (A)
                 (A) (A) (A) (A) (A) (A) (A) (A)
     4 initial guesses have been made.
 Convergence on wavefunction:    0.001000000000000
 Iteration     1 Dimension     4 NMult     0 NNew      4
 CISAX will form     4 AO SS matrices at one time.
 Iteration     2 Dimension     6 NMult     4 NNew      2
 Iteration     3 Dimension     8 NMult     6 NNew      2
 Iteration     4 Dimension    10 NMult     8 NNew      2
 Iteration     5 Dimension    12 NMult    10 NNew      2
 Iteration     6 Dimension    14 NMult    12 NNew      2
 ***********************************************************************
 Excited states from <AA,BB:AA,BB> singles matrix:
 ***********************************************************************
 
 Ground to excited state transition densities written to RWF  633
 Ground to excited state transition electric dipole moments (Au):
       state          X           Y           Z        Dip. S.      Osc.
         1        -0.0030     -0.6267      0.0097      0.3928      0.0267
 Ground to excited state transition velocity dipole moments (Au):
       state          X           Y           Z        Dip. S.      Osc.
         1         0.0003      0.0712     -0.0012      0.0051      0.0332
 Ground to excited state transition magnetic dipole moments (Au):
       state          X           Y           Z
         1        -0.0126     -0.0002     -0.0001
 Ground to excited state transition velocity quadrupole moments (Au):
       state          XX          YY          ZZ          XY          XZ          YZ
         1         0.3217      0.0278     -0.0092      0.0004      0.0000      0.0021
 <0|del|b> * <b|rxdel|0> + <0|del|b> * <b|delr+rdel|0>
 Rotatory Strengths (R) in cgs (10**-40 erg-esu-cm/Gauss)
       state          XX          YY          ZZ    R(velocity)    E-M Angle
         1        -0.0647     -0.0092     -0.0574     -0.0438       90.00
 1/2[<0|r|b>*<b|rxdel|0> + (<0|rxdel|b>*<b|r|0>)*]
 Rotatory Strengths (R) in cgs (10**-40 erg-esu-cm/Gauss)
       state          XX          YY          ZZ     R(length)
         1        -0.0270     -0.0942      0.0006     -0.0402
  1/2[<0|del|b>*<b|r|0> + (<0|r|b>*<b|del|0>)*] (Au)
       state          X           Y           Z        Dip. S.   Osc.(frdel)
         1        -0.0000     -0.0446     -0.0000      0.0446      0.0298

 Excitation energies and oscillator strengths:
 
 Excited State   1:      Singlet-A      2.7718 eV  447.31 nm  f=0.0267  <S**2>=0.000
      47 -> 48         0.70427
 This state for optimization and/or second-order correction.
 Total Energy, E(TD-HF/TD-DFT) =  -539.650386888    
 Copying the excited state density for this state as the 1-particle RhoCI density.
 SavETr:  write IOETrn=   770 NScale= 10 NData=  16 NLR=1 NState=    1 LETran=      28.

 **********************************************************************

            Population analysis using the SCF Density.

 **********************************************************************

 Orbital symmetries:
       Occupied  (A) (A) (A) (A) (A) (A) (A) (A) (A) (A) (A) (A)
                 (A) (A) (A) (A) (A) (A) (A) (A) (A) (A) (A) (A)
                 (A) (A) (A) (A) (A) (A) (A) (A) (A) (A) (A) (A)
                 (A) (A) (A) (A) (A) (A) (A) (A) (A) (A) (A)
       Virtual   (A) (A) (A) (A) (A) (A) (A) (A) (A) (A) (A) (A)
                 (A) (A) (A) (A) (A) (A) (A) (A) (A) (A) (A) (A)
                 (A) (A) (A) (A) (A) (A) (A) (A) (A) (A) (A) (A)
                 (A) (A) (A) (A) (A) (A) (A) (A) (A) (A) (A) (A)
                 (A) (A) (A) (A) (A) (A) (A) (A) (A) (A) (A) (A)
                 (A) (A) (A) (A) (A) (A) (A) (A) (A) (A) (A) (A)
                 (A) (A) (A) (A) (A) (A) (A) (A) (A) (A) (A) (A)
                 (A) (A) (A) (A) (A) (A) (A) (A) (A) (A) (A) (A)
                 (A) (A) (A) (A) (A) (A) (A) (A) (A) (A) (A) (A)
                 (A) (A) (A) (A) (A) (A) (A) (A) (A) (A) (A) (A)
                 (A) (A) (A) (A) (A) (A) (A) (A) (A) (A) (A) (A)
                 (A) (A) (A) (A) (A) (A) (A) (A) (A) (A) (A) (A)
                 (A) (A) (A) (A) (A) (A) (A) (A) (A) (A) (A) (A)
                 (A) (A) (A) (A) (A) (A) (A) (A) (A) (A) (A) (A)
                 (A) (A) (A) (A) (A) (A) (A) (A) (A) (A) (A) (A)
                 (A) (A) (A) (A) (A) (A) (A) (A) (A) (A) (A) (A)
                 (A) (A) (A) (A) (A) (A) (A) (A) (A) (A) (A) (A)
                 (A) (A) (A) (A) (A) (A) (A) (A) (A) (A) (A) (A)
                 (A) (A) (A) (A) (A) (A) (A) (A) (A) (A) (A) (A)
                 (A) (A) (A) (A) (A) (A) (A) (A) (A) (A) (A) (A)
                 (A) (A) (A) (A) (A) (A) (A) (A) (A) (A) (A) (A)
                 (A) (A) (A) (A) (A) (A) (A) (A) (A) (A) (A) (A)
                 (A) (A) (A) (A) (A) (A) (A) (A) (A) (A) (A) (A)
                 (A) (A) (A) (A) (A) (A) (A) (A) (A) (A) (A) (A)
                 (A) (A) (A) (A) (A) (A) (A) (A) (A) (A) (A) (A)
                 (A) (A) (A) (A) (A) (A) (A) (A) (A) (A) (A) (A)
                 (A) (A) (A) (A) (A) (A) (A) (A) (A) (A) (A) (A)
                 (A) (A) (A) (A) (A) (A) (A) (A)
 The electronic state is 1-A.
 Alpha  occ. eigenvalues --  -10.77653 -10.73345 -10.73317 -10.72656 -10.72654
 Alpha  occ. eigenvalues --  -10.71641 -10.71627 -10.71168 -10.71163 -10.70978
 Alpha  occ. eigenvalues --  -10.70267 -10.70257 -10.69565 -10.69551  -1.16291
 Alpha  occ. eigenvalues --   -1.11932  -1.06694  -1.05880  -1.00897  -1.00142
 Alpha  occ. eigenvalues --   -0.95592  -0.91096  -0.86405  -0.85817  -0.83788
 Alpha  occ. eigenvalues --   -0.78397  -0.75968  -0.74310  -0.69635  -0.69472
 Alpha  occ. eigenvalues --   -0.68827  -0.68281  -0.68044  -0.64364  -0.63956
 Alpha  occ. eigenvalues --   -0.63246  -0.62187  -0.59767  -0.59277  -0.59208
 Alpha  occ. eigenvalues --   -0.56983  -0.55325  -0.54954  -0.52235  -0.46378
 Alpha  occ. eigenvalues --   -0.45938  -0.44248
 Alpha virt. eigenvalues --   -0.26058  -0.15006  -0.14177  -0.13113  -0.11178
 Alpha virt. eigenvalues --   -0.10077  -0.09192  -0.08057  -0.07869  -0.07457
 Alpha virt. eigenvalues --   -0.07262  -0.07127  -0.05651  -0.05585  -0.05389
 Alpha virt. eigenvalues --   -0.03753  -0.03703  -0.03293  -0.03131  -0.02133
 Alpha virt. eigenvalues --   -0.01354  -0.00903   0.00193   0.00707   0.00774
 Alpha virt. eigenvalues --    0.01021   0.01505   0.01803   0.02191   0.02312
 Alpha virt. eigenvalues --    0.02367   0.02468   0.02850   0.03207   0.03417
 Alpha virt. eigenvalues --    0.04263   0.04495   0.04659   0.04914   0.05350
 Alpha virt. eigenvalues --    0.05908   0.06275   0.06618   0.07008   0.07140
 Alpha virt. eigenvalues --    0.07808   0.07909   0.08274   0.08470   0.08942
 Alpha virt. eigenvalues --    0.09572   0.09613   0.09998   0.10635   0.10975
 Alpha virt. eigenvalues --    0.11138   0.12294   0.12304   0.12837   0.13106
 Alpha virt. eigenvalues --    0.13416   0.13497   0.14043   0.14068   0.15667
 Alpha virt. eigenvalues --    0.16425   0.16780   0.16927   0.17454   0.17636
 Alpha virt. eigenvalues --    0.18027   0.18689   0.19113   0.19521   0.19692
 Alpha virt. eigenvalues --    0.21325   0.21359   0.22381   0.23096   0.23131
 Alpha virt. eigenvalues --    0.23596   0.24354   0.24501   0.26678   0.27304
 Alpha virt. eigenvalues --    0.28795   0.29226   0.29695   0.31036   0.35750
 Alpha virt. eigenvalues --    0.35970   0.37471   0.38995   0.41137   0.41543
 Alpha virt. eigenvalues --    0.41887   0.42542   0.43015   0.43412   0.43701
 Alpha virt. eigenvalues --    0.43926   0.44588   0.44660   0.46008   0.47793
 Alpha virt. eigenvalues --    0.48691   0.48937   0.48981   0.50493   0.50929
 Alpha virt. eigenvalues --    0.51151   0.51239   0.52129   0.52147   0.53967
 Alpha virt. eigenvalues --    0.54105   0.54358   0.55767   0.55902   0.57170
 Alpha virt. eigenvalues --    0.58086   0.58652   0.61248   0.61969   0.62193
 Alpha virt. eigenvalues --    0.62610   0.62992   0.63731   0.65102   0.66763
 Alpha virt. eigenvalues --    0.70488   0.70550   0.70762   0.71519   0.72600
 Alpha virt. eigenvalues --    0.74595   0.75235   0.75921   0.75982   0.76620
 Alpha virt. eigenvalues --    0.76995   0.77465   0.77955   0.80372   0.80590
 Alpha virt. eigenvalues --    0.80862   0.81854   0.81907   0.82591   0.84076
 Alpha virt. eigenvalues --    0.85810   0.86171   0.87585   0.89243   0.90520
 Alpha virt. eigenvalues --    0.90917   0.91441   0.93129   0.94800   0.96114
 Alpha virt. eigenvalues --    0.96875   1.00307   1.01100   1.01653   1.02427
 Alpha virt. eigenvalues --    1.03126   1.04044   1.04256   1.06902   1.09099
 Alpha virt. eigenvalues --    1.19888   1.23254   1.24121   1.25800   1.28012
 Alpha virt. eigenvalues --    1.28733   1.32259   1.33197   1.34880   1.35872
 Alpha virt. eigenvalues --    1.38544   1.40003   1.40202   1.42712   1.42739
 Alpha virt. eigenvalues --    1.43125   1.44734   1.44785   1.46793   1.46895
 Alpha virt. eigenvalues --    1.47166   1.47547   1.51396   1.53615   1.55260
 Alpha virt. eigenvalues --    1.55568   1.55994   1.56762   1.57453   1.61047
 Alpha virt. eigenvalues --    1.63653   1.64368   1.64445   1.65826   1.67610
 Alpha virt. eigenvalues --    1.68387   1.68717   1.69580   1.73510   1.75693
 Alpha virt. eigenvalues --    1.76830   1.77482   1.78909   1.79606   1.79676
 Alpha virt. eigenvalues --    1.82844   1.82880   1.83020   1.83212   1.83780
 Alpha virt. eigenvalues --    1.84343   1.85673   1.85922   1.87996   1.91265
 Alpha virt. eigenvalues --    1.91589   1.94046   1.95321   1.97185   1.97227
 Alpha virt. eigenvalues --    1.98908   2.02167   2.03644   2.07492   2.11421
 Alpha virt. eigenvalues --    2.11652   2.13023   2.14957   2.17998   2.20128
 Alpha virt. eigenvalues --    2.21591   2.28150   2.28917   2.33988   2.35588
 Alpha virt. eigenvalues --    2.35995   2.38544   2.40159   2.40686   2.41480
 Alpha virt. eigenvalues --    2.45404   2.47527   2.49828   2.53057   2.53588
 Alpha virt. eigenvalues --    2.54050   2.56774   2.57763   2.58428   2.59519
 Alpha virt. eigenvalues --    2.59824   2.60870   2.61759   2.62676   2.63023
 Alpha virt. eigenvalues --    2.63382   2.64490   2.64622   2.65412   2.67547
 Alpha virt. eigenvalues --    2.69151   2.70776   2.71206   2.73459   2.74717
 Alpha virt. eigenvalues --    2.76277   2.77862   2.79418   2.81966   2.82522
 Alpha virt. eigenvalues --    2.83892   2.86381   2.91973   2.95435   2.99267
 Alpha virt. eigenvalues --    2.99296   3.06141   3.09105   3.09741   3.10369
 Alpha virt. eigenvalues --    3.20498   3.22902   3.25191   3.27098   3.29729
 Alpha virt. eigenvalues --    3.30186   3.31853   3.43187   3.43259   3.45107
 Alpha virt. eigenvalues --    3.46317   3.48624   3.55878   3.64034   3.67001
 Alpha virt. eigenvalues --    3.69151   3.94156   3.95702   3.96731   3.98142
 Alpha virt. eigenvalues --    4.04631   4.06141   4.07788   4.12327   4.35619
 Alpha virt. eigenvalues --    4.61364   4.67786   4.69378  23.45827  23.62321
 Alpha virt. eigenvalues --   23.80723  23.86147  23.86344  23.88929  23.90200
 Alpha virt. eigenvalues --   23.92645  23.95382  23.95700  23.95869  23.98158
 Alpha virt. eigenvalues --   24.08414  24.08619
          Condensed to atoms (all electrons):
               1          2          3          4          5          6
     1  C    8.211569   0.619370  -0.590673   1.441612   0.014337  -0.077347
     2  C    0.619370   6.704004   0.361309  -0.617446  -0.055043  -0.014622
     3  C   -0.590673   0.361309   6.561524   0.437753  -0.102955   0.016123
     4  C    1.441612  -0.617446   0.437753   9.917143   0.130058  -0.102935
     5  C    0.014337  -0.055043  -0.102955   0.130058   9.905582   0.430268
     6  C   -0.077347  -0.014622   0.016123  -0.102935   0.430268   6.560565
     7  C   -0.035522   0.010478  -0.014679  -0.055312  -0.609194   0.360255
     8  C    0.358725  -0.035542  -0.077362   0.013825   1.445748  -0.594746
     9  C   -1.424025  -0.467540   0.248688  -0.549325  -0.554343   0.248943
    10  C   -0.979320   0.085823  -0.289709  -2.115677  -2.110306  -0.288515
    11  C    0.132244  -0.919291   1.107211  -1.046256  -1.644201  -0.106837
    12  C   -1.171007   0.768042  -1.210176  -0.238830   0.023380  -0.213191
    13  C    0.057236  -0.141845  -0.108631  -1.650667  -1.063002   1.111075
    14  C   -0.984701  -0.203885  -0.213490   0.014868  -0.232097  -1.204572
    15  H    0.352197  -0.097005   0.000695   0.021699   0.004767   0.001220
    16  H   -0.026520   0.383420  -0.019480   0.012298  -0.001330  -0.000305
    17  H   -0.015036  -0.028419   0.388894  -0.052940  -0.000326   0.000340
    18  H    0.041679   0.012260  -0.099828   0.433413   0.013593  -0.004261
    19  H   -0.042305  -0.009791   0.052399  -0.079378  -0.079208   0.052479
    20  H    0.006848   0.001376  -0.004261   0.013508   0.432609  -0.099991
    21  H   -0.001157  -0.000334   0.000341  -0.000315  -0.052794   0.388851
    22  H    0.000553   0.000326  -0.000306  -0.001347   0.012353  -0.019526
    23  H    0.005694  -0.002405   0.001220   0.004794   0.021539   0.000695
    24  H    0.006733   0.014964  -0.001279  -0.014631  -0.014954  -0.001168
    25  H    0.056469   0.011847  -0.000995  -0.011529  -0.011184  -0.001147
               7          8          9         10         11         12
     1  C   -0.035522   0.358725  -1.424025  -0.979320   0.132244  -1.171007
     2  C    0.010478  -0.035542  -0.467540   0.085823  -0.919291   0.768042
     3  C   -0.014679  -0.077362   0.248688  -0.289709   1.107211  -1.210176
     4  C   -0.055312   0.013825  -0.549325  -2.115677  -1.046256  -0.238830
     5  C   -0.609194   1.445748  -0.554343  -2.110306  -1.644201   0.023380
     6  C    0.360255  -0.594746   0.248943  -0.288515  -0.106837  -0.213191
     7  C    6.692892   0.621419  -0.460876   0.082816  -0.138664  -0.204255
     8  C    0.621419   8.204091  -1.420446  -0.978098   0.056631  -0.976843
     9  C   -0.460876  -1.420446   8.298909   0.551277   1.380578  -0.930842
    10  C    0.082816  -0.978098   0.551277   8.671254  -0.078699   1.485515
    11  C   -0.138664   0.056631   1.380578  -0.078699  13.499249  -2.971448
    12  C   -0.204255  -0.976843  -0.930842   1.485515  -2.971448  13.474583
    13  C   -0.913452   0.119742   1.379921  -0.085643   1.488965  -4.262227
    14  C    0.755350  -1.165925  -0.927483   1.480116  -4.247106   2.072387
    15  H   -0.002372   0.005663   0.078010  -0.009061  -0.010941  -0.017624
    16  H    0.000322   0.000522   0.002753  -0.009803   0.023698  -0.024204
    17  H   -0.000332  -0.001147  -0.001258   0.014745  -0.014554   0.060389
    18  H    0.001367   0.006822  -0.027984   0.031679  -0.031846  -0.028548
    19  H   -0.009835  -0.042304   0.067449   0.425761   0.085258  -0.066907
    20  H    0.012544   0.041572  -0.027937   0.032112  -0.010374  -0.003555
    21  H   -0.028521  -0.014774  -0.001284   0.014734  -0.004994   0.002951
    22  H    0.383372  -0.026316   0.002912  -0.009940   0.001797  -0.007800
    23  H   -0.096443   0.352466   0.077776  -0.009007  -0.001670   0.005374
    24  H    0.015341   0.007893   0.382225   0.008877  -0.001477  -0.029291
    25  H    0.011362   0.054896   0.335438   0.003476   0.022837  -0.083446
              13         14         15         16         17         18
     1  C    0.057236  -0.984701   0.352197  -0.026520  -0.015036   0.041679
     2  C   -0.141845  -0.203885  -0.097005   0.383420  -0.028419   0.012260
     3  C   -0.108631  -0.213490   0.000695  -0.019480   0.388894  -0.099828
     4  C   -1.650667   0.014868   0.021699   0.012298  -0.052940   0.433413
     5  C   -1.063002  -0.232097   0.004767  -0.001330  -0.000326   0.013593
     6  C    1.111075  -1.204572   0.001220  -0.000305   0.000340  -0.004261
     7  C   -0.913452   0.755350  -0.002372   0.000322  -0.000332   0.001367
     8  C    0.119742  -1.165925   0.005663   0.000522  -0.001147   0.006822
     9  C    1.379921  -0.927483   0.078010   0.002753  -0.001258  -0.027984
    10  C   -0.085643   1.480116  -0.009061  -0.009803   0.014745   0.031679
    11  C    1.488965  -4.247106  -0.010941   0.023698  -0.014554  -0.031846
    12  C   -4.262227   2.072387  -0.017624  -0.024204   0.060389  -0.028548
    13  C   13.546694  -2.965109  -0.001575   0.001740  -0.005000  -0.010650
    14  C   -2.965109  13.469589   0.005438  -0.007726   0.002955  -0.003848
    15  H   -0.001575   0.005438   0.443044  -0.008910   0.001604   0.000036
    16  H    0.001740  -0.007726  -0.008910   0.420942  -0.007301   0.001978
    17  H   -0.005000   0.002955   0.001604  -0.007301   0.427704  -0.011010
    18  H   -0.010650  -0.003848   0.000036   0.001978  -0.011010   0.457711
    19  H    0.085860  -0.066195   0.000425  -0.000609   0.001447  -0.005998
    20  H   -0.031954  -0.028776  -0.000157   0.000018  -0.000147   0.001173
    21  H   -0.014540   0.060073   0.000028  -0.000007   0.000011  -0.000146
    22  H    0.024022  -0.024761  -0.000130   0.000007  -0.000007   0.000018
    23  H   -0.011291  -0.017485   0.000543  -0.000130   0.000027  -0.000156
    24  H   -0.001333  -0.028520  -0.002000   0.000826  -0.000219   0.000083
    25  H    0.022615  -0.084421   0.000054   0.000385  -0.000091   0.000322
              19         20         21         22         23         24
     1  C   -0.042305   0.006848  -0.001157   0.000553   0.005694   0.006733
     2  C   -0.009791   0.001376  -0.000334   0.000326  -0.002405   0.014964
     3  C    0.052399  -0.004261   0.000341  -0.000306   0.001220  -0.001279
     4  C   -0.079378   0.013508  -0.000315  -0.001347   0.004794  -0.014631
     5  C   -0.079208   0.432609  -0.052794   0.012353   0.021539  -0.014954
     6  C    0.052479  -0.099991   0.388851  -0.019526   0.000695  -0.001168
     7  C   -0.009835   0.012544  -0.028521   0.383372  -0.096443   0.015341
     8  C   -0.042304   0.041572  -0.014774  -0.026316   0.352466   0.007893
     9  C    0.067449  -0.027937  -0.001284   0.002912   0.077776   0.382225
    10  C    0.425761   0.032112   0.014734  -0.009940  -0.009007   0.008877
    11  C    0.085258  -0.010374  -0.004994   0.001797  -0.001670  -0.001477
    12  C   -0.066907  -0.003555   0.002951  -0.007800   0.005374  -0.029291
    13  C    0.085860  -0.031954  -0.014540   0.024022  -0.011291  -0.001333
    14  C   -0.066195  -0.028776   0.060073  -0.024761  -0.017485  -0.028520
    15  H    0.000425  -0.000157   0.000028  -0.000130   0.000543  -0.002000
    16  H   -0.000609   0.000018  -0.000007   0.000007  -0.000130   0.000826
    17  H    0.001447  -0.000147   0.000011  -0.000007   0.000027  -0.000219
    18  H   -0.005998   0.001173  -0.000146   0.000018  -0.000156   0.000083
    19  H    0.449950  -0.005974   0.001440  -0.000606   0.000428   0.000779
    20  H   -0.005974   0.457781  -0.010963   0.001982   0.000027   0.000076
    21  H    0.001440  -0.010963   0.427531  -0.007292   0.001609  -0.000218
    22  H   -0.000606   0.001982  -0.007292   0.420968  -0.008909   0.000812
    23  H    0.000428   0.000027   0.001609  -0.008909   0.442806  -0.001905
    24  H    0.000779   0.000076  -0.000218   0.000812  -0.001905   0.489697
    25  H    0.000323   0.000333  -0.000095   0.000401  -0.000023  -0.077131
              25
     1  C    0.056469
     2  C    0.011847
     3  C   -0.000995
     4  C   -0.011529
     5  C   -0.011184
     6  C   -0.001147
     7  C    0.011362
     8  C    0.054896
     9  C    0.335438
    10  C    0.003476
    11  C    0.022837
    12  C   -0.083446
    13  C    0.022615
    14  C   -0.084421
    15  H    0.000054
    16  H    0.000385
    17  H   -0.000091
    18  H    0.000322
    19  H    0.000323
    20  H    0.000333
    21  H   -0.000095
    22  H    0.000401
    23  H   -0.000023
    24  H   -0.077131
    25  H    0.489615
 Mulliken charges:
               1
     1  C    0.042347
     2  C   -0.380051
     3  C   -0.442334
     4  C    0.095615
     5  C    0.096702
     6  C   -0.441650
     7  C   -0.378060
     8  C    0.043490
     9  C   -0.261537
    10  C    0.075594
    11  C   -0.570109
    12  C    0.547576
    13  C   -0.570949
    14  C    0.545324
    15  H    0.234351
    16  H    0.257416
    17  H    0.239666
    18  H    0.222143
    19  H    0.185114
    20  H    0.222131
    21  H    0.239867
    22  H    0.257418
    23  H    0.234427
    24  H    0.245822
    25  H    0.259689
 Sum of Mulliken charges =   1.00000
 Mulliken charges with hydrogens summed into heavy atoms:
               1
     1  C    0.276697
     2  C   -0.122635
     3  C   -0.202667
     4  C    0.317758
     5  C    0.318832
     6  C   -0.201783
     7  C   -0.120642
     8  C    0.277917
     9  C    0.243973
    10  C    0.260708
    11  C   -0.570109
    12  C    0.547576
    13  C   -0.570949
    14  C    0.545324
 Electronic spatial extent (au):  <R**2>=           2875.9237
 Charge=              1.0000 electrons
 Dipole moment (field-independent basis, Debye):
    X=              0.0028    Y=              0.1931    Z=              0.0048  Tot=              0.1931
 Quadrupole moment (field-independent basis, Debye-Ang):
   XX=            -30.6858   YY=            -56.2539   ZZ=            -84.3033
   XY=              0.0016   XZ=              0.0025   YZ=              0.2396
 Traceless Quadrupole moment (field-independent basis, Debye-Ang):
   XX=             26.3952   YY=              0.8271   ZZ=            -27.2223
   XY=              0.0016   XZ=              0.0025   YZ=              0.2396
 Octapole moment (field-independent basis, Debye-Ang**2):
  XXX=              0.1126  YYY=              5.1671  ZZZ=             -0.0553  XYY=             -0.0018
  XXY=             -3.6149  XXZ=              0.4889  XZZ=             -0.0124  YZZ=             -3.0938
  YYZ=              0.3001  XYZ=              0.0125
 Hexadecapole moment (field-independent basis, Debye-Ang**3):
 XXXX=          -2130.5749 YYYY=           -609.7095 ZZZZ=           -100.0916 XXXY=              0.0618
 XXXZ=              0.0727 YYYX=             -0.0248 YYYZ=              2.6311 ZZZX=              0.0037
 ZZZY=              0.1073 XXYY=           -511.3166 XXZZ=           -596.2916 YYZZ=           -145.9270
 XXYZ=              2.6501 YYXZ=             -0.0003 ZZXY=              0.0014
 N-N= 7.788005214587D+02 E-N=-2.793805359795D+03  KE= 5.373630963493D+02
 Unable to Open any file for archive entry.
 1\1\GINC-GADI-CPU-CLX-0113\SP\RM062X TD-FC\6-311++G(d,p)\C14H11(1+)\TS
 1578\28-Jul-2022\0\\#n M062X/6-311++G(d,p) TD(NStates=1) EmpiricalDisp
 ersion=GD3 SP\\SP_-100\\1,1\C,0,0.0352,2.490855,1.360431\C,0,0.0416,3.
 718958,0.671989\C,0,0.0118,3.714361,-0.71383\C,0,-0.03895,2.485806,-1.
 407538\C,0,-0.03905,-2.486006,-1.407538\C,0,0.0112,-3.715361,-0.71383\
 C,0,0.04065,-3.719308,0.671989\C,0,0.0333,-2.491455,1.360431\C,0,0.021
 85,0.0022,1.453369\C,0,-0.061,-0.0001,-1.429189\C,0,-0.00905,1.242955,
 0.677065\C,0,-0.0252,1.240621,-0.730804\C,0,-0.0092,-1.242905,0.677065
 \C,0,-0.0248,-1.240321,-0.730804\H,0,0.0116,2.486621,2.443647\H,0,0.04
 22,4.650753,1.211689\H,0,-0.0071,4.607512,-1.272349\H,0,-0.0184,2.4896
 ,-2.490059\H,0,-0.05625,-0.00005,-2.510266\H,0,-0.0181,-2.48975,-2.490
 059\H,0,-0.0074,-4.608762,-1.272349\H,0,0.04105,-4.651503,1.211689\H,0
 ,0.0094,-2.487271,2.443647\H,0,-0.779585,0.0005,2.145237\H,0,0.939585,
 0.0005,2.146337\\Version=ES64L-G16RevC.01\State=1-A\HF=-539.7522488\RM
 SD=5.213e-09\PG=C01 [X(C14H11)]\\@
 The archive entry for this job was punched.


 I KNOW YOU BELIEVE YOU UNDERSTAND WHAT YOU THINK I SAID,
 BUT I AM NOT SURE YOU REALIZE THAT WHAT YOU HEARD IS NOT WHAT I MEANT.
 Job cpu time:       0 days  1 hours 19 minutes 33.0 seconds.
 Elapsed time:       0 days  0 hours  1 minutes 39.6 seconds.
 File lengths (MBytes):  RWF=    460 Int=      0 D2E=      0 Chk=     15 Scr=      1
 Normal termination of Gaussian 16 at Thu Jul 28 13:53:36 2022.
