 Entering Gaussian System, Link 0=g16
 Initial command:
 /apps/gaussian/g16c01/g16/l1.exe "/jobfs/53002009.gadi-pbs/Gau-715939.inp" -scrdir="/jobfs/53002009.gadi-pbs/"
 Entering Link 1 = /apps/gaussian/g16c01/g16/l1.exe PID=    715940.
  
 Copyright (c) 1988-2019, Gaussian, Inc.  All Rights Reserved.
  
 This is part of the Gaussian(R) 16 program.  It is based on
 the Gaussian(R) 09 system (copyright 2009, Gaussian, Inc.),
 the Gaussian(R) 03 system (copyright 2003, Gaussian, Inc.),
 the Gaussian(R) 98 system (copyright 1998, Gaussian, Inc.),
 the Gaussian(R) 94 system (copyright 1995, Gaussian, Inc.),
 the Gaussian 92(TM) system (copyright 1992, Gaussian, Inc.),
 the Gaussian 90(TM) system (copyright 1990, Gaussian, Inc.),
 the Gaussian 88(TM) system (copyright 1988, Gaussian, Inc.),
 the Gaussian 86(TM) system (copyright 1986, Carnegie Mellon
 University), and the Gaussian 82(TM) system (copyright 1983,
 Carnegie Mellon University). Gaussian is a federally registered
 trademark of Gaussian, Inc.
  
 This software contains proprietary and confidential information,
 including trade secrets, belonging to Gaussian, Inc.
  
 This software is provided under written license and may be
 used, copied, transmitted, or stored only in accord with that
 written license.
  
 The following legend is applicable only to US Government
 contracts under FAR:
  
                    RESTRICTED RIGHTS LEGEND
  
 Use, reproduction and disclosure by the US Government is
 subject to restrictions as set forth in subparagraphs (a)
 and (c) of the Commercial Computer Software - Restricted
 Rights clause in FAR 52.227-19.
  
 Gaussian, Inc.
 340 Quinnipiac St., Bldg. 40, Wallingford CT 06492
  
  
 ---------------------------------------------------------------
 Warning -- This program may not be used in any manner that
 competes with the business of Gaussian, Inc. or will provide
 assistance to any competitor of Gaussian, Inc.  The licensee
 of this program is prohibited from giving any competitor of
 Gaussian, Inc. access to this program.  By using this program,
 the user acknowledges that Gaussian, Inc. is engaged in the
 business of creating and licensing software in the field of
 computational chemistry and represents and warrants to the
 licensee that it is not a competitor of Gaussian, Inc. and that
 it will not use this program in any manner prohibited above.
 ---------------------------------------------------------------
  

 Cite this work as:
 Gaussian 16, Revision C.01,
 M. J. Frisch, G. W. Trucks, H. B. Schlegel, G. E. Scuseria, 
 M. A. Robb, J. R. Cheeseman, G. Scalmani, V. Barone, 
 G. A. Petersson, H. Nakatsuji, X. Li, M. Caricato, A. V. Marenich, 
 J. Bloino, B. G. Janesko, R. Gomperts, B. Mennucci, H. P. Hratchian, 
 J. V. Ortiz, A. F. Izmaylov, J. L. Sonnenberg, D. Williams-Young, 
 F. Ding, F. Lipparini, F. Egidi, J. Goings, B. Peng, A. Petrone, 
 T. Henderson, D. Ranasinghe, V. G. Zakrzewski, J. Gao, N. Rega, 
 G. Zheng, W. Liang, M. Hada, M. Ehara, K. Toyota, R. Fukuda, 
 J. Hasegawa, M. Ishida, T. Nakajima, Y. Honda, O. Kitao, H. Nakai, 
 T. Vreven, K. Throssell, J. A. Montgomery, Jr., J. E. Peralta, 
 F. Ogliaro, M. J. Bearpark, J. J. Heyd, E. N. Brothers, K. N. Kudin, 
 V. N. Staroverov, T. A. Keith, R. Kobayashi, J. Normand, 
 K. Raghavachari, A. P. Rendell, J. C. Burant, S. S. Iyengar, 
 J. Tomasi, M. Cossi, J. M. Millam, M. Klene, C. Adamo, R. Cammi, 
 J. W. Ochterski, R. L. Martin, K. Morokuma, O. Farkas, 
 J. B. Foresman, and D. J. Fox, Gaussian, Inc., Wallingford CT, 2019.
 
 ******************************************
 Gaussian 16:  ES64L-G16RevC.01  3-Jul-2019
                28-Jul-2022 
 ******************************************
 %NProcShared=48
 Will use up to   48 processors via shared memory.
 %mem = 190GB
 ---------------------------------------------------------------
 #n M062X/6-311++G(d,p) TD(NStates=1) EmpiricalDispersion=GD3 SP
 ---------------------------------------------------------------
 1/38=1,172=1/1;
 2/12=2,17=6,18=5,40=1/2;
 3/5=4,6=6,7=1111,11=9,25=1,30=1,74=-55,124=31/1,2,3,8;
 4//1;
 5/5=2,38=5/2;
 8/6=1,10=2,108=1/1;
 9/41=1,42=1,70=2/14;
 6/7=2,8=2,9=2,10=2/1;
 99/5=1,9=1/99;
 -------
 SP_-150
 -------
 Symbolic Z-matrix:
 Charge =  1 Multiplicity = 1
 C                     0.0372    2.49116   1.36043 
 C                     0.045     3.72098   0.67199 
 C                     0.0125    3.71821  -0.71383 
 C                    -0.04292   2.48823  -1.40754 
 C                    -0.04287  -2.48813  -1.40754 
 C                     0.0128   -3.71771  -0.71383 
 C                     0.04548  -3.72081   0.67199 
 C                     0.03815  -2.49086   1.36043 
 C                     0.02408  -0.0011    1.45337 
 C                    -0.0671    0.00005  -1.42919 
 C                    -0.01008   1.24101   0.67707 
 C                    -0.0274    1.2407   -0.7308 
 C                    -0.01     -1.24103   0.67707 
 C                    -0.0276   -1.24085  -0.7308 
 H                     0.011     2.487     2.44365 
 H                     0.0455    4.65275   1.21169 
 H                    -0.00805   4.60834  -1.27235 
 H                    -0.02      2.49193  -2.49006 
 H                    -0.06188   0.00003  -2.51027 
 H                    -0.02015  -2.49185  -2.49006 
 H                    -0.0079   -4.60771  -1.27235 
 H                     0.04608  -4.65238   1.21169 
 H                     0.0121   -2.48667   2.44365 
 H                    -0.77159  -0.00025   2.14606 
 H                     0.94759  -0.00025   2.14551 
 
                          Input orientation:                          
 ---------------------------------------------------------------------
 Center     Atomic      Atomic             Coordinates (Angstroms)
 Number     Number       Type             X           Y           Z
 ---------------------------------------------------------------------
      1          6           0        0.037200    2.491155    1.360431
      2          6           0        0.045000    3.720983    0.671989
      3          6           0        0.012500    3.718211   -0.713830
      4          6           0       -0.042925    2.488231   -1.407538
      5          6           0       -0.042875   -2.488131   -1.407538
      6          6           0        0.012800   -3.717711   -0.713830
      7          6           0        0.045475   -3.720808    0.671989
      8          6           0        0.038150   -2.490855    1.360431
      9          6           0        0.024075   -0.001100    1.453369
     10          6           0       -0.067100    0.000050   -1.429189
     11          6           0       -0.010075    1.241005    0.677065
     12          6           0       -0.027400    1.240696   -0.730804
     13          6           0       -0.010000   -1.241030    0.677065
     14          6           0       -0.027600   -1.240846   -0.730804
     15          1           0        0.011000    2.486996    2.443647
     16          1           0        0.045500    4.652753    1.211689
     17          1           0       -0.008050    4.608337   -1.272349
     18          1           0       -0.020000    2.491925   -2.490059
     19          1           0       -0.061875    0.000025   -2.510266
     20          1           0       -0.020150   -2.491850   -2.490059
     21          1           0       -0.007900   -4.607712   -1.272349
     22          1           0        0.046075   -4.652378    1.211689
     23          1           0        0.012100   -2.486671    2.443647
     24          1           0       -0.771585   -0.000250    2.146062
     25          1           0        0.947585   -0.000250    2.145512
 ---------------------------------------------------------------------
                    Distance matrix (angstroms):
                    1          2          3          4          5
     1  C    0.000000
     2  C    1.409429   0.000000
     3  C    2.410153   1.386203   0.000000
     4  C    2.769130   2.419058   1.413207   0.000000
     5  C    5.697487   6.548683   6.245236   4.976362   0.000000
     6  C    6.546233   7.566750   7.435922   6.244842   1.412869
     7  C    6.250000   7.441791   7.567072   6.548619   2.419035
     8  C    4.982010   6.249874   6.546428   5.697326   2.769156
     9  C    2.494022   3.803274   4.304667   3.792894   3.791384
    10  C    3.741452   4.274676   3.787188   2.488393   2.488393
    11  C    1.425517   2.480595   2.841065   2.429449   4.272365
    12  C    2.437434   2.850420   2.477894   1.419350   3.789770
    13  C    3.794525   4.962320   5.150647   4.272475   2.429385
    14  C    4.278469   5.156825   4.959248   3.790016   1.419127
    15  H    1.083541   2.159317   3.389034   3.851563   6.291774
    16  H    2.166725   1.076788   2.140580   3.399018   7.606601
    17  H    3.378763   2.137911   1.051042   2.124698   7.097841
    18  H    3.850915   3.393134   2.158662   1.082770   5.096404
    19  H    4.604111   4.897315   4.130087   2.721679   2.721634
    20  H    6.297611   6.971520   6.459173   5.096428   1.082766
    21  H    7.571491   8.552801   8.344660   7.097317   2.124176
    22  H    7.145087   8.390736   8.589267   7.606351   3.398857
    23  H    5.094383   6.455604   6.962056   6.291606   3.851578
    24  H    2.734675   4.085006   4.756125   4.399040   4.398709
    25  H    2.766270   4.102865   4.783009   4.449473   4.449127
                    6          7          8          9         10
     6  C    0.000000
     7  C    1.386208   0.000000
     8  C    2.410057   1.409536   0.000000
     9  C    4.302334   3.800953   2.491529   0.000000
    10  C    3.786802   4.274624   3.741345   2.884000   0.000000
    11  C    5.150143   4.962127   3.794218   1.465141   2.445307
    12  C    4.958599   5.156516   4.278088   2.513030   1.424261
    13  C    2.840609   2.480404   1.425261   1.463296   2.445372
    14  C    2.477253   2.850154   2.437234   2.512022   1.424473
    15  H    6.961900   6.455756   5.094418   2.677955   4.603244
    16  H    8.589142   8.390936   7.145160   4.660173   5.351127
    17  H    8.344786   8.553243   7.571802   5.355136   4.611333
    18  H    6.458765   6.971434   6.297440   4.665591   2.708709
    19  H    4.129688   4.897231   4.603996   3.964567   1.081090
    20  H    2.158428   3.393109   3.850931   4.664377   2.708729
    21  H    1.050939   2.137732   3.378570   5.352704   4.610811
    22  H    2.140638   1.076615   2.166649   4.657605   5.350900
    23  H    3.388970   2.159393   1.083537   2.675604   4.603142
    24  H    4.755393   4.084487   2.734228   1.054940   3.643998
    25  H    4.782173   4.102149   2.765237   1.154094   3.715922
                   11         12         13         14         15
    11  C    0.000000
    12  C    1.407976   0.000000
    13  C    2.482035   2.853307   0.000000
    14  C    2.853417   2.481542   1.407979   0.000000
    15  H    2.161886   3.410554   4.125461   4.896472   0.000000
    16  H    3.453829   3.926923   5.918241   6.205895   2.491870
    17  H    3.890905   3.410960   6.165656   5.874231   4.278911
    18  H    3.405227   2.158844   4.895480   4.126574   4.933806
    19  H    3.420788   2.169548   3.420817   2.169659   5.543608
    20  H    4.895404   4.126370   3.405191   2.158714   7.009375
    21  H    6.165039   5.873460   3.890343   3.410197   8.008987
    22  H    5.917849   6.205401   3.453442   3.926482   7.244971
    23  H    4.125151   4.896117   2.161694   3.410395   4.973667
    24  H    2.068469   3.220266   2.068212   3.220085   2.624384
    25  H    2.148060   3.280813   2.147752   3.280740   2.674410
                   16         17         18         19         20
    16  H    0.000000
    17  H    2.485012   0.000000
    18  H    4.286771   2.441754   0.000000
    19  H    5.959224   4.771989   2.492334   0.000000
    20  H    8.046900   7.203861   4.983775   2.492306   0.000000
    21  H    9.587988   9.216049   7.203319   4.771435   2.441278
    22  H    9.305131   9.588233   8.046637   5.958981   4.286631
    23  H    7.245013   8.009255   7.009201   5.543499   4.933814
    24  H    4.815716   5.788574   5.316901   4.710104   5.316610
    25  H    4.830758   5.816708   5.351231   4.763956   5.350991
                   21         22         23         24         25
    21  H    0.000000
    22  H    2.485026   0.000000
    23  H    4.278766   2.491819   0.000000
    24  H    5.787699   4.814968   2.623930   0.000000
    25  H    5.815792   4.829808   2.673258   1.719170   0.000000
 Stoichiometry    C14H11(1+)
 Framework group  C1[X(C14H11)]
 Deg. of freedom    69
 Full point group                 C1      NOp   1
 Largest Abelian subgroup         C1      NOp   1
 Largest concise Abelian subgroup C1      NOp   1
                         Standard orientation:                         
 ---------------------------------------------------------------------
 Center     Atomic      Atomic             Coordinates (Angstroms)
 Number     Number       Type             X           Y           Z
 ---------------------------------------------------------------------
      1          6           0       -2.491124   -1.360965    0.003403
      2          6           0       -3.720966   -0.672941    0.027933
      3          6           0       -3.718225    0.713259    0.028978
      4          6           0       -2.488263    1.408133   -0.009715
      5          6           0        2.488099    1.408244   -0.009958
      6          6           0        3.717697    0.713420    0.028841
      7          6           0        3.720825   -0.672784    0.027971
      8          6           0        2.490886   -1.360875    0.004060
      9          6           0        0.001133   -1.453501   -0.012113
     10          6           0       -0.000084    1.430419   -0.033506
     11          6           0       -1.240991   -0.676627   -0.027394
     12          6           0       -1.240713    0.731249   -0.010645
     13          6           0        1.241044   -0.676572   -0.027465
     14          6           0        1.240829    0.731310   -0.010991
     15          1           0       -2.486943   -2.443230   -0.049002
     16          1           0       -4.652724   -1.212516    0.015427
     17          1           0       -4.608364    1.272091    0.022002
     18          1           0       -2.491979    2.489782    0.039399
     19          1           0       -0.000082    2.511053   -0.002121
     20          1           0        2.491796    2.489898    0.038956
     21          1           0        4.607685    1.272297    0.021611
     22          1           0        4.652407   -1.212319    0.015455
     23          1           0        2.486724   -2.443143   -0.048195
     24          1           0        0.000250   -2.126737   -0.824303
     25          1           0        0.000352   -2.167790    0.894377
 ---------------------------------------------------------------------
 Rotational constants (GHZ):           2.1340832           0.4400536           0.3656584
 Standard basis: 6-311++G(d,p) (5D, 7F)
 There are   399 symmetry adapted cartesian basis functions of A   symmetry.
 There are   385 symmetry adapted basis functions of A   symmetry.
   385 basis functions,   603 primitive gaussians,   399 cartesian basis functions
    47 alpha electrons       47 beta electrons
       nuclear repulsion energy       778.5515098106 Hartrees.
 NAtoms=   25 NActive=   25 NUniq=   25 SFac= 1.00D+00 NAtFMM=   60 NAOKFM=F Big=F
 Integral buffers will be    131072 words long.
 Regular integral format.
 Two-electron integral symmetry is turned on.
 Nuclear repulsion after empirical dispersion term =      778.5505292964 Hartrees.
 One-electron integrals computed using PRISM.
 NBasis=   385 RedAO= T EigKep=  1.66D-06  NBF=   385
 NBsUse=   379 1.00D-06 EigRej=  9.34D-07 NBFU=   379
 ExpMin= 3.60D-02 ExpMax= 4.56D+03 ExpMxC= 6.82D+02 IAcc=3 IRadAn=         5 AccDes= 0.00D+00
 Harris functional with IExCor= 1009 and IRadAn=       5 diagonalized for initial guess.
 HarFok:  IExCor= 1009 AccDes= 0.00D+00 IRadAn=         5 IDoV= 1 UseB2=F ITyADJ=14
 ICtDFT=  3500011 ScaDFX=  1.000000  1.000000  1.000000  1.000000
 FoFCou: FMM=F IPFlag=           0 FMFlag=      100000 FMFlg1=           0
         NFxFlg=           0 DoJE=T BraDBF=F KetDBF=T FulRan=T
         wScrn=  0.000000 ICntrl=       500 IOpCl=  0 I1Cent=   200000004 NGrid=           0
         NMat0=    1 NMatS0=      1 NMatT0=    0 NMatD0=    1 NMtDS0=    0 NMtDT0=    0
 Petite list used in FoFCou.
 Requested convergence on RMS density matrix=1.00D-08 within 128 cycles.
 Requested convergence on MAX density matrix=1.00D-06.
 Requested convergence on             energy=1.00D-06.
 No special actions if energy rises.
 SCF Done:  E(RM062X) =  -539.750757456     A.U. after   15 cycles
            NFock= 15  Conv=0.54D-08     -V/T= 2.0045
 DoSCS=F DFT=T ScalE2(SS,OS)=  1.000000  1.000000
 ExpMin= 3.60D-02 ExpMax= 4.56D+03 ExpMxC= 6.82D+02 IAcc=3 IRadAn=         5 AccDes= 0.00D+00
 HarFok:  IExCor=  205 AccDes= 0.00D+00 IRadAn=         5 IDoV=-2 UseB2=F ITyADJ=14
 ICtDFT= 12500011 ScaDFX=  1.000000  1.000000  1.000000  1.000000
 Range of M.O.s used for correlation:    15   379
 NBasis=   385 NAE=    47 NBE=    47 NFC=    14 NFV=     0
 NROrb=    365 NOA=    33 NOB=    33 NVA=   332 NVB=   332

 **** Warning!!: The largest alpha MO coefficient is  0.14730893D+03

 Orbital symmetries:
       Occupied  (A) (A) (A) (A) (A) (A) (A) (A) (A) (A) (A) (A)
                 (A) (A) (A) (A) (A) (A) (A) (A) (A) (A) (A) (A)
                 (A) (A) (A) (A) (A) (A) (A) (A) (A) (A) (A) (A)
                 (A) (A) (A) (A) (A) (A) (A) (A) (A) (A) (A)
       Virtual   (A) (A) (A) (A) (A) (A) (A) (A) (A) (A) (A) (A)
                 (A) (A) (A) (A) (A) (A) (A) (A) (A) (A) (A) (A)
                 (A) (A) (A) (A) (A) (A) (A) (A) (A) (A) (A) (A)
                 (A) (A) (A) (A) (A) (A) (A) (A) (A) (A) (A) (A)
                 (A) (A) (A) (A) (A) (A) (A) (A) (A) (A) (A) (A)
                 (A) (A) (A) (A) (A) (A) (A) (A) (A) (A) (A) (A)
                 (A) (A) (A) (A) (A) (A) (A) (A) (A) (A) (A) (A)
                 (A) (A) (A) (A) (A) (A) (A) (A) (A) (A) (A) (A)
                 (A) (A) (A) (A) (A) (A) (A) (A) (A) (A) (A) (A)
                 (A) (A) (A) (A) (A) (A) (A) (A) (A) (A) (A) (A)
                 (A) (A) (A) (A) (A) (A) (A) (A) (A) (A) (A) (A)
                 (A) (A) (A) (A) (A) (A) (A) (A) (A) (A) (A) (A)
                 (A) (A) (A) (A) (A) (A) (A) (A) (A) (A) (A) (A)
                 (A) (A) (A) (A) (A) (A) (A) (A) (A) (A) (A) (A)
                 (A) (A) (A) (A) (A) (A) (A) (A) (A) (A) (A) (A)
                 (A) (A) (A) (A) (A) (A) (A) (A) (A) (A) (A) (A)
                 (A) (A) (A) (A) (A) (A) (A) (A) (A) (A) (A) (A)
                 (A) (A) (A) (A) (A) (A) (A) (A) (A) (A) (A) (A)
                 (A) (A) (A) (A) (A) (A) (A) (A) (A) (A) (A) (A)
                 (A) (A) (A) (A) (A) (A) (A) (A) (A) (A) (A) (A)
                 (A) (A) (A) (A) (A) (A) (A) (A) (A) (A) (A) (A)
                 (A) (A) (A) (A) (A) (A) (A) (A) (A) (A) (A) (A)
                 (A) (A) (A) (A) (A) (A) (A) (A) (A) (A) (A) (A)
                 (A) (A) (A) (A) (A) (A) (A) (A) (A) (A) (A) (A)
                 (A) (A) (A) (A) (A) (A) (A) (A) (A) (A) (A) (A)
                 (A) (A) (A) (A) (A) (A) (A) (A) (A) (A) (A) (A)
                 (A) (A) (A) (A) (A) (A) (A) (A) (A) (A) (A) (A)
                 (A) (A) (A) (A) (A) (A) (A) (A)
     4 initial guesses have been made.
 Convergence on wavefunction:    0.001000000000000
 Iteration     1 Dimension     4 NMult     0 NNew      4
 CISAX will form     4 AO SS matrices at one time.
 Iteration     2 Dimension     6 NMult     4 NNew      2
 Iteration     3 Dimension     8 NMult     6 NNew      2
 Iteration     4 Dimension    10 NMult     8 NNew      2
 Iteration     5 Dimension    12 NMult    10 NNew      2
 Iteration     6 Dimension    14 NMult    12 NNew      2
 ***********************************************************************
 Excited states from <AA,BB:AA,BB> singles matrix:
 ***********************************************************************
 
 Ground to excited state transition densities written to RWF  633
 Ground to excited state transition electric dipole moments (Au):
       state          X           Y           Z        Dip. S.      Osc.
         1         0.0015     -0.6249      0.0105      0.3906      0.0265
 Ground to excited state transition velocity dipole moments (Au):
       state          X           Y           Z        Dip. S.      Osc.
         1        -0.0002      0.0708     -0.0013      0.0050      0.0329
 Ground to excited state transition magnetic dipole moments (Au):
       state          X           Y           Z
         1        -0.0139      0.0001      0.0001
 Ground to excited state transition velocity quadrupole moments (Au):
       state          XX          YY          ZZ          XY          XZ          YZ
         1         0.3237      0.0270     -0.0092     -0.0002     -0.0000      0.0023
 <0|del|b> * <b|rxdel|0> + <0|del|b> * <b|delr+rdel|0>
 Rotatory Strengths (R) in cgs (10**-40 erg-esu-cm/Gauss)
       state          XX          YY          ZZ    R(velocity)    E-M Angle
         1         0.0311      0.0050      0.0290      0.0217       90.00
 1/2[<0|r|b>*<b|rxdel|0> + (<0|rxdel|b>*<b|r|0>)*]
 Rotatory Strengths (R) in cgs (10**-40 erg-esu-cm/Gauss)
       state          XX          YY          ZZ     R(length)
         1         0.0147      0.0458     -0.0004      0.0200
  1/2[<0|del|b>*<b|r|0> + (<0|r|b>*<b|del|0>)*] (Au)
       state          X           Y           Z        Dip. S.   Osc.(frdel)
         1        -0.0000     -0.0442     -0.0000      0.0443      0.0295

 Excitation energies and oscillator strengths:
 
 Excited State   1:      Singlet-A      2.7655 eV  448.32 nm  f=0.0265  <S**2>=0.000
      47 -> 48         0.70427
 This state for optimization and/or second-order correction.
 Total Energy, E(TD-HF/TD-DFT) =  -539.649126070    
 Copying the excited state density for this state as the 1-particle RhoCI density.
 SavETr:  write IOETrn=   770 NScale= 10 NData=  16 NLR=1 NState=    1 LETran=      28.

 **********************************************************************

            Population analysis using the SCF Density.

 **********************************************************************

 Orbital symmetries:
       Occupied  (A) (A) (A) (A) (A) (A) (A) (A) (A) (A) (A) (A)
                 (A) (A) (A) (A) (A) (A) (A) (A) (A) (A) (A) (A)
                 (A) (A) (A) (A) (A) (A) (A) (A) (A) (A) (A) (A)
                 (A) (A) (A) (A) (A) (A) (A) (A) (A) (A) (A)
       Virtual   (A) (A) (A) (A) (A) (A) (A) (A) (A) (A) (A) (A)
                 (A) (A) (A) (A) (A) (A) (A) (A) (A) (A) (A) (A)
                 (A) (A) (A) (A) (A) (A) (A) (A) (A) (A) (A) (A)
                 (A) (A) (A) (A) (A) (A) (A) (A) (A) (A) (A) (A)
                 (A) (A) (A) (A) (A) (A) (A) (A) (A) (A) (A) (A)
                 (A) (A) (A) (A) (A) (A) (A) (A) (A) (A) (A) (A)
                 (A) (A) (A) (A) (A) (A) (A) (A) (A) (A) (A) (A)
                 (A) (A) (A) (A) (A) (A) (A) (A) (A) (A) (A) (A)
                 (A) (A) (A) (A) (A) (A) (A) (A) (A) (A) (A) (A)
                 (A) (A) (A) (A) (A) (A) (A) (A) (A) (A) (A) (A)
                 (A) (A) (A) (A) (A) (A) (A) (A) (A) (A) (A) (A)
                 (A) (A) (A) (A) (A) (A) (A) (A) (A) (A) (A) (A)
                 (A) (A) (A) (A) (A) (A) (A) (A) (A) (A) (A) (A)
                 (A) (A) (A) (A) (A) (A) (A) (A) (A) (A) (A) (A)
                 (A) (A) (A) (A) (A) (A) (A) (A) (A) (A) (A) (A)
                 (A) (A) (A) (A) (A) (A) (A) (A) (A) (A) (A) (A)
                 (A) (A) (A) (A) (A) (A) (A) (A) (A) (A) (A) (A)
                 (A) (A) (A) (A) (A) (A) (A) (A) (A) (A) (A) (A)
                 (A) (A) (A) (A) (A) (A) (A) (A) (A) (A) (A) (A)
                 (A) (A) (A) (A) (A) (A) (A) (A) (A) (A) (A) (A)
                 (A) (A) (A) (A) (A) (A) (A) (A) (A) (A) (A) (A)
                 (A) (A) (A) (A) (A) (A) (A) (A) (A) (A) (A) (A)
                 (A) (A) (A) (A) (A) (A) (A) (A) (A) (A) (A) (A)
                 (A) (A) (A) (A) (A) (A) (A) (A) (A) (A) (A) (A)
                 (A) (A) (A) (A) (A) (A) (A) (A) (A) (A) (A) (A)
                 (A) (A) (A) (A) (A) (A) (A) (A) (A) (A) (A) (A)
                 (A) (A) (A) (A) (A) (A) (A) (A) (A) (A) (A) (A)
                 (A) (A) (A) (A) (A) (A) (A) (A)
 The electronic state is 1-A.
 Alpha  occ. eigenvalues --  -10.77653 -10.73348 -10.73335 -10.72679 -10.72677
 Alpha  occ. eigenvalues --  -10.71665 -10.71657 -10.71183 -10.71181 -10.70978
 Alpha  occ. eigenvalues --  -10.70295 -10.70290 -10.69556 -10.69549  -1.16278
 Alpha  occ. eigenvalues --   -1.11878  -1.06673  -1.05890  -1.00871  -1.00121
 Alpha  occ. eigenvalues --   -0.95574  -0.91098  -0.86405  -0.85809  -0.83785
 Alpha  occ. eigenvalues --   -0.78401  -0.75959  -0.74299  -0.69649  -0.69507
 Alpha  occ. eigenvalues --   -0.68866  -0.68283  -0.68025  -0.64330  -0.63924
 Alpha  occ. eigenvalues --   -0.63250  -0.62215  -0.59739  -0.59235  -0.59217
 Alpha  occ. eigenvalues --   -0.56996  -0.55334  -0.54958  -0.52215  -0.46369
 Alpha  occ. eigenvalues --   -0.45909  -0.44220
 Alpha virt. eigenvalues --   -0.26057  -0.15046  -0.14186  -0.13150  -0.11178
 Alpha virt. eigenvalues --   -0.10076  -0.09188  -0.08067  -0.07859  -0.07455
 Alpha virt. eigenvalues --   -0.07270  -0.07123  -0.05652  -0.05586  -0.05395
 Alpha virt. eigenvalues --   -0.03752  -0.03711  -0.03295  -0.03130  -0.02127
 Alpha virt. eigenvalues --   -0.01354  -0.00904   0.00193   0.00717   0.00784
 Alpha virt. eigenvalues --    0.01016   0.01502   0.01784   0.02191   0.02315
 Alpha virt. eigenvalues --    0.02348   0.02448   0.02875   0.03209   0.03420
 Alpha virt. eigenvalues --    0.04265   0.04495   0.04650   0.04910   0.05350
 Alpha virt. eigenvalues --    0.05882   0.06273   0.06621   0.07002   0.07122
 Alpha virt. eigenvalues --    0.07797   0.07882   0.08254   0.08472   0.08943
 Alpha virt. eigenvalues --    0.09574   0.09619   0.09990   0.10600   0.10969
 Alpha virt. eigenvalues --    0.11140   0.12303   0.12307   0.12829   0.13117
 Alpha virt. eigenvalues --    0.13420   0.13485   0.14027   0.14043   0.15607
 Alpha virt. eigenvalues --    0.16377   0.16804   0.16827   0.17463   0.17632
 Alpha virt. eigenvalues --    0.18013   0.18640   0.19104   0.19506   0.19683
 Alpha virt. eigenvalues --    0.21300   0.21329   0.22302   0.23056   0.23128
 Alpha virt. eigenvalues --    0.23601   0.24279   0.24490   0.26643   0.27267
 Alpha virt. eigenvalues --    0.28786   0.29212   0.29665   0.31007   0.35736
 Alpha virt. eigenvalues --    0.35917   0.37348   0.38965   0.41130   0.41550
 Alpha virt. eigenvalues --    0.41879   0.42573   0.42909   0.43365   0.43477
 Alpha virt. eigenvalues --    0.43841   0.44516   0.44660   0.45999   0.47764
 Alpha virt. eigenvalues --    0.48705   0.48885   0.48994   0.50497   0.50869
 Alpha virt. eigenvalues --    0.51099   0.51225   0.52067   0.52132   0.53943
 Alpha virt. eigenvalues --    0.54098   0.54341   0.55764   0.55922   0.57105
 Alpha virt. eigenvalues --    0.58062   0.58621   0.61215   0.61961   0.62153
 Alpha virt. eigenvalues --    0.62544   0.62677   0.63749   0.65089   0.66739
 Alpha virt. eigenvalues --    0.70461   0.70538   0.70672   0.71381   0.72581
 Alpha virt. eigenvalues --    0.74413   0.75072   0.75825   0.75929   0.76531
 Alpha virt. eigenvalues --    0.76897   0.77420   0.77917   0.80362   0.80508
 Alpha virt. eigenvalues --    0.80785   0.81873   0.81925   0.82542   0.83903
 Alpha virt. eigenvalues --    0.85541   0.86042   0.87488   0.89131   0.90516
 Alpha virt. eigenvalues --    0.90980   0.91414   0.93146   0.94796   0.96051
 Alpha virt. eigenvalues --    0.96913   1.00253   1.01043   1.01711   1.02326
 Alpha virt. eigenvalues --    1.03225   1.03974   1.04368   1.07133   1.09183
 Alpha virt. eigenvalues --    1.19877   1.23217   1.24133   1.25908   1.28025
 Alpha virt. eigenvalues --    1.28630   1.32252   1.33153   1.34757   1.35867
 Alpha virt. eigenvalues --    1.38420   1.39916   1.40199   1.42626   1.42726
 Alpha virt. eigenvalues --    1.43073   1.44670   1.44746   1.46861   1.46902
 Alpha virt. eigenvalues --    1.47098   1.47548   1.51356   1.53620   1.55205
 Alpha virt. eigenvalues --    1.55485   1.55923   1.56906   1.57426   1.61009
 Alpha virt. eigenvalues --    1.63687   1.64420   1.64526   1.65801   1.67526
 Alpha virt. eigenvalues --    1.68363   1.68746   1.69556   1.73412   1.75622
 Alpha virt. eigenvalues --    1.76795   1.77374   1.78778   1.79525   1.79581
 Alpha virt. eigenvalues --    1.82716   1.82825   1.82977   1.83138   1.83738
 Alpha virt. eigenvalues --    1.84334   1.85677   1.85969   1.87979   1.91163
 Alpha virt. eigenvalues --    1.91603   1.94017   1.95333   1.97139   1.97142
 Alpha virt. eigenvalues --    1.98835   2.02111   2.03559   2.07437   2.11381
 Alpha virt. eigenvalues --    2.11610   2.12931   2.14925   2.17894   2.19922
 Alpha virt. eigenvalues --    2.21483   2.28099   2.28763   2.33907   2.35486
 Alpha virt. eigenvalues --    2.36127   2.38183   2.40080   2.40723   2.41320
 Alpha virt. eigenvalues --    2.45272   2.47256   2.49764   2.53138   2.53549
 Alpha virt. eigenvalues --    2.54207   2.56757   2.57766   2.58435   2.59501
 Alpha virt. eigenvalues --    2.59869   2.60726   2.61721   2.62494   2.62813
 Alpha virt. eigenvalues --    2.63215   2.64557   2.64581   2.65463   2.67503
 Alpha virt. eigenvalues --    2.69220   2.70759   2.71182   2.73473   2.74681
 Alpha virt. eigenvalues --    2.76291   2.77791   2.79400   2.81908   2.82411
 Alpha virt. eigenvalues --    2.83847   2.86408   2.91959   2.95160   2.99210
 Alpha virt. eigenvalues --    2.99268   3.06220   3.08879   3.09547   3.10090
 Alpha virt. eigenvalues --    3.20386   3.22710   3.25027   3.26959   3.29620
 Alpha virt. eigenvalues --    3.29925   3.31648   3.42811   3.43243   3.44969
 Alpha virt. eigenvalues --    3.46065   3.48478   3.55808   3.63809   3.66958
 Alpha virt. eigenvalues --    3.69406   3.94098   3.95669   3.96958   3.98377
 Alpha virt. eigenvalues --    4.04610   4.05980   4.07955   4.12317   4.35596
 Alpha virt. eigenvalues --    4.61296   4.67528   4.69096  23.45875  23.62495
 Alpha virt. eigenvalues --   23.80542  23.86032  23.86257  23.88886  23.90101
 Alpha virt. eigenvalues --   23.92776  23.95063  23.95343  23.95519  23.97944
 Alpha virt. eigenvalues --   24.08238  24.08455
          Condensed to atoms (all electrons):
               1          2          3          4          5          6
     1  C    8.185680   0.628683  -0.589538   1.409611   0.010629  -0.075485
     2  C    0.628683   6.657268   0.356841  -0.568327  -0.056626  -0.014724
     3  C   -0.589538   0.356841   6.559090   0.396085  -0.101567   0.016069
     4  C    1.409611  -0.568327   0.396085   9.847042   0.167222  -0.101561
     5  C    0.010629  -0.056626  -0.101567   0.167222   9.852429   0.399924
     6  C   -0.075485  -0.014724   0.016069  -0.101561   0.399924   6.559520
     7  C   -0.036112   0.011071  -0.014698  -0.056487  -0.572328   0.357279
     8  C    0.354021  -0.036058  -0.075480   0.010738   1.407522  -0.587438
     9  C   -1.420046  -0.427751   0.240375  -0.576808  -0.574178   0.240316
    10  C   -0.957114   0.065067  -0.276670  -2.070357  -2.073358  -0.277224
    11  C    0.127485  -0.903110   1.108101  -1.143414  -1.653755  -0.099605
    12  C   -1.141275   0.706260  -1.182435  -0.143921   0.048509  -0.213922
    13  C    0.057512  -0.132015  -0.098732  -1.650460  -1.134160   1.106090
    14  C   -0.975356  -0.199270  -0.213774   0.053140  -0.147424  -1.185305
    15  H    0.351394  -0.095974   0.000958   0.020865   0.004588   0.001247
    16  H   -0.027442   0.384223  -0.019761   0.012039  -0.001305  -0.000304
    17  H   -0.014144  -0.029833   0.390570  -0.051192  -0.000354   0.000331
    18  H    0.041097   0.013534  -0.101306   0.430761   0.013683  -0.004163
    19  H   -0.041426  -0.010102   0.052331  -0.079094  -0.079184   0.052288
    20  H    0.006657   0.001321  -0.004163   0.013727   0.431165  -0.101232
    21  H   -0.001118  -0.000325   0.000331  -0.000360  -0.051268   0.390591
    22  H    0.000497   0.000319  -0.000303  -0.001297   0.012017  -0.019741
    23  H    0.005719  -0.002322   0.001247   0.004575   0.020948   0.000956
    24  H    0.004970   0.015156  -0.001004  -0.015277  -0.015122  -0.001056
    25  H    0.057739   0.011194  -0.001263  -0.010843  -0.011008  -0.001189
               7          8          9         10         11         12
     1  C   -0.036112   0.354021  -1.420046  -0.957114   0.127485  -1.141275
     2  C    0.011071  -0.036058  -0.427751   0.065067  -0.903110   0.706260
     3  C   -0.014698  -0.075480   0.240375  -0.276670   1.108101  -1.182435
     4  C   -0.056487   0.010738  -0.576808  -2.070357  -1.143414  -0.143921
     5  C   -0.572328   1.407522  -0.574178  -2.073358  -1.653755   0.048509
     6  C    0.357279  -0.587438   0.240316  -0.277224  -0.099605  -0.213922
     7  C    6.662644   0.627686  -0.431018   0.066600  -0.133582  -0.198986
     8  C    0.627686   8.189464  -1.421693  -0.957724   0.058137  -0.979250
     9  C   -0.431018  -1.421693   8.140877   0.592688   1.304189  -0.797128
    10  C    0.066600  -0.957724   0.592688   8.578355  -0.004859   1.374916
    11  C   -0.133582   0.058137   1.304189  -0.004859  13.297699  -2.803804
    12  C   -0.198986  -0.979250  -0.797128   1.374916  -2.803804  13.146367
    13  C   -0.906281   0.133690   1.304506  -0.001532   1.487917  -4.132161
    14  C    0.712814  -1.144262  -0.798906   1.377870  -4.140264   1.975479
    15  H   -0.002338   0.005736   0.075959  -0.008855  -0.009299  -0.016652
    16  H    0.000321   0.000512   0.002513  -0.009751   0.022765  -0.022654
    17  H   -0.000327  -0.001124  -0.000745   0.013747  -0.012462   0.056441
    18  H    0.001326   0.006669  -0.027894   0.032432  -0.032423  -0.027363
    19  H   -0.010083  -0.041424   0.065945   0.426285   0.084449  -0.065415
    20  H    0.013394   0.041154  -0.027924   0.032214  -0.009969  -0.003592
    21  H   -0.029784  -0.014280  -0.000728   0.013752  -0.004870   0.002681
    22  H    0.384242  -0.027536   0.002435  -0.009681   0.001508  -0.007505
    23  H   -0.096256   0.351262   0.076084  -0.008883  -0.001848   0.005057
    24  H    0.014971   0.004390   0.384880   0.009515  -0.002693  -0.025635
    25  H    0.011428   0.058528   0.332901   0.002874   0.022532  -0.085307
              13         14         15         16         17         18
     1  C    0.057512  -0.975356   0.351394  -0.027442  -0.014144   0.041097
     2  C   -0.132015  -0.199270  -0.095974   0.384223  -0.029833   0.013534
     3  C   -0.098732  -0.213774   0.000958  -0.019761   0.390570  -0.101306
     4  C   -1.650460   0.053140   0.020865   0.012039  -0.051192   0.430761
     5  C   -1.134160  -0.147424   0.004588  -0.001305  -0.000354   0.013683
     6  C    1.106090  -1.185305   0.001247  -0.000304   0.000331  -0.004163
     7  C   -0.906281   0.712814  -0.002338   0.000321  -0.000327   0.001326
     8  C    0.133690  -1.144262   0.005736   0.000512  -0.001124   0.006669
     9  C    1.304506  -0.798906   0.075959   0.002513  -0.000745  -0.027894
    10  C   -0.001532   1.377870  -0.008855  -0.009751   0.013747   0.032432
    11  C    1.487917  -4.140264  -0.009299   0.022765  -0.012462  -0.032423
    12  C   -4.132161   1.975479  -0.016652  -0.022654   0.056441  -0.027363
    13  C   13.273492  -2.807108  -0.001892   0.001538  -0.004868  -0.009827
    14  C   -2.807108  13.149601   0.005022  -0.007544   0.002679  -0.003447
    15  H   -0.001892   0.005022   0.443661  -0.008883   0.001612   0.000005
    16  H    0.001538  -0.007544  -0.008883   0.421146  -0.007356   0.001981
    17  H   -0.004868   0.002679   0.001612  -0.007356   0.428254  -0.011121
    18  H   -0.009827  -0.003447   0.000005   0.001981  -0.011121   0.458779
    19  H    0.084117  -0.065802   0.000452  -0.000613   0.001420  -0.005799
    20  H   -0.032377  -0.027231  -0.000163   0.000018  -0.000144   0.001111
    21  H   -0.012460   0.056597   0.000030  -0.000007   0.000011  -0.000144
    22  H    0.022600  -0.022383  -0.000131   0.000007  -0.000007   0.000018
    23  H   -0.009120  -0.016730   0.000528  -0.000131   0.000030  -0.000164
    24  H   -0.002787  -0.026029  -0.002030   0.000825  -0.000220   0.000057
    25  H    0.022631  -0.084815   0.000080   0.000384  -0.000097   0.000364
              19         20         21         22         23         24
     1  C   -0.041426   0.006657  -0.001118   0.000497   0.005719   0.004970
     2  C   -0.010102   0.001321  -0.000325   0.000319  -0.002322   0.015156
     3  C    0.052331  -0.004163   0.000331  -0.000303   0.001247  -0.001004
     4  C   -0.079094   0.013727  -0.000360  -0.001297   0.004575  -0.015277
     5  C   -0.079184   0.431165  -0.051268   0.012017   0.020948  -0.015122
     6  C    0.052288  -0.101232   0.390591  -0.019741   0.000956  -0.001056
     7  C   -0.010083   0.013394  -0.029784   0.384242  -0.096256   0.014971
     8  C   -0.041424   0.041154  -0.014280  -0.027536   0.351262   0.004390
     9  C    0.065945  -0.027924  -0.000728   0.002435   0.076084   0.384880
    10  C    0.426285   0.032214   0.013752  -0.009681  -0.008883   0.009515
    11  C    0.084449  -0.009969  -0.004870   0.001508  -0.001848  -0.002693
    12  C   -0.065415  -0.003592   0.002681  -0.007505   0.005057  -0.025635
    13  C    0.084117  -0.032377  -0.012460   0.022600  -0.009120  -0.002787
    14  C   -0.065802  -0.027231   0.056597  -0.022383  -0.016730  -0.026029
    15  H    0.000452  -0.000163   0.000030  -0.000131   0.000528  -0.002030
    16  H   -0.000613   0.000018  -0.000007   0.000007  -0.000131   0.000825
    17  H    0.001420  -0.000144   0.000011  -0.000007   0.000030  -0.000220
    18  H   -0.005799   0.001111  -0.000144   0.000018  -0.000164   0.000057
    19  H    0.450650  -0.005813   0.001424  -0.000615   0.000450   0.000822
    20  H   -0.005813   0.458741  -0.011145   0.001980   0.000010   0.000059
    21  H    0.001424  -0.011145   0.428343  -0.007360   0.001610  -0.000221
    22  H   -0.000615   0.001980  -0.007360   0.421132  -0.008884   0.000832
    23  H    0.000450   0.000010   0.001610  -0.008884   0.443785  -0.002080
    24  H    0.000822   0.000059  -0.000221   0.000832  -0.002080   0.489297
    25  H    0.000241   0.000359  -0.000095   0.000376   0.000119  -0.076798
              25
     1  C    0.057739
     2  C    0.011194
     3  C   -0.001263
     4  C   -0.010843
     5  C   -0.011008
     6  C   -0.001189
     7  C    0.011428
     8  C    0.058528
     9  C    0.332901
    10  C    0.002874
    11  C    0.022532
    12  C   -0.085307
    13  C    0.022631
    14  C   -0.084815
    15  H    0.000080
    16  H    0.000384
    17  H   -0.000097
    18  H    0.000364
    19  H    0.000241
    20  H    0.000359
    21  H   -0.000095
    22  H    0.000376
    23  H    0.000119
    24  H   -0.076798
    25  H    0.489005
 Mulliken charges:
               1
     1  C    0.037363
     2  C   -0.374499
     3  C   -0.441304
     4  C    0.103592
     5  C    0.103003
     6  C   -0.441661
     7  C   -0.375495
     8  C    0.036761
     9  C   -0.258849
    10  C    0.069693
    11  C   -0.558825
    12  C    0.531298
    13  C   -0.558312
    14  C    0.532448
    15  H    0.234081
    16  H    0.257478
    17  H    0.238899
    18  H    0.221837
    19  H    0.184496
    20  H    0.221843
    21  H    0.238796
    22  H    0.257481
    23  H    0.234037
    24  H    0.245178
    25  H    0.260663
 Sum of Mulliken charges =   1.00000
 Mulliken charges with hydrogens summed into heavy atoms:
               1
     1  C    0.271444
     2  C   -0.117021
     3  C   -0.202405
     4  C    0.325429
     5  C    0.324846
     6  C   -0.202865
     7  C   -0.118014
     8  C    0.270798
     9  C    0.246992
    10  C    0.254188
    11  C   -0.558825
    12  C    0.531298
    13  C   -0.558312
    14  C    0.532448
 Electronic spatial extent (au):  <R**2>=           2877.9786
 Charge=              1.0000 electrons
 Dipole moment (field-independent basis, Debye):
    X=             -0.0014    Y=              0.1930    Z=              0.0060  Tot=              0.1931
 Quadrupole moment (field-independent basis, Debye-Ang):
   XX=            -30.6449   YY=            -56.2526   ZZ=            -84.3193
   XY=             -0.0008   XZ=             -0.0012   YZ=              0.2639
 Traceless Quadrupole moment (field-independent basis, Debye-Ang):
   XX=             26.4274   YY=              0.8196   ZZ=            -27.2470
   XY=             -0.0008   XZ=             -0.0012   YZ=              0.2639
 Octapole moment (field-independent basis, Debye-Ang**2):
  XXX=             -0.0565  YYY=              5.1575  ZZZ=             -0.0571  XYY=              0.0009
  XXY=             -3.4662  XXZ=              0.5459  XZZ=              0.0061  YZZ=             -3.0961
  YYZ=              0.3268  XYZ=             -0.0063
 Hexadecapole moment (field-independent basis, Debye-Ang**3):
 XXXX=          -2131.4563 YYYY=           -609.8034 ZZZZ=           -100.1954 XXXY=             -0.0308
 XXXZ=             -0.0365 YYYX=              0.0123 YYYZ=              2.9065 ZZZX=             -0.0019
 ZZZY=              0.1155 XXYY=           -511.7023 XXZZ=           -596.8539 YYZZ=           -145.9516
 XXYZ=              2.9175 YYXZ=              0.0002 ZZXY=             -0.0007
 N-N= 7.785505292964D+02 E-N=-2.793290699428D+03  KE= 5.373489491816D+02
 Unable to Open any file for archive entry.
 1\1\GINC-GADI-CPU-CLX-0113\SP\RM062X TD-FC\6-311++G(d,p)\C14H11(1+)\TS
 1578\28-Jul-2022\0\\#n M062X/6-311++G(d,p) TD(NStates=1) EmpiricalDisp
 ersion=GD3 SP\\SP_-150\\1,1\C,0,0.0372,2.491155,1.360431\C,0,0.045,3.7
 20983,0.671989\C,0,0.0125,3.718211,-0.71383\C,0,-0.042925,2.488231,-1.
 407538\C,0,-0.042875,-2.488131,-1.407538\C,0,0.0128,-3.717711,-0.71383
 \C,0,0.045475,-3.720808,0.671989\C,0,0.03815,-2.490855,1.360431\C,0,0.
 024075,-0.0011,1.453369\C,0,-0.0671,0.00005,-1.429189\C,0,-0.010075,1.
 241005,0.677065\C,0,-0.0274,1.240696,-0.730804\C,0,-0.01,-1.24103,0.67
 7065\C,0,-0.0276,-1.240846,-0.730804\H,0,0.011,2.486996,2.443647\H,0,0
 .0455,4.652753,1.211689\H,0,-0.00805,4.608337,-1.272349\H,0,-0.02,2.49
 1925,-2.490059\H,0,-0.061875,0.000025,-2.510266\H,0,-0.02015,-2.49185,
 -2.490059\H,0,-0.0079,-4.607712,-1.272349\H,0,0.046075,-4.652378,1.211
 689\H,0,0.0121,-2.486671,2.443647\H,0,-0.771585,-0.00025,2.146062\H,0,
 0.947585,-0.00025,2.145512\\Version=ES64L-G16RevC.01\State=1-A\HF=-539
 .7507575\RMSD=5.384e-09\PG=C01 [X(C14H11)]\\@
 The archive entry for this job was punched.


 KNOWLEDGE IS OF TWO KINDS:  WE KNOW A SUBJECT OURSELVES OR WE KNOW 
 WHERE WE CAN FIND INFORMATION UPON IT.

                                    -- SAMUEL JOHNSON
 Job cpu time:       0 days  1 hours 19 minutes 34.2 seconds.
 Elapsed time:       0 days  0 hours  1 minutes 39.6 seconds.
 File lengths (MBytes):  RWF=    460 Int=      0 D2E=      0 Chk=     15 Scr=      1
 Normal termination of Gaussian 16 at Thu Jul 28 13:10:24 2022.
