 Entering Gaussian System, Link 0=g16
 Initial command:
 /apps/gaussian/g16c01/g16/l1.exe "/jobfs/53002009.gadi-pbs/Gau-807467.inp" -scrdir="/jobfs/53002009.gadi-pbs/"
 Entering Link 1 = /apps/gaussian/g16c01/g16/l1.exe PID=    807468.
  
 Copyright (c) 1988-2019, Gaussian, Inc.  All Rights Reserved.
  
 This is part of the Gaussian(R) 16 program.  It is based on
 the Gaussian(R) 09 system (copyright 2009, Gaussian, Inc.),
 the Gaussian(R) 03 system (copyright 2003, Gaussian, Inc.),
 the Gaussian(R) 98 system (copyright 1998, Gaussian, Inc.),
 the Gaussian(R) 94 system (copyright 1995, Gaussian, Inc.),
 the Gaussian 92(TM) system (copyright 1992, Gaussian, Inc.),
 the Gaussian 90(TM) system (copyright 1990, Gaussian, Inc.),
 the Gaussian 88(TM) system (copyright 1988, Gaussian, Inc.),
 the Gaussian 86(TM) system (copyright 1986, Carnegie Mellon
 University), and the Gaussian 82(TM) system (copyright 1983,
 Carnegie Mellon University). Gaussian is a federally registered
 trademark of Gaussian, Inc.
  
 This software contains proprietary and confidential information,
 including trade secrets, belonging to Gaussian, Inc.
  
 This software is provided under written license and may be
 used, copied, transmitted, or stored only in accord with that
 written license.
  
 The following legend is applicable only to US Government
 contracts under FAR:
  
                    RESTRICTED RIGHTS LEGEND
  
 Use, reproduction and disclosure by the US Government is
 subject to restrictions as set forth in subparagraphs (a)
 and (c) of the Commercial Computer Software - Restricted
 Rights clause in FAR 52.227-19.
  
 Gaussian, Inc.
 340 Quinnipiac St., Bldg. 40, Wallingford CT 06492
  
  
 ---------------------------------------------------------------
 Warning -- This program may not be used in any manner that
 competes with the business of Gaussian, Inc. or will provide
 assistance to any competitor of Gaussian, Inc.  The licensee
 of this program is prohibited from giving any competitor of
 Gaussian, Inc. access to this program.  By using this program,
 the user acknowledges that Gaussian, Inc. is engaged in the
 business of creating and licensing software in the field of
 computational chemistry and represents and warrants to the
 licensee that it is not a competitor of Gaussian, Inc. and that
 it will not use this program in any manner prohibited above.
 ---------------------------------------------------------------
  

 Cite this work as:
 Gaussian 16, Revision C.01,
 M. J. Frisch, G. W. Trucks, H. B. Schlegel, G. E. Scuseria, 
 M. A. Robb, J. R. Cheeseman, G. Scalmani, V. Barone, 
 G. A. Petersson, H. Nakatsuji, X. Li, M. Caricato, A. V. Marenich, 
 J. Bloino, B. G. Janesko, R. Gomperts, B. Mennucci, H. P. Hratchian, 
 J. V. Ortiz, A. F. Izmaylov, J. L. Sonnenberg, D. Williams-Young, 
 F. Ding, F. Lipparini, F. Egidi, J. Goings, B. Peng, A. Petrone, 
 T. Henderson, D. Ranasinghe, V. G. Zakrzewski, J. Gao, N. Rega, 
 G. Zheng, W. Liang, M. Hada, M. Ehara, K. Toyota, R. Fukuda, 
 J. Hasegawa, M. Ishida, T. Nakajima, Y. Honda, O. Kitao, H. Nakai, 
 T. Vreven, K. Throssell, J. A. Montgomery, Jr., J. E. Peralta, 
 F. Ogliaro, M. J. Bearpark, J. J. Heyd, E. N. Brothers, K. N. Kudin, 
 V. N. Staroverov, T. A. Keith, R. Kobayashi, J. Normand, 
 K. Raghavachari, A. P. Rendell, J. C. Burant, S. S. Iyengar, 
 J. Tomasi, M. Cossi, J. M. Millam, M. Klene, C. Adamo, R. Cammi, 
 J. W. Ochterski, R. L. Martin, K. Morokuma, O. Farkas, 
 J. B. Foresman, and D. J. Fox, Gaussian, Inc., Wallingford CT, 2019.
 
 ******************************************
 Gaussian 16:  ES64L-G16RevC.01  3-Jul-2019
                28-Jul-2022 
 ******************************************
 %NProcShared=48
 Will use up to   48 processors via shared memory.
 %mem = 190GB
 ---------------------------------------------------------------
 #n M062X/6-311++G(d,p) TD(NStates=1) EmpiricalDispersion=GD3 SP
 ---------------------------------------------------------------
 1/38=1,172=1/1;
 2/12=2,17=6,18=5,40=1/2;
 3/5=4,6=6,7=1111,11=9,25=1,30=1,74=-55,124=31/1,2,3,8;
 4//1;
 5/5=2,38=5/2;
 8/6=1,10=2,108=1/1;
 9/41=1,42=1,70=2/14;
 6/7=2,8=2,9=2,10=2/1;
 99/5=1,9=1/99;
 ------
 SP_150
 ------
 Symbolic Z-matrix:
 Charge =  1 Multiplicity = 1
 C                    -0.0333    2.49386   1.36043 
 C                    -0.04065   3.68371   0.67199 
 C                    -0.0112    3.65236  -0.71383 
 C                     0.03905   2.44031  -1.40754 
 C                     0.03895  -2.44051  -1.40754 
 C                    -0.0118   -3.65336  -0.71383 
 C                    -0.0416   -3.68406   0.67199 
 C                    -0.0352   -2.49446   1.36043 
 C                    -0.0219    0.0022    1.45337 
 C                     0.061    -0.0001   -1.42919 
 C                     0.0092    1.28121   0.67707 
 C                     0.0248    1.23462  -0.7308 
 C                     0.00905  -1.28116   0.67707 
 C                     0.0252   -1.23432  -0.7308 
 H                    -0.0094    2.48887   2.44365 
 H                    -0.04105   4.622     1.21169 
 H                     0.0074    4.60976  -1.27235 
 H                     0.0181    2.44535  -2.49006 
 H                     0.05625  -0.00005  -2.51027 
 H                     0.0184   -2.4455   -2.49006 
 H                     0.0071   -4.61101  -1.27235 
 H                    -0.0422   -4.62275   1.21169 
 H                    -0.0116   -2.48952   2.44365 
 H                    -0.93959   0.0005    2.14524 
 H                     0.77959   0.0005    2.14634 
 
                          Input orientation:                          
 ---------------------------------------------------------------------
 Center     Atomic      Atomic             Coordinates (Angstroms)
 Number     Number       Type             X           Y           Z
 ---------------------------------------------------------------------
      1          6           0       -0.033300    2.493855    1.360431
      2          6           0       -0.040650    3.683708    0.671989
      3          6           0       -0.011200    3.652361   -0.713830
      4          6           0        0.039050    2.440306   -1.407538
      5          6           0        0.038950   -2.440506   -1.407538
      6          6           0       -0.011800   -3.653361   -0.713830
      7          6           0       -0.041600   -3.684058    0.671989
      8          6           0       -0.035200   -2.494455    1.360431
      9          6           0       -0.021900    0.002200    1.453369
     10          6           0        0.061000   -0.000100   -1.429189
     11          6           0        0.009200    1.281205    0.677065
     12          6           0        0.024800    1.234621   -0.730804
     13          6           0        0.009050   -1.281155    0.677065
     14          6           0        0.025200   -1.234321   -0.730804
     15          1           0       -0.009400    2.488871    2.443647
     16          1           0       -0.041050    4.622003    1.211689
     17          1           0        0.007400    4.609762   -1.272349
     18          1           0        0.018100    2.445350   -2.490059
     19          1           0        0.056250   -0.000050   -2.510266
     20          1           0        0.018400   -2.445500   -2.490059
     21          1           0        0.007100   -4.611012   -1.272349
     22          1           0       -0.042200   -4.622753    1.211689
     23          1           0       -0.011600   -2.489521    2.443647
     24          1           0       -0.939585    0.000500    2.145237
     25          1           0        0.779585    0.000500    2.146337
 ---------------------------------------------------------------------
                    Distance matrix (angstroms):
                    1          2          3          4          5
     1  C    0.000000
     2  C    1.374684   0.000000
     3  C    2.375959   1.386486   0.000000
     4  C    2.769432   2.424218   1.397438   0.000000
     5  C    5.658161   6.468135   6.132436   4.880812   0.000000
     6  C    6.487780   7.466854   7.305722   6.133237   1.398150
     7  C    6.216159   7.367766   7.466221   6.468290   2.424323
     8  C    4.988310   6.216404   6.487409   5.658536   2.769488
     9  C    2.493414   3.763563   4.245061   3.759370   3.762354
    10  C    3.743085   4.242137   3.722556   2.440601   2.440602
    11  C    1.392593   2.403025   2.749070   2.385367   4.265863
    12  C    2.441784   2.823143   2.418068   1.382696   3.736941
    13  C    3.836598   4.965114   5.125873   4.265647   2.385489
    14  C    4.275042   5.114604   4.886847   3.736448   1.383127
    15  H    1.083491   2.137144   3.365022   3.851796   6.255615
    16  H    2.133354   1.082439   2.156089   3.409775   7.532980
    17  H    3.377906   2.154144   1.108560   2.173894   7.051635
    18  H    3.851139   3.396400   2.147725   1.082735   5.004386
    19  H    4.605418   4.868902   4.070852   2.677992   2.678084
    20  H    6.263080   6.897045   6.351360   5.004336   1.082728
    21  H    7.577090   8.519690   8.282247   7.052686   2.174945
    22  H    7.118168   8.323976   8.496240   7.533509   3.410152
    23  H    5.099791   6.422490   6.905967   6.255988   3.851829
    24  H    2.766603   4.067501   4.729931   4.419569   4.420209
    25  H    2.737745   4.051235   4.705527   4.373908   4.374595
                    6          7          8          9         10
     6  C    0.000000
     7  C    1.386479   0.000000
     8  C    2.376167   1.374463   0.000000
     9  C    4.249703   3.768215   2.498420   0.000000
    10  C    3.723353   4.242290   3.743400   2.883751   0.000000
    11  C    5.126887   4.965525   3.837261   1.496486   2.465914
    12  C    4.888148   5.115236   4.275847   2.508317   1.419010
    13  C    2.749979   2.403442   1.393214   1.500202   2.465787
    14  C    2.419382   2.823739   2.442304   2.510341   1.418564
    15  H    6.906278   6.422216   5.099761   2.676628   4.604215
    16  H    8.496477   8.323576   7.118015   4.626160   5.324330
    17  H    8.281999   8.518820   7.576493   5.353506   4.612841
    18  H    6.352178   6.897228   6.263449   4.639095   2.665992
    19  H    4.071670   4.869110   4.605726   3.964406   1.081087
    20  H    2.148215   3.396494   3.851174   4.641496   2.665941
    21  H    1.108781   2.154545   3.378333   5.358368   4.613894
    22  H    2.155984   1.082786   2.133501   4.631308   5.324829
    23  H    3.365143   2.136958   1.083484   2.681311   4.604492
    24  H    4.731358   4.068514   2.767424   1.149274   3.711831
    25  H    4.707180   4.052655   2.739767   1.059521   3.647019
                   11         12         13         14         15
    11  C    0.000000
    12  C    1.408726   0.000000
    13  C    2.562360   2.882962   0.000000
    14  C    2.882746   2.468942   1.408740   0.000000
    15  H    2.140004   3.413422   4.163442   4.892903   0.000000
    16  H    3.383678   3.905377   5.927530   6.170429   2.463529
    17  H    3.857397   3.418355   6.205088   5.869148   4.278678
    18  H    3.374313   2.135624   4.890562   4.078604   4.933975
    19  H    3.435536   2.166076   3.435482   2.165843   5.544393
    20  H    4.890715   4.079008   3.374383   2.135879   6.977840
    21  H    6.206323   5.870691   3.858519   3.419889   8.013566
    22  H    5.928337   6.171434   3.384483   3.906315   7.217617
    23  H    4.164087   4.893638   2.140417   3.413799   4.978392
    24  H    2.167009   3.274860   2.167505   3.275241   2.673253
    25  H    2.095819   3.220356   2.096455   3.220531   2.627333
                   16         17         18         19         20
    16  H    0.000000
    17  H    2.484541   0.000000
    18  H    4.294678   2.483468   0.000000
    19  H    5.935132   4.773384   2.445781   0.000000
    20  H    7.978475   7.159585   4.890850   2.445826   0.000000
    21  H    9.561450   9.220774   7.160669   4.774497   2.484429
    22  H    9.244756   9.560975   7.979013   5.935657   4.295002
    23  H    7.217504   8.013040   6.978201   5.544666   4.933994
    24  H    4.799705   5.815666   5.327328   4.760819   5.327910
    25  H    4.785948   5.790421   5.296538   4.712448   5.297026
                   21         22         23         24         25
    21  H    0.000000
    22  H    2.484555   0.000000
    23  H    4.278984   2.463602   0.000000
    24  H    5.817401   4.801175   2.674025   0.000000
    25  H    5.792253   4.787835   2.629557   1.719170   0.000000
 Stoichiometry    C14H11(1+)
 Framework group  C1[X(C14H11)]
 Deg. of freedom    69
 Full point group                 C1      NOp   1
 Largest Abelian subgroup         C1      NOp   1
 Largest concise Abelian subgroup C1      NOp   1
                         Standard orientation:                         
 ---------------------------------------------------------------------
 Center     Atomic      Atomic             Coordinates (Angstroms)
 Number     Number       Type             X           Y           Z
 ---------------------------------------------------------------------
      1          6           0        2.493909   -1.360716    0.002748
      2          6           0        3.683732   -0.672556    0.025382
      3          6           0        3.652330    0.713575    0.026419
      4          6           0        2.440252    1.408173   -0.008706
      5          6           0       -2.440560    1.407979   -0.009193
      6          6           0       -3.653392    0.713274    0.026139
      7          6           0       -3.684034   -0.672866    0.025446
      8          6           0       -2.494402   -1.360954    0.004047
      9          6           0        0.002259   -1.453479   -0.010994
     10          6           0       -0.000152    1.430205   -0.030468
     11          6           0        1.281235   -0.676628   -0.024856
     12          6           0        1.234594    0.731241   -0.009490
     13          6           0       -1.281125   -0.676732   -0.025015
     14          6           0       -1.234348    0.731153   -0.010187
     15          1           0        2.488973   -2.443145   -0.044974
     16          1           0        4.622049   -1.212097    0.014024
     17          1           0        4.609710    1.272405    0.020224
     18          1           0        2.445248    2.489971    0.036051
     19          1           0       -0.000148    2.510916   -0.001940
     20          1           0       -2.445602    2.489785    0.035163
     21          1           0       -4.611064    1.272036    0.019414
     22          1           0       -4.622707   -1.212485    0.014061
     23          1           0       -2.489419   -2.443388   -0.043373
     24          1           0        0.000478   -2.165365    0.891251
     25          1           0        0.000684   -2.128649   -0.827528
 ---------------------------------------------------------------------
 Rotational constants (GHZ):           2.1344548           0.4487618           0.3716539
 Standard basis: 6-311++G(d,p) (5D, 7F)
 There are   399 symmetry adapted cartesian basis functions of A   symmetry.
 There are   385 symmetry adapted basis functions of A   symmetry.
   385 basis functions,   603 primitive gaussians,   399 cartesian basis functions
    47 alpha electrons       47 beta electrons
       nuclear repulsion energy       783.4114923462 Hartrees.
 NAtoms=   25 NActive=   25 NUniq=   25 SFac= 1.00D+00 NAtFMM=   60 NAOKFM=F Big=F
 Integral buffers will be    131072 words long.
 Regular integral format.
 Two-electron integral symmetry is turned on.
 Nuclear repulsion after empirical dispersion term =      783.4105134814 Hartrees.
 One-electron integrals computed using PRISM.
 NBasis=   385 RedAO= T EigKep=  1.49D-06  NBF=   385
 NBsUse=   379 1.00D-06 EigRej=  8.20D-07 NBFU=   379
 ExpMin= 3.60D-02 ExpMax= 4.56D+03 ExpMxC= 6.82D+02 IAcc=3 IRadAn=         5 AccDes= 0.00D+00
 Harris functional with IExCor= 1009 and IRadAn=       5 diagonalized for initial guess.
 HarFok:  IExCor= 1009 AccDes= 0.00D+00 IRadAn=         5 IDoV= 1 UseB2=F ITyADJ=14
 ICtDFT=  3500011 ScaDFX=  1.000000  1.000000  1.000000  1.000000
 FoFCou: FMM=F IPFlag=           0 FMFlag=      100000 FMFlg1=           0
         NFxFlg=           0 DoJE=T BraDBF=F KetDBF=T FulRan=T
         wScrn=  0.000000 ICntrl=       500 IOpCl=  0 I1Cent=   200000004 NGrid=           0
         NMat0=    1 NMatS0=      1 NMatT0=    0 NMatD0=    1 NMtDS0=    0 NMtDT0=    0
 Petite list used in FoFCou.
 Requested convergence on RMS density matrix=1.00D-08 within 128 cycles.
 Requested convergence on MAX density matrix=1.00D-06.
 Requested convergence on             energy=1.00D-06.
 No special actions if energy rises.
 SCF Done:  E(RM062X) =  -539.754436864     A.U. after   15 cycles
            NFock= 15  Conv=0.61D-08     -V/T= 2.0039
 DoSCS=F DFT=T ScalE2(SS,OS)=  1.000000  1.000000
 ExpMin= 3.60D-02 ExpMax= 4.56D+03 ExpMxC= 6.82D+02 IAcc=3 IRadAn=         5 AccDes= 0.00D+00
 HarFok:  IExCor=  205 AccDes= 0.00D+00 IRadAn=         5 IDoV=-2 UseB2=F ITyADJ=14
 ICtDFT= 12500011 ScaDFX=  1.000000  1.000000  1.000000  1.000000
 Range of M.O.s used for correlation:    15   379
 NBasis=   385 NAE=    47 NBE=    47 NFC=    14 NFV=     0
 NROrb=    365 NOA=    33 NOB=    33 NVA=   332 NVB=   332

 **** Warning!!: The largest alpha MO coefficient is  0.14282895D+03

 Orbital symmetries:
       Occupied  (A) (A) (A) (A) (A) (A) (A) (A) (A) (A) (A) (A)
                 (A) (A) (A) (A) (A) (A) (A) (A) (A) (A) (A) (A)
                 (A) (A) (A) (A) (A) (A) (A) (A) (A) (A) (A) (A)
                 (A) (A) (A) (A) (A) (A) (A) (A) (A) (A) (A)
       Virtual   (A) (A) (A) (A) (A) (A) (A) (A) (A) (A) (A) (A)
                 (A) (A) (A) (A) (A) (A) (A) (A) (A) (A) (A) (A)
                 (A) (A) (A) (A) (A) (A) (A) (A) (A) (A) (A) (A)
                 (A) (A) (A) (A) (A) (A) (A) (A) (A) (A) (A) (A)
                 (A) (A) (A) (A) (A) (A) (A) (A) (A) (A) (A) (A)
                 (A) (A) (A) (A) (A) (A) (A) (A) (A) (A) (A) (A)
                 (A) (A) (A) (A) (A) (A) (A) (A) (A) (A) (A) (A)
                 (A) (A) (A) (A) (A) (A) (A) (A) (A) (A) (A) (A)
                 (A) (A) (A) (A) (A) (A) (A) (A) (A) (A) (A) (A)
                 (A) (A) (A) (A) (A) (A) (A) (A) (A) (A) (A) (A)
                 (A) (A) (A) (A) (A) (A) (A) (A) (A) (A) (A) (A)
                 (A) (A) (A) (A) (A) (A) (A) (A) (A) (A) (A) (A)
                 (A) (A) (A) (A) (A) (A) (A) (A) (A) (A) (A) (A)
                 (A) (A) (A) (A) (A) (A) (A) (A) (A) (A) (A) (A)
                 (A) (A) (A) (A) (A) (A) (A) (A) (A) (A) (A) (A)
                 (A) (A) (A) (A) (A) (A) (A) (A) (A) (A) (A) (A)
                 (A) (A) (A) (A) (A) (A) (A) (A) (A) (A) (A) (A)
                 (A) (A) (A) (A) (A) (A) (A) (A) (A) (A) (A) (A)
                 (A) (A) (A) (A) (A) (A) (A) (A) (A) (A) (A) (A)
                 (A) (A) (A) (A) (A) (A) (A) (A) (A) (A) (A) (A)
                 (A) (A) (A) (A) (A) (A) (A) (A) (A) (A) (A) (A)
                 (A) (A) (A) (A) (A) (A) (A) (A) (A) (A) (A) (A)
                 (A) (A) (A) (A) (A) (A) (A) (A) (A) (A) (A) (A)
                 (A) (A) (A) (A) (A) (A) (A) (A) (A) (A) (A) (A)
                 (A) (A) (A) (A) (A) (A) (A) (A) (A) (A) (A) (A)
                 (A) (A) (A) (A) (A) (A) (A) (A) (A) (A) (A) (A)
                 (A) (A) (A) (A) (A) (A) (A) (A) (A) (A) (A) (A)
                 (A) (A) (A) (A) (A) (A) (A) (A)
     4 initial guesses have been made.
 Convergence on wavefunction:    0.001000000000000
 Iteration     1 Dimension     4 NMult     0 NNew      4
 CISAX will form     4 AO SS matrices at one time.
 Iteration     2 Dimension     6 NMult     4 NNew      2
 Iteration     3 Dimension     8 NMult     6 NNew      2
 Iteration     4 Dimension    10 NMult     8 NNew      2
 Iteration     5 Dimension    12 NMult    10 NNew      2
 Iteration     6 Dimension    14 NMult    12 NNew      2
 ***********************************************************************
 Excited states from <AA,BB:AA,BB> singles matrix:
 ***********************************************************************
 
 Ground to excited state transition densities written to RWF  633
 Ground to excited state transition electric dipole moments (Au):
       state          X           Y           Z        Dip. S.      Osc.
         1         0.0026     -0.6598      0.0105      0.4354      0.0304
 Ground to excited state transition velocity dipole moments (Au):
       state          X           Y           Z        Dip. S.      Osc.
         1        -0.0003      0.0762     -0.0013      0.0058      0.0369
 Ground to excited state transition magnetic dipole moments (Au):
       state          X           Y           Z
         1        -0.0143     -0.0003     -0.0003
 Ground to excited state transition velocity quadrupole moments (Au):
       state          XX          YY          ZZ          XY          XZ          YZ
         1         0.2648      0.0401     -0.0102     -0.0004      0.0001      0.0015
 <0|del|b> * <b|rxdel|0> + <0|del|b> * <b|delr+rdel|0>
 Rotatory Strengths (R) in cgs (10**-40 erg-esu-cm/Gauss)
       state          XX          YY          ZZ    R(velocity)    E-M Angle
         1        -0.0818      0.0109     -0.0404     -0.0371       90.00
 1/2[<0|r|b>*<b|rxdel|0> + (<0|rxdel|b>*<b|r|0>)*]
 Rotatory Strengths (R) in cgs (10**-40 erg-esu-cm/Gauss)
       state          XX          YY          ZZ     R(length)
         1         0.0260     -0.1268      0.0019     -0.0330
  1/2[<0|del|b>*<b|r|0> + (<0|r|b>*<b|del|0>)*] (Au)
       state          X           Y           Z        Dip. S.   Osc.(frdel)
         1        -0.0000     -0.0503     -0.0000      0.0503      0.0335

 Excitation energies and oscillator strengths:
 
 Excited State   1:      Singlet-A      2.8504 eV  434.97 nm  f=0.0304  <S**2>=0.000
      47 -> 48         0.70420
 This state for optimization and/or second-order correction.
 Total Energy, E(TD-HF/TD-DFT) =  -539.649685703    
 Copying the excited state density for this state as the 1-particle RhoCI density.
 SavETr:  write IOETrn=   770 NScale= 10 NData=  16 NLR=1 NState=    1 LETran=      28.

 **********************************************************************

            Population analysis using the SCF Density.

 **********************************************************************

 Orbital symmetries:
       Occupied  (A) (A) (A) (A) (A) (A) (A) (A) (A) (A) (A) (A)
                 (A) (A) (A) (A) (A) (A) (A) (A) (A) (A) (A) (A)
                 (A) (A) (A) (A) (A) (A) (A) (A) (A) (A) (A) (A)
                 (A) (A) (A) (A) (A) (A) (A) (A) (A) (A) (A)
       Virtual   (A) (A) (A) (A) (A) (A) (A) (A) (A) (A) (A) (A)
                 (A) (A) (A) (A) (A) (A) (A) (A) (A) (A) (A) (A)
                 (A) (A) (A) (A) (A) (A) (A) (A) (A) (A) (A) (A)
                 (A) (A) (A) (A) (A) (A) (A) (A) (A) (A) (A) (A)
                 (A) (A) (A) (A) (A) (A) (A) (A) (A) (A) (A) (A)
                 (A) (A) (A) (A) (A) (A) (A) (A) (A) (A) (A) (A)
                 (A) (A) (A) (A) (A) (A) (A) (A) (A) (A) (A) (A)
                 (A) (A) (A) (A) (A) (A) (A) (A) (A) (A) (A) (A)
                 (A) (A) (A) (A) (A) (A) (A) (A) (A) (A) (A) (A)
                 (A) (A) (A) (A) (A) (A) (A) (A) (A) (A) (A) (A)
                 (A) (A) (A) (A) (A) (A) (A) (A) (A) (A) (A) (A)
                 (A) (A) (A) (A) (A) (A) (A) (A) (A) (A) (A) (A)
                 (A) (A) (A) (A) (A) (A) (A) (A) (A) (A) (A) (A)
                 (A) (A) (A) (A) (A) (A) (A) (A) (A) (A) (A) (A)
                 (A) (A) (A) (A) (A) (A) (A) (A) (A) (A) (A) (A)
                 (A) (A) (A) (A) (A) (A) (A) (A) (A) (A) (A) (A)
                 (A) (A) (A) (A) (A) (A) (A) (A) (A) (A) (A) (A)
                 (A) (A) (A) (A) (A) (A) (A) (A) (A) (A) (A) (A)
                 (A) (A) (A) (A) (A) (A) (A) (A) (A) (A) (A) (A)
                 (A) (A) (A) (A) (A) (A) (A) (A) (A) (A) (A) (A)
                 (A) (A) (A) (A) (A) (A) (A) (A) (A) (A) (A) (A)
                 (A) (A) (A) (A) (A) (A) (A) (A) (A) (A) (A) (A)
                 (A) (A) (A) (A) (A) (A) (A) (A) (A) (A) (A) (A)
                 (A) (A) (A) (A) (A) (A) (A) (A) (A) (A) (A) (A)
                 (A) (A) (A) (A) (A) (A) (A) (A) (A) (A) (A) (A)
                 (A) (A) (A) (A) (A) (A) (A) (A) (A) (A) (A) (A)
                 (A) (A) (A) (A) (A) (A) (A) (A) (A) (A) (A) (A)
                 (A) (A) (A) (A) (A) (A) (A) (A)
 The electronic state is 1-A.
 Alpha  occ. eigenvalues --  -10.77695 -10.73190 -10.73162 -10.72241 -10.72239
 Alpha  occ. eigenvalues --  -10.71121 -10.71106 -10.70964 -10.70857 -10.70853
 Alpha  occ. eigenvalues --  -10.69739 -10.69725 -10.69713 -10.69702  -1.16624
 Alpha  occ. eigenvalues --   -1.12988  -1.07242  -1.05548  -1.01868  -1.00060
 Alpha  occ. eigenvalues --   -0.95983  -0.90998  -0.86459  -0.86000  -0.83833
 Alpha  occ. eigenvalues --   -0.78470  -0.76039  -0.74520  -0.69577  -0.69253
 Alpha  occ. eigenvalues --   -0.68545  -0.67970  -0.67710  -0.65133  -0.64625
 Alpha  occ. eigenvalues --   -0.62661  -0.61520  -0.60109  -0.60049  -0.58932
 Alpha  occ. eigenvalues --   -0.56855  -0.55073  -0.54612  -0.52646  -0.47036
 Alpha  occ. eigenvalues --   -0.45981  -0.44699
 Alpha virt. eigenvalues --   -0.26156  -0.14460  -0.14044  -0.12494  -0.11188
 Alpha virt. eigenvalues --   -0.10108  -0.09270  -0.08105  -0.07924  -0.07490
 Alpha virt. eigenvalues --   -0.07240  -0.07080  -0.05636  -0.05583  -0.05293
 Alpha virt. eigenvalues --   -0.03906  -0.03821  -0.03280  -0.03122  -0.02155
 Alpha virt. eigenvalues --   -0.01405  -0.01013   0.00201   0.00477   0.00684
 Alpha virt. eigenvalues --    0.01073   0.01510   0.01944   0.02247   0.02280
 Alpha virt. eigenvalues --    0.02453   0.02736   0.02977   0.03127   0.03285
 Alpha virt. eigenvalues --    0.04222   0.04516   0.04722   0.05166   0.05411
 Alpha virt. eigenvalues --    0.05831   0.06325   0.06647   0.07006   0.07260
 Alpha virt. eigenvalues --    0.07914   0.08308   0.08352   0.08633   0.08924
 Alpha virt. eigenvalues --    0.09516   0.09590   0.10010   0.10821   0.11067
 Alpha virt. eigenvalues --    0.11187   0.12179   0.12195   0.12870   0.12992
 Alpha virt. eigenvalues --    0.13377   0.13448   0.13999   0.14600   0.15600
 Alpha virt. eigenvalues --    0.16088   0.16798   0.16997   0.17292   0.17741
 Alpha virt. eigenvalues --    0.18109   0.19255   0.19378   0.19637   0.19741
 Alpha virt. eigenvalues --    0.21535   0.21738   0.22665   0.22985   0.23575
 Alpha virt. eigenvalues --    0.23828   0.24604   0.24611   0.26782   0.27804
 Alpha virt. eigenvalues --    0.28797   0.29215   0.29731   0.31445   0.35733
 Alpha virt. eigenvalues --    0.36725   0.37865   0.39482   0.41012   0.41298
 Alpha virt. eigenvalues --    0.41926   0.42032   0.42938   0.43647   0.43995
 Alpha virt. eigenvalues --    0.44097   0.45397   0.45614   0.46281   0.47789
 Alpha virt. eigenvalues --    0.48410   0.48876   0.48967   0.50335   0.51008
 Alpha virt. eigenvalues --    0.51574   0.51854   0.52242   0.53542   0.53843
 Alpha virt. eigenvalues --    0.53896   0.54856   0.55774   0.55877   0.57063
 Alpha virt. eigenvalues --    0.58262   0.58775   0.61452   0.61955   0.62257
 Alpha virt. eigenvalues --    0.63043   0.63341   0.63751   0.65249   0.66162
 Alpha virt. eigenvalues --    0.70184   0.70781   0.70861   0.72144   0.72626
 Alpha virt. eigenvalues --    0.75301   0.75556   0.75887   0.76258   0.76499
 Alpha virt. eigenvalues --    0.77306   0.77724   0.78280   0.80223   0.80736
 Alpha virt. eigenvalues --    0.80955   0.82185   0.82191   0.83057   0.84314
 Alpha virt. eigenvalues --    0.86512   0.86563   0.87699   0.89408   0.90415
 Alpha virt. eigenvalues --    0.91380   0.91616   0.93944   0.95091   0.95880
 Alpha virt. eigenvalues --    0.96905   1.00241   1.01323   1.02124   1.02658
 Alpha virt. eigenvalues --    1.03705   1.04172   1.04691   1.06371   1.09542
 Alpha virt. eigenvalues --    1.19073   1.23283   1.24109   1.25660   1.28369
 Alpha virt. eigenvalues --    1.30359   1.30917   1.34754   1.35830   1.36550
 Alpha virt. eigenvalues --    1.39386   1.40017   1.40824   1.43588   1.43797
 Alpha virt. eigenvalues --    1.43959   1.45043   1.45596   1.46679   1.46706
 Alpha virt. eigenvalues --    1.48199   1.48927   1.51715   1.53947   1.55956
 Alpha virt. eigenvalues --    1.56176   1.56791   1.57187   1.58185   1.61934
 Alpha virt. eigenvalues --    1.62806   1.62943   1.63002   1.66326   1.67892
 Alpha virt. eigenvalues --    1.68655   1.68935   1.69657   1.74960   1.75995
 Alpha virt. eigenvalues --    1.77243   1.78000   1.79545   1.80856   1.81694
 Alpha virt. eigenvalues --    1.82780   1.82845   1.83530   1.84007   1.84499
 Alpha virt. eigenvalues --    1.84645   1.86333   1.86586   1.88575   1.91185
 Alpha virt. eigenvalues --    1.92045   1.93976   1.95224   1.98382   1.99116
 Alpha virt. eigenvalues --    2.00729   2.02006   2.04790   2.06489   2.12115
 Alpha virt. eigenvalues --    2.12200   2.13552   2.15364   2.20611   2.20817
 Alpha virt. eigenvalues --    2.23346   2.29285   2.30598   2.34008   2.35910
 Alpha virt. eigenvalues --    2.36004   2.37307   2.37586   2.39606   2.42167
 Alpha virt. eigenvalues --    2.47095   2.49474   2.51019   2.53277   2.53631
 Alpha virt. eigenvalues --    2.53797   2.56533   2.58245   2.58804   2.60108
 Alpha virt. eigenvalues --    2.60255   2.61386   2.62186   2.62951   2.63889
 Alpha virt. eigenvalues --    2.64515   2.64812   2.65336   2.65645   2.67773
 Alpha virt. eigenvalues --    2.67909   2.71145   2.71386   2.73834   2.74832
 Alpha virt. eigenvalues --    2.76714   2.79408   2.80274   2.83422   2.84181
 Alpha virt. eigenvalues --    2.85993   2.86794   2.92351   2.95605   3.00307
 Alpha virt. eigenvalues --    3.00888   3.03640   3.12389   3.12795   3.14833
 Alpha virt. eigenvalues --    3.20356   3.22622   3.28047   3.28782   3.31625
 Alpha virt. eigenvalues --    3.33174   3.34378   3.43654   3.46180   3.48875
 Alpha virt. eigenvalues --    3.49967   3.51602   3.56723   3.63776   3.67782
 Alpha virt. eigenvalues --    3.68393   3.91284   3.92067   3.94704   3.96127
 Alpha virt. eigenvalues --    4.02570   4.07037   4.07553   4.12342   4.34801
 Alpha virt. eigenvalues --    4.60152   4.70804   4.72738  23.44821  23.58679
 Alpha virt. eigenvalues --   23.82726  23.84794  23.87965  23.90724  23.90888
 Alpha virt. eigenvalues --   23.92757  23.99088  24.01399  24.03938  24.04073
 Alpha virt. eigenvalues --   24.13138  24.13203
          Condensed to atoms (all electrons):
               1          2          3          4          5          6
     1  C    8.427902   0.616241  -0.607302   1.457579   0.009649  -0.092846
     2  C    0.616241   6.901319   0.387590  -0.668046  -0.082355  -0.020299
     3  C   -0.607302   0.387590   6.680598   0.608509  -0.102255   0.019491
     4  C    1.457579  -0.668046   0.608509   9.723882  -0.012053  -0.101025
     5  C    0.009649  -0.082355  -0.102255  -0.012053   9.754425   0.605514
     6  C   -0.092846  -0.020299   0.019491  -0.101025   0.605514   6.676791
     7  C   -0.030191   0.015237  -0.020374  -0.082580  -0.668276   0.386681
     8  C    0.413007  -0.029682  -0.092676   0.007097   1.463951  -0.611122
     9  C   -1.589082  -0.414601   0.227571  -0.654558  -0.643537   0.227993
    10  C   -1.026105   0.048154  -0.341438  -2.119279  -2.131506  -0.335118
    11  C    0.227780  -0.946292   0.980181  -0.498607  -1.560514  -0.204950
    12  C   -1.477220   0.660155  -1.228852  -0.471391  -0.083442  -0.173223
    13  C    0.221278  -0.094049  -0.205788  -1.552623  -0.479330   0.973410
    14  C   -1.039389  -0.245419  -0.172830  -0.073451  -0.504963  -1.217987
    15  H    0.357011  -0.094132  -0.004124   0.018319   0.005627   0.001395
    16  H   -0.025498   0.383347  -0.012089   0.012007  -0.001696  -0.000383
    17  H   -0.014598  -0.026008   0.371396  -0.052790   0.000308   0.000389
    18  H    0.044755   0.007471  -0.091453   0.435506   0.012069  -0.004518
    19  H   -0.043214  -0.008450   0.049142  -0.053041  -0.054140   0.048973
    20  H    0.007992   0.001336  -0.004548   0.012032   0.436207  -0.091747
    21  H   -0.001272  -0.000367   0.000390   0.000301  -0.053136   0.371392
    22  H    0.000798   0.000375  -0.000384  -0.001689   0.012194  -0.012302
    23  H    0.006213  -0.002469   0.001409   0.005568   0.018439  -0.004265
    24  H    0.057928   0.011087  -0.000961  -0.010746  -0.011088  -0.000804
    25  H    0.014447   0.016705  -0.002727  -0.010783  -0.010621  -0.002917
               7          8          9         10         11         12
     1  C   -0.030191   0.413007  -1.589082  -1.026105   0.227780  -1.477220
     2  C    0.015237  -0.029682  -0.414601   0.048154  -0.946292   0.660155
     3  C   -0.020374  -0.092676   0.227571  -0.341438   0.980181  -1.228852
     4  C   -0.082580   0.007097  -0.654558  -2.119279  -0.498607  -0.471391
     5  C   -0.668276   1.463951  -0.643537  -2.131506  -1.560514  -0.083442
     6  C    0.386681  -0.611122   0.227993  -0.335118  -0.204950  -0.173223
     7  C    6.899318   0.614431  -0.416572   0.048662  -0.093423  -0.243862
     8  C    0.614431   8.425416  -1.578217  -1.026443   0.223344  -1.033744
     9  C   -0.416572  -1.578217   8.501159   0.774366   1.191864  -0.653666
    10  C    0.048662  -1.026443   0.774366   8.801032  -0.265085   1.632346
    11  C   -0.093423   0.223344   1.191864  -0.265085  13.235114  -3.156713
    12  C   -0.243862  -1.033744  -0.653666   1.632346  -3.156713  13.578382
    13  C   -0.948956   0.227607   1.188124  -0.261552   1.298002  -3.961915
    14  C    0.667417  -1.492179  -0.657466   1.647949  -3.963951   2.272905
    15  H   -0.002457   0.006226   0.071941  -0.007533  -0.012329  -0.010797
    16  H    0.000374   0.000770   0.002940  -0.011003   0.031888  -0.035698
    17  H   -0.000369  -0.001274  -0.001001   0.013660  -0.013128   0.063800
    18  H    0.001353   0.007964  -0.031119   0.024935  -0.012135  -0.045523
    19  H   -0.008499  -0.043189   0.071885   0.423925   0.052541  -0.055379
    20  H    0.007576   0.044995  -0.031123   0.024575  -0.005630  -0.009692
    21  H   -0.026123  -0.014746  -0.000956   0.013748  -0.005802   0.002848
    22  H    0.383156  -0.025029   0.003045  -0.011048   0.002487  -0.009140
    23  H   -0.094331   0.357235   0.072273  -0.007580  -0.003411   0.007019
    24  H    0.011386   0.058952   0.333256   0.003876   0.025582  -0.086151
    25  H    0.016305   0.013083   0.369850   0.003786  -0.006094  -0.024803
              13         14         15         16         17         18
     1  C    0.221278  -1.039389   0.357011  -0.025498  -0.014598   0.044755
     2  C   -0.094049  -0.245419  -0.094132   0.383347  -0.026008   0.007471
     3  C   -0.205788  -0.172830  -0.004124  -0.012089   0.371396  -0.091453
     4  C   -1.552623  -0.073451   0.018319   0.012007  -0.052790   0.435506
     5  C   -0.479330  -0.504963   0.005627  -0.001696   0.000308   0.012069
     6  C    0.973410  -1.217987   0.001395  -0.000383   0.000389  -0.004518
     7  C   -0.948956   0.667417  -0.002457   0.000374  -0.000369   0.001353
     8  C    0.227607  -1.492179   0.006226   0.000770  -0.001274   0.007964
     9  C    1.188124  -0.657466   0.071941   0.002940  -0.001001  -0.031119
    10  C   -0.261552   1.647949  -0.007533  -0.011003   0.013660   0.024935
    11  C    1.298002  -3.963951  -0.012329   0.031888  -0.013128  -0.012135
    12  C   -3.961915   2.272905  -0.010797  -0.035698   0.063800  -0.045523
    13  C   13.220138  -3.160543  -0.003383   0.002504  -0.005884  -0.005349
    14  C   -3.160543  13.600330   0.006976  -0.009150   0.002854  -0.009625
    15  H   -0.003383   0.006976   0.440381  -0.008887   0.001265   0.000199
    16  H    0.002504  -0.009150  -0.008887   0.419592  -0.006583   0.001886
    17  H   -0.005884   0.002854   0.001265  -0.006583   0.420769  -0.010033
    18  H   -0.005349  -0.009625   0.000199   0.001886  -0.010033   0.458794
    19  H    0.051068  -0.055850   0.000412  -0.000513   0.001203  -0.004805
    20  H   -0.011976  -0.045660  -0.000134   0.000017  -0.000144   0.001161
    21  H   -0.012859   0.063901   0.000021  -0.000007   0.000009  -0.000143
    22  H    0.031914  -0.036205  -0.000127   0.000007  -0.000007   0.000017
    23  H   -0.012083  -0.011233   0.000598  -0.000128   0.000022  -0.000135
    24  H    0.024356  -0.085821  -0.000054   0.000389  -0.000073   0.000274
    25  H   -0.005232  -0.024957  -0.001724   0.000914  -0.000213   0.000146
              19         20         21         22         23         24
     1  C   -0.043214   0.007992  -0.001272   0.000798   0.006213   0.057928
     2  C   -0.008450   0.001336  -0.000367   0.000375  -0.002469   0.011087
     3  C    0.049142  -0.004548   0.000390  -0.000384   0.001409  -0.000961
     4  C   -0.053041   0.012032   0.000301  -0.001689   0.005568  -0.010746
     5  C   -0.054140   0.436207  -0.053136   0.012194   0.018439  -0.011088
     6  C    0.048973  -0.091747   0.371392  -0.012302  -0.004265  -0.000804
     7  C   -0.008499   0.007576  -0.026123   0.383156  -0.094331   0.011386
     8  C   -0.043189   0.044995  -0.014746  -0.025029   0.357235   0.058952
     9  C    0.071885  -0.031123  -0.000956   0.003045   0.072273   0.333256
    10  C    0.423925   0.024575   0.013748  -0.011048  -0.007580   0.003876
    11  C    0.052541  -0.005630  -0.005802   0.002487  -0.003411   0.025582
    12  C   -0.055379  -0.009692   0.002848  -0.009140   0.007019  -0.086151
    13  C    0.051068  -0.011976  -0.012859   0.031914  -0.012083   0.024356
    14  C   -0.055850  -0.045660   0.063901  -0.036205  -0.011233  -0.085821
    15  H    0.000412  -0.000134   0.000021  -0.000127   0.000598  -0.000054
    16  H   -0.000513   0.000017  -0.000007   0.000007  -0.000128   0.000389
    17  H    0.001203  -0.000144   0.000009  -0.000007   0.000022  -0.000073
    18  H   -0.004805   0.001161  -0.000143   0.000017  -0.000135   0.000274
    19  H    0.441363  -0.004860   0.001209  -0.000517   0.000416   0.000389
    20  H   -0.004860   0.458777  -0.010031   0.001900   0.000202   0.000263
    21  H    0.001209  -0.010031   0.420720  -0.006571   0.001256  -0.000068
    22  H   -0.000517   0.001900  -0.006571   0.419552  -0.008899   0.000373
    23  H    0.000416   0.000202   0.001256  -0.008899   0.440571  -0.000048
    24  H    0.000389   0.000263  -0.000068   0.000373  -0.000048   0.495327
    25  H    0.000464   0.000154  -0.000215   0.000925  -0.001751  -0.078873
              25
     1  C    0.014447
     2  C    0.016705
     3  C   -0.002727
     4  C   -0.010783
     5  C   -0.010621
     6  C   -0.002917
     7  C    0.016305
     8  C    0.013083
     9  C    0.369850
    10  C    0.003786
    11  C   -0.006094
    12  C   -0.024803
    13  C   -0.005232
    14  C   -0.024957
    15  H   -0.001724
    16  H    0.000914
    17  H   -0.000213
    18  H    0.000146
    19  H    0.000464
    20  H    0.000154
    21  H   -0.000215
    22  H    0.000925
    23  H   -0.001751
    24  H   -0.078873
    25  H    0.494876
 Mulliken charges:
               1
     1  C    0.084134
     2  C   -0.416848
     3  C   -0.438477
     4  C    0.081862
     5  C    0.080528
     6  C   -0.438523
     7  C   -0.415883
     8  C    0.084222
     9  C   -0.364369
    10  C    0.082676
    11  C   -0.520719
    12  C    0.543754
    13  C   -0.516879
    14  C    0.544349
    15  H    0.235311
    16  H    0.255001
    17  H    0.256431
    18  H    0.218309
    19  H    0.189467
    20  H    0.218359
    21  H    0.256503
    22  H    0.255174
    23  H    0.235111
    24  H    0.251250
    25  H    0.239255
 Sum of Mulliken charges =   1.00000
 Mulliken charges with hydrogens summed into heavy atoms:
               1
     1  C    0.319445
     2  C   -0.161847
     3  C   -0.182046
     4  C    0.300171
     5  C    0.298888
     6  C   -0.182020
     7  C   -0.160709
     8  C    0.319333
     9  C    0.126137
    10  C    0.272143
    11  C   -0.520719
    12  C    0.543754
    13  C   -0.516879
    14  C    0.544349
 Electronic spatial extent (au):  <R**2>=           2836.8770
 Charge=              1.0000 electrons
 Dipole moment (field-independent basis, Debye):
    X=             -0.0025    Y=              0.1737    Z=             -0.0029  Tot=              0.1737
 Quadrupole moment (field-independent basis, Debye-Ang):
   XX=            -31.5541   YY=            -56.2597   ZZ=            -83.9811
   XY=             -0.0014   XZ=              0.0024   YZ=              0.2389
 Traceless Quadrupole moment (field-independent basis, Debye-Ang):
   XX=             25.7109   YY=              1.0052   ZZ=            -26.7161
   XY=             -0.0014   XZ=              0.0024   YZ=              0.2389
 Octapole moment (field-independent basis, Debye-Ang**2):
  XXX=             -0.1076  YYY=              5.1600  ZZZ=             -0.0755  XYY=              0.0002
  XXY=             -6.8414  XXZ=              0.3704  XZZ=              0.0144  YZZ=             -3.1116
  YYZ=              0.2588  XYZ=              0.0120
 Hexadecapole moment (field-independent basis, Debye-Ang**3):
 XXXX=          -2114.7082 YYYY=           -609.6198 ZZZZ=            -99.0899 XXXY=             -0.0619
 XXXZ=              0.0658 YYYX=              0.0271 YYYZ=              2.6507 ZZZX=              0.0025
 ZZZY=              0.0894 XXYY=           -504.5348 XXZZ=           -585.3575 YYZZ=           -145.5105
 XXYZ=              2.5035 YYXZ=              0.0004 ZZXY=             -0.0012
 N-N= 7.834105134814D+02 E-N=-2.803283803995D+03  KE= 5.376541454502D+02
 Unable to Open any file for archive entry.
 1\1\GINC-GADI-CPU-CLX-0113\SP\RM062X TD-FC\6-311++G(d,p)\C14H11(1+)\TS
 1578\28-Jul-2022\0\\#n M062X/6-311++G(d,p) TD(NStates=1) EmpiricalDisp
 ersion=GD3 SP\\SP_150\\1,1\C,0,-0.0333,2.493855,1.360431\C,0,-0.04065,
 3.683708,0.671989\C,0,-0.0112,3.652361,-0.71383\C,0,0.03905,2.440306,-
 1.407538\C,0,0.03895,-2.440506,-1.407538\C,0,-0.0118,-3.653361,-0.7138
 3\C,0,-0.0416,-3.684058,0.671989\C,0,-0.0352,-2.494455,1.360431\C,0,-0
 .0219,0.0022,1.453369\C,0,0.061,-0.0001,-1.429189\C,0,0.0092,1.281205,
 0.677065\C,0,0.0248,1.234621,-0.730804\C,0,0.00905,-1.281155,0.677065\
 C,0,0.0252,-1.234321,-0.730804\H,0,-0.0094,2.488871,2.443647\H,0,-0.04
 105,4.622003,1.211689\H,0,0.0074,4.609762,-1.272349\H,0,0.0181,2.44535
 ,-2.490059\H,0,0.05625,-0.00005,-2.510266\H,0,0.0184,-2.4455,-2.490059
 \H,0,0.0071,-4.611012,-1.272349\H,0,-0.0422,-4.622753,1.211689\H,0,-0.
 0116,-2.489521,2.443647\H,0,-0.939585,0.0005,2.145237\H,0,0.779585,0.0
 005,2.146337\\Version=ES64L-G16RevC.01\State=1-A\HF=-539.7544369\RMSD=
 6.132e-09\PG=C01 [X(C14H11)]\\@
 The archive entry for this job was punched.


 Statistics are no substitute for judgment.
                            -- Henry Clay
 Job cpu time:       0 days  1 hours 19 minutes 36.5 seconds.
 Elapsed time:       0 days  0 hours  1 minutes 39.7 seconds.
 File lengths (MBytes):  RWF=    460 Int=      0 D2E=      0 Chk=     15 Scr=      1
 Normal termination of Gaussian 16 at Thu Jul 28 17:07:41 2022.
