 Entering Gaussian System, Link 0=g16
 Initial command:
 /apps/gaussian/g16c01/g16/l1.exe "/jobfs/53002009.gadi-pbs/Gau-769382.inp" -scrdir="/jobfs/53002009.gadi-pbs/"
 Entering Link 1 = /apps/gaussian/g16c01/g16/l1.exe PID=    769383.
  
 Copyright (c) 1988-2019, Gaussian, Inc.  All Rights Reserved.
  
 This is part of the Gaussian(R) 16 program.  It is based on
 the Gaussian(R) 09 system (copyright 2009, Gaussian, Inc.),
 the Gaussian(R) 03 system (copyright 2003, Gaussian, Inc.),
 the Gaussian(R) 98 system (copyright 1998, Gaussian, Inc.),
 the Gaussian(R) 94 system (copyright 1995, Gaussian, Inc.),
 the Gaussian 92(TM) system (copyright 1992, Gaussian, Inc.),
 the Gaussian 90(TM) system (copyright 1990, Gaussian, Inc.),
 the Gaussian 88(TM) system (copyright 1988, Gaussian, Inc.),
 the Gaussian 86(TM) system (copyright 1986, Carnegie Mellon
 University), and the Gaussian 82(TM) system (copyright 1983,
 Carnegie Mellon University). Gaussian is a federally registered
 trademark of Gaussian, Inc.
  
 This software contains proprietary and confidential information,
 including trade secrets, belonging to Gaussian, Inc.
  
 This software is provided under written license and may be
 used, copied, transmitted, or stored only in accord with that
 written license.
  
 The following legend is applicable only to US Government
 contracts under FAR:
  
                    RESTRICTED RIGHTS LEGEND
  
 Use, reproduction and disclosure by the US Government is
 subject to restrictions as set forth in subparagraphs (a)
 and (c) of the Commercial Computer Software - Restricted
 Rights clause in FAR 52.227-19.
  
 Gaussian, Inc.
 340 Quinnipiac St., Bldg. 40, Wallingford CT 06492
  
  
 ---------------------------------------------------------------
 Warning -- This program may not be used in any manner that
 competes with the business of Gaussian, Inc. or will provide
 assistance to any competitor of Gaussian, Inc.  The licensee
 of this program is prohibited from giving any competitor of
 Gaussian, Inc. access to this program.  By using this program,
 the user acknowledges that Gaussian, Inc. is engaged in the
 business of creating and licensing software in the field of
 computational chemistry and represents and warrants to the
 licensee that it is not a competitor of Gaussian, Inc. and that
 it will not use this program in any manner prohibited above.
 ---------------------------------------------------------------
  

 Cite this work as:
 Gaussian 16, Revision C.01,
 M. J. Frisch, G. W. Trucks, H. B. Schlegel, G. E. Scuseria, 
 M. A. Robb, J. R. Cheeseman, G. Scalmani, V. Barone, 
 G. A. Petersson, H. Nakatsuji, X. Li, M. Caricato, A. V. Marenich, 
 J. Bloino, B. G. Janesko, R. Gomperts, B. Mennucci, H. P. Hratchian, 
 J. V. Ortiz, A. F. Izmaylov, J. L. Sonnenberg, D. Williams-Young, 
 F. Ding, F. Lipparini, F. Egidi, J. Goings, B. Peng, A. Petrone, 
 T. Henderson, D. Ranasinghe, V. G. Zakrzewski, J. Gao, N. Rega, 
 G. Zheng, W. Liang, M. Hada, M. Ehara, K. Toyota, R. Fukuda, 
 J. Hasegawa, M. Ishida, T. Nakajima, Y. Honda, O. Kitao, H. Nakai, 
 T. Vreven, K. Throssell, J. A. Montgomery, Jr., J. E. Peralta, 
 F. Ogliaro, M. J. Bearpark, J. J. Heyd, E. N. Brothers, K. N. Kudin, 
 V. N. Staroverov, T. A. Keith, R. Kobayashi, J. Normand, 
 K. Raghavachari, A. P. Rendell, J. C. Burant, S. S. Iyengar, 
 J. Tomasi, M. Cossi, J. M. Millam, M. Klene, C. Adamo, R. Cammi, 
 J. W. Ochterski, R. L. Martin, K. Morokuma, O. Farkas, 
 J. B. Foresman, and D. J. Fox, Gaussian, Inc., Wallingford CT, 2019.
 
 ******************************************
 Gaussian 16:  ES64L-G16RevC.01  3-Jul-2019
                28-Jul-2022 
 ******************************************
 %NProcShared=48
 Will use up to   48 processors via shared memory.
 %mem = 190GB
 ---------------------------------------------------------------
 #n M062X/6-311++G(d,p) TD(NStates=1) EmpiricalDispersion=GD3 SP
 ---------------------------------------------------------------
 1/38=1,172=1/1;
 2/12=2,17=6,18=5,40=1/2;
 3/5=4,6=6,7=1111,11=9,25=1,30=1,74=-55,124=31/1,2,3,8;
 4//1;
 5/5=2,38=5/2;
 8/6=1,10=2,108=1/1;
 9/41=1,42=1,70=2/14;
 6/7=2,8=2,9=2,10=2/1;
 99/5=1,9=1/99;
 -----
 SP_25
 -----
 Symbolic Z-matrix:
 Charge =  1 Multiplicity = 1
 C                    -0.00295   2.49266   1.36043 
 C                    -0.00387   3.69966   0.67199 
 C                    -0.001     3.68051  -0.71383 
 C                     0.00392   2.46083  -1.40754 
 C                     0.00387  -2.46093  -1.40754 
 C                    -0.0013   -3.68101  -0.71383 
 C                    -0.00435  -3.69983   0.67199 
 C                    -0.0039   -2.49296   1.36043 
 C                    -0.0022    0.0011    1.45337 
 C                     0.0061   -0.00005  -1.42919 
 C                     0.00095   1.26398   0.67707 
 C                     0.0024    1.23725  -0.7308 
 C                     0.00088  -1.26396   0.67707 
 C                     0.0026   -1.2371   -0.7308 
 H                    -0.0005    2.48802   2.44365 
 H                    -0.00388   4.63513   1.21169 
 H                     0.0008    4.60906  -1.27235 
 H                     0.00175   2.4653   -2.49006 
 H                     0.00563  -0.00003  -2.51027 
 H                     0.0019   -2.46538  -2.49006 
 H                     0.00065  -4.60969  -1.27235 
 H                    -0.00445  -4.6355    1.21169 
 H                    -0.0016   -2.48835   2.44365 
 H                    -0.86759   0.00025   2.14551 
 H                     0.85159   0.00025   2.14606 
 
                          Input orientation:                          
 ---------------------------------------------------------------------
 Center     Atomic      Atomic             Coordinates (Angstroms)
 Number     Number       Type             X           Y           Z
 ---------------------------------------------------------------------
      1          6           0       -0.002950    2.492655    1.360431
      2          6           0       -0.003875    3.699658    0.671989
      3          6           0       -0.001000    3.680511   -0.713830
      4          6           0        0.003925    2.460831   -1.407538
      5          6           0        0.003875   -2.460931   -1.407538
      6          6           0       -0.001300   -3.681011   -0.713830
      7          6           0       -0.004350   -3.699833    0.671989
      8          6           0       -0.003900   -2.492955    1.360431
      9          6           0       -0.002200    0.001100    1.453369
     10          6           0        0.006100   -0.000050   -1.429189
     11          6           0        0.000950    1.263980    0.677065
     12          6           0        0.002400    1.237246   -0.730804
     13          6           0        0.000875   -1.263955    0.677065
     14          6           0        0.002600   -1.237096   -0.730804
     15          1           0       -0.000500    2.488021    2.443647
     16          1           0       -0.003875    4.635128    1.211689
     17          1           0        0.000800    4.609062   -1.272349
     18          1           0        0.001750    2.465300   -2.490059
     19          1           0        0.005625   -0.000025   -2.510266
     20          1           0        0.001900   -2.465375   -2.490059
     21          1           0        0.000650   -4.609687   -1.272349
     22          1           0       -0.004450   -4.635503    1.211689
     23          1           0       -0.001600   -2.488346    2.443647
     24          1           0       -0.867585    0.000250    2.145512
     25          1           0        0.851585    0.000250    2.146062
 ---------------------------------------------------------------------
                    Distance matrix (angstroms):
                    1          2          3          4          5
     1  C    0.000000
     2  C    1.389536   0.000000
     3  C    2.390306   1.385954   0.000000
     4  C    2.768160   2.420575   1.403166   0.000000
     5  C    5.674479   6.502103   6.180499   4.921762   0.000000
     6  C    6.512811   7.509646   7.361522   6.180896   1.403514
     7  C    6.230639   7.399491   7.509326   6.502175   2.420615
     8  C    4.985610   6.230763   6.512622   5.674655   2.768165
     9  C    2.493288   3.780197   4.270225   3.772944   3.774443
    10  C    3.741075   4.254749   3.749442   2.460977   2.460977
    11  C    1.405933   2.435688   2.788228   2.403753   4.268552
    12  C    2.439128   2.833962   2.443326   1.398260   3.759586
    13  C    3.818262   4.963618   5.136374   4.268443   2.403816
    14  C    4.276019   5.132194   4.917638   3.759340   1.398479
    15  H    1.083229   2.146357   3.375158   3.851284   6.270867
    16  H    2.147630   1.079991   2.149169   3.404112   7.564024
    17  H    3.377976   2.146506   1.083584   2.152483   7.071286
    18  H    3.850590   3.394439   2.152147   1.082532   5.043769
    19  H    4.603892   4.880009   4.095555   2.696632   2.696678
    20  H    6.277608   6.928652   6.397415   5.043745   1.082532
    21  H    7.574616   8.533797   8.308991   7.071811   2.153007
    22  H    7.129710   8.352615   8.536025   7.564283   3.404289
    23  H    5.097424   6.436627   6.929968   6.271045   3.851286
    24  H    2.752459   4.074664   4.740372   4.408872   4.409197
    25  H    2.749460   4.073122   4.738165   4.404663   4.405008
                    6          7          8          9         10
     6  C    0.000000
     7  C    1.385950   0.000000
     8  C    2.390406   1.389427   0.000000
     9  C    4.272551   3.782521   2.495787   0.000000
    10  C    3.749836   4.254815   3.741210   2.882570   0.000000
    11  C    5.136879   4.963818   3.818583   1.482405   2.456441
    12  C    4.918288   5.132506   4.276412   2.509719   1.420794
    13  C    2.788683   2.435889   1.406219   1.484258   2.456377
    14  C    2.443977   2.834246   2.439362   2.510730   1.420576
    15  H    6.930124   6.436484   5.097400   2.676832   4.603194
    16  H    8.536147   8.352416   7.129635   4.640326   5.334718
    17  H    8.308866   8.533359   7.574312   5.353771   4.611783
    18  H    6.397823   6.928741   6.277786   4.650045   2.683918
    19  H    4.095960   4.880105   4.604029   3.963643   1.081077
    20  H    2.152387   3.394477   3.850593   4.651251   2.683895
    21  H    1.083691   2.146697   3.378181   5.356202   4.612308
    22  H    2.149113   1.080164   2.147705   4.642898   5.334958
    23  H    3.375220   2.146271   1.083228   2.679178   4.603318
    24  H    4.741094   4.075176   2.752885   1.108131   3.679920
    25  H    4.738995   4.073835   2.750480   1.099442   3.673862
                   11         12         13         14         15
    11  C    0.000000
    12  C    1.408124   0.000000
    13  C    2.527935   2.870210   0.000000
    14  C    2.870101   2.474342   1.408126   0.000000
    15  H    2.149207   3.411977   4.147064   4.894246   0.000000
    16  H    3.413281   3.913939   5.923261   6.185171   2.475439
    17  H    3.871665   3.415028   6.188097   5.871187   4.278720
    18  H    3.387306   2.145483   4.892649   4.099111   4.933759
    19  H    3.428820   2.167334   3.428793   2.167219   5.543615
    20  H    4.892726   4.099315   3.387342   2.145611   6.991251
    21  H    6.188714   5.871959   3.872226   3.415793   8.011622
    22  H    5.923660   6.185669   3.413676   3.914396   7.229269
    23  H    4.147381   4.894608   2.149407   3.412152   4.976367
    24  H    2.123135   3.249650   2.123387   3.249837   2.651363
    25  H    2.116257   3.244631   2.116571   3.244712   2.646433
                   16         17         18         19         20
    16  H    0.000000
    17  H    2.484179   0.000000
    18  H    4.290819   2.465468   0.000000
    19  H    5.944551   4.772436   2.465411   0.000000
    20  H    8.007504   7.178473   4.930675   2.465436   0.000000
    21  H    9.572725   9.218749   7.179015   4.772991   2.465947
    22  H    9.270631   9.572484   8.007770   5.944805   4.290971
    23  H    7.229219   8.011356   6.991429   5.543739   4.933761
    24  H    4.806258   5.803190   5.321723   4.736957   5.322014
    25  H    4.804889   5.800907   5.319052   4.732551   5.319294
                   21         22         23         24         25
    21  H    0.000000
    22  H    2.484177   0.000000
    23  H    4.278869   2.475482   0.000000
    24  H    5.804061   4.806998   2.651778   0.000000
    25  H    5.801822   4.805835   2.647563   1.719170   0.000000
 Stoichiometry    C14H11(1+)
 Framework group  C1[X(C14H11)]
 Deg. of freedom    69
 Full point group                 C1      NOp   1
 Largest Abelian subgroup         C1      NOp   1
 Largest concise Abelian subgroup C1      NOp   1
                         Standard orientation:                         
 ---------------------------------------------------------------------
 Center     Atomic      Atomic             Coordinates (Angstroms)
 Number     Number       Type             X           Y           Z
 ---------------------------------------------------------------------
      1          6           0        2.492684   -1.360382    0.000016
      2          6           0        3.699672   -0.671918    0.002526
      3          6           0        3.680496    0.713903    0.002695
      4          6           0        2.460802    1.407595   -0.000778
      5          6           0       -2.460960    1.407492   -0.001021
      6          6           0       -3.681026    0.713748    0.002557
      7          6           0       -3.699819   -0.672074    0.002560
      8          6           0       -2.492926   -1.360488    0.000669
      9          6           0        0.001131   -1.453370   -0.001086
     10          6           0       -0.000080    1.429199   -0.003052
     11          6           0        1.263995   -0.677035   -0.002455
     12          6           0        1.237231    0.730834   -0.000813
     13          6           0       -1.263940   -0.677088   -0.002531
     14          6           0       -1.237111    0.730782   -0.001160
     15          1           0        2.488073   -2.443590   -0.004814
     16          1           0        4.635154   -1.211597    0.001396
     17          1           0        4.609035    1.272444    0.002178
     18          1           0        2.465248    2.490109    0.003776
     19          1           0       -0.000077    2.510273   -0.000202
     20          1           0       -2.465427    2.490006    0.003332
     21          1           0       -4.609714    1.272251    0.001779
     22          1           0       -4.635477   -1.211793    0.001419
     23          1           0       -2.488294   -2.443697   -0.004011
     24          1           0        0.000244   -2.147413    0.862776
     25          1           0        0.000346   -2.144185   -0.856391
 ---------------------------------------------------------------------
 Rotational constants (GHZ):           2.1362092           0.4450413           0.3691120
 Standard basis: 6-311++G(d,p) (5D, 7F)
 There are   399 symmetry adapted cartesian basis functions of A   symmetry.
 There are   385 symmetry adapted basis functions of A   symmetry.
   385 basis functions,   603 primitive gaussians,   399 cartesian basis functions
    47 alpha electrons       47 beta electrons
       nuclear repulsion energy       781.4272080822 Hartrees.
 NAtoms=   25 NActive=   25 NUniq=   25 SFac= 1.00D+00 NAtFMM=   60 NAOKFM=F Big=F
 Integral buffers will be    131072 words long.
 Regular integral format.
 Two-electron integral symmetry is turned on.
 Nuclear repulsion after empirical dispersion term =      781.4262286661 Hartrees.
 One-electron integrals computed using PRISM.
 NBasis=   385 RedAO= T EigKep=  1.12D-06  NBF=   385
 NBsUse=   379 1.00D-06 EigRej=  8.35D-07 NBFU=   379
 ExpMin= 3.60D-02 ExpMax= 4.56D+03 ExpMxC= 6.82D+02 IAcc=3 IRadAn=         5 AccDes= 0.00D+00
 Harris functional with IExCor= 1009 and IRadAn=       5 diagonalized for initial guess.
 HarFok:  IExCor= 1009 AccDes= 0.00D+00 IRadAn=         5 IDoV= 1 UseB2=F ITyADJ=14
 ICtDFT=  3500011 ScaDFX=  1.000000  1.000000  1.000000  1.000000
 FoFCou: FMM=F IPFlag=           0 FMFlag=      100000 FMFlg1=           0
         NFxFlg=           0 DoJE=T BraDBF=F KetDBF=T FulRan=T
         wScrn=  0.000000 ICntrl=       500 IOpCl=  0 I1Cent=   200000004 NGrid=           0
         NMat0=    1 NMatS0=      1 NMatT0=    0 NMatD0=    1 NMtDS0=    0 NMtDT0=    0
 Petite list used in FoFCou.
 Requested convergence on RMS density matrix=1.00D-08 within 128 cycles.
 Requested convergence on MAX density matrix=1.00D-06.
 Requested convergence on             energy=1.00D-06.
 No special actions if energy rises.
 SCF Done:  E(RM062X) =  -539.760268115     A.U. after   15 cycles
            NFock= 15  Conv=0.46D-08     -V/T= 2.0042
 DoSCS=F DFT=T ScalE2(SS,OS)=  1.000000  1.000000
 ExpMin= 3.60D-02 ExpMax= 4.56D+03 ExpMxC= 6.82D+02 IAcc=3 IRadAn=         5 AccDes= 0.00D+00
 HarFok:  IExCor=  205 AccDes= 0.00D+00 IRadAn=         5 IDoV=-2 UseB2=F ITyADJ=14
 ICtDFT= 12500011 ScaDFX=  1.000000  1.000000  1.000000  1.000000
 Range of M.O.s used for correlation:    15   379
 NBasis=   385 NAE=    47 NBE=    47 NFC=    14 NFV=     0
 NROrb=    365 NOA=    33 NOB=    33 NVA=   332 NVB=   332

 **** Warning!!: The largest alpha MO coefficient is  0.14727056D+03

 Orbital symmetries:
       Occupied  (A) (A) (A) (A) (A) (A) (A) (A) (A) (A) (A) (A)
                 (A) (A) (A) (A) (A) (A) (A) (A) (A) (A) (A) (A)
                 (A) (A) (A) (A) (A) (A) (A) (A) (A) (A) (A) (A)
                 (A) (A) (A) (A) (A) (A) (A) (A) (A) (A) (A)
       Virtual   (A) (A) (A) (A) (A) (A) (A) (A) (A) (A) (A) (A)
                 (A) (A) (A) (A) (A) (A) (A) (A) (A) (A) (A) (A)
                 (A) (A) (A) (A) (A) (A) (A) (A) (A) (A) (A) (A)
                 (A) (A) (A) (A) (A) (A) (A) (A) (A) (A) (A) (A)
                 (A) (A) (A) (A) (A) (A) (A) (A) (A) (A) (A) (A)
                 (A) (A) (A) (A) (A) (A) (A) (A) (A) (A) (A) (A)
                 (A) (A) (A) (A) (A) (A) (A) (A) (A) (A) (A) (A)
                 (A) (A) (A) (A) (A) (A) (A) (A) (A) (A) (A) (A)
                 (A) (A) (A) (A) (A) (A) (A) (A) (A) (A) (A) (A)
                 (A) (A) (A) (A) (A) (A) (A) (A) (A) (A) (A) (A)
                 (A) (A) (A) (A) (A) (A) (A) (A) (A) (A) (A) (A)
                 (A) (A) (A) (A) (A) (A) (A) (A) (A) (A) (A) (A)
                 (A) (A) (A) (A) (A) (A) (A) (A) (A) (A) (A) (A)
                 (A) (A) (A) (A) (A) (A) (A) (A) (A) (A) (A) (A)
                 (A) (A) (A) (A) (A) (A) (A) (A) (A) (A) (A) (A)
                 (A) (A) (A) (A) (A) (A) (A) (A) (A) (A) (A) (A)
                 (A) (A) (A) (A) (A) (A) (A) (A) (A) (A) (A) (A)
                 (A) (A) (A) (A) (A) (A) (A) (A) (A) (A) (A) (A)
                 (A) (A) (A) (A) (A) (A) (A) (A) (A) (A) (A) (A)
                 (A) (A) (A) (A) (A) (A) (A) (A) (A) (A) (A) (A)
                 (A) (A) (A) (A) (A) (A) (A) (A) (A) (A) (A) (A)
                 (A) (A) (A) (A) (A) (A) (A) (A) (A) (A) (A) (A)
                 (A) (A) (A) (A) (A) (A) (A) (A) (A) (A) (A) (A)
                 (A) (A) (A) (A) (A) (A) (A) (A) (A) (A) (A) (A)
                 (A) (A) (A) (A) (A) (A) (A) (A) (A) (A) (A) (A)
                 (A) (A) (A) (A) (A) (A) (A) (A) (A) (A) (A) (A)
                 (A) (A) (A) (A) (A) (A) (A) (A) (A) (A) (A) (A)
                 (A) (A) (A) (A) (A) (A) (A) (A)
     4 initial guesses have been made.
 Convergence on wavefunction:    0.001000000000000
 Iteration     1 Dimension     4 NMult     0 NNew      4
 CISAX will form     4 AO SS matrices at one time.
 Iteration     2 Dimension     6 NMult     4 NNew      2
 Iteration     3 Dimension     8 NMult     6 NNew      2
 Iteration     4 Dimension    10 NMult     8 NNew      2
 Iteration     5 Dimension    12 NMult    10 NNew      2
 Iteration     6 Dimension    14 NMult    12 NNew      2
 ***********************************************************************
 Excited states from <AA,BB:AA,BB> singles matrix:
 ***********************************************************************
 
 Ground to excited state transition densities written to RWF  633
 Ground to excited state transition electric dipole moments (Au):
       state          X           Y           Z        Dip. S.      Osc.
         1         0.0014     -0.6459      0.0010      0.4173      0.0289
 Ground to excited state transition velocity dipole moments (Au):
       state          X           Y           Z        Dip. S.      Osc.
         1        -0.0002      0.0748     -0.0001      0.0056      0.0359
 Ground to excited state transition magnetic dipole moments (Au):
       state          X           Y           Z
         1        -0.0014     -0.0001     -0.0001
 Ground to excited state transition velocity quadrupole moments (Au):
       state          XX          YY          ZZ          XY          XZ          YZ
         1         0.2946      0.0357     -0.0099     -0.0002      0.0000      0.0002
 <0|del|b> * <b|rxdel|0> + <0|del|b> * <b|delr+rdel|0>
 Rotatory Strengths (R) in cgs (10**-40 erg-esu-cm/Gauss)
       state          XX          YY          ZZ    R(velocity)    E-M Angle
         1        -0.0240      0.0005     -0.0231     -0.0155       90.00
 1/2[<0|r|b>*<b|rxdel|0> + (<0|rxdel|b>*<b|r|0>)*]
 Rotatory Strengths (R) in cgs (10**-40 erg-esu-cm/Gauss)
       state          XX          YY          ZZ     R(length)
         1         0.0014     -0.0430      0.0000     -0.0139
  1/2[<0|del|b>*<b|r|0> + (<0|r|b>*<b|del|0>)*] (Au)
       state          X           Y           Z        Dip. S.   Osc.(frdel)
         1        -0.0000     -0.0483     -0.0000      0.0483      0.0322

 Excitation energies and oscillator strengths:
 
 Excited State   1:      Singlet-A      2.8267 eV  438.62 nm  f=0.0289  <S**2>=0.000
      47 -> 48         0.70426
 This state for optimization and/or second-order correction.
 Total Energy, E(TD-HF/TD-DFT) =  -539.656389953    
 Copying the excited state density for this state as the 1-particle RhoCI density.
 SavETr:  write IOETrn=   770 NScale= 10 NData=  16 NLR=1 NState=    1 LETran=      28.

 **********************************************************************

            Population analysis using the SCF Density.

 **********************************************************************

 Orbital symmetries:
       Occupied  (A) (A) (A) (A) (A) (A) (A) (A) (A) (A) (A) (A)
                 (A) (A) (A) (A) (A) (A) (A) (A) (A) (A) (A) (A)
                 (A) (A) (A) (A) (A) (A) (A) (A) (A) (A) (A) (A)
                 (A) (A) (A) (A) (A) (A) (A) (A) (A) (A) (A)
       Virtual   (A) (A) (A) (A) (A) (A) (A) (A) (A) (A) (A) (A)
                 (A) (A) (A) (A) (A) (A) (A) (A) (A) (A) (A) (A)
                 (A) (A) (A) (A) (A) (A) (A) (A) (A) (A) (A) (A)
                 (A) (A) (A) (A) (A) (A) (A) (A) (A) (A) (A) (A)
                 (A) (A) (A) (A) (A) (A) (A) (A) (A) (A) (A) (A)
                 (A) (A) (A) (A) (A) (A) (A) (A) (A) (A) (A) (A)
                 (A) (A) (A) (A) (A) (A) (A) (A) (A) (A) (A) (A)
                 (A) (A) (A) (A) (A) (A) (A) (A) (A) (A) (A) (A)
                 (A) (A) (A) (A) (A) (A) (A) (A) (A) (A) (A) (A)
                 (A) (A) (A) (A) (A) (A) (A) (A) (A) (A) (A) (A)
                 (A) (A) (A) (A) (A) (A) (A) (A) (A) (A) (A) (A)
                 (A) (A) (A) (A) (A) (A) (A) (A) (A) (A) (A) (A)
                 (A) (A) (A) (A) (A) (A) (A) (A) (A) (A) (A) (A)
                 (A) (A) (A) (A) (A) (A) (A) (A) (A) (A) (A) (A)
                 (A) (A) (A) (A) (A) (A) (A) (A) (A) (A) (A) (A)
                 (A) (A) (A) (A) (A) (A) (A) (A) (A) (A) (A) (A)
                 (A) (A) (A) (A) (A) (A) (A) (A) (A) (A) (A) (A)
                 (A) (A) (A) (A) (A) (A) (A) (A) (A) (A) (A) (A)
                 (A) (A) (A) (A) (A) (A) (A) (A) (A) (A) (A) (A)
                 (A) (A) (A) (A) (A) (A) (A) (A) (A) (A) (A) (A)
                 (A) (A) (A) (A) (A) (A) (A) (A) (A) (A) (A) (A)
                 (A) (A) (A) (A) (A) (A) (A) (A) (A) (A) (A) (A)
                 (A) (A) (A) (A) (A) (A) (A) (A) (A) (A) (A) (A)
                 (A) (A) (A) (A) (A) (A) (A) (A) (A) (A) (A) (A)
                 (A) (A) (A) (A) (A) (A) (A) (A) (A) (A) (A) (A)
                 (A) (A) (A) (A) (A) (A) (A) (A) (A) (A) (A) (A)
                 (A) (A) (A) (A) (A) (A) (A) (A) (A) (A) (A) (A)
                 (A) (A) (A) (A) (A) (A) (A) (A)
 The electronic state is 1-A.
 Alpha  occ. eigenvalues --  -10.77667 -10.73240 -10.73226 -10.72416 -10.72414
 Alpha  occ. eigenvalues --  -10.71346 -10.71339 -10.70990 -10.70988 -10.70978
 Alpha  occ. eigenvalues --  -10.69947 -10.69942 -10.69642 -10.69635  -1.16459
 Alpha  occ. eigenvalues --   -1.12518  -1.06973  -1.05714  -1.01365  -1.00177
 Alpha  occ. eigenvalues --   -0.95802  -0.91051  -0.86421  -0.85911  -0.83818
 Alpha  occ. eigenvalues --   -0.78404  -0.76031  -0.74429  -0.69559  -0.69237
 Alpha  occ. eigenvalues --   -0.68497  -0.68176  -0.68078  -0.64778  -0.64318
 Alpha  occ. eigenvalues --   -0.63034  -0.61832  -0.60021  -0.59718  -0.59078
 Alpha  occ. eigenvalues --   -0.56891  -0.55201  -0.54821  -0.52458  -0.46663
 Alpha  occ. eigenvalues --   -0.46054  -0.44524
 Alpha virt. eigenvalues --   -0.26093  -0.14642  -0.14091  -0.12743  -0.11179
 Alpha virt. eigenvalues --   -0.10088  -0.09234  -0.07992  -0.07967  -0.07477
 Alpha virt. eigenvalues --   -0.07204  -0.07142  -0.05642  -0.05581  -0.05327
 Alpha virt. eigenvalues --   -0.03834  -0.03653  -0.03279  -0.03132  -0.02166
 Alpha virt. eigenvalues --   -0.01371  -0.00936   0.00193   0.00580   0.00662
 Alpha virt. eigenvalues --    0.01058   0.01513   0.01948   0.02222   0.02284
 Alpha virt. eigenvalues --    0.02453   0.02665   0.02773   0.03303   0.03362
 Alpha virt. eigenvalues --    0.04238   0.04506   0.04697   0.05046   0.05368
 Alpha virt. eigenvalues --    0.06028   0.06298   0.06598   0.07044   0.07259
 Alpha virt. eigenvalues --    0.07897   0.08187   0.08360   0.08550   0.08927
 Alpha virt. eigenvalues --    0.09545   0.09556   0.10040   0.10877   0.11034
 Alpha virt. eigenvalues --    0.11119   0.12174   0.12235   0.12927   0.12961
 Alpha virt. eigenvalues --    0.13410   0.13516   0.14015   0.14409   0.16228
 Alpha virt. eigenvalues --    0.16259   0.16378   0.17339   0.17628   0.17795
 Alpha virt. eigenvalues --    0.18126   0.19094   0.19250   0.19648   0.19745
 Alpha virt. eigenvalues --    0.21584   0.21601   0.22715   0.23102   0.23559
 Alpha virt. eigenvalues --    0.23819   0.24579   0.25318   0.26919   0.27629
 Alpha virt. eigenvalues --    0.28847   0.29293   0.29860   0.31375   0.35819
 Alpha virt. eigenvalues --    0.36467   0.38195   0.39299   0.41152   0.41389
 Alpha virt. eigenvalues --    0.41971   0.42173   0.42975   0.43709   0.44284
 Alpha virt. eigenvalues --    0.45020   0.45028   0.46130   0.46157   0.47943
 Alpha virt. eigenvalues --    0.48517   0.48863   0.49015   0.50415   0.51188
 Alpha virt. eigenvalues --    0.51613   0.51708   0.52118   0.52968   0.53959
 Alpha virt. eigenvalues --    0.54078   0.54681   0.55688   0.55761   0.57458
 Alpha virt. eigenvalues --    0.58248   0.58816   0.61449   0.62204   0.62342
 Alpha virt. eigenvalues --    0.63235   0.63481   0.64959   0.65160   0.67231
 Alpha virt. eigenvalues --    0.70431   0.70587   0.71027   0.72431   0.72875
 Alpha virt. eigenvalues --    0.75779   0.76012   0.76306   0.76895   0.77089
 Alpha virt. eigenvalues --    0.77848   0.77890   0.78243   0.79903   0.80385
 Alpha virt. eigenvalues --    0.81270   0.81653   0.82144   0.83032   0.85184
 Alpha virt. eigenvalues --    0.87179   0.88167   0.88555   0.89215   0.90410
 Alpha virt. eigenvalues --    0.91059   0.91298   0.93240   0.94646   0.96444
 Alpha virt. eigenvalues --    0.96643   1.00361   1.01293   1.01724   1.02762
 Alpha virt. eigenvalues --    1.03203   1.03883   1.04748   1.05376   1.08802
 Alpha virt. eigenvalues --    1.19496   1.23259   1.24054   1.25290   1.28017
 Alpha virt. eigenvalues --    1.29791   1.31676   1.34372   1.35812   1.36035
 Alpha virt. eigenvalues --    1.39388   1.40153   1.40988   1.43086   1.43503
 Alpha virt. eigenvalues --    1.43557   1.45238   1.45352   1.46363   1.46664
 Alpha virt. eigenvalues --    1.47665   1.48099   1.51744   1.53641   1.55759
 Alpha virt. eigenvalues --    1.55878   1.56417   1.56595   1.57813   1.61488
 Alpha virt. eigenvalues --    1.63191   1.63465   1.63676   1.66136   1.68307
 Alpha virt. eigenvalues --    1.68376   1.68703   1.69736   1.74463   1.75994
 Alpha virt. eigenvalues --    1.77186   1.78067   1.80013   1.80238   1.80811
 Alpha virt. eigenvalues --    1.83156   1.83242   1.83602   1.83880   1.84134
 Alpha virt. eigenvalues --    1.84317   1.85922   1.86093   1.88248   1.91359
 Alpha virt. eigenvalues --    1.92111   1.94122   1.95184   1.97750   1.98251
 Alpha virt. eigenvalues --    1.99833   2.02414   2.04475   2.07175   2.11853
 Alpha virt. eigenvalues --    2.12074   2.14129   2.15241   2.19237   2.21258
 Alpha virt. eigenvalues --    2.22899   2.28679   2.30236   2.34618   2.34985
 Alpha virt. eigenvalues --    2.36247   2.38566   2.39417   2.42405   2.44474
 Alpha virt. eigenvalues --    2.46382   2.46596   2.49453   2.52962   2.53807
 Alpha virt. eigenvalues --    2.54232   2.56747   2.57866   2.58330   2.59661
 Alpha virt. eigenvalues --    2.59855   2.61581   2.62180   2.63564   2.63833
 Alpha virt. eigenvalues --    2.64796   2.65110   2.65292   2.65356   2.67969
 Alpha virt. eigenvalues --    2.68480   2.70987   2.71415   2.73359   2.74824
 Alpha virt. eigenvalues --    2.76328   2.78870   2.79766   2.82973   2.83088
 Alpha virt. eigenvalues --    2.85002   2.86312   2.92128   2.96995   2.99566
 Alpha virt. eigenvalues --    3.00137   3.04984   3.11256   3.11585   3.13252
 Alpha virt. eigenvalues --    3.20980   3.23677   3.26856   3.28293   3.30868
 Alpha virt. eigenvalues --    3.33024   3.33633   3.43429   3.45973   3.46841
 Alpha virt. eigenvalues --    3.48708   3.50298   3.56530   3.65783   3.66885
 Alpha virt. eigenvalues --    3.67460   3.93921   3.94627   3.94890   3.96192
 Alpha virt. eigenvalues --    4.03874   4.06900   4.07560   4.12555   4.35486
 Alpha virt. eigenvalues --    4.61302   4.69973   4.71796  23.45294  23.60349
 Alpha virt. eigenvalues --   23.82364  23.85479  23.87983  23.89387  23.90524
 Alpha virt. eigenvalues --   23.92310  23.97946  24.00060  24.00242  24.00290
 Alpha virt. eigenvalues --   24.10776  24.10874
          Condensed to atoms (all electrons):
               1          2          3          4          5          6
     1  C    8.582516   0.339271  -0.549447   1.946736  -0.024268  -0.095998
     2  C    0.339271   7.134265   0.358460  -1.062924  -0.021541  -0.014898
     3  C   -0.549447   0.358460   6.597010   0.767258  -0.123918   0.017102
     4  C    1.946736  -1.062924   0.767258  10.948693  -0.358668  -0.123440
     5  C   -0.024268  -0.021541  -0.123918  -0.358668  10.958641   0.764652
     6  C   -0.095998  -0.014898   0.017102  -0.123440   0.764652   6.596099
     7  C   -0.019603   0.002349  -0.014913  -0.021804  -1.062021   0.357881
     8  C    0.407751  -0.019035  -0.096029  -0.026245   1.953050  -0.551249
     9  C   -1.203134  -0.788287   0.292250  -0.240998  -0.234757   0.292653
    10  C   -1.271493   0.243054  -0.359976  -2.568713  -2.569042  -0.357637
    11  C    0.306247  -0.929804   1.010784  -0.228357  -1.508356  -0.179757
    12  C   -2.043742   1.323444  -1.394898  -1.556241  -0.337796  -0.198876
    13  C    0.207312  -0.235155  -0.180072  -1.505990  -0.229692   1.009891
    14  C   -1.081461  -0.200164  -0.198633  -0.334036  -1.570789  -1.391185
    15  H    0.366571  -0.105392  -0.001668   0.026793   0.005817   0.001117
    16  H   -0.019277   0.378788  -0.016197   0.013713  -0.001569  -0.000333
    17  H   -0.024368  -0.016571   0.373971  -0.067332   0.000348   0.000402
    18  H    0.049877   0.002858  -0.084607   0.456677   0.006514  -0.005076
    19  H   -0.046707  -0.007667   0.051078  -0.068169  -0.068617   0.051035
    20  H    0.007351   0.002020  -0.005087   0.006490   0.456784  -0.084763
    21  H   -0.001324  -0.000401   0.000402   0.000349  -0.067389   0.373947
    22  H    0.000738   0.000369  -0.000334  -0.001569   0.013775  -0.016294
    23  H    0.005785  -0.002681   0.001119   0.005801   0.026836  -0.001698
    24  H    0.035307   0.014127  -0.001483  -0.011970  -0.012222  -0.001409
    25  H    0.031023   0.014849  -0.001661  -0.012159  -0.011995  -0.001756
               7          8          9         10         11         12
     1  C   -0.019603   0.407751  -1.203134  -1.271493   0.306247  -2.043742
     2  C    0.002349  -0.019035  -0.788287   0.243054  -0.929804   1.323444
     3  C   -0.014913  -0.096029   0.292250  -0.359976   1.010784  -1.394898
     4  C   -0.021804  -0.026245  -0.240998  -2.568713  -0.228357  -1.556241
     5  C   -1.062021   1.953050  -0.234757  -2.569042  -1.508356  -0.337796
     6  C    0.357881  -0.551249   0.292653  -0.357637  -0.179757  -0.198876
     7  C    7.130333   0.338488  -0.788104   0.242200  -0.233008  -0.199368
     8  C    0.338488   8.582865  -1.197192  -1.271830   0.209645  -1.078279
     9  C   -0.788104  -1.197192   9.573807   0.273915   1.620354  -1.895288
    10  C    0.242200  -1.271830   0.273915   9.186162  -0.482940   2.427811
    11  C   -0.233008   0.209645   1.620354  -0.482940  14.458110  -3.796201
    12  C   -0.199368  -1.078279  -1.895288   2.427811  -3.796201  16.011534
    13  C   -0.927890   0.299385   1.615772  -0.480599   1.114123  -4.786637
    14  C    1.323918  -2.051449  -1.899766   2.432123  -4.781821   3.060219
    15  H   -0.002671   0.005781   0.090731  -0.009466  -0.029226  -0.023897
    16  H    0.000369   0.000723   0.003659  -0.009607   0.027626  -0.034359
    17  H   -0.000401  -0.001321  -0.005647   0.020483  -0.027575   0.091570
    18  H    0.002021   0.007323  -0.025270   0.013410  -0.006576  -0.054200
    19  H   -0.007663  -0.046719   0.075779   0.421878   0.075561  -0.064603
    20  H    0.002943   0.049954  -0.025219   0.013417  -0.011605  -0.013924
    21  H   -0.016652  -0.024335  -0.005644   0.020478  -0.006301   0.005302
    22  H    0.378667  -0.019012   0.003748  -0.009628   0.003150  -0.009197
    23  H   -0.105338   0.366810   0.090905  -0.009478   0.001293   0.006629
    24  H    0.014348   0.035786   0.353679   0.005159   0.015271  -0.063486
    25  H    0.014599   0.030338   0.358076   0.005230   0.011486  -0.056403
              13         14         15         16         17         18
     1  C    0.207312  -1.081461   0.366571  -0.019277  -0.024368   0.049877
     2  C   -0.235155  -0.200164  -0.105392   0.378788  -0.016571   0.002858
     3  C   -0.180072  -0.198633  -0.001668  -0.016197   0.373971  -0.084607
     4  C   -1.505990  -0.334036   0.026793   0.013713  -0.067332   0.456677
     5  C   -0.229692  -1.570789   0.005817  -0.001569   0.000348   0.006514
     6  C    1.009891  -1.391185   0.001117  -0.000333   0.000402  -0.005076
     7  C   -0.927890   1.323918  -0.002671   0.000369  -0.000401   0.002021
     8  C    0.299385  -2.051449   0.005781   0.000723  -0.001321   0.007323
     9  C    1.615772  -1.899766   0.090731   0.003659  -0.005647  -0.025270
    10  C   -0.480599   2.432123  -0.009466  -0.009607   0.020483   0.013410
    11  C    1.114123  -4.781821  -0.029226   0.027626  -0.027575  -0.006576
    12  C   -4.786637   3.060219  -0.023897  -0.034359   0.091570  -0.054200
    13  C   14.470094  -3.792685   0.001295   0.003152  -0.006333  -0.011577
    14  C   -3.792685  16.022635   0.006637  -0.009185   0.005304  -0.013944
    15  H    0.001295   0.006637   0.438830  -0.009009   0.001455   0.000186
    16  H    0.003152  -0.009185  -0.009009   0.419406  -0.006612   0.001918
    17  H   -0.006333   0.005304   0.001455  -0.006612   0.422151  -0.010220
    18  H   -0.011577  -0.013944   0.000186   0.001918  -0.010220   0.453623
    19  H    0.075225  -0.064591   0.000309  -0.000535   0.001401  -0.006112
    20  H   -0.006599  -0.054355  -0.000112   0.000015  -0.000143   0.001268
    21  H   -0.027436   0.091494   0.000013  -0.000007   0.000010  -0.000143
    22  H    0.027713  -0.034663  -0.000127   0.000008  -0.000007   0.000015
    23  H   -0.029368  -0.024141   0.000587  -0.000127   0.000013  -0.000112
    24  H    0.014982  -0.063194  -0.000806   0.000609  -0.000133   0.000188
    25  H    0.011668  -0.056634  -0.000998   0.000658  -0.000151   0.000177
              19         20         21         22         23         24
     1  C   -0.046707   0.007351  -0.001324   0.000738   0.005785   0.035307
     2  C   -0.007667   0.002020  -0.000401   0.000369  -0.002681   0.014127
     3  C    0.051078  -0.005087   0.000402  -0.000334   0.001119  -0.001483
     4  C   -0.068169   0.006490   0.000349  -0.001569   0.005801  -0.011970
     5  C   -0.068617   0.456784  -0.067389   0.013775   0.026836  -0.012222
     6  C    0.051035  -0.084763   0.373947  -0.016294  -0.001698  -0.001409
     7  C   -0.007663   0.002943  -0.016652   0.378667  -0.105338   0.014348
     8  C   -0.046719   0.049954  -0.024335  -0.019012   0.366810   0.035786
     9  C    0.075779  -0.025219  -0.005644   0.003748   0.090905   0.353679
    10  C    0.421878   0.013417   0.020478  -0.009628  -0.009478   0.005159
    11  C    0.075561  -0.011605  -0.006301   0.003150   0.001293   0.015271
    12  C   -0.064603  -0.013924   0.005302  -0.009197   0.006629  -0.063486
    13  C    0.075225  -0.006599  -0.027436   0.027713  -0.029368   0.014982
    14  C   -0.064591  -0.054355   0.091494  -0.034663  -0.024141  -0.063194
    15  H    0.000309  -0.000112   0.000013  -0.000127   0.000587  -0.000806
    16  H   -0.000535   0.000015  -0.000007   0.000008  -0.000127   0.000609
    17  H    0.001401  -0.000143   0.000010  -0.000007   0.000013  -0.000133
    18  H   -0.006112   0.001268  -0.000143   0.000015  -0.000112   0.000188
    19  H    0.442268  -0.006132   0.001402  -0.000535   0.000311   0.000589
    20  H   -0.006132   0.453635  -0.010208   0.001923   0.000185   0.000183
    21  H    0.001402  -0.010208   0.422105  -0.006606   0.001452  -0.000130
    22  H   -0.000535   0.001923  -0.006606   0.419395  -0.009016   0.000600
    23  H    0.000311   0.000185   0.001452  -0.009016   0.438826  -0.000789
    24  H    0.000589   0.000183  -0.000130   0.000600  -0.000789   0.494198
    25  H    0.000580   0.000182  -0.000153   0.000666  -0.001021  -0.079742
              25
     1  C    0.031023
     2  C    0.014849
     3  C   -0.001661
     4  C   -0.012159
     5  C   -0.011995
     6  C   -0.001756
     7  C    0.014599
     8  C    0.030338
     9  C    0.358076
    10  C    0.005230
    11  C    0.011486
    12  C   -0.056403
    13  C    0.011668
    14  C   -0.056634
    15  H   -0.000998
    16  H    0.000658
    17  H   -0.000151
    18  H    0.000177
    19  H    0.000580
    20  H    0.000182
    21  H   -0.000153
    22  H    0.000666
    23  H   -0.001021
    24  H   -0.079742
    25  H    0.494166
 Mulliken charges:
               1
     1  C    0.094334
     2  C   -0.409335
     3  C   -0.440513
     4  C    0.016105
     5  C    0.016221
     6  C   -0.440409
     7  C   -0.408679
     8  C    0.094798
     9  C   -0.336020
    10  C    0.095088
    11  C   -0.632125
    12  C    0.680884
    13  C   -0.630579
    14  C    0.680367
    15  H    0.237251
    16  H    0.256174
    17  H    0.249704
    18  H    0.221782
    19  H    0.190631
    20  H    0.221796
    21  H    0.249774
    22  H    0.256219
    23  H    0.237217
    24  H    0.250338
    25  H    0.248975
 Sum of Mulliken charges =   1.00000
 Mulliken charges with hydrogens summed into heavy atoms:
               1
     1  C    0.331585
     2  C   -0.153161
     3  C   -0.190808
     4  C    0.237886
     5  C    0.238017
     6  C   -0.190634
     7  C   -0.152460
     8  C    0.332015
     9  C    0.163293
    10  C    0.285719
    11  C   -0.632125
    12  C    0.680884
    13  C   -0.630579
    14  C    0.680367
 Electronic spatial extent (au):  <R**2>=           2853.9695
 Charge=              1.0000 electrons
 Dipole moment (field-independent basis, Debye):
    X=             -0.0013    Y=              0.1866    Z=              0.0001  Tot=              0.1866
 Quadrupole moment (field-independent basis, Debye-Ang):
   XX=            -31.1595   YY=            -56.2630   ZZ=            -84.1257
   XY=             -0.0007   XZ=              0.0012   YZ=              0.0242
 Traceless Quadrupole moment (field-independent basis, Debye-Ang):
   XX=             26.0233   YY=              0.9197   ZZ=            -26.9430
   XY=             -0.0007   XZ=              0.0012   YZ=              0.0242
 Octapole moment (field-independent basis, Debye-Ang**2):
  XXX=             -0.0546  YYY=              5.2094  ZZZ=             -0.0060  XYY=              0.0004
  XXY=             -5.3365  XXZ=              0.0413  XZZ=              0.0067  YZZ=             -3.0894
  YYZ=              0.0262  XYZ=              0.0061
 Hexadecapole moment (field-independent basis, Debye-Ang**3):
 XXXX=          -2121.6443 YYYY=           -609.2459 ZZZZ=            -99.2820 XXXY=             -0.0311
 XXXZ=              0.0344 YYYX=              0.0130 YYYZ=              0.2703 ZZZX=              0.0015
 ZZZY=              0.0088 XXYY=           -507.3756 XXZZ=           -590.2055 YYZZ=           -145.6827
 XXYZ=              0.2570 YYXZ=              0.0001 ZZXY=             -0.0006
 N-N= 7.814262286661D+02 E-N=-2.799206953589D+03  KE= 5.375202102983D+02
 Unable to Open any file for archive entry.
 1\1\GINC-GADI-CPU-CLX-0113\SP\RM062X TD-FC\6-311++G(d,p)\C14H11(1+)\TS
 1578\28-Jul-2022\0\\#n M062X/6-311++G(d,p) TD(NStates=1) EmpiricalDisp
 ersion=GD3 SP\\SP_25\\1,1\C,0,-0.00295,2.492655,1.360431\C,0,-0.003875
 ,3.699658,0.671989\C,0,-0.001,3.680511,-0.71383\C,0,0.003925,2.460831,
 -1.407538\C,0,0.003875,-2.460931,-1.407538\C,0,-0.0013,-3.681011,-0.71
 383\C,0,-0.00435,-3.699833,0.671989\C,0,-0.0039,-2.492955,1.360431\C,0
 ,-0.0022,0.0011,1.453369\C,0,0.0061,-0.00005,-1.429189\C,0,0.00095,1.2
 6398,0.677065\C,0,0.0024,1.237246,-0.730804\C,0,0.000875,-1.263955,0.6
 77065\C,0,0.0026,-1.237096,-0.730804\H,0,-0.0005,2.488021,2.443647\H,0
 ,-0.003875,4.635128,1.211689\H,0,0.0008,4.609062,-1.272349\H,0,0.00175
 ,2.4653,-2.490059\H,0,0.005625,-0.000025,-2.510266\H,0,0.0019,-2.46537
 5,-2.490059\H,0,0.00065,-4.609687,-1.272349\H,0,-0.00445,-4.635503,1.2
 11689\H,0,-0.0016,-2.488346,2.443647\H,0,-0.867585,0.00025,2.145512\H,
 0,0.851585,0.00025,2.146062\\Version=ES64L-G16RevC.01\State=1-A\HF=-53
 9.7602681\RMSD=4.615e-09\PG=C01 [X(C14H11)]\\@
 The archive entry for this job was punched.


 NOTHING RESEMBLES A NEW PHENOMENON AS MUCH AS A MISTAKE.

                               -- ENRICO FERMI (?)
 Job cpu time:       0 days  1 hours 19 minutes 44.9 seconds.
 Elapsed time:       0 days  0 hours  1 minutes 40.1 seconds.
 File lengths (MBytes):  RWF=    460 Int=      0 D2E=      0 Chk=     15 Scr=      1
 Normal termination of Gaussian 16 at Thu Jul 28 15:28:41 2022.
