 Entering Gaussian System, Link 0=g16
 Initial command:
 /apps/gaussian/g16c01/g16/l1.exe "/jobfs/53002009.gadi-pbs/Gau-770630.inp" -scrdir="/jobfs/53002009.gadi-pbs/"
 Entering Link 1 = /apps/gaussian/g16c01/g16/l1.exe PID=    770631.
  
 Copyright (c) 1988-2019, Gaussian, Inc.  All Rights Reserved.
  
 This is part of the Gaussian(R) 16 program.  It is based on
 the Gaussian(R) 09 system (copyright 2009, Gaussian, Inc.),
 the Gaussian(R) 03 system (copyright 2003, Gaussian, Inc.),
 the Gaussian(R) 98 system (copyright 1998, Gaussian, Inc.),
 the Gaussian(R) 94 system (copyright 1995, Gaussian, Inc.),
 the Gaussian 92(TM) system (copyright 1992, Gaussian, Inc.),
 the Gaussian 90(TM) system (copyright 1990, Gaussian, Inc.),
 the Gaussian 88(TM) system (copyright 1988, Gaussian, Inc.),
 the Gaussian 86(TM) system (copyright 1986, Carnegie Mellon
 University), and the Gaussian 82(TM) system (copyright 1983,
 Carnegie Mellon University). Gaussian is a federally registered
 trademark of Gaussian, Inc.
  
 This software contains proprietary and confidential information,
 including trade secrets, belonging to Gaussian, Inc.
  
 This software is provided under written license and may be
 used, copied, transmitted, or stored only in accord with that
 written license.
  
 The following legend is applicable only to US Government
 contracts under FAR:
  
                    RESTRICTED RIGHTS LEGEND
  
 Use, reproduction and disclosure by the US Government is
 subject to restrictions as set forth in subparagraphs (a)
 and (c) of the Commercial Computer Software - Restricted
 Rights clause in FAR 52.227-19.
  
 Gaussian, Inc.
 340 Quinnipiac St., Bldg. 40, Wallingford CT 06492
  
  
 ---------------------------------------------------------------
 Warning -- This program may not be used in any manner that
 competes with the business of Gaussian, Inc. or will provide
 assistance to any competitor of Gaussian, Inc.  The licensee
 of this program is prohibited from giving any competitor of
 Gaussian, Inc. access to this program.  By using this program,
 the user acknowledges that Gaussian, Inc. is engaged in the
 business of creating and licensing software in the field of
 computational chemistry and represents and warrants to the
 licensee that it is not a competitor of Gaussian, Inc. and that
 it will not use this program in any manner prohibited above.
 ---------------------------------------------------------------
  

 Cite this work as:
 Gaussian 16, Revision C.01,
 M. J. Frisch, G. W. Trucks, H. B. Schlegel, G. E. Scuseria, 
 M. A. Robb, J. R. Cheeseman, G. Scalmani, V. Barone, 
 G. A. Petersson, H. Nakatsuji, X. Li, M. Caricato, A. V. Marenich, 
 J. Bloino, B. G. Janesko, R. Gomperts, B. Mennucci, H. P. Hratchian, 
 J. V. Ortiz, A. F. Izmaylov, J. L. Sonnenberg, D. Williams-Young, 
 F. Ding, F. Lipparini, F. Egidi, J. Goings, B. Peng, A. Petrone, 
 T. Henderson, D. Ranasinghe, V. G. Zakrzewski, J. Gao, N. Rega, 
 G. Zheng, W. Liang, M. Hada, M. Ehara, K. Toyota, R. Fukuda, 
 J. Hasegawa, M. Ishida, T. Nakajima, Y. Honda, O. Kitao, H. Nakai, 
 T. Vreven, K. Throssell, J. A. Montgomery, Jr., J. E. Peralta, 
 F. Ogliaro, M. J. Bearpark, J. J. Heyd, E. N. Brothers, K. N. Kudin, 
 V. N. Staroverov, T. A. Keith, R. Kobayashi, J. Normand, 
 K. Raghavachari, A. P. Rendell, J. C. Burant, S. S. Iyengar, 
 J. Tomasi, M. Cossi, J. M. Millam, M. Klene, C. Adamo, R. Cammi, 
 J. W. Ochterski, R. L. Martin, K. Morokuma, O. Farkas, 
 J. B. Foresman, and D. J. Fox, Gaussian, Inc., Wallingford CT, 2019.
 
 ******************************************
 Gaussian 16:  ES64L-G16RevC.01  3-Jul-2019
                28-Jul-2022 
 ******************************************
 %NProcShared=48
 Will use up to   48 processors via shared memory.
 %mem = 190GB
 ---------------------------------------------------------------
 #n M062X/6-311++G(d,p) TD(NStates=1) EmpiricalDispersion=GD3 SP
 ---------------------------------------------------------------
 1/38=1,172=1/1;
 2/12=2,17=6,18=5,40=1/2;
 3/5=4,6=6,7=1111,11=9,25=1,30=1,74=-55,124=31/1,2,3,8;
 4//1;
 5/5=2,38=5/2;
 8/6=1,10=2,108=1/1;
 9/41=1,42=1,70=2/14;
 6/7=2,8=2,9=2,10=2/1;
 99/5=1,9=1/99;
 -----
 SP_25
 -----
 Symbolic Z-matrix:
 Charge =  1 Multiplicity = 1
 C                     0.00485   2.49206   1.36043 
 C                     0.00483   3.70301   0.67199 
 C                     0.0016    3.68621  -0.71383 
 C                    -0.00382   2.46528  -1.40754 
 C                    -0.00397  -2.46558  -1.40754 
 C                     0.0007   -3.68771  -0.71383 
 C                     0.0034   -3.70353   0.67199 
 C                     0.002    -2.49296   1.36043 
 C                     0.00215   0.0033    1.45337 
 C                    -0.0061   -0.00015  -1.42919 
 C                    -0.0008    1.26018   0.67707 
 C                    -0.0028    1.238    -0.7308 
 C                    -0.00102  -1.26011   0.67707 
 C                    -0.0022   -1.23755  -0.7308 
 H                     0.0027    2.48747   2.44365 
 H                     0.00503   4.63763   1.21169 
 H                    -0.0005    4.60821  -1.27235 
 H                    -0.00205   2.46965  -2.49006 
 H                    -0.00563  -0.00008  -2.51027 
 H                    -0.0016   -2.46988  -2.49006 
 H                    -0.00095  -4.61009  -1.27235 
 H                     0.0033   -4.63875   1.21169 
 H                    -0.0006   -2.48845   2.44365 
 H                    -0.85159   0.00075   2.14496 
 H                     0.86759   0.00075   2.14661 
 
                          Input orientation:                          
 ---------------------------------------------------------------------
 Center     Atomic      Atomic             Coordinates (Angstroms)
 Number     Number       Type             X           Y           Z
 ---------------------------------------------------------------------
      1          6           0        0.004850    2.492055    1.360431
      2          6           0        0.004825    3.703008    0.671989
      3          6           0        0.001600    3.686211   -0.713830
      4          6           0       -0.003825    2.465281   -1.407538
      5          6           0       -0.003975   -2.465581   -1.407538
      6          6           0        0.000700   -3.687711   -0.713830
      7          6           0        0.003400   -3.703533    0.671989
      8          6           0        0.002000   -2.492955    1.360431
      9          6           0        0.002150    0.003300    1.453369
     10          6           0       -0.006100   -0.000150   -1.429189
     11          6           0       -0.000800    1.260180    0.677065
     12          6           0       -0.002800    1.237996   -0.730804
     13          6           0       -0.001025   -1.260105    0.677065
     14          6           0       -0.002200   -1.237546   -0.730804
     15          1           0        0.002700    2.487471    2.443647
     16          1           0        0.005025    4.637628    1.211689
     17          1           0       -0.000500    4.608212   -1.272349
     18          1           0       -0.002050    2.469650   -2.490059
     19          1           0       -0.005625   -0.000075   -2.510266
     20          1           0       -0.001600   -2.469875   -2.490059
     21          1           0       -0.000950   -4.610087   -1.272349
     22          1           0        0.003300   -4.638753    1.211689
     23          1           0       -0.000600   -2.488446    2.443647
     24          1           0       -0.851585    0.000750    2.144962
     25          1           0        0.867585    0.000750    2.146612
 ---------------------------------------------------------------------
                    Distance matrix (angstroms):
                    1          2          3          4          5
     1  C    0.000000
     2  C    1.392968   0.000000
     3  C    2.393445   1.385925   0.000000
     4  C    2.768112   2.420016   1.404254   0.000000
     5  C    5.678018   6.509685   6.190784   4.930862   0.000000
     6  C    6.518595   7.519524   7.373922   6.191976   1.405295
     7  C    6.233720   7.406541   7.518565   6.509896   2.420126
     8  C    4.985011   6.234093   6.518025   5.678538   2.768111
     9  C    2.490491   3.781323   4.273241   3.774411   3.778915
    10  C    3.740747   4.257751   3.755137   2.465527   2.465527
    11  C    1.408736   2.442840   2.796466   2.407872   4.269294
    12  C    2.438439   2.836225   2.448278   1.401499   3.764897
    13  C    3.813886   4.963119   5.138155   4.268967   2.408060
    14  C    4.275890   5.135850   4.923788   3.764160   1.402156
    15  H    1.083228   2.148559   3.377372   3.851254   6.274105
    16  H    2.150723   1.079255   2.147750   3.402869   7.570734
    17  H    3.377822   2.144731   1.077977   2.147194   7.075086
    18  H    3.850561   3.394078   2.152910   1.082531   5.052560
    19  H    4.603598   4.882589   4.100724   2.700739   2.700876
    20  H    6.280690   6.935638   6.407214   5.052487   1.082532
    21  H    7.574430   8.537449   8.315077   7.076660   2.148765
    22  H    7.132359   8.359202   8.544744   7.571506   3.403392
    23  H    5.096938   6.439946   6.935132   6.274635   3.851254
    24  H    2.748740   4.075512   4.741649   4.406003   4.406982
    25  H    2.751180   4.077448   4.744964   4.411944   4.412979
                    6          7          8          9         10
     6  C    0.000000
     7  C    1.385912   0.000000
     8  C    2.393742   1.392643   0.000000
     9  C    4.280224   3.788293   2.497984   0.000000
    10  C    3.756313   4.257944   3.741139   2.882572   0.000000
    11  C    5.139671   4.963717   3.814842   1.477296   2.454540
    12  C    4.925737   5.136786   4.277065   2.509006   1.421534
    13  C    2.797832   2.443437   1.409581   1.482852   2.454347
    14  C    2.450226   2.837067   2.439126   2.512037   1.420882
    15  H    6.935599   6.439511   5.096862   2.674277   4.602955
    16  H    8.545110   8.358603   7.132135   4.640626   5.336979
    17  H    8.314703   8.536133   7.573514   5.351146   4.611034
    18  H    6.408439   6.935904   6.281221   4.651185   2.688006
    19  H    4.101936   4.882871   4.603999   3.963644   1.081077
    20  H    2.153629   3.394184   3.850561   4.654808   2.687937
    21  H    1.078297   2.145299   3.378430   5.358441   4.612607
    22  H    2.147583   1.079774   2.150947   4.648340   5.337693
    23  H    3.377558   2.148307   1.083229   2.681316   4.603315
    24  H    4.743820   4.077053   2.750029   1.098713   3.672792
    25  H    4.747459   4.079588   2.754248   1.108860   3.680989
                   11         12         13         14         15
    11  C    0.000000
    12  C    1.408045   0.000000
    13  C    2.520285   2.867509   0.000000
    14  C    2.867182   2.475542   1.408050   0.000000
    15  H    2.151062   3.411504   4.143085   4.894172   0.000000
    16  H    3.419505   3.915461   5.921918   6.187972   2.478084
    17  H    3.874214   3.413449   6.183636   5.870789   4.278572
    18  H    3.390206   2.147545   4.893031   4.103447   4.933740
    19  H    3.427440   2.167790   3.427357   2.167448   5.543393
    20  H    4.893259   4.104057   3.390312   2.147932   6.994051
    21  H    6.185487   5.873104   3.875899   3.415744   8.011490
    22  H    5.923112   6.189466   3.420688   3.916825   7.231928
    23  H    4.144033   4.895254   2.151658   3.412022   4.975918
    24  H    2.112989   3.243647   2.113748   3.244204   2.646280
    25  H    2.121279   3.250826   2.122217   3.251065   2.649535
                   16         17         18         19         20
    16  H    0.000000
    17  H    2.484218   0.000000
    18  H    4.289885   2.460948   0.000000
    19  H    5.946541   4.771664   2.469810   0.000000
    20  H    8.013712   7.182070   4.939525   2.469886   0.000000
    21  H    9.575527   9.218299   7.183696   4.773329   2.462382
    22  H    9.276381   9.574801   8.014509   5.947299   4.290337
    23  H    7.231783   8.010692   6.994582   5.543760   4.933741
    24  H    4.806809   5.799230   5.319831   4.731469   5.320703
    25  H    4.808194   5.802721   5.324514   4.738039   5.325241
                   21         22         23         24         25
    21  H    0.000000
    22  H    2.484207   0.000000
    23  H    4.279017   2.478216   0.000000
    24  H    5.801846   4.809035   2.647543   0.000000
    25  H    5.805469   4.811035   2.652936   1.719171   0.000000
 Stoichiometry    C14H11(1+)
 Framework group  C1[X(C14H11)]
 Deg. of freedom    69
 Full point group                 C1      NOp   1
 Largest Abelian subgroup         C1      NOp   1
 Largest concise Abelian subgroup C1      NOp   1
                         Standard orientation:                         
 ---------------------------------------------------------------------
 Center     Atomic      Atomic             Coordinates (Angstroms)
 Number     Number       Type             X           Y           Z
 ---------------------------------------------------------------------
      1          6           0       -2.492143   -1.360279    0.001313
      2          6           0       -3.703052   -0.671762    0.002592
      3          6           0       -3.686167    0.714060    0.002429
      4          6           0       -2.465192    1.407700   -0.001246
      5          6           0        2.465670    1.407386   -0.000517
      6          6           0        3.687755    0.713592    0.002844
      7          6           0        3.703489   -0.672231    0.002487
      8          6           0        2.492868   -1.360591   -0.000649
      9          6           0       -0.003393   -1.453370   -0.001149
     10          6           0        0.000241    1.429199   -0.003034
     11          6           0       -1.260223   -0.676981   -0.002609
     12          6           0       -1.237950    0.730887   -0.001497
     13          6           0        1.260062   -0.677141   -0.002385
     14          6           0        1.237592    0.730728   -0.000455
     15          1           0       -2.487627   -2.443488   -0.003228
     16          1           0       -4.637706   -1.211401    0.001433
     17          1           0       -4.608132    1.272641    0.001398
     18          1           0       -2.469493    2.490215    0.002918
     19          1           0        0.000234    2.510272   -0.000172
     20          1           0        2.470032    2.489899    0.004249
     21          1           0        4.610167    1.272054    0.002592
     22          1           0        4.638675   -1.211989    0.001362
     23          1           0        2.488291   -2.443798   -0.005641
     24          1           0       -0.000735   -2.143076   -0.856408
     25          1           0       -0.001042   -2.148522    0.862754
 ---------------------------------------------------------------------
 Rotational constants (GHZ):           2.1362089           0.4442119           0.3685414
 Standard basis: 6-311++G(d,p) (5D, 7F)
 There are   399 symmetry adapted cartesian basis functions of A   symmetry.
 There are   385 symmetry adapted basis functions of A   symmetry.
   385 basis functions,   603 primitive gaussians,   399 cartesian basis functions
    47 alpha electrons       47 beta electrons
       nuclear repulsion energy       780.9661096525 Hartrees.
 NAtoms=   25 NActive=   25 NUniq=   25 SFac= 1.00D+00 NAtFMM=   60 NAOKFM=F Big=F
 Integral buffers will be    131072 words long.
 Regular integral format.
 Two-electron integral symmetry is turned on.
 Nuclear repulsion after empirical dispersion term =      780.9651300822 Hartrees.
 One-electron integrals computed using PRISM.
 NBasis=   385 RedAO= T EigKep=  1.13D-06  NBF=   385
 NBsUse=   379 1.00D-06 EigRej=  8.44D-07 NBFU=   379
 ExpMin= 3.60D-02 ExpMax= 4.56D+03 ExpMxC= 6.82D+02 IAcc=3 IRadAn=         5 AccDes= 0.00D+00
 Harris functional with IExCor= 1009 and IRadAn=       5 diagonalized for initial guess.
 HarFok:  IExCor= 1009 AccDes= 0.00D+00 IRadAn=         5 IDoV= 1 UseB2=F ITyADJ=14
 ICtDFT=  3500011 ScaDFX=  1.000000  1.000000  1.000000  1.000000
 FoFCou: FMM=F IPFlag=           0 FMFlag=      100000 FMFlg1=           0
         NFxFlg=           0 DoJE=T BraDBF=F KetDBF=T FulRan=T
         wScrn=  0.000000 ICntrl=       500 IOpCl=  0 I1Cent=   200000004 NGrid=           0
         NMat0=    1 NMatS0=      1 NMatT0=    0 NMatD0=    1 NMtDS0=    0 NMtDT0=    0
 Petite list used in FoFCou.
 Requested convergence on RMS density matrix=1.00D-08 within 128 cycles.
 Requested convergence on MAX density matrix=1.00D-06.
 Requested convergence on             energy=1.00D-06.
 No special actions if energy rises.
 SCF Done:  E(RM062X) =  -539.760043441     A.U. after   15 cycles
            NFock= 15  Conv=0.45D-08     -V/T= 2.0042
 DoSCS=F DFT=T ScalE2(SS,OS)=  1.000000  1.000000
 ExpMin= 3.60D-02 ExpMax= 4.56D+03 ExpMxC= 6.82D+02 IAcc=3 IRadAn=         5 AccDes= 0.00D+00
 HarFok:  IExCor=  205 AccDes= 0.00D+00 IRadAn=         5 IDoV=-2 UseB2=F ITyADJ=14
 ICtDFT= 12500011 ScaDFX=  1.000000  1.000000  1.000000  1.000000
 Range of M.O.s used for correlation:    15   379
 NBasis=   385 NAE=    47 NBE=    47 NFC=    14 NFV=     0
 NROrb=    365 NOA=    33 NOB=    33 NVA=   332 NVB=   332

 **** Warning!!: The largest alpha MO coefficient is  0.14838971D+03

 Orbital symmetries:
       Occupied  (A) (A) (A) (A) (A) (A) (A) (A) (A) (A) (A) (A)
                 (A) (A) (A) (A) (A) (A) (A) (A) (A) (A) (A) (A)
                 (A) (A) (A) (A) (A) (A) (A) (A) (A) (A) (A) (A)
                 (A) (A) (A) (A) (A) (A) (A) (A) (A) (A) (A)
       Virtual   (A) (A) (A) (A) (A) (A) (A) (A) (A) (A) (A) (A)
                 (A) (A) (A) (A) (A) (A) (A) (A) (A) (A) (A) (A)
                 (A) (A) (A) (A) (A) (A) (A) (A) (A) (A) (A) (A)
                 (A) (A) (A) (A) (A) (A) (A) (A) (A) (A) (A) (A)
                 (A) (A) (A) (A) (A) (A) (A) (A) (A) (A) (A) (A)
                 (A) (A) (A) (A) (A) (A) (A) (A) (A) (A) (A) (A)
                 (A) (A) (A) (A) (A) (A) (A) (A) (A) (A) (A) (A)
                 (A) (A) (A) (A) (A) (A) (A) (A) (A) (A) (A) (A)
                 (A) (A) (A) (A) (A) (A) (A) (A) (A) (A) (A) (A)
                 (A) (A) (A) (A) (A) (A) (A) (A) (A) (A) (A) (A)
                 (A) (A) (A) (A) (A) (A) (A) (A) (A) (A) (A) (A)
                 (A) (A) (A) (A) (A) (A) (A) (A) (A) (A) (A) (A)
                 (A) (A) (A) (A) (A) (A) (A) (A) (A) (A) (A) (A)
                 (A) (A) (A) (A) (A) (A) (A) (A) (A) (A) (A) (A)
                 (A) (A) (A) (A) (A) (A) (A) (A) (A) (A) (A) (A)
                 (A) (A) (A) (A) (A) (A) (A) (A) (A) (A) (A) (A)
                 (A) (A) (A) (A) (A) (A) (A) (A) (A) (A) (A) (A)
                 (A) (A) (A) (A) (A) (A) (A) (A) (A) (A) (A) (A)
                 (A) (A) (A) (A) (A) (A) (A) (A) (A) (A) (A) (A)
                 (A) (A) (A) (A) (A) (A) (A) (A) (A) (A) (A) (A)
                 (A) (A) (A) (A) (A) (A) (A) (A) (A) (A) (A) (A)
                 (A) (A) (A) (A) (A) (A) (A) (A) (A) (A) (A) (A)
                 (A) (A) (A) (A) (A) (A) (A) (A) (A) (A) (A) (A)
                 (A) (A) (A) (A) (A) (A) (A) (A) (A) (A) (A) (A)
                 (A) (A) (A) (A) (A) (A) (A) (A) (A) (A) (A) (A)
                 (A) (A) (A) (A) (A) (A) (A) (A) (A) (A) (A) (A)
                 (A) (A) (A) (A) (A) (A) (A) (A) (A) (A) (A) (A)
                 (A) (A) (A) (A) (A) (A) (A) (A)
     4 initial guesses have been made.
 Convergence on wavefunction:    0.001000000000000
 Iteration     1 Dimension     4 NMult     0 NNew      4
 CISAX will form     4 AO SS matrices at one time.
 Iteration     2 Dimension     6 NMult     4 NNew      2
 Iteration     3 Dimension     8 NMult     6 NNew      2
 Iteration     4 Dimension    10 NMult     8 NNew      2
 Iteration     5 Dimension    12 NMult    10 NNew      2
 Iteration     6 Dimension    14 NMult    12 NNew      2
 ***********************************************************************
 Excited states from <AA,BB:AA,BB> singles matrix:
 ***********************************************************************
 
 Ground to excited state transition densities written to RWF  633
 Ground to excited state transition electric dipole moments (Au):
       state          X           Y           Z        Dip. S.      Osc.
         1        -0.0043     -0.6426      0.0011      0.4130      0.0285
 Ground to excited state transition velocity dipole moments (Au):
       state          X           Y           Z        Dip. S.      Osc.
         1         0.0005      0.0743     -0.0001      0.0055      0.0355
 Ground to excited state transition magnetic dipole moments (Au):
       state          X           Y           Z
         1        -0.0013     -0.0003      0.0001
 Ground to excited state transition velocity quadrupole moments (Au):
       state          XX          YY          ZZ          XY          XZ          YZ
         1         0.3003      0.0345     -0.0098      0.0007      0.0000      0.0003
 <0|del|b> * <b|rxdel|0> + <0|del|b> * <b|delr+rdel|0>
 Rotatory Strengths (R) in cgs (10**-40 erg-esu-cm/Gauss)
       state          XX          YY          ZZ    R(velocity)    E-M Angle
         1        -0.0856     -0.0014     -0.0749     -0.0540       90.00
 1/2[<0|r|b>*<b|rxdel|0> + (<0|rxdel|b>*<b|r|0>)*]
 Rotatory Strengths (R) in cgs (10**-40 erg-esu-cm/Gauss)
       state          XX          YY          ZZ     R(length)
         1        -0.0040     -0.1413     -0.0001     -0.0485
  1/2[<0|del|b>*<b|r|0> + (<0|r|b>*<b|del|0>)*] (Au)
       state          X           Y           Z        Dip. S.   Osc.(frdel)
         1        -0.0000     -0.0477     -0.0000      0.0477      0.0318

 Excitation energies and oscillator strengths:
 
 Excited State   1:      Singlet-A      2.8187 eV  439.86 nm  f=0.0285  <S**2>=0.000
      47 -> 48         0.70426
 This state for optimization and/or second-order correction.
 Total Energy, E(TD-HF/TD-DFT) =  -539.656456588    
 Copying the excited state density for this state as the 1-particle RhoCI density.
 SavETr:  write IOETrn=   770 NScale= 10 NData=  16 NLR=1 NState=    1 LETran=      28.

 **********************************************************************

            Population analysis using the SCF Density.

 **********************************************************************

 Orbital symmetries:
       Occupied  (A) (A) (A) (A) (A) (A) (A) (A) (A) (A) (A) (A)
                 (A) (A) (A) (A) (A) (A) (A) (A) (A) (A) (A) (A)
                 (A) (A) (A) (A) (A) (A) (A) (A) (A) (A) (A) (A)
                 (A) (A) (A) (A) (A) (A) (A) (A) (A) (A) (A)
       Virtual   (A) (A) (A) (A) (A) (A) (A) (A) (A) (A) (A) (A)
                 (A) (A) (A) (A) (A) (A) (A) (A) (A) (A) (A) (A)
                 (A) (A) (A) (A) (A) (A) (A) (A) (A) (A) (A) (A)
                 (A) (A) (A) (A) (A) (A) (A) (A) (A) (A) (A) (A)
                 (A) (A) (A) (A) (A) (A) (A) (A) (A) (A) (A) (A)
                 (A) (A) (A) (A) (A) (A) (A) (A) (A) (A) (A) (A)
                 (A) (A) (A) (A) (A) (A) (A) (A) (A) (A) (A) (A)
                 (A) (A) (A) (A) (A) (A) (A) (A) (A) (A) (A) (A)
                 (A) (A) (A) (A) (A) (A) (A) (A) (A) (A) (A) (A)
                 (A) (A) (A) (A) (A) (A) (A) (A) (A) (A) (A) (A)
                 (A) (A) (A) (A) (A) (A) (A) (A) (A) (A) (A) (A)
                 (A) (A) (A) (A) (A) (A) (A) (A) (A) (A) (A) (A)
                 (A) (A) (A) (A) (A) (A) (A) (A) (A) (A) (A) (A)
                 (A) (A) (A) (A) (A) (A) (A) (A) (A) (A) (A) (A)
                 (A) (A) (A) (A) (A) (A) (A) (A) (A) (A) (A) (A)
                 (A) (A) (A) (A) (A) (A) (A) (A) (A) (A) (A) (A)
                 (A) (A) (A) (A) (A) (A) (A) (A) (A) (A) (A) (A)
                 (A) (A) (A) (A) (A) (A) (A) (A) (A) (A) (A) (A)
                 (A) (A) (A) (A) (A) (A) (A) (A) (A) (A) (A) (A)
                 (A) (A) (A) (A) (A) (A) (A) (A) (A) (A) (A) (A)
                 (A) (A) (A) (A) (A) (A) (A) (A) (A) (A) (A) (A)
                 (A) (A) (A) (A) (A) (A) (A) (A) (A) (A) (A) (A)
                 (A) (A) (A) (A) (A) (A) (A) (A) (A) (A) (A) (A)
                 (A) (A) (A) (A) (A) (A) (A) (A) (A) (A) (A) (A)
                 (A) (A) (A) (A) (A) (A) (A) (A) (A) (A) (A) (A)
                 (A) (A) (A) (A) (A) (A) (A) (A) (A) (A) (A) (A)
                 (A) (A) (A) (A) (A) (A) (A) (A) (A) (A) (A) (A)
                 (A) (A) (A) (A) (A) (A) (A) (A)
 The electronic state is 1-A.
 Alpha  occ. eigenvalues --  -10.77663 -10.73269 -10.73227 -10.72458 -10.72455
 Alpha  occ. eigenvalues --  -10.71406 -10.71384 -10.71024 -10.71017 -10.70980
 Alpha  occ. eigenvalues --  -10.70008 -10.69992 -10.69631 -10.69611  -1.16426
 Alpha  occ. eigenvalues --   -1.12413  -1.06917  -1.05748  -1.01263  -1.00191
 Alpha  occ. eigenvalues --   -0.95762  -0.91061  -0.86416  -0.85893  -0.83814
 Alpha  occ. eigenvalues --   -0.78396  -0.76024  -0.74408  -0.69564  -0.69257
 Alpha  occ. eigenvalues --   -0.68519  -0.68209  -0.68120  -0.64700  -0.64251
 Alpha  occ. eigenvalues --   -0.63095  -0.61900  -0.59984  -0.59640  -0.59106
 Alpha  occ. eigenvalues --   -0.56903  -0.55228  -0.54855  -0.52417  -0.46589
 Alpha  occ. eigenvalues --   -0.46057  -0.44478
 Alpha virt. eigenvalues --   -0.26083  -0.14697  -0.14105  -0.12805  -0.11178
 Alpha virt. eigenvalues --   -0.10085  -0.09226  -0.07984  -0.07964  -0.07474
 Alpha virt. eigenvalues --   -0.07204  -0.07148  -0.05644  -0.05582  -0.05337
 Alpha virt. eigenvalues --   -0.03818  -0.03641  -0.03280  -0.03133  -0.02164
 Alpha virt. eigenvalues --   -0.01365  -0.00925   0.00192   0.00604   0.00667
 Alpha virt. eigenvalues --    0.01053   0.01513   0.01933   0.02217   0.02287
 Alpha virt. eigenvalues --    0.02445   0.02676   0.02720   0.03326   0.03375
 Alpha virt. eigenvalues --    0.04243   0.04504   0.04693   0.05016   0.05362
 Alpha virt. eigenvalues --    0.06037   0.06294   0.06595   0.07043   0.07249
 Alpha virt. eigenvalues --    0.07886   0.08141   0.08364   0.08524   0.08930
 Alpha virt. eigenvalues --    0.09551   0.09561   0.10037   0.10854   0.11029
 Alpha virt. eigenvalues --    0.11115   0.12179   0.12250   0.12909   0.12987
 Alpha virt. eigenvalues --    0.13405   0.13529   0.14019   0.14357   0.16238
 Alpha virt. eigenvalues --    0.16253   0.16403   0.17356   0.17620   0.17785
 Alpha virt. eigenvalues --    0.18118   0.19051   0.19220   0.19627   0.19723
 Alpha virt. eigenvalues --    0.21540   0.21571   0.22731   0.23116   0.23562
 Alpha virt. eigenvalues --    0.23770   0.24570   0.25300   0.26913   0.27580
 Alpha virt. eigenvalues --    0.28844   0.29295   0.29857   0.31335   0.35817
 Alpha virt. eigenvalues --    0.36389   0.38157   0.39252   0.41160   0.41421
 Alpha virt. eigenvalues --    0.41962   0.42231   0.42993   0.43651   0.44298
 Alpha virt. eigenvalues --    0.44909   0.44983   0.46082   0.46103   0.47948
 Alpha virt. eigenvalues --    0.48544   0.48873   0.49038   0.50432   0.51142
 Alpha virt. eigenvalues --    0.51558   0.51633   0.52114   0.52842   0.53978
 Alpha virt. eigenvalues --    0.54099   0.54620   0.55687   0.55759   0.57473
 Alpha virt. eigenvalues --    0.58232   0.58807   0.61432   0.62175   0.62343
 Alpha virt. eigenvalues --    0.63176   0.63511   0.64942   0.65148   0.67253
 Alpha virt. eigenvalues --    0.70408   0.70617   0.71009   0.72382   0.72853
 Alpha virt. eigenvalues --    0.75774   0.75988   0.76260   0.76890   0.77080
 Alpha virt. eigenvalues --    0.77821   0.77828   0.78221   0.79932   0.80400
 Alpha virt. eigenvalues --    0.81223   0.81649   0.82118   0.82990   0.85159
 Alpha virt. eigenvalues --    0.87128   0.88172   0.88458   0.89183   0.90408
 Alpha virt. eigenvalues --    0.91033   0.91276   0.93149   0.94629   0.96459
 Alpha virt. eigenvalues --    0.96636   1.00426   1.01283   1.01659   1.02665
 Alpha virt. eigenvalues --    1.03175   1.03844   1.04704   1.05449   1.08745
 Alpha virt. eigenvalues --    1.19610   1.23293   1.24053   1.25272   1.27984
 Alpha virt. eigenvalues --    1.29621   1.31828   1.34218   1.35708   1.35978
 Alpha virt. eigenvalues --    1.39307   1.40179   1.40890   1.42962   1.43398
 Alpha virt. eigenvalues --    1.43501   1.45169   1.45271   1.46376   1.46695
 Alpha virt. eigenvalues --    1.47616   1.47926   1.51706   1.53612   1.55751
 Alpha virt. eigenvalues --    1.55822   1.56277   1.56549   1.57739   1.61397
 Alpha virt. eigenvalues --    1.63280   1.63621   1.63814   1.66083   1.68247
 Alpha virt. eigenvalues --    1.68391   1.68673   1.69728   1.74310   1.75980
 Alpha virt. eigenvalues --    1.77146   1.78024   1.80016   1.80029   1.80598
 Alpha virt. eigenvalues --    1.83162   1.83189   1.83599   1.83761   1.84196
 Alpha virt. eigenvalues --    1.84228   1.85849   1.86004   1.88193   1.91408
 Alpha virt. eigenvalues --    1.92016   1.94132   1.95204   1.97630   1.98056
 Alpha virt. eigenvalues --    1.99648   2.02430   2.04335   2.07337   2.11772
 Alpha virt. eigenvalues --    2.12034   2.14053   2.15198   2.18973   2.21224
 Alpha virt. eigenvalues --    2.22680   2.28571   2.30069   2.34631   2.34969
 Alpha virt. eigenvalues --    2.36184   2.38803   2.39756   2.42320   2.44400
 Alpha virt. eigenvalues --    2.46418   2.46430   2.49255   2.52841   2.53799
 Alpha virt. eigenvalues --    2.54230   2.56822   2.57818   2.58278   2.59634
 Alpha virt. eigenvalues --    2.59775   2.61623   2.62068   2.63499   2.63774
 Alpha virt. eigenvalues --    2.64745   2.65079   2.65200   2.65246   2.67930
 Alpha virt. eigenvalues --    2.68596   2.70929   2.71408   2.73336   2.74816
 Alpha virt. eigenvalues --    2.76283   2.78690   2.79682   2.82745   2.83025
 Alpha virt. eigenvalues --    2.84764   2.86277   2.92095   2.96976   2.99461
 Alpha virt. eigenvalues --    2.99977   3.05231   3.10917   3.11290   3.12823
 Alpha virt. eigenvalues --    3.21000   3.23736   3.26571   3.28123   3.30672
 Alpha virt. eigenvalues --    3.32578   3.33495   3.43389   3.45810   3.46330
 Alpha virt. eigenvalues --    3.48340   3.49979   3.56437   3.65864   3.66887
 Alpha virt. eigenvalues --    3.67398   3.94452   3.94587   3.95391   3.96264
 Alpha virt. eigenvalues --    4.04141   4.06917   4.07399   4.12536   4.35566
 Alpha virt. eigenvalues --    4.61422   4.69669   4.71457  23.45391  23.60714
 Alpha virt. eigenvalues --   23.82131  23.85677  23.87817  23.89214  23.90486
 Alpha virt. eigenvalues --   23.92248  23.97595  23.99231  23.99438  23.99927
 Alpha virt. eigenvalues --   24.10291  24.10429
          Condensed to atoms (all electrons):
               1          2          3          4          5          6
     1  C    8.574638   0.322502  -0.542312   1.962318  -0.024545  -0.094676
     2  C    0.322502   7.128906   0.355195  -1.071294  -0.017787  -0.014271
     3  C   -0.542312   0.355195   6.582900   0.754742  -0.124026   0.016803
     4  C    1.962318  -1.071294   0.754742  10.984809  -0.347852  -0.122834
     5  C   -0.024545  -0.017787  -0.124026  -0.347852  11.000247   0.746149
     6  C   -0.094676  -0.014271   0.016803  -0.122834   0.746149   6.580463
     7  C   -0.019885   0.001579  -0.014323  -0.018523  -1.065138   0.353120
     8  C    0.402692  -0.018182  -0.094792  -0.030356   1.978269  -0.547598
     9  C   -1.171960  -0.803168   0.294027  -0.226413  -0.212517   0.295426
    10  C   -1.276249   0.249152  -0.352782  -2.567324  -2.567247  -0.346991
    11  C    0.300298  -0.911968   1.017705  -0.304352  -1.508545  -0.168699
    12  C   -2.043034   1.349420  -1.399096  -1.551841  -0.325151  -0.201332
    13  C    0.196001  -0.248018  -0.170104  -1.505340  -0.310128   1.017116
    14  C   -1.078861  -0.196343  -0.200885  -0.317847  -1.583428  -1.389059
    15  H    0.366584  -0.106256  -0.001159   0.027434   0.005716   0.001093
    16  H   -0.019851   0.379272  -0.016917   0.013462  -0.001524  -0.000324
    17  H   -0.024847  -0.016552   0.375897  -0.067727   0.000273   0.000396
    18  H    0.049773   0.003137  -0.085163   0.457218   0.006661  -0.005042
    19  H   -0.046780  -0.007770   0.051450  -0.070780  -0.071711   0.051381
    20  H    0.007246   0.002028  -0.005067   0.006591   0.457085  -0.085626
    21  H   -0.001316  -0.000398   0.000397   0.000279  -0.067785   0.375816
    22  H    0.000724   0.000363  -0.000325  -0.001528   0.013655  -0.017173
    23  H    0.005728  -0.002674   0.001098   0.005693   0.027459  -0.001228
    24  H    0.029670   0.014329  -0.001736  -0.011966  -0.012701  -0.001520
    25  H    0.035835   0.014599  -0.001224  -0.012629  -0.012070  -0.001504
               7          8          9         10         11         12
     1  C   -0.019885   0.402692  -1.171960  -1.276249   0.300298  -2.043034
     2  C    0.001579  -0.018182  -0.803168   0.249152  -0.911968   1.349420
     3  C   -0.014323  -0.094792   0.294027  -0.352782   1.017705  -1.399096
     4  C   -0.018523  -0.030356  -0.226413  -2.567324  -0.304352  -1.551841
     5  C   -1.065138   1.978269  -0.212517  -2.567247  -1.508545  -0.325151
     6  C    0.353120  -0.547598   0.295426  -0.346991  -0.168699  -0.201332
     7  C    7.113975   0.322510  -0.799930   0.246148  -0.241275  -0.194172
     8  C    0.322510   8.573579  -1.156283  -1.276712   0.203312  -1.068967
     9  C   -0.799930  -1.156283   9.578348   0.252934   1.629585  -1.937778
    10  C    0.246148  -1.276712   0.252934   9.149275  -0.443644   2.405246
    11  C   -0.241275   0.203312   1.629585  -0.443644  14.485193  -3.758591
    12  C   -0.194172  -1.068967  -1.937778   2.405246  -3.758591  16.015960
    13  C   -0.906794   0.278044   1.617679  -0.441348   1.096854  -4.823699
    14  C    1.346278  -2.060987  -1.948737   2.414122  -4.808899   3.061535
    15  H   -0.002637   0.005698   0.091504  -0.009650  -0.030021  -0.024430
    16  H    0.000360   0.000680   0.003307  -0.009323   0.026277  -0.032181
    17  H   -0.000397  -0.001305  -0.005699   0.020490  -0.027462   0.091655
    18  H    0.002029   0.007160  -0.024865   0.013425  -0.008323  -0.053013
    19  H   -0.007788  -0.046786   0.075499   0.422067   0.079690  -0.066080
    20  H    0.003456   0.049893  -0.024748   0.013612  -0.012055  -0.013363
    21  H   -0.016792  -0.024660  -0.005688   0.020462  -0.006214   0.005261
    22  H    0.378919  -0.019094   0.003584  -0.009413   0.003016  -0.009036
    23  H   -0.105902   0.367250   0.091877  -0.009655   0.001561   0.006487
    24  H    0.014994   0.031125   0.358595   0.005431   0.012361  -0.057496
    25  H    0.013808   0.033787   0.354737   0.005450   0.014995  -0.062786
              13         14         15         16         17         18
     1  C    0.196001  -1.078861   0.366584  -0.019851  -0.024847   0.049773
     2  C   -0.248018  -0.196343  -0.106256   0.379272  -0.016552   0.003137
     3  C   -0.170104  -0.200885  -0.001159  -0.016917   0.375897  -0.085163
     4  C   -1.505340  -0.317847   0.027434   0.013462  -0.067727   0.457218
     5  C   -0.310128  -1.583428   0.005716  -0.001524   0.000273   0.006661
     6  C    1.017116  -1.389059   0.001093  -0.000324   0.000396  -0.005042
     7  C   -0.906794   1.346278  -0.002637   0.000360  -0.000397   0.002029
     8  C    0.278044  -2.060987   0.005698   0.000680  -0.001305   0.007160
     9  C    1.617679  -1.948737   0.091504   0.003307  -0.005699  -0.024865
    10  C   -0.441348   2.414122  -0.009650  -0.009323   0.020490   0.013425
    11  C    1.096854  -4.808899  -0.030021   0.026277  -0.027462  -0.008323
    12  C   -4.823699   3.061535  -0.024430  -0.032181   0.091655  -0.053013
    13  C   14.531887  -3.747709   0.001617   0.003004  -0.006294  -0.012097
    14  C   -3.747709  16.043234   0.006534  -0.008986   0.005271  -0.013534
    15  H    0.001617   0.006534   0.439227  -0.009007   0.001487   0.000168
    16  H    0.003004  -0.008986  -0.009007   0.419550  -0.006683   0.001920
    17  H   -0.006294   0.005271   0.001487  -0.006683   0.422899  -0.010335
    18  H   -0.012097  -0.013534   0.000168   0.001920  -0.010335   0.453564
    19  H    0.079070  -0.065884   0.000306  -0.000546   0.001434  -0.006259
    20  H   -0.008443  -0.053327  -0.000114   0.000015  -0.000144   0.001272
    21  H   -0.027106   0.091322   0.000014  -0.000007   0.000011  -0.000144
    22  H    0.026576  -0.033114  -0.000127   0.000007  -0.000007   0.000015
    23  H   -0.030491  -0.024988   0.000575  -0.000127   0.000014  -0.000113
    24  H    0.011713  -0.056589  -0.001036   0.000669  -0.000157   0.000187
    25  H    0.015221  -0.063634  -0.000778   0.000589  -0.000129   0.000174
              19         20         21         22         23         24
     1  C   -0.046780   0.007246  -0.001316   0.000724   0.005728   0.029670
     2  C   -0.007770   0.002028  -0.000398   0.000363  -0.002674   0.014329
     3  C    0.051450  -0.005067   0.000397  -0.000325   0.001098  -0.001736
     4  C   -0.070780   0.006591   0.000279  -0.001528   0.005693  -0.011966
     5  C   -0.071711   0.457085  -0.067785   0.013655   0.027459  -0.012701
     6  C    0.051381  -0.085626   0.375816  -0.017173  -0.001228  -0.001520
     7  C   -0.007788   0.003456  -0.016792   0.378919  -0.105902   0.014994
     8  C   -0.046786   0.049893  -0.024660  -0.019094   0.367250   0.031125
     9  C    0.075499  -0.024748  -0.005688   0.003584   0.091877   0.358595
    10  C    0.422067   0.013612   0.020462  -0.009413  -0.009655   0.005431
    11  C    0.079690  -0.012055  -0.006214   0.003016   0.001561   0.012361
    12  C   -0.066080  -0.013363   0.005261  -0.009036   0.006487  -0.057496
    13  C    0.079070  -0.008443  -0.027106   0.026576  -0.030491   0.011713
    14  C   -0.065884  -0.053327   0.091322  -0.033114  -0.024988  -0.056589
    15  H    0.000306  -0.000114   0.000014  -0.000127   0.000575  -0.001036
    16  H   -0.000546   0.000015  -0.000007   0.000007  -0.000127   0.000669
    17  H    0.001434  -0.000144   0.000011  -0.000007   0.000014  -0.000157
    18  H   -0.006259   0.001272  -0.000144   0.000015  -0.000113   0.000187
    19  H    0.443285  -0.006299   0.001431  -0.000545   0.000311   0.000597
    20  H   -0.006299   0.453606  -0.010289   0.001934   0.000164   0.000172
    21  H    0.001431  -0.010289   0.422738  -0.006665   0.001481  -0.000150
    22  H   -0.000545   0.001934  -0.006665   0.419527  -0.009022   0.000643
    23  H    0.000311   0.000164   0.001481  -0.009022   0.439137  -0.000973
    24  H    0.000597   0.000172  -0.000150   0.000643  -0.000973   0.493518
    25  H    0.000607   0.000190  -0.000135   0.000612  -0.000855  -0.079532
              25
     1  C    0.035835
     2  C    0.014599
     3  C   -0.001224
     4  C   -0.012629
     5  C   -0.012070
     6  C   -0.001504
     7  C    0.013808
     8  C    0.033787
     9  C    0.354737
    10  C    0.005450
    11  C    0.014995
    12  C   -0.062786
    13  C    0.015221
    14  C   -0.063634
    15  H   -0.000778
    16  H    0.000589
    17  H   -0.000129
    18  H    0.000174
    19  H    0.000607
    20  H    0.000190
    21  H   -0.000135
    22  H    0.000612
    23  H   -0.000855
    24  H   -0.079532
    25  H    0.493669
 Mulliken charges:
               1
     1  C    0.090307
     2  C   -0.405801
     3  C   -0.440305
     4  C    0.016061
     5  C    0.016640
     6  C   -0.439888
     7  C   -0.403618
     8  C    0.091722
     9  C   -0.329317
    10  C    0.092524
    11  C   -0.640802
    12  C    0.686483
    13  C   -0.637210
    14  C    0.684514
    15  H    0.237259
    16  H    0.256363
    17  H    0.247909
    18  H    0.222186
    19  H    0.190098
    20  H    0.222213
    21  H    0.248137
    22  H    0.256473
    23  H    0.237196
    24  H    0.249851
    25  H    0.251004
 Sum of Mulliken charges =   1.00000
 Mulliken charges with hydrogens summed into heavy atoms:
               1
     1  C    0.327566
     2  C   -0.149438
     3  C   -0.192396
     4  C    0.238247
     5  C    0.238853
     6  C   -0.191751
     7  C   -0.147146
     8  C    0.328918
     9  C    0.171539
    10  C    0.282622
    11  C   -0.640802
    12  C    0.686483
    13  C   -0.637210
    14  C    0.684514
 Electronic spatial extent (au):  <R**2>=           2857.8745
 Charge=              1.0000 electrons
 Dipole moment (field-independent basis, Debye):
    X=              0.0040    Y=              0.1885    Z=             -0.0001  Tot=              0.1886
 Quadrupole moment (field-independent basis, Debye-Ang):
   XX=            -31.0725   YY=            -56.2623   ZZ=            -84.1580
   XY=              0.0022   XZ=              0.0037   YZ=              0.0235
 Traceless Quadrupole moment (field-independent basis, Debye-Ang):
   XX=             26.0918   YY=              0.9020   ZZ=            -26.9937
   XY=              0.0022   XZ=              0.0037   YZ=              0.0235
 Octapole moment (field-independent basis, Debye-Ang**2):
  XXX=              0.1646  YYY=              5.2103  ZZZ=             -0.0088  XYY=             -0.0015
  XXY=             -5.0130  XXZ=              0.0425  XZZ=             -0.0199  YZZ=             -3.0875
  YYZ=              0.0329  XYZ=              0.0185
 Hexadecapole moment (field-independent basis, Debye-Ang**3):
 XXXX=          -2123.2288 YYYY=           -609.2540 ZZZZ=            -99.3827 XXXY=              0.0933
 XXXZ=              0.1041 YYYX=             -0.0388 YYYZ=              0.2511 ZZZX=              0.0048
 ZZZY=              0.0129 XXYY=           -508.0531 XXZZ=           -591.2992 YYZZ=           -145.7245
 XXYZ=              0.2624 YYXZ=              0.0002 ZZXY=              0.0019
 N-N= 7.809651300822D+02 E-N=-2.798258910890D+03  KE= 5.374911178703D+02
 Unable to Open any file for archive entry.
 1\1\GINC-GADI-CPU-CLX-0113\SP\RM062X TD-FC\6-311++G(d,p)\C14H11(1+)\TS
 1578\28-Jul-2022\0\\#n M062X/6-311++G(d,p) TD(NStates=1) EmpiricalDisp
 ersion=GD3 SP\\SP_25\\1,1\C,0,0.00485,2.492055,1.360431\C,0,0.004825,3
 .703008,0.671989\C,0,0.0016,3.686211,-0.71383\C,0,-0.003825,2.465281,-
 1.407538\C,0,-0.003975,-2.465581,-1.407538\C,0,0.0007,-3.687711,-0.713
 83\C,0,0.0034,-3.703533,0.671989\C,0,0.002,-2.492955,1.360431\C,0,0.00
 215,0.0033,1.453369\C,0,-0.0061,-0.00015,-1.429189\C,0,-0.0008,1.26018
 ,0.677065\C,0,-0.0028,1.237996,-0.730804\C,0,-0.001025,-1.260105,0.677
 065\C,0,-0.0022,-1.237546,-0.730804\H,0,0.0027,2.487471,2.443647\H,0,0
 .005025,4.637628,1.211689\H,0,-0.0005,4.608212,-1.272349\H,0,-0.00205,
 2.46965,-2.490059\H,0,-0.005625,-0.000075,-2.510266\H,0,-0.0016,-2.469
 875,-2.490059\H,0,-0.00095,-4.610087,-1.272349\H,0,0.0033,-4.638753,1.
 211689\H,0,-0.0006,-2.488446,2.443647\H,0,-0.851585,0.00075,2.144962\H
 ,0,0.867585,0.00075,2.146612\\Version=ES64L-G16RevC.01\State=1-A\HF=-5
 39.7600434\RMSD=4.462e-09\PG=C01 [X(C14H11)]\\@
 The archive entry for this job was punched.


 DEPRESSION IS WAITING FOR YOUR SHIP TO COME IN,
 AND FINDING OUT IT'S THE TITANIC.
 Job cpu time:       0 days  1 hours 19 minutes 21.5 seconds.
 Elapsed time:       0 days  0 hours  1 minutes 39.3 seconds.
 File lengths (MBytes):  RWF=    460 Int=      0 D2E=      0 Chk=     15 Scr=      1
 Normal termination of Gaussian 16 at Thu Jul 28 15:32:01 2022.
