 Entering Gaussian System, Link 0=g16
 Initial command:
 /apps/gaussian/g16c01/g16/l1.exe "/jobfs/53002009.gadi-pbs/Gau-766898.inp" -scrdir="/jobfs/53002009.gadi-pbs/"
 Entering Link 1 = /apps/gaussian/g16c01/g16/l1.exe PID=    766899.
  
 Copyright (c) 1988-2019, Gaussian, Inc.  All Rights Reserved.
  
 This is part of the Gaussian(R) 16 program.  It is based on
 the Gaussian(R) 09 system (copyright 2009, Gaussian, Inc.),
 the Gaussian(R) 03 system (copyright 2003, Gaussian, Inc.),
 the Gaussian(R) 98 system (copyright 1998, Gaussian, Inc.),
 the Gaussian(R) 94 system (copyright 1995, Gaussian, Inc.),
 the Gaussian 92(TM) system (copyright 1992, Gaussian, Inc.),
 the Gaussian 90(TM) system (copyright 1990, Gaussian, Inc.),
 the Gaussian 88(TM) system (copyright 1988, Gaussian, Inc.),
 the Gaussian 86(TM) system (copyright 1986, Carnegie Mellon
 University), and the Gaussian 82(TM) system (copyright 1983,
 Carnegie Mellon University). Gaussian is a federally registered
 trademark of Gaussian, Inc.
  
 This software contains proprietary and confidential information,
 including trade secrets, belonging to Gaussian, Inc.
  
 This software is provided under written license and may be
 used, copied, transmitted, or stored only in accord with that
 written license.
  
 The following legend is applicable only to US Government
 contracts under FAR:
  
                    RESTRICTED RIGHTS LEGEND
  
 Use, reproduction and disclosure by the US Government is
 subject to restrictions as set forth in subparagraphs (a)
 and (c) of the Commercial Computer Software - Restricted
 Rights clause in FAR 52.227-19.
  
 Gaussian, Inc.
 340 Quinnipiac St., Bldg. 40, Wallingford CT 06492
  
  
 ---------------------------------------------------------------
 Warning -- This program may not be used in any manner that
 competes with the business of Gaussian, Inc. or will provide
 assistance to any competitor of Gaussian, Inc.  The licensee
 of this program is prohibited from giving any competitor of
 Gaussian, Inc. access to this program.  By using this program,
 the user acknowledges that Gaussian, Inc. is engaged in the
 business of creating and licensing software in the field of
 computational chemistry and represents and warrants to the
 licensee that it is not a competitor of Gaussian, Inc. and that
 it will not use this program in any manner prohibited above.
 ---------------------------------------------------------------
  

 Cite this work as:
 Gaussian 16, Revision C.01,
 M. J. Frisch, G. W. Trucks, H. B. Schlegel, G. E. Scuseria, 
 M. A. Robb, J. R. Cheeseman, G. Scalmani, V. Barone, 
 G. A. Petersson, H. Nakatsuji, X. Li, M. Caricato, A. V. Marenich, 
 J. Bloino, B. G. Janesko, R. Gomperts, B. Mennucci, H. P. Hratchian, 
 J. V. Ortiz, A. F. Izmaylov, J. L. Sonnenberg, D. Williams-Young, 
 F. Ding, F. Lipparini, F. Egidi, J. Goings, B. Peng, A. Petrone, 
 T. Henderson, D. Ranasinghe, V. G. Zakrzewski, J. Gao, N. Rega, 
 G. Zheng, W. Liang, M. Hada, M. Ehara, K. Toyota, R. Fukuda, 
 J. Hasegawa, M. Ishida, T. Nakajima, Y. Honda, O. Kitao, H. Nakai, 
 T. Vreven, K. Throssell, J. A. Montgomery, Jr., J. E. Peralta, 
 F. Ogliaro, M. J. Bearpark, J. J. Heyd, E. N. Brothers, K. N. Kudin, 
 V. N. Staroverov, T. A. Keith, R. Kobayashi, J. Normand, 
 K. Raghavachari, A. P. Rendell, J. C. Burant, S. S. Iyengar, 
 J. Tomasi, M. Cossi, J. M. Millam, M. Klene, C. Adamo, R. Cammi, 
 J. W. Ochterski, R. L. Martin, K. Morokuma, O. Farkas, 
 J. B. Foresman, and D. J. Fox, Gaussian, Inc., Wallingford CT, 2019.
 
 ******************************************
 Gaussian 16:  ES64L-G16RevC.01  3-Jul-2019
                28-Jul-2022 
 ******************************************
 %NProcShared=48
 Will use up to   48 processors via shared memory.
 %mem = 190GB
 ---------------------------------------------------------------
 #n M062X/6-311++G(d,p) TD(NStates=1) EmpiricalDispersion=GD3 SP
 ---------------------------------------------------------------
 1/38=1,172=1/1;
 2/12=2,17=6,18=5,40=1/2;
 3/5=4,6=6,7=1111,11=9,25=1,30=1,74=-55,124=31/1,2,3,8;
 4//1;
 5/5=2,38=5/2;
 8/6=1,10=2,108=1/1;
 9/41=1,42=1,70=2/14;
 6/7=2,8=2,9=2,10=2/1;
 99/5=1,9=1/99;
 -----
 SP_25
 -----
 Symbolic Z-matrix:
 Charge =  1 Multiplicity = 1
 C                    -0.01855   2.49386   1.36043 
 C                    -0.02128   3.69296   0.67199 
 C                    -0.0062    3.66911  -0.71383 
 C                     0.01942   2.45193  -1.40754 
 C                     0.01957  -2.45163  -1.40754 
 C                    -0.0053   -3.66761  -0.71383 
 C                    -0.01985  -3.69243   0.67199 
 C                    -0.0157   -2.49296   1.36043 
 C                    -0.0109   -0.0033    1.45337 
 C                     0.0305    0.00015  -1.42919 
 C                     0.00445   1.27158   0.67707 
 C                     0.0128    1.23575  -0.7308 
 C                     0.00468  -1.27165   0.67707 
 C                     0.0122   -1.2362   -0.7308 
 H                    -0.0069    2.48912   2.44365 
 H                    -0.02168   4.63013   1.21169 
 H                     0.0034    4.61076  -1.27235 
 H                     0.00935   2.4566   -2.49006 
 H                     0.02813   0.00008  -2.51027 
 H                     0.0089   -2.45638  -2.49006 
 H                     0.00385  -4.60889  -1.27235 
 H                    -0.01995  -4.629     1.21169 
 H                    -0.0036   -2.48815   2.44365 
 H                    -0.89959  -0.00075   2.14661 
 H                     0.81959  -0.00075   2.14496 
 
                          Input orientation:                          
 ---------------------------------------------------------------------
 Center     Atomic      Atomic             Coordinates (Angstroms)
 Number     Number       Type             X           Y           Z
 ---------------------------------------------------------------------
      1          6           0       -0.018550    2.493855    1.360431
      2          6           0       -0.021275    3.692958    0.671989
      3          6           0       -0.006200    3.669111   -0.713830
      4          6           0        0.019425    2.451931   -1.407538
      5          6           0        0.019575   -2.451631   -1.407538
      6          6           0       -0.005300   -3.667611   -0.713830
      7          6           0       -0.019850   -3.692433    0.671989
      8          6           0       -0.015700   -2.492955    1.360431
      9          6           0       -0.010900   -0.003300    1.453369
     10          6           0        0.030500    0.000150   -1.429189
     11          6           0        0.004450    1.271580    0.677065
     12          6           0        0.012800    1.235746   -0.730804
     13          6           0        0.004675   -1.271655    0.677065
     14          6           0        0.012200   -1.236196   -0.730804
     15          1           0       -0.006900    2.489121    2.443647
     16          1           0       -0.021675    4.630128    1.211689
     17          1           0        0.003400    4.610762   -1.272349
     18          1           0        0.009350    2.456600   -2.490059
     19          1           0        0.028125    0.000075   -2.510266
     20          1           0        0.008900   -2.456375   -2.490059
     21          1           0        0.003850   -4.608887   -1.272349
     22          1           0       -0.019950   -4.629003    1.211689
     23          1           0       -0.003600   -2.488146    2.443647
     24          1           0       -0.899585   -0.000750    2.146612
     25          1           0        0.819585   -0.000750    2.144962
 ---------------------------------------------------------------------
                    Distance matrix (angstroms):
                    1          2          3          4          5
     1  C    0.000000
     2  C    1.382681   0.000000
     3  C    2.384101   1.386106   0.000000
     4  C    2.768547   2.422032   1.401219   0.000000
     5  C    5.667534   6.487070   6.159982   4.903562   0.000000
     6  C    6.501261   7.489908   7.336722   6.158785   1.400163
     7  C    6.224477   7.385391   7.490862   6.486847   2.421895
     8  C    4.986811   6.224107   6.501823   5.666991   2.768502
     9  C    2.498896   3.777961   4.264197   3.770128   3.765640
    10  C    3.742052   4.249054   3.738230   2.451902   2.451901
    11  C    1.400526   2.421520   2.771797   2.395626   4.267095
    12  C    2.440714   2.829643   2.433498   1.391804   3.748968
    13  C    3.827087   4.964683   5.132823   4.267421   2.395440
    14  C    4.276387   5.124989   4.905371   3.749707   1.391153
    15  H    1.083289   2.142009   3.370762   3.851455   6.264452
    16  H    2.141447   1.081464   2.152073   3.406843   7.550719
    17  H    3.378359   2.150215   1.094871   2.163119   7.063705
    18  H    3.850771   3.395301   2.150678   1.082578   5.026200
    19  H    4.604716   4.875097   4.085362   2.688435   2.688298
    20  H    6.271507   6.914749   6.377836   5.026274   1.082584
    21  H    7.575023   8.526530   8.296824   7.062129   2.161545
    22  H    7.124411   8.339443   8.518598   7.549936   3.406297
    23  H    5.098423   6.430018   6.919645   6.263906   3.851428
    24  H    2.759956   4.073011   4.737947   4.414998   4.414029
    25  H    2.746091   4.064502   4.724668   4.390462   4.389429
                    6          7          8          9         10
     6  C    0.000000
     7  C    1.386118   0.000000
     8  C    2.383796   1.383010   0.000000
     9  C    4.257224   3.770986   2.491394   0.000000
    10  C    3.737043   4.248841   3.741616   2.882857   0.000000
    11  C    5.131305   4.964075   3.826110   1.492716   2.460390
    12  C    4.903420   5.124046   4.275194   2.511256   1.419420
    13  C    2.770432   2.420908   1.399635   1.487150   2.460581
    14  C    2.431537   2.828773   2.439977   2.508222   1.420080
    15  H    6.919177   6.430439   5.098482   2.681945   4.603828
    16  H    8.518237   8.340042   7.124638   4.639739   5.330446
    17  H    8.297197   8.527839   7.575928   5.359040   4.613358
    18  H    6.376611   6.914478   6.270964   4.647811   2.675825
    19  H    4.084143   4.874799   4.604282   3.963829   1.081080
    20  H    2.149950   3.395175   3.850742   4.644200   2.675897
    21  H    1.094545   2.149628   3.377733   5.351746   4.611782
    22  H    2.152234   1.080944   2.141225   4.632021   5.329713
    23  H    3.370579   2.142275   1.083294   2.674914   4.603438
    24  H    4.735794   4.071483   2.758699   1.127100   3.694782
    25  H    4.722181   4.062367   2.743041   1.080746   3.660220
                   11         12         13         14         15
    11  C    0.000000
    12  C    1.408350   0.000000
    13  C    2.543235   2.875625   0.000000
    14  C    2.875951   2.471942   1.408336   0.000000
    15  H    2.145541   3.412986   4.155043   4.894435   0.000000
    16  H    3.400934   3.911048   5.926007   6.179659   2.470192
    17  H    3.866569   3.418200   6.197019   5.871990   4.279029
    18  H    3.381563   2.141372   4.891889   4.090444   4.933840
    19  H    3.431671   2.166472   3.431753   2.166819   5.544171
    20  H    4.891661   4.089835   3.381457   2.140987   6.985674
    21  H    6.195168   5.869675   3.864885   3.415902   8.011895
    22  H    5.924804   6.178158   3.399737   3.909661   7.223959
    23  H    4.154084   4.893340   2.144931   3.412443   4.977268
    24  H    2.143752   3.262038   2.143001   3.261472   2.661686
    25  H    2.106654   3.232623   2.105706   3.232372   2.640407
                   16         17         18         19         20
    16  H    0.000000
    17  H    2.484240   0.000000
    18  H    4.292799   2.474524   0.000000
    19  H    5.940776   4.774043   2.456680   0.000000
    20  H    7.995148   7.171281   4.912975   2.456608   0.000000
    21  H    9.567157   9.219649   7.169655   4.772375   2.473085
    22  H    9.259131   9.567876   7.994346   5.940002   4.292328
    23  H    7.224117   8.012688   6.985137   5.543781   4.933824
    24  H    4.805189   5.811258   5.325735   4.748385   5.324862
    25  H    4.798307   5.797432   5.308340   4.722029   5.307610
                   21         22         23         24         25
    21  H    0.000000
    22  H    2.484233   0.000000
    23  H    4.278577   2.470072   0.000000
    24  H    5.808650   4.802975   2.660481   0.000000
    25  H    5.794684   4.795471   2.637041   1.719171   0.000000
 Stoichiometry    C14H11(1+)
 Framework group  C1[X(C14H11)]
 Deg. of freedom    69
 Full point group                 C1      NOp   1
 Largest Abelian subgroup         C1      NOp   1
 Largest concise Abelian subgroup C1      NOp   1
                         Standard orientation:                         
 ---------------------------------------------------------------------
 Center     Atomic      Atomic             Coordinates (Angstroms)
 Number     Number       Type             X           Y           Z
 ---------------------------------------------------------------------
      1          6           0        2.493772   -1.360700    0.002669
      2          6           0        3.692918   -0.672403    0.012757
      3          6           0        3.669156    0.713499    0.012942
      4          6           0        2.452015    1.407522   -0.004826
      5          6           0       -2.451547    1.407823   -0.004096
      6          6           0       -3.667566    0.713958    0.013359
      7          6           0       -3.692473   -0.671936    0.012657
      8          6           0       -2.493039   -1.360364    0.000714
      9          6           0       -0.003391   -1.453396   -0.005556
     10          6           0        0.000234    1.429443   -0.015222
     11          6           0        1.271536   -0.677048   -0.012588
     12          6           0        1.235789    0.730830   -0.005433
     13          6           0       -1.271699   -0.676890   -0.012357
     14          6           0       -1.236153    0.730975   -0.004389
     15          1           0        2.488967   -2.443722   -0.020904
     16          1           0        4.630054   -1.212132    0.007047
     17          1           0        4.610841    1.272033    0.009322
     18          1           0        2.456755    2.489866    0.017164
     19          1           0        0.000227    2.510429   -0.000947
     20          1           0       -2.456220    2.490161    0.018496
     21          1           0       -4.608808    1.272601    0.010527
     22          1           0       -4.629077   -1.211547    0.006984
     23          1           0       -2.488300   -2.443381   -0.023311
     24          1           0       -0.000725   -2.156380    0.875443
     25          1           0       -0.001033   -2.135805   -0.843604
 ---------------------------------------------------------------------
 Rotational constants (GHZ):           2.1357835           0.4466971           0.3702470
 Standard basis: 6-311++G(d,p) (5D, 7F)
 There are   399 symmetry adapted cartesian basis functions of A   symmetry.
 There are   385 symmetry adapted basis functions of A   symmetry.
   385 basis functions,   603 primitive gaussians,   399 cartesian basis functions
    47 alpha electrons       47 beta electrons
       nuclear repulsion energy       782.3280457159 Hartrees.
 NAtoms=   25 NActive=   25 NUniq=   25 SFac= 1.00D+00 NAtFMM=   60 NAOKFM=F Big=F
 Integral buffers will be    131072 words long.
 Regular integral format.
 Two-electron integral symmetry is turned on.
 Nuclear repulsion after empirical dispersion term =      782.3270665744 Hartrees.
 One-electron integrals computed using PRISM.
 NBasis=   385 RedAO= T EigKep=  1.21D-06  NBF=   385
 NBsUse=   379 1.00D-06 EigRej=  8.27D-07 NBFU=   379
 ExpMin= 3.60D-02 ExpMax= 4.56D+03 ExpMxC= 6.82D+02 IAcc=3 IRadAn=         5 AccDes= 0.00D+00
 Harris functional with IExCor= 1009 and IRadAn=       5 diagonalized for initial guess.
 HarFok:  IExCor= 1009 AccDes= 0.00D+00 IRadAn=         5 IDoV= 1 UseB2=F ITyADJ=14
 ICtDFT=  3500011 ScaDFX=  1.000000  1.000000  1.000000  1.000000
 FoFCou: FMM=F IPFlag=           0 FMFlag=      100000 FMFlg1=           0
         NFxFlg=           0 DoJE=T BraDBF=F KetDBF=T FulRan=T
         wScrn=  0.000000 ICntrl=       500 IOpCl=  0 I1Cent=   200000004 NGrid=           0
         NMat0=    1 NMatS0=      1 NMatT0=    0 NMatD0=    1 NMtDS0=    0 NMtDT0=    0
 Petite list used in FoFCou.
 Requested convergence on RMS density matrix=1.00D-08 within 128 cycles.
 Requested convergence on MAX density matrix=1.00D-06.
 Requested convergence on             energy=1.00D-06.
 No special actions if energy rises.
 SCF Done:  E(RM062X) =  -539.758987986     A.U. after   15 cycles
            NFock= 15  Conv=0.48D-08     -V/T= 2.0041
 DoSCS=F DFT=T ScalE2(SS,OS)=  1.000000  1.000000
 ExpMin= 3.60D-02 ExpMax= 4.56D+03 ExpMxC= 6.82D+02 IAcc=3 IRadAn=         5 AccDes= 0.00D+00
 HarFok:  IExCor=  205 AccDes= 0.00D+00 IRadAn=         5 IDoV=-2 UseB2=F ITyADJ=14
 ICtDFT= 12500011 ScaDFX=  1.000000  1.000000  1.000000  1.000000
 Range of M.O.s used for correlation:    15   379
 NBasis=   385 NAE=    47 NBE=    47 NFC=    14 NFV=     0
 NROrb=    365 NOA=    33 NOB=    33 NVA=   332 NVB=   332

 **** Warning!!: The largest alpha MO coefficient is  0.14672836D+03

 Orbital symmetries:
       Occupied  (A) (A) (A) (A) (A) (A) (A) (A) (A) (A) (A) (A)
                 (A) (A) (A) (A) (A) (A) (A) (A) (A) (A) (A) (A)
                 (A) (A) (A) (A) (A) (A) (A) (A) (A) (A) (A) (A)
                 (A) (A) (A) (A) (A) (A) (A) (A) (A) (A) (A)
       Virtual   (A) (A) (A) (A) (A) (A) (A) (A) (A) (A) (A) (A)
                 (A) (A) (A) (A) (A) (A) (A) (A) (A) (A) (A) (A)
                 (A) (A) (A) (A) (A) (A) (A) (A) (A) (A) (A) (A)
                 (A) (A) (A) (A) (A) (A) (A) (A) (A) (A) (A) (A)
                 (A) (A) (A) (A) (A) (A) (A) (A) (A) (A) (A) (A)
                 (A) (A) (A) (A) (A) (A) (A) (A) (A) (A) (A) (A)
                 (A) (A) (A) (A) (A) (A) (A) (A) (A) (A) (A) (A)
                 (A) (A) (A) (A) (A) (A) (A) (A) (A) (A) (A) (A)
                 (A) (A) (A) (A) (A) (A) (A) (A) (A) (A) (A) (A)
                 (A) (A) (A) (A) (A) (A) (A) (A) (A) (A) (A) (A)
                 (A) (A) (A) (A) (A) (A) (A) (A) (A) (A) (A) (A)
                 (A) (A) (A) (A) (A) (A) (A) (A) (A) (A) (A) (A)
                 (A) (A) (A) (A) (A) (A) (A) (A) (A) (A) (A) (A)
                 (A) (A) (A) (A) (A) (A) (A) (A) (A) (A) (A) (A)
                 (A) (A) (A) (A) (A) (A) (A) (A) (A) (A) (A) (A)
                 (A) (A) (A) (A) (A) (A) (A) (A) (A) (A) (A) (A)
                 (A) (A) (A) (A) (A) (A) (A) (A) (A) (A) (A) (A)
                 (A) (A) (A) (A) (A) (A) (A) (A) (A) (A) (A) (A)
                 (A) (A) (A) (A) (A) (A) (A) (A) (A) (A) (A) (A)
                 (A) (A) (A) (A) (A) (A) (A) (A) (A) (A) (A) (A)
                 (A) (A) (A) (A) (A) (A) (A) (A) (A) (A) (A) (A)
                 (A) (A) (A) (A) (A) (A) (A) (A) (A) (A) (A) (A)
                 (A) (A) (A) (A) (A) (A) (A) (A) (A) (A) (A) (A)
                 (A) (A) (A) (A) (A) (A) (A) (A) (A) (A) (A) (A)
                 (A) (A) (A) (A) (A) (A) (A) (A) (A) (A) (A) (A)
                 (A) (A) (A) (A) (A) (A) (A) (A) (A) (A) (A) (A)
                 (A) (A) (A) (A) (A) (A) (A) (A) (A) (A) (A) (A)
                 (A) (A) (A) (A) (A) (A) (A) (A)
     4 initial guesses have been made.
 Convergence on wavefunction:    0.001000000000000
 Iteration     1 Dimension     4 NMult     0 NNew      4
 CISAX will form     4 AO SS matrices at one time.
 Iteration     2 Dimension     6 NMult     4 NNew      2
 Iteration     3 Dimension     8 NMult     6 NNew      2
 Iteration     4 Dimension    10 NMult     8 NNew      2
 Iteration     5 Dimension    12 NMult    10 NNew      2
 Iteration     6 Dimension    14 NMult    12 NNew      2
 ***********************************************************************
 Excited states from <AA,BB:AA,BB> singles matrix:
 ***********************************************************************
 
 Ground to excited state transition densities written to RWF  633
 Ground to excited state transition electric dipole moments (Au):
       state          X           Y           Z        Dip. S.      Osc.
         1        -0.0041     -0.6523      0.0052      0.4255      0.0296
 Ground to excited state transition velocity dipole moments (Au):
       state          X           Y           Z        Dip. S.      Osc.
         1         0.0004      0.0756     -0.0006      0.0057      0.0365
 Ground to excited state transition magnetic dipole moments (Au):
       state          X           Y           Z
         1        -0.0069      0.0004      0.0003
 Ground to excited state transition velocity quadrupole moments (Au):
       state          XX          YY          ZZ          XY          XZ          YZ
         1         0.2822      0.0379     -0.0100      0.0007     -0.0001      0.0009
 <0|del|b> * <b|rxdel|0> + <0|del|b> * <b|delr+rdel|0>
 Rotatory Strengths (R) in cgs (10**-40 erg-esu-cm/Gauss)
       state          XX          YY          ZZ    R(velocity)    E-M Angle
         1         0.1044     -0.0079      0.0646      0.0537       90.00
 1/2[<0|r|b>*<b|rxdel|0> + (<0|rxdel|b>*<b|r|0>)*]
 Rotatory Strengths (R) in cgs (10**-40 erg-esu-cm/Gauss)
       state          XX          YY          ZZ     R(length)
         1        -0.0200      0.1644     -0.0010      0.0478
  1/2[<0|del|b>*<b|r|0> + (<0|r|b>*<b|del|0>)*] (Au)
       state          X           Y           Z        Dip. S.   Osc.(frdel)
         1        -0.0000     -0.0493     -0.0000      0.0493      0.0329

 Excitation energies and oscillator strengths:
 
 Excited State   1:      Singlet-A      2.8396 eV  436.62 nm  f=0.0296  <S**2>=0.000
      47 -> 48         0.70424
 This state for optimization and/or second-order correction.
 Total Energy, E(TD-HF/TD-DFT) =  -539.654633959    
 Copying the excited state density for this state as the 1-particle RhoCI density.
 SavETr:  write IOETrn=   770 NScale= 10 NData=  16 NLR=1 NState=    1 LETran=      28.

 **********************************************************************

            Population analysis using the SCF Density.

 **********************************************************************

 Orbital symmetries:
       Occupied  (A) (A) (A) (A) (A) (A) (A) (A) (A) (A) (A) (A)
                 (A) (A) (A) (A) (A) (A) (A) (A) (A) (A) (A) (A)
                 (A) (A) (A) (A) (A) (A) (A) (A) (A) (A) (A) (A)
                 (A) (A) (A) (A) (A) (A) (A) (A) (A) (A) (A)
       Virtual   (A) (A) (A) (A) (A) (A) (A) (A) (A) (A) (A) (A)
                 (A) (A) (A) (A) (A) (A) (A) (A) (A) (A) (A) (A)
                 (A) (A) (A) (A) (A) (A) (A) (A) (A) (A) (A) (A)
                 (A) (A) (A) (A) (A) (A) (A) (A) (A) (A) (A) (A)
                 (A) (A) (A) (A) (A) (A) (A) (A) (A) (A) (A) (A)
                 (A) (A) (A) (A) (A) (A) (A) (A) (A) (A) (A) (A)
                 (A) (A) (A) (A) (A) (A) (A) (A) (A) (A) (A) (A)
                 (A) (A) (A) (A) (A) (A) (A) (A) (A) (A) (A) (A)
                 (A) (A) (A) (A) (A) (A) (A) (A) (A) (A) (A) (A)
                 (A) (A) (A) (A) (A) (A) (A) (A) (A) (A) (A) (A)
                 (A) (A) (A) (A) (A) (A) (A) (A) (A) (A) (A) (A)
                 (A) (A) (A) (A) (A) (A) (A) (A) (A) (A) (A) (A)
                 (A) (A) (A) (A) (A) (A) (A) (A) (A) (A) (A) (A)
                 (A) (A) (A) (A) (A) (A) (A) (A) (A) (A) (A) (A)
                 (A) (A) (A) (A) (A) (A) (A) (A) (A) (A) (A) (A)
                 (A) (A) (A) (A) (A) (A) (A) (A) (A) (A) (A) (A)
                 (A) (A) (A) (A) (A) (A) (A) (A) (A) (A) (A) (A)
                 (A) (A) (A) (A) (A) (A) (A) (A) (A) (A) (A) (A)
                 (A) (A) (A) (A) (A) (A) (A) (A) (A) (A) (A) (A)
                 (A) (A) (A) (A) (A) (A) (A) (A) (A) (A) (A) (A)
                 (A) (A) (A) (A) (A) (A) (A) (A) (A) (A) (A) (A)
                 (A) (A) (A) (A) (A) (A) (A) (A) (A) (A) (A) (A)
                 (A) (A) (A) (A) (A) (A) (A) (A) (A) (A) (A) (A)
                 (A) (A) (A) (A) (A) (A) (A) (A) (A) (A) (A) (A)
                 (A) (A) (A) (A) (A) (A) (A) (A) (A) (A) (A) (A)
                 (A) (A) (A) (A) (A) (A) (A) (A) (A) (A) (A) (A)
                 (A) (A) (A) (A) (A) (A) (A) (A) (A) (A) (A) (A)
                 (A) (A) (A) (A) (A) (A) (A) (A)
 The electronic state is 1-A.
 Alpha  occ. eigenvalues --  -10.77678 -10.73226 -10.73184 -10.72336 -10.72333
 Alpha  occ. eigenvalues --  -10.71251 -10.71229 -10.70973 -10.70932 -10.70925
 Alpha  occ. eigenvalues --  -10.69845 -10.69829 -10.69687 -10.69667  -1.16530
 Alpha  occ. eigenvalues --   -1.12728  -1.07089  -1.05643  -1.01582  -1.00135
 Alpha  occ. eigenvalues --   -0.95882  -0.91029  -0.86436  -0.85949  -0.83826
 Alpha  occ. eigenvalues --   -0.78427  -0.76039  -0.74470  -0.69562  -0.69224
 Alpha  occ. eigenvalues --   -0.68505  -0.68095  -0.67932  -0.64937  -0.64454
 Alpha  occ. eigenvalues --   -0.62888  -0.61693  -0.60076  -0.59868  -0.59018
 Alpha  occ. eigenvalues --   -0.56872  -0.55148  -0.54736  -0.52541  -0.46823
 Alpha  occ. eigenvalues --   -0.46030  -0.44608
 Alpha virt. eigenvalues --   -0.26118  -0.14549  -0.14068  -0.12626  -0.11182
 Alpha virt. eigenvalues --   -0.10095  -0.09249  -0.08040  -0.07945  -0.07484
 Alpha virt. eigenvalues --   -0.07215  -0.07118  -0.05639  -0.05581  -0.05310
 Alpha virt. eigenvalues --   -0.03863  -0.03710  -0.03278  -0.03129  -0.02165
 Alpha virt. eigenvalues --   -0.01384  -0.00965   0.00196   0.00534   0.00678
 Alpha virt. eigenvalues --    0.01067   0.01512   0.01959   0.02226   0.02281
 Alpha virt. eigenvalues --    0.02459   0.02673   0.02875   0.03186   0.03331
 Alpha virt. eigenvalues --    0.04230   0.04510   0.04706   0.05104   0.05383
 Alpha virt. eigenvalues --    0.05966   0.06310   0.06616   0.07037   0.07268
 Alpha virt. eigenvalues --    0.07912   0.08271   0.08342   0.08596   0.08923
 Alpha virt. eigenvalues --    0.09532   0.09560   0.10034   0.10869   0.11053
 Alpha virt. eigenvalues --    0.11145   0.12185   0.12212   0.12919   0.12963
 Alpha virt. eigenvalues --    0.13425   0.13469   0.14014   0.14504   0.15976
 Alpha virt. eigenvalues --    0.16235   0.16587   0.17312   0.17501   0.17729
 Alpha virt. eigenvalues --    0.18129   0.19166   0.19312   0.19689   0.19758
 Alpha virt. eigenvalues --    0.21602   0.21662   0.22670   0.23061   0.23561
 Alpha virt. eigenvalues --    0.23791   0.24595   0.25021   0.26869   0.27715
 Alpha virt. eigenvalues --    0.28839   0.29271   0.29829   0.31404   0.35803
 Alpha virt. eigenvalues --    0.36606   0.38143   0.39382   0.41112   0.41335
 Alpha virt. eigenvalues --    0.41976   0.42082   0.42954   0.43842   0.44219
 Alpha virt. eigenvalues --    0.44890   0.45223   0.45840   0.46192   0.47892
 Alpha virt. eigenvalues --    0.48475   0.48860   0.48998   0.50380   0.51295
 Alpha virt. eigenvalues --    0.51645   0.51742   0.52168   0.53201   0.53913
 Alpha virt. eigenvalues --    0.54017   0.54784   0.55743   0.55791   0.57333
 Alpha virt. eigenvalues --    0.58265   0.58815   0.61468   0.62218   0.62282
 Alpha virt. eigenvalues --    0.63160   0.63571   0.64572   0.65198   0.66820
 Alpha virt. eigenvalues --    0.70443   0.70559   0.71027   0.72440   0.72806
 Alpha virt. eigenvalues --    0.75735   0.75784   0.76305   0.76606   0.76936
 Alpha virt. eigenvalues --    0.77672   0.77812   0.78265   0.80329   0.80473
 Alpha virt. eigenvalues --    0.81342   0.81606   0.82178   0.83061   0.84964
 Alpha virt. eigenvalues --    0.87034   0.87709   0.88009   0.89713   0.90447
 Alpha virt. eigenvalues --    0.90959   0.91515   0.93520   0.94821   0.96284
 Alpha virt. eigenvalues --    0.96736   1.00234   1.01331   1.01850   1.02947
 Alpha virt. eigenvalues --    1.03230   1.04120   1.04618   1.05586   1.09058
 Alpha virt. eigenvalues --    1.19282   1.23224   1.24079   1.25421   1.28135
 Alpha virt. eigenvalues --    1.30082   1.31351   1.34509   1.35884   1.36239
 Alpha virt. eigenvalues --    1.39467   1.40092   1.40990   1.43406   1.43585
 Alpha virt. eigenvalues --    1.43726   1.45246   1.45489   1.46447   1.46641
 Alpha virt. eigenvalues --    1.47829   1.48459   1.51767   1.53745   1.55810
 Alpha virt. eigenvalues --    1.56176   1.56433   1.56809   1.57972   1.61687
 Alpha virt. eigenvalues --    1.63014   1.63215   1.63387   1.66233   1.68139
 Alpha virt. eigenvalues --    1.68585   1.68739   1.69721   1.74728   1.76005
 Alpha virt. eigenvalues --    1.77224   1.78088   1.79912   1.80582   1.81225
 Alpha virt. eigenvalues --    1.83061   1.83361   1.83390   1.84037   1.84169
 Alpha virt. eigenvalues --    1.84484   1.86106   1.86249   1.88375   1.91267
 Alpha virt. eigenvalues --    1.92183   1.94078   1.95172   1.98019   1.98642
 Alpha virt. eigenvalues --    2.00221   2.02296   2.04716   2.06813   2.11995
 Alpha virt. eigenvalues --    2.12126   2.13966   2.15314   2.19833   2.21161
 Alpha virt. eigenvalues --    2.23206   2.28931   2.30466   2.34359   2.35367
 Alpha virt. eigenvalues --    2.36272   2.38022   2.38631   2.41991   2.42656
 Alpha virt. eigenvalues --    2.46880   2.48680   2.49638   2.53129   2.53771
 Alpha virt. eigenvalues --    2.54098   2.56582   2.58009   2.58524   2.59795
 Alpha virt. eigenvalues --    2.60028   2.61484   2.62229   2.63506   2.64051
 Alpha virt. eigenvalues --    2.64747   2.64990   2.65386   2.65397   2.67941
 Alpha virt. eigenvalues --    2.68233   2.71157   2.71353   2.73502   2.74852
 Alpha virt. eigenvalues --    2.76466   2.79158   2.79965   2.83224   2.83483
 Alpha virt. eigenvalues --    2.85464   2.86464   2.92211   2.96639   2.99859
 Alpha virt. eigenvalues --    3.00468   3.04425   3.11843   3.12137   3.13967
 Alpha virt. eigenvalues --    3.20771   3.23380   3.27402   3.28571   3.31236
 Alpha virt. eigenvalues --    3.33581   3.33734   3.43521   3.46118   3.47870
 Alpha virt. eigenvalues --    3.49340   3.50934   3.56662   3.64925   3.67502
 Alpha virt. eigenvalues --    3.67653   3.92777   3.93693   3.94693   3.96164
 Alpha virt. eigenvalues --    4.03282   4.06939   4.07697   4.12517   4.35241
 Alpha virt. eigenvalues --    4.60910   4.70445   4.72335  23.45094  23.59607
 Alpha virt. eigenvalues --   23.82683  23.85077  23.88120  23.89925  23.90675
 Alpha virt. eigenvalues --   23.92481  23.98530  24.00817  24.01769  24.01957
 Alpha virt. eigenvalues --   24.11748  24.11869
          Condensed to atoms (all electrons):
               1          2          3          4          5          6
     1  C    8.467678   0.510033  -0.595644   1.690810   0.003439  -0.094663
     2  C    0.510033   7.021381   0.378995  -0.884790  -0.050925  -0.017274
     3  C   -0.595644   0.378995   6.633897   0.707206  -0.113967   0.018051
     4  C    1.690810  -0.884790   0.707206  10.394195  -0.206584  -0.115762
     5  C    0.003439  -0.050925  -0.113967  -0.206584  10.346957   0.713219
     6  C   -0.094663  -0.017274   0.018051  -0.115762   0.713219   6.637977
     7  C   -0.026457   0.008461  -0.017218  -0.050219  -0.883606   0.380185
     8  C    0.412420  -0.027661  -0.094733   0.008544   1.673985  -0.590199
     9  C   -1.419274  -0.632154   0.270822  -0.412981  -0.433886   0.270345
    10  C   -1.147074   0.166898  -0.363820  -2.404324  -2.395382  -0.372886
    11  C    0.255274  -0.989842   1.015043  -0.223401  -1.550979  -0.198342
    12  C   -1.688535   1.036416  -1.316369  -1.073253  -0.244338  -0.191592
    13  C    0.186206  -0.161637  -0.197718  -1.562148  -0.233723   1.022499
    14  C   -1.051893  -0.226272  -0.192338  -0.259791  -1.018293  -1.330369
    15  H    0.361435  -0.099624  -0.002866   0.023058   0.005903   0.001226
    16  H   -0.020160   0.379018  -0.014521   0.013967  -0.001667  -0.000358
    17  H   -0.019467  -0.020431   0.371646  -0.061312   0.000355   0.000406
    18  H    0.047110   0.004640  -0.087681   0.446358   0.009287  -0.004915
    19  H   -0.045598  -0.007846   0.050266  -0.063196  -0.061438   0.050493
    20  H    0.007848   0.001732  -0.004873   0.009358   0.445468  -0.087227
    21  H   -0.001329  -0.000393   0.000404   0.000360  -0.060914   0.371669
    22  H    0.000765   0.000377  -0.000357  -0.001675   0.013746  -0.014194
    23  H    0.005917  -0.002669   0.001212   0.005988   0.022852  -0.002726
    24  H    0.046556   0.013385  -0.000921  -0.012055  -0.011378  -0.001152
    25  H    0.021976   0.015321  -0.002541  -0.011205  -0.011560  -0.002253
               7          8          9         10         11         12
     1  C   -0.026457   0.412420  -1.419274  -1.147074   0.255274  -1.688535
     2  C    0.008461  -0.027661  -0.632154   0.166898  -0.989842   1.036416
     3  C   -0.017218  -0.094733   0.270822  -0.363820   1.015043  -1.316369
     4  C   -0.050219   0.008544  -0.412981  -2.404324  -0.223401  -1.073253
     5  C   -0.883606   1.673985  -0.433886  -2.395382  -1.550979  -0.244338
     6  C    0.380185  -0.590199   0.270345  -0.372886  -0.198342  -0.191592
     7  C    7.027607   0.514089  -0.629855   0.167886  -0.165744  -0.228552
     8  C    0.514089   8.468857  -1.436763  -1.145362   0.180872  -1.060925
     9  C   -0.629855  -1.436763   9.172369   0.444886   1.548446  -1.435431
    10  C    0.167886  -1.145362   0.444886   9.167927  -0.514302   2.184782
    11  C   -0.165744   0.180872   1.548446  -0.514302  14.160092  -3.725403
    12  C   -0.228552  -1.060925  -1.435431   2.184782  -3.725403  15.168877
    13  C   -0.992696   0.264204   1.558816  -0.525437   1.290703  -4.540398
    14  C    1.028869  -1.663091  -1.423371   2.164261  -4.549754   2.707923
    15  H   -0.002688   0.005904   0.083927  -0.008735  -0.020748  -0.019491
    16  H    0.000380   0.000809   0.004495  -0.010819   0.031976  -0.039072
    17  H   -0.000392  -0.001333  -0.004000   0.018765  -0.023898   0.081247
    18  H    0.001720   0.007916  -0.028142   0.020577  -0.010312  -0.048420
    19  H   -0.007854  -0.045588   0.074896   0.422289   0.065218  -0.061507
    20  H    0.004469   0.046774  -0.028265   0.020912  -0.009632  -0.011269
    21  H   -0.020209  -0.019391  -0.004024   0.018725  -0.006180   0.004598
    22  H    0.379332  -0.020924   0.004268  -0.010772   0.003223  -0.009463
    23  H   -0.099510   0.360871   0.083328  -0.008665  -0.000807   0.007000
    24  H    0.012796   0.045033   0.344432   0.004792   0.019806  -0.074493
    25  H    0.015984   0.024067   0.363775   0.004498   0.004316  -0.042626
              13         14         15         16         17         18
     1  C    0.186206  -1.051893   0.361435  -0.020160  -0.019467   0.047110
     2  C   -0.161637  -0.226272  -0.099624   0.379018  -0.020431   0.004640
     3  C   -0.197718  -0.192338  -0.002866  -0.014521   0.371646  -0.087681
     4  C   -1.562148  -0.259791   0.023058   0.013967  -0.061312   0.446358
     5  C   -0.233723  -1.018293   0.005903  -0.001667   0.000355   0.009287
     6  C    1.022499  -1.330369   0.001226  -0.000358   0.000406  -0.004915
     7  C   -0.992696   1.028869  -0.002688   0.000380  -0.000392   0.001720
     8  C    0.264204  -1.663091   0.005904   0.000809  -0.001333   0.007916
     9  C    1.558816  -1.423371   0.083927   0.004495  -0.004000  -0.028142
    10  C   -0.525437   2.164261  -0.008735  -0.010819   0.018765   0.020577
    11  C    1.290703  -4.549754  -0.020748   0.031976  -0.023898  -0.010312
    12  C   -4.540398   2.707923  -0.019491  -0.039072   0.081247  -0.048420
    13  C   14.156504  -3.727909  -0.000781   0.003199  -0.006063  -0.009914
    14  C   -3.727909  15.132678   0.007025  -0.009475   0.004595  -0.011350
    15  H   -0.000781   0.007025   0.438660  -0.009007   0.001384   0.000215
    16  H    0.003199  -0.009475  -0.009007   0.419360  -0.006585   0.001931
    17  H   -0.006063   0.004595   0.001384  -0.006585   0.421133  -0.010004
    18  H   -0.009914  -0.011350   0.000215   0.001931  -0.010004   0.454617
    19  H    0.066985  -0.061100   0.000345  -0.000525   0.001331  -0.005713
    20  H   -0.010447  -0.047948  -0.000118   0.000015  -0.000143   0.001287
    21  H   -0.024361   0.081266   0.000015  -0.000007   0.000010  -0.000143
    22  H    0.031787  -0.038195  -0.000126   0.000007  -0.000007   0.000015
    23  H   -0.020677  -0.018672   0.000623  -0.000125   0.000015  -0.000118
    24  H    0.021165  -0.075247  -0.000410   0.000485  -0.000090   0.000195
    25  H    0.003284  -0.042174  -0.001397   0.000796  -0.000192   0.000186
              19         20         21         22         23         24
     1  C   -0.045598   0.007848  -0.001329   0.000765   0.005917   0.046556
     2  C   -0.007846   0.001732  -0.000393   0.000377  -0.002669   0.013385
     3  C    0.050266  -0.004873   0.000404  -0.000357   0.001212  -0.000921
     4  C   -0.063196   0.009358   0.000360  -0.001675   0.005988  -0.012055
     5  C   -0.061438   0.445468  -0.060914   0.013746   0.022852  -0.011378
     6  C    0.050493  -0.087227   0.371669  -0.014194  -0.002726  -0.001152
     7  C   -0.007854   0.004469  -0.020209   0.379332  -0.099510   0.012796
     8  C   -0.045588   0.046774  -0.019391  -0.020924   0.360871   0.045033
     9  C    0.074896  -0.028265  -0.004024   0.004268   0.083328   0.344432
    10  C    0.422289   0.020912   0.018725  -0.010772  -0.008665   0.004792
    11  C    0.065218  -0.009632  -0.006180   0.003223  -0.000807   0.019806
    12  C   -0.061507  -0.011269   0.004598  -0.009463   0.007000  -0.074493
    13  C    0.066985  -0.010447  -0.024361   0.031787  -0.020677   0.021165
    14  C   -0.061100  -0.047948   0.081266  -0.038195  -0.018672  -0.075247
    15  H    0.000345  -0.000118   0.000015  -0.000126   0.000623  -0.000410
    16  H   -0.000525   0.000015  -0.000007   0.000007  -0.000125   0.000485
    17  H    0.001331  -0.000143   0.000010  -0.000007   0.000015  -0.000090
    18  H   -0.005713   0.001287  -0.000143   0.000015  -0.000118   0.000195
    19  H    0.441193  -0.005631   0.001324  -0.000522   0.000338   0.000554
    20  H   -0.005631   0.454610  -0.010022   0.001911   0.000213   0.000211
    21  H    0.001324  -0.010022   0.421232  -0.006602   0.001396  -0.000098
    22  H   -0.000522   0.001911  -0.006602   0.419408  -0.008984   0.000511
    23  H    0.000338   0.000213   0.001396  -0.008984   0.438521  -0.000439
    24  H    0.000554   0.000211  -0.000098   0.000511  -0.000439   0.495145
    25  H    0.000502   0.000173  -0.000187   0.000775  -0.001336  -0.079687
              25
     1  C    0.021976
     2  C    0.015321
     3  C   -0.002541
     4  C   -0.011205
     5  C   -0.011560
     6  C   -0.002253
     7  C    0.015984
     8  C    0.024067
     9  C    0.363775
    10  C    0.004498
    11  C    0.004316
    12  C   -0.042626
    13  C    0.003284
    14  C   -0.042174
    15  H   -0.001397
    16  H    0.000796
    17  H   -0.000192
    18  H    0.000186
    19  H    0.000502
    20  H    0.000173
    21  H   -0.000187
    22  H    0.000775
    23  H   -0.001336
    24  H   -0.079687
    25  H    0.494695
 Mulliken charges:
               1
     1  C    0.092626
     2  C   -0.415140
     3  C   -0.441973
     4  C    0.042855
     5  C    0.043432
     6  C   -0.442157
     7  C   -0.416776
     8  C    0.091625
     9  C   -0.336659
    10  C    0.100379
    11  C   -0.585626
    12  C    0.620294
    13  C   -0.591442
    14  C    0.620627
    15  H    0.236270
    16  H    0.255883
    17  H    0.253030
    18  H    0.220657
    19  H    0.190782
    20  H    0.220594
    21  H    0.252861
    22  H    0.255695
    23  H    0.236453
    24  H    0.250901
    25  H    0.244810
 Sum of Mulliken charges =   1.00000
 Mulliken charges with hydrogens summed into heavy atoms:
               1
     1  C    0.328896
     2  C   -0.159257
     3  C   -0.188943
     4  C    0.263512
     5  C    0.264026
     6  C   -0.189296
     7  C   -0.161081
     8  C    0.328078
     9  C    0.159052
    10  C    0.291162
    11  C   -0.585626
    12  C    0.620294
    13  C   -0.591442
    14  C    0.620627
 Electronic spatial extent (au):  <R**2>=           2846.2757
 Charge=              1.0000 electrons
 Dipole moment (field-independent basis, Debye):
    X=              0.0038    Y=              0.1817    Z=             -0.0008  Tot=              0.1817
 Quadrupole moment (field-independent basis, Debye-Ang):
   XX=            -31.3330   YY=            -56.2627   ZZ=            -84.0613
   XY=              0.0021   XZ=             -0.0037   YZ=              0.1195
 Traceless Quadrupole moment (field-independent basis, Debye-Ang):
   XX=             25.8860   YY=              0.9563   ZZ=            -26.8423
   XY=              0.0021   XZ=             -0.0037   YZ=              0.1195
 Octapole moment (field-independent basis, Debye-Ang**2):
  XXX=              0.1627  YYY=              5.1962  ZZZ=             -0.0381  XYY=             -0.0008
  XXY=             -5.9950  XXZ=              0.1963  XZZ=             -0.0208  YZZ=             -3.0965
  YYZ=              0.1401  XYZ=             -0.0182
 Hexadecapole moment (field-independent basis, Debye-Ang**3):
 XXXX=          -2118.4897 YYYY=           -609.3297 ZZZZ=            -99.1442 XXXY=              0.0933
 XXXZ=             -0.1015 YYYX=             -0.0398 YYYZ=              1.3121 ZZZX=             -0.0042
 ZZZY=              0.0507 XXYY=           -506.0711 XXZZ=           -588.0357 YYZZ=           -145.6022
 XXYZ=              1.2773 YYXZ=             -0.0005 ZZXY=              0.0018
 N-N= 7.823270665744D+02 E-N=-2.801058425139D+03  KE= 5.375793608662D+02
 Unable to Open any file for archive entry.
 1\1\GINC-GADI-CPU-CLX-0113\SP\RM062X TD-FC\6-311++G(d,p)\C14H11(1+)\TS
 1578\28-Jul-2022\0\\#n M062X/6-311++G(d,p) TD(NStates=1) EmpiricalDisp
 ersion=GD3 SP\\SP_25\\1,1\C,0,-0.01855,2.493855,1.360431\C,0,-0.021275
 ,3.692958,0.671989\C,0,-0.0062,3.669111,-0.71383\C,0,0.019425,2.451931
 ,-1.407538\C,0,0.019575,-2.451631,-1.407538\C,0,-0.0053,-3.667611,-0.7
 1383\C,0,-0.01985,-3.692433,0.671989\C,0,-0.0157,-2.492955,1.360431\C,
 0,-0.0109,-0.0033,1.453369\C,0,0.0305,0.00015,-1.429189\C,0,0.00445,1.
 27158,0.677065\C,0,0.0128,1.235746,-0.730804\C,0,0.004675,-1.271655,0.
 677065\C,0,0.0122,-1.236196,-0.730804\H,0,-0.0069,2.489121,2.443647\H,
 0,-0.021675,4.630128,1.211689\H,0,0.0034,4.610762,-1.272349\H,0,0.0093
 5,2.4566,-2.490059\H,0,0.028125,0.000075,-2.510266\H,0,0.0089,-2.45637
 5,-2.490059\H,0,0.00385,-4.608887,-1.272349\H,0,-0.01995,-4.629003,1.2
 11689\H,0,-0.0036,-2.488146,2.443647\H,0,-0.899585,-0.00075,2.146612\H
 ,0,0.819585,-0.00075,2.144962\\Version=ES64L-G16RevC.01\State=1-A\HF=-
 539.758988\RMSD=4.843e-09\PG=C01 [X(C14H11)]\\@
 The archive entry for this job was punched.


 ACHIEVEMENT--  THE MAN WHO ROWS THE BOAT GENERALLY 
                DOESN'T HAVE TIME TO ROCK IT.

                   -- FROM THE BACK OF A SUGAR PACKET
 Job cpu time:       0 days  1 hours 19 minutes 38.8 seconds.
 Elapsed time:       0 days  0 hours  1 minutes 39.7 seconds.
 File lengths (MBytes):  RWF=    460 Int=      0 D2E=      0 Chk=     15 Scr=      1
 Normal termination of Gaussian 16 at Thu Jul 28 15:22:31 2022.
