 Entering Gaussian System, Link 0=g16
 Initial command:
 /apps/gaussian/g16c01/g16/l1.exe "/jobfs/53002009.gadi-pbs/Gau-757576.inp" -scrdir="/jobfs/53002009.gadi-pbs/"
 Entering Link 1 = /apps/gaussian/g16c01/g16/l1.exe PID=    757577.
  
 Copyright (c) 1988-2019, Gaussian, Inc.  All Rights Reserved.
  
 This is part of the Gaussian(R) 16 program.  It is based on
 the Gaussian(R) 09 system (copyright 2009, Gaussian, Inc.),
 the Gaussian(R) 03 system (copyright 2003, Gaussian, Inc.),
 the Gaussian(R) 98 system (copyright 1998, Gaussian, Inc.),
 the Gaussian(R) 94 system (copyright 1995, Gaussian, Inc.),
 the Gaussian 92(TM) system (copyright 1992, Gaussian, Inc.),
 the Gaussian 90(TM) system (copyright 1990, Gaussian, Inc.),
 the Gaussian 88(TM) system (copyright 1988, Gaussian, Inc.),
 the Gaussian 86(TM) system (copyright 1986, Carnegie Mellon
 University), and the Gaussian 82(TM) system (copyright 1983,
 Carnegie Mellon University). Gaussian is a federally registered
 trademark of Gaussian, Inc.
  
 This software contains proprietary and confidential information,
 including trade secrets, belonging to Gaussian, Inc.
  
 This software is provided under written license and may be
 used, copied, transmitted, or stored only in accord with that
 written license.
  
 The following legend is applicable only to US Government
 contracts under FAR:
  
                    RESTRICTED RIGHTS LEGEND
  
 Use, reproduction and disclosure by the US Government is
 subject to restrictions as set forth in subparagraphs (a)
 and (c) of the Commercial Computer Software - Restricted
 Rights clause in FAR 52.227-19.
  
 Gaussian, Inc.
 340 Quinnipiac St., Bldg. 40, Wallingford CT 06492
  
  
 ---------------------------------------------------------------
 Warning -- This program may not be used in any manner that
 competes with the business of Gaussian, Inc. or will provide
 assistance to any competitor of Gaussian, Inc.  The licensee
 of this program is prohibited from giving any competitor of
 Gaussian, Inc. access to this program.  By using this program,
 the user acknowledges that Gaussian, Inc. is engaged in the
 business of creating and licensing software in the field of
 computational chemistry and represents and warrants to the
 licensee that it is not a competitor of Gaussian, Inc. and that
 it will not use this program in any manner prohibited above.
 ---------------------------------------------------------------
  

 Cite this work as:
 Gaussian 16, Revision C.01,
 M. J. Frisch, G. W. Trucks, H. B. Schlegel, G. E. Scuseria, 
 M. A. Robb, J. R. Cheeseman, G. Scalmani, V. Barone, 
 G. A. Petersson, H. Nakatsuji, X. Li, M. Caricato, A. V. Marenich, 
 J. Bloino, B. G. Janesko, R. Gomperts, B. Mennucci, H. P. Hratchian, 
 J. V. Ortiz, A. F. Izmaylov, J. L. Sonnenberg, D. Williams-Young, 
 F. Ding, F. Lipparini, F. Egidi, J. Goings, B. Peng, A. Petrone, 
 T. Henderson, D. Ranasinghe, V. G. Zakrzewski, J. Gao, N. Rega, 
 G. Zheng, W. Liang, M. Hada, M. Ehara, K. Toyota, R. Fukuda, 
 J. Hasegawa, M. Ishida, T. Nakajima, Y. Honda, O. Kitao, H. Nakai, 
 T. Vreven, K. Throssell, J. A. Montgomery, Jr., J. E. Peralta, 
 F. Ogliaro, M. J. Bearpark, J. J. Heyd, E. N. Brothers, K. N. Kudin, 
 V. N. Staroverov, T. A. Keith, R. Kobayashi, J. Normand, 
 K. Raghavachari, A. P. Rendell, J. C. Burant, S. S. Iyengar, 
 J. Tomasi, M. Cossi, J. M. Millam, M. Klene, C. Adamo, R. Cammi, 
 J. W. Ochterski, R. L. Martin, K. Morokuma, O. Farkas, 
 J. B. Foresman, and D. J. Fox, Gaussian, Inc., Wallingford CT, 2019.
 
 ******************************************
 Gaussian 16:  ES64L-G16RevC.01  3-Jul-2019
                28-Jul-2022 
 ******************************************
 %NProcShared=48
 Will use up to   48 processors via shared memory.
 %mem = 190GB
 ---------------------------------------------------------------
 #n M062X/6-311++G(d,p) TD(NStates=1) EmpiricalDispersion=GD3 SP
 ---------------------------------------------------------------
 1/38=1,172=1/1;
 2/12=2,17=6,18=5,40=1/2;
 3/5=4,6=6,7=1111,11=9,25=1,30=1,74=-55,124=31/1,2,3,8;
 4//1;
 5/5=2,38=5/2;
 8/6=1,10=2,108=1/1;
 9/41=1,42=1,70=2/14;
 6/7=2,8=2,9=2,10=2/1;
 99/5=1,9=1/99;
 ----
 SP_0
 ----
 Symbolic Z-matrix:
 Charge =  1 Multiplicity = 1
 C                    -0.0234    2.49446   1.36043 
 C                    -0.0261    3.69146   0.67199 
 C                    -0.0078    3.66676  -0.71383 
 C                     0.02325   2.44981  -1.40754 
 C                     0.02355  -2.44921  -1.40754 
 C                    -0.006    -3.66376  -0.71383 
 C                    -0.02325  -3.69041   0.67199 
 C                    -0.0177   -2.49266   1.36043 
 C                    -0.01305  -0.0066    1.45337 
 C                     0.0366    0.0003   -1.42919 
 C                     0.00525   1.27346   0.67707 
 C                     0.0156    1.23522  -0.7308 
 C                     0.0057   -1.27361   0.67707 
 C                     0.0144   -1.23612  -0.7308 
 H                    -0.0096    2.48972   2.44365 
 H                    -0.0267    4.62925   1.21169 
 H                     0.0039    4.61181  -1.27235 
 H                     0.0114    2.4545   -2.49006 
 H                     0.03375   0.00015  -2.51027 
 H                     0.0105   -2.45405  -2.49006 
 H                     0.0048   -4.60806  -1.27235 
 H                    -0.02325  -4.627     1.21169 
 H                    -0.003    -2.48777   2.44365 
 H                    -0.90759  -0.0015    2.14744 
 H                     0.81159  -0.0015    2.14414 
 
                          Input orientation:                          
 ---------------------------------------------------------------------
 Center     Atomic      Atomic             Coordinates (Angstroms)
 Number     Number       Type             X           Y           Z
 ---------------------------------------------------------------------
      1          6           0       -0.023400    2.494455    1.360431
      2          6           0       -0.026100    3.691458    0.671989
      3          6           0       -0.007800    3.666761   -0.713830
      4          6           0        0.023250    2.449806   -1.407538
      5          6           0        0.023550   -2.449206   -1.407538
      6          6           0       -0.006000   -3.663761   -0.713830
      7          6           0       -0.023250   -3.690408    0.671989
      8          6           0       -0.017700   -2.492655    1.360431
      9          6           0       -0.013050   -0.006600    1.453369
     10          6           0        0.036600    0.000300   -1.429189
     11          6           0        0.005250    1.273455    0.677065
     12          6           0        0.015600    1.235221   -0.730804
     13          6           0        0.005700   -1.273605    0.677065
     14          6           0        0.014400   -1.236121   -0.730804
     15          1           0       -0.009600    2.489721    2.443647
     16          1           0       -0.026700    4.629253    1.211689
     17          1           0        0.003900    4.611812   -1.272349
     18          1           0        0.011400    2.454500   -2.490059
     19          1           0        0.033750    0.000150   -2.510266
     20          1           0        0.010500   -2.454050   -2.490059
     21          1           0        0.004800   -4.608062   -1.272349
     22          1           0       -0.023250   -4.627003    1.211689
     23          1           0       -0.003000   -2.487771    2.443647
     24          1           0       -0.907585   -0.001500    2.147437
     25          1           0        0.811585   -0.001500    2.144137
 ---------------------------------------------------------------------
                    Distance matrix (angstroms):
                    1          2          3          4          5
     1  C    0.000000
     2  C    1.380861   0.000000
     3  C    2.382667   1.386160   0.000000
     4  C    2.768722   2.422513   1.401133   0.000000
     5  C    5.666007   6.483414   6.155263   4.899012   0.000000
     6  C    6.498191   7.484661   7.330522   6.152868   1.399017
     7  C    6.223061   7.381867   7.486566   6.482964   2.422231
     8  C    4.987113   6.222321   6.499312   5.664914   2.768617
     9  C    2.502803   3.779730   4.265016   3.770946   3.761975
    10  C    3.742511   4.247767   3.735859   2.449638   2.449636
    11  C    1.399518   2.418212   2.768153   2.393678   4.266627
    12  C    2.441404   2.828899   2.431712   1.390412   3.746069
    13  C    3.829636   4.965167   5.132445   4.267279   2.393309
    14  C    4.276902   5.123524   4.902962   3.747547   1.389110
    15  H    1.083314   2.140845   3.369731   3.851532   6.263044
    16  H    2.139976   1.082006   2.152759   3.407761   7.547679
    17  H    3.378680   2.151372   1.097817   2.166315   7.062339
    18  H    3.850855   3.395588   2.150566   1.082596   5.021786
    19  H    4.605119   4.874021   4.083252   2.686435   2.686160
    20  H    6.270177   6.911379   6.373355   5.021934   1.082610
    21  H    7.574832   8.524285   8.293660   7.059187   2.163166
    22  H    7.123011   8.335951   8.514363   7.546107   3.406661
    23  H    5.098661   6.428233   6.917221   6.261947   3.851470
    24  H    2.762418   4.073316   4.738418   4.417375   4.415442
    25  H    2.746122   4.062865   4.721812   4.386886   4.384821
                    6          7          8          9         10
     6  C    0.000000
     7  C    1.386183   0.000000
     8  C    2.382055   1.381519   0.000000
     9  C    4.251074   3.765780   2.487796   0.000000
    10  C    3.733483   4.247335   3.741624   2.882994   0.000000
    11  C    5.129407   4.963947   3.827676   1.497172   2.461344
    12  C    4.899059   5.121636   4.274510   2.512678   1.418877
    13  C    2.765424   2.416982   1.397719   1.486035   2.461726
    14  C    2.427785   2.827149   2.439912   2.506609   1.420201
    15  H    6.916286   6.429071   5.098774   2.685569   4.604151
    16  H    8.513644   8.337149   7.123467   4.642169   5.329676
    17  H    8.294405   8.526901   7.576638   5.362794   4.614294
    18  H    6.370903   6.910835   6.269088   4.648466   2.673795
    19  H    4.080810   4.873419   4.604239   3.963917   1.081081
    20  H    2.149107   3.395330   3.850787   4.641249   2.673941
    21  H    1.097162   2.150192   3.377423   5.348206   4.611140
    22  H    2.153081   1.080965   2.139532   4.626731   5.328203
    23  H    3.369365   2.141382   1.083327   2.671509   4.603360
    24  H    4.734117   4.070263   2.759914   1.132232   3.699154
    25  H    4.716840   4.058597   2.740030   1.075737   3.656400
                   11         12         13         14         15
    11  C    0.000000
    12  C    1.408426   0.000000
    13  C    2.547060   2.876873   0.000000
    14  C    2.877525   2.471342   1.408395   0.000000
    15  H    2.144839   3.413436   4.157363   4.894856   0.000000
    16  H    3.398268   3.910821   5.927108   6.178801   2.468929
    17  H    3.865856   3.419762   6.199867   5.872964   4.279261
    18  H    3.380174   2.140476   4.891776   4.088480   4.933876
    19  H    3.432375   2.166152   3.432538   2.166847   5.544465
    20  H    4.891318   4.087264   3.379963   2.139707   6.984464
    21  H    6.196165   5.868334   3.862489   3.415165   8.011701
    22  H    5.924697   6.175796   3.395871   3.908040   7.222580
    23  H    4.155442   4.892663   2.143615   3.412341   4.977496
    24  H    2.149598   3.265887   2.148100   3.264754   2.664639
    25  H    2.104278   3.229297   2.102380   3.228789   2.640120
                   16         17         18         19         20
    16  H    0.000000
    17  H    2.484288   0.000000
    18  H    4.293477   2.477270   0.000000
    19  H    5.940134   4.775014   2.454535   0.000000
    20  H    7.992340   7.170026   4.908550   2.454393   0.000000
    21  H    9.565533   9.219874   7.166774   4.771676   2.474392
    22  H    9.256257   9.566968   7.990734   5.938581   4.292529
    23  H    7.222902   8.013286   6.983388   5.543677   4.933840
    24  H    4.805773   5.814498   5.327555   4.751875   5.325810
    25  H    4.797505   5.797187   5.305469   4.718951   5.304009
                   21         22         23         24         25
    21  H    0.000000
    22  H    2.484269   0.000000
    23  H    4.278355   2.468693   0.000000
    24  H    5.809285   4.801349   2.662247   0.000000
    25  H    5.791692   4.791835   2.633401   1.719173   0.000000
 Stoichiometry    C14H11(1+)
 Framework group  C1[X(C14H11)]
 Deg. of freedom    69
 Full point group                 C1      NOp   1
 Largest Abelian subgroup         C1      NOp   1
 Largest concise Abelian subgroup C1      NOp   1
                         Standard orientation:                         
 ---------------------------------------------------------------------
 Center     Atomic      Atomic             Coordinates (Angstroms)
 Number     Number       Type             X           Y           Z
 ---------------------------------------------------------------------
      1          6           0        2.494290   -1.360917    0.003975
      2          6           0        3.691381   -0.672716    0.015344
      3          6           0        3.666852    0.713227    0.015370
      4          6           0        2.449973    1.407432   -0.006072
      5          6           0       -2.449039    1.408031   -0.004612
      6          6           0       -3.663670    0.714140    0.016204
      7          6           0       -3.690486   -0.671782    0.015147
      8          6           0       -2.492822   -1.360236    0.000068
      9          6           0       -0.006780   -1.453407   -0.006703
     10          6           0        0.000465    1.429555   -0.018255
     11          6           0        1.273366   -0.677084   -0.015202
     12          6           0        1.235306    0.730804   -0.006930
     13          6           0       -1.273694   -0.676769   -0.014736
     14          6           0       -1.236036    0.731088   -0.004842
     15          1           0        2.489414   -2.443855   -0.024138
     16          1           0        4.629108   -1.212491    0.008474
     17          1           0        4.611969    1.271737    0.010712
     18          1           0        2.454808    2.489702    0.020082
     19          1           0        0.000453    2.510500   -0.001117
     20          1           0       -2.453741    2.490285    0.022746
     21          1           0       -4.607905    1.272868    0.013126
     22          1           0       -4.627149   -1.211322    0.008350
     23          1           0       -2.488080   -2.443164   -0.028949
     24          1           0       -0.001448   -2.159237    0.878579
     25          1           0       -0.002062   -2.133216   -0.840397
 ---------------------------------------------------------------------
 Rotational constants (GHZ):           2.1355876           0.4471102           0.3705293
 Standard basis: 6-311++G(d,p) (5D, 7F)
 There are   399 symmetry adapted cartesian basis functions of A   symmetry.
 There are   385 symmetry adapted basis functions of A   symmetry.
   385 basis functions,   603 primitive gaussians,   399 cartesian basis functions
    47 alpha electrons       47 beta electrons
       nuclear repulsion energy       782.5491421591 Hartrees.
 NAtoms=   25 NActive=   25 NUniq=   25 SFac= 1.00D+00 NAtFMM=   60 NAOKFM=F Big=F
 Integral buffers will be    131072 words long.
 Regular integral format.
 Two-electron integral symmetry is turned on.
 Nuclear repulsion after empirical dispersion term =      782.5481630797 Hartrees.
 One-electron integrals computed using PRISM.
 NBasis=   385 RedAO= T EigKep=  1.25D-06  NBF=   385
 NBsUse=   379 1.00D-06 EigRej=  8.26D-07 NBFU=   379
 ExpMin= 3.60D-02 ExpMax= 4.56D+03 ExpMxC= 6.82D+02 IAcc=3 IRadAn=         5 AccDes= 0.00D+00
 Harris functional with IExCor= 1009 and IRadAn=       5 diagonalized for initial guess.
 HarFok:  IExCor= 1009 AccDes= 0.00D+00 IRadAn=         5 IDoV= 1 UseB2=F ITyADJ=14
 ICtDFT=  3500011 ScaDFX=  1.000000  1.000000  1.000000  1.000000
 FoFCou: FMM=F IPFlag=           0 FMFlag=      100000 FMFlg1=           0
         NFxFlg=           0 DoJE=T BraDBF=F KetDBF=T FulRan=T
         wScrn=  0.000000 ICntrl=       500 IOpCl=  0 I1Cent=   200000004 NGrid=           0
         NMat0=    1 NMatS0=      1 NMatT0=    0 NMatD0=    1 NMtDS0=    0 NMtDT0=    0
 Petite list used in FoFCou.
 Requested convergence on RMS density matrix=1.00D-08 within 128 cycles.
 Requested convergence on MAX density matrix=1.00D-06.
 Requested convergence on             energy=1.00D-06.
 No special actions if energy rises.
 SCF Done:  E(RM062X) =  -539.758258022     A.U. after   15 cycles
            NFock= 15  Conv=0.50D-08     -V/T= 2.0040
 DoSCS=F DFT=T ScalE2(SS,OS)=  1.000000  1.000000
 ExpMin= 3.60D-02 ExpMax= 4.56D+03 ExpMxC= 6.82D+02 IAcc=3 IRadAn=         5 AccDes= 0.00D+00
 HarFok:  IExCor=  205 AccDes= 0.00D+00 IRadAn=         5 IDoV=-2 UseB2=F ITyADJ=14
 ICtDFT= 12500011 ScaDFX=  1.000000  1.000000  1.000000  1.000000
 Range of M.O.s used for correlation:    15   379
 NBasis=   385 NAE=    47 NBE=    47 NFC=    14 NFV=     0
 NROrb=    365 NOA=    33 NOB=    33 NVA=   332 NVB=   332

 **** Warning!!: The largest alpha MO coefficient is  0.14696686D+03

 Orbital symmetries:
       Occupied  (A) (A) (A) (A) (A) (A) (A) (A) (A) (A) (A) (A)
                 (A) (A) (A) (A) (A) (A) (A) (A) (A) (A) (A) (A)
                 (A) (A) (A) (A) (A) (A) (A) (A) (A) (A) (A) (A)
                 (A) (A) (A) (A) (A) (A) (A) (A) (A) (A) (A)
       Virtual   (A) (A) (A) (A) (A) (A) (A) (A) (A) (A) (A) (A)
                 (A) (A) (A) (A) (A) (A) (A) (A) (A) (A) (A) (A)
                 (A) (A) (A) (A) (A) (A) (A) (A) (A) (A) (A) (A)
                 (A) (A) (A) (A) (A) (A) (A) (A) (A) (A) (A) (A)
                 (A) (A) (A) (A) (A) (A) (A) (A) (A) (A) (A) (A)
                 (A) (A) (A) (A) (A) (A) (A) (A) (A) (A) (A) (A)
                 (A) (A) (A) (A) (A) (A) (A) (A) (A) (A) (A) (A)
                 (A) (A) (A) (A) (A) (A) (A) (A) (A) (A) (A) (A)
                 (A) (A) (A) (A) (A) (A) (A) (A) (A) (A) (A) (A)
                 (A) (A) (A) (A) (A) (A) (A) (A) (A) (A) (A) (A)
                 (A) (A) (A) (A) (A) (A) (A) (A) (A) (A) (A) (A)
                 (A) (A) (A) (A) (A) (A) (A) (A) (A) (A) (A) (A)
                 (A) (A) (A) (A) (A) (A) (A) (A) (A) (A) (A) (A)
                 (A) (A) (A) (A) (A) (A) (A) (A) (A) (A) (A) (A)
                 (A) (A) (A) (A) (A) (A) (A) (A) (A) (A) (A) (A)
                 (A) (A) (A) (A) (A) (A) (A) (A) (A) (A) (A) (A)
                 (A) (A) (A) (A) (A) (A) (A) (A) (A) (A) (A) (A)
                 (A) (A) (A) (A) (A) (A) (A) (A) (A) (A) (A) (A)
                 (A) (A) (A) (A) (A) (A) (A) (A) (A) (A) (A) (A)
                 (A) (A) (A) (A) (A) (A) (A) (A) (A) (A) (A) (A)
                 (A) (A) (A) (A) (A) (A) (A) (A) (A) (A) (A) (A)
                 (A) (A) (A) (A) (A) (A) (A) (A) (A) (A) (A) (A)
                 (A) (A) (A) (A) (A) (A) (A) (A) (A) (A) (A) (A)
                 (A) (A) (A) (A) (A) (A) (A) (A) (A) (A) (A) (A)
                 (A) (A) (A) (A) (A) (A) (A) (A) (A) (A) (A) (A)
                 (A) (A) (A) (A) (A) (A) (A) (A) (A) (A) (A) (A)
                 (A) (A) (A) (A) (A) (A) (A) (A) (A) (A) (A) (A)
                 (A) (A) (A) (A) (A) (A) (A) (A)
     4 initial guesses have been made.
 Convergence on wavefunction:    0.001000000000000
 Iteration     1 Dimension     4 NMult     0 NNew      4
 CISAX will form     4 AO SS matrices at one time.
 Iteration     2 Dimension     6 NMult     4 NNew      2
 Iteration     3 Dimension     8 NMult     6 NNew      2
 Iteration     4 Dimension    10 NMult     8 NNew      2
 Iteration     5 Dimension    12 NMult    10 NNew      2
 Iteration     6 Dimension    14 NMult    12 NNew      2
 ***********************************************************************
 Excited states from <AA,BB:AA,BB> singles matrix:
 ***********************************************************************
 
 Ground to excited state transition densities written to RWF  633
 Ground to excited state transition electric dipole moments (Au):
       state          X           Y           Z        Dip. S.      Osc.
         1        -0.0082     -0.6538      0.0064      0.4276      0.0298
 Ground to excited state transition velocity dipole moments (Au):
       state          X           Y           Z        Dip. S.      Osc.
         1         0.0009      0.0757     -0.0008      0.0057      0.0366
 Ground to excited state transition magnetic dipole moments (Au):
       state          X           Y           Z
         1        -0.0083      0.0006      0.0006
 Ground to excited state transition velocity quadrupole moments (Au):
       state          XX          YY          ZZ          XY          XZ          YZ
         1         0.2789      0.0384     -0.0101      0.0013     -0.0000      0.0011
 <0|del|b> * <b|rxdel|0> + <0|del|b> * <b|delr+rdel|0>
 Rotatory Strengths (R) in cgs (10**-40 erg-esu-cm/Gauss)
       state          XX          YY          ZZ    R(velocity)    E-M Angle
         1         0.1624     -0.0194      0.1295      0.0908       90.00
 1/2[<0|r|b>*<b|rxdel|0> + (<0|rxdel|b>*<b|r|0>)*]
 Rotatory Strengths (R) in cgs (10**-40 erg-esu-cm/Gauss)
       state          XX          YY          ZZ     R(length)
         1        -0.0477      0.2934     -0.0028      0.0810
  1/2[<0|del|b>*<b|r|0> + (<0|r|b>*<b|del|0>)*] (Au)
       state          X           Y           Z        Dip. S.   Osc.(frdel)
         1        -0.0000     -0.0495     -0.0000      0.0495      0.0330

 Excitation energies and oscillator strengths:
 
 Excited State   1:      Singlet-A      2.8422 eV  436.22 nm  f=0.0298  <S**2>=0.000
      47 -> 48         0.70423
 This state for optimization and/or second-order correction.
 Total Energy, E(TD-HF/TD-DFT) =  -539.653808433    
 Copying the excited state density for this state as the 1-particle RhoCI density.
 SavETr:  write IOETrn=   770 NScale= 10 NData=  16 NLR=1 NState=    1 LETran=      28.

 **********************************************************************

            Population analysis using the SCF Density.

 **********************************************************************

 Orbital symmetries:
       Occupied  (A) (A) (A) (A) (A) (A) (A) (A) (A) (A) (A) (A)
                 (A) (A) (A) (A) (A) (A) (A) (A) (A) (A) (A) (A)
                 (A) (A) (A) (A) (A) (A) (A) (A) (A) (A) (A) (A)
                 (A) (A) (A) (A) (A) (A) (A) (A) (A) (A) (A)
       Virtual   (A) (A) (A) (A) (A) (A) (A) (A) (A) (A) (A) (A)
                 (A) (A) (A) (A) (A) (A) (A) (A) (A) (A) (A) (A)
                 (A) (A) (A) (A) (A) (A) (A) (A) (A) (A) (A) (A)
                 (A) (A) (A) (A) (A) (A) (A) (A) (A) (A) (A) (A)
                 (A) (A) (A) (A) (A) (A) (A) (A) (A) (A) (A) (A)
                 (A) (A) (A) (A) (A) (A) (A) (A) (A) (A) (A) (A)
                 (A) (A) (A) (A) (A) (A) (A) (A) (A) (A) (A) (A)
                 (A) (A) (A) (A) (A) (A) (A) (A) (A) (A) (A) (A)
                 (A) (A) (A) (A) (A) (A) (A) (A) (A) (A) (A) (A)
                 (A) (A) (A) (A) (A) (A) (A) (A) (A) (A) (A) (A)
                 (A) (A) (A) (A) (A) (A) (A) (A) (A) (A) (A) (A)
                 (A) (A) (A) (A) (A) (A) (A) (A) (A) (A) (A) (A)
                 (A) (A) (A) (A) (A) (A) (A) (A) (A) (A) (A) (A)
                 (A) (A) (A) (A) (A) (A) (A) (A) (A) (A) (A) (A)
                 (A) (A) (A) (A) (A) (A) (A) (A) (A) (A) (A) (A)
                 (A) (A) (A) (A) (A) (A) (A) (A) (A) (A) (A) (A)
                 (A) (A) (A) (A) (A) (A) (A) (A) (A) (A) (A) (A)
                 (A) (A) (A) (A) (A) (A) (A) (A) (A) (A) (A) (A)
                 (A) (A) (A) (A) (A) (A) (A) (A) (A) (A) (A) (A)
                 (A) (A) (A) (A) (A) (A) (A) (A) (A) (A) (A) (A)
                 (A) (A) (A) (A) (A) (A) (A) (A) (A) (A) (A) (A)
                 (A) (A) (A) (A) (A) (A) (A) (A) (A) (A) (A) (A)
                 (A) (A) (A) (A) (A) (A) (A) (A) (A) (A) (A) (A)
                 (A) (A) (A) (A) (A) (A) (A) (A) (A) (A) (A) (A)
                 (A) (A) (A) (A) (A) (A) (A) (A) (A) (A) (A) (A)
                 (A) (A) (A) (A) (A) (A) (A) (A) (A) (A) (A) (A)
                 (A) (A) (A) (A) (A) (A) (A) (A) (A) (A) (A) (A)
                 (A) (A) (A) (A) (A) (A) (A) (A)
 The electronic state is 1-A.
 Alpha  occ. eigenvalues --  -10.77681 -10.73240 -10.73156 -10.72318 -10.72313
 Alpha  occ. eigenvalues --  -10.71236 -10.71192 -10.70971 -10.70920 -10.70907
 Alpha  occ. eigenvalues --  -10.69827 -10.69794 -10.69707 -10.69667  -1.16548
 Alpha  occ. eigenvalues --   -1.12780  -1.07119  -1.05626  -1.01638  -1.00121
 Alpha  occ. eigenvalues --   -0.95902  -0.91023  -0.86441  -0.85959  -0.83828
 Alpha  occ. eigenvalues --   -0.78435  -0.76040  -0.74480  -0.69566  -0.69226
 Alpha  occ. eigenvalues --   -0.68513  -0.68071  -0.67888  -0.64976  -0.64488
 Alpha  occ. eigenvalues --   -0.62848  -0.61656  -0.60086  -0.59904  -0.59002
 Alpha  occ. eigenvalues --   -0.56868  -0.55136  -0.54708  -0.52562  -0.46865
 Alpha  occ. eigenvalues --   -0.46022  -0.44627
 Alpha virt. eigenvalues --   -0.26125  -0.14529  -0.14062  -0.12599  -0.11183
 Alpha virt. eigenvalues --   -0.10098  -0.09253  -0.08053  -0.07940  -0.07485
 Alpha virt. eigenvalues --   -0.07219  -0.07112  -0.05638  -0.05581  -0.05307
 Alpha virt. eigenvalues --   -0.03871  -0.03730  -0.03278  -0.03128  -0.02164
 Alpha virt. eigenvalues --   -0.01388  -0.00973   0.00196   0.00522   0.00681
 Alpha virt. eigenvalues --    0.01068   0.01511   0.01958   0.02229   0.02281
 Alpha virt. eigenvalues --    0.02458   0.02681   0.02898   0.03162   0.03323
 Alpha virt. eigenvalues --    0.04228   0.04511   0.04709   0.05117   0.05387
 Alpha virt. eigenvalues --    0.05943   0.06313   0.06622   0.07033   0.07267
 Alpha virt. eigenvalues --    0.07913   0.08289   0.08336   0.08605   0.08922
 Alpha virt. eigenvalues --    0.09528   0.09565   0.10030   0.10846   0.11065
 Alpha virt. eigenvalues --    0.11156   0.12177   0.12218   0.12909   0.12971
 Alpha virt. eigenvalues --    0.13430   0.13453   0.14014   0.14526   0.15895
 Alpha virt. eigenvalues --    0.16228   0.16637   0.17307   0.17413   0.17728
 Alpha virt. eigenvalues --    0.18126   0.19184   0.19327   0.19699   0.19744
 Alpha virt. eigenvalues --    0.21591   0.21680   0.22666   0.23047   0.23562
 Alpha virt. eigenvalues --    0.23785   0.24600   0.24929   0.26853   0.27734
 Alpha virt. eigenvalues --    0.28834   0.29261   0.29814   0.31410   0.35794
 Alpha virt. eigenvalues --    0.36636   0.38105   0.39402   0.41096   0.41326
 Alpha virt. eigenvalues --    0.41973   0.42067   0.42951   0.43875   0.44198
 Alpha virt. eigenvalues --    0.44747   0.45266   0.45746   0.46209   0.47872
 Alpha virt. eigenvalues --    0.48464   0.48861   0.48998   0.50371   0.51270
 Alpha virt. eigenvalues --    0.51637   0.51750   0.52188   0.53265   0.53901
 Alpha virt. eigenvalues --    0.53997   0.54804   0.55754   0.55809   0.57282
 Alpha virt. eigenvalues --    0.58265   0.58811   0.61469   0.62207   0.62263
 Alpha virt. eigenvalues --    0.63129   0.63605   0.64378   0.65210   0.66669
 Alpha virt. eigenvalues --    0.70395   0.70613   0.71014   0.72418   0.72765
 Alpha virt. eigenvalues --    0.75690   0.75717   0.76293   0.76475   0.76868
 Alpha virt. eigenvalues --    0.77597   0.77797   0.78272   0.80310   0.80606
 Alpha virt. eigenvalues --    0.81301   0.81673   0.82184   0.83062   0.84858
 Alpha virt. eigenvalues --    0.86952   0.87469   0.87947   0.89713   0.90451
 Alpha virt. eigenvalues --    0.91023   0.91542   0.93606   0.94882   0.96216
 Alpha virt. eigenvalues --    0.96768   1.00218   1.01335   1.01888   1.02924
 Alpha virt. eigenvalues --    1.03299   1.04210   1.04548   1.05705   1.09145
 Alpha virt. eigenvalues --    1.19239   1.23224   1.24083   1.25468   1.28175
 Alpha virt. eigenvalues --    1.30140   1.31269   1.34542   1.35884   1.36300
 Alpha virt. eigenvalues --    1.39466   1.40077   1.40962   1.43492   1.43590
 Alpha virt. eigenvalues --    1.43775   1.45214   1.45522   1.46485   1.46647
 Alpha virt. eigenvalues --    1.47887   1.48553   1.51761   1.53782   1.55839
 Alpha virt. eigenvalues --    1.56272   1.56388   1.56885   1.58014   1.61738
 Alpha virt. eigenvalues --    1.62968   1.63163   1.63311   1.66255   1.68093
 Alpha virt. eigenvalues --    1.68619   1.68761   1.69710   1.74784   1.76005
 Alpha virt. eigenvalues --    1.77225   1.78081   1.79855   1.80649   1.81321
 Alpha virt. eigenvalues --    1.83019   1.83266   1.83428   1.84035   1.84229
 Alpha virt. eigenvalues --    1.84524   1.86152   1.86304   1.88411   1.91246
 Alpha virt. eigenvalues --    1.92175   1.94063   1.95178   1.98091   1.98739
 Alpha virt. eigenvalues --    2.00325   2.02248   2.04757   2.06729   2.12002
 Alpha virt. eigenvalues --    2.12163   2.13888   2.15327   2.19990   2.21106
 Alpha virt. eigenvalues --    2.23245   2.29003   2.30501   2.34289   2.35485
 Alpha virt. eigenvalues --    2.36251   2.37873   2.38425   2.41476   2.42521
 Alpha virt. eigenvalues --    2.46935   2.49304   2.49640   2.53164   2.53750
 Alpha virt. eigenvalues --    2.54033   2.56552   2.58052   2.58589   2.59847
 Alpha virt. eigenvalues --    2.60073   2.61461   2.62218   2.63439   2.64086
 Alpha virt. eigenvalues --    2.64712   2.64942   2.65370   2.65425   2.67909
 Alpha virt. eigenvalues --    2.68174   2.71205   2.71320   2.73557   2.74858
 Alpha virt. eigenvalues --    2.76511   2.79206   2.80021   2.83259   2.83628
 Alpha virt. eigenvalues --    2.85577   2.86521   2.92236   2.96477   2.99941
 Alpha virt. eigenvalues --    3.00553   3.04263   3.11969   3.12266   3.14144
 Alpha virt. eigenvalues --    3.20661   3.23314   3.27531   3.28627   3.31319
 Alpha virt. eigenvalues --    3.33517   3.33881   3.43545   3.46137   3.48091
 Alpha virt. eigenvalues --    3.49478   3.51082   3.56684   3.64669   3.67557
 Alpha virt. eigenvalues --    3.67844   3.92479   3.93378   3.94697   3.96163
 Alpha virt. eigenvalues --    4.03127   4.06951   4.07697   4.12493   4.35162
 Alpha virt. eigenvalues --    4.60779   4.70532   4.72442  23.45043  23.59418
 Alpha virt. eigenvalues --   23.82725  23.84985  23.88137  23.90088  23.90728
 Alpha virt. eigenvalues --   23.92537  23.98650  24.00950  24.02120  24.02459
 Alpha virt. eigenvalues --   24.11968  24.12169
          Condensed to atoms (all electrons):
               1          2          3          4          5          6
     1  C    8.447100   0.544882  -0.607394   1.635214   0.005804  -0.094080
     2  C    0.544882   6.986602   0.383051  -0.833908  -0.059066  -0.017987
     3  C   -0.607394   0.383051   6.640387   0.681397  -0.109923   0.018367
     4  C    1.635214  -0.833908   0.681397  10.259635  -0.159504  -0.113605
     5  C    0.005804  -0.059066  -0.109923  -0.159504  10.162596   0.692625
     6  C   -0.094080  -0.017987   0.018367  -0.113605   0.692625   6.649300
     7  C   -0.027237   0.010117  -0.017857  -0.057771  -0.831167   0.385360
     8  C    0.412440  -0.029388  -0.094322   0.015487   1.604776  -0.596515
     9  C   -1.460280  -0.585393   0.262532  -0.456646  -0.497336   0.261791
    10  C   -1.114279   0.141329  -0.355217  -2.350851  -2.328054  -0.373896
    11  C    0.234556  -0.990384   1.005911  -0.255439  -1.552493  -0.201649
    12  C   -1.621294   0.954244  -1.284080  -0.957527  -0.199875  -0.187522
    13  C    0.189442  -0.141872  -0.200276  -1.575592  -0.285405   1.022738
    14  C   -1.041142  -0.231704  -0.188905  -0.231389  -0.847189  -1.313398
    15  H    0.360361  -0.098225  -0.003216   0.022135   0.005824   0.001266
    16  H   -0.020628   0.379467  -0.014230   0.013888  -0.001676  -0.000365
    17  H   -0.018267  -0.021754   0.371448  -0.059720   0.000337   0.000406
    18  H    0.046625   0.005309  -0.088900   0.444177   0.010044  -0.004864
    19  H   -0.045160  -0.007967   0.049948  -0.062493  -0.058955   0.050428
    20  H    0.007901   0.001653  -0.004777   0.010180   0.442274  -0.087998
    21  H   -0.001321  -0.000390   0.000402   0.000350  -0.058840   0.371471
    22  H    0.000752   0.000376  -0.000361  -0.001694   0.013417  -0.013567
    23  H    0.005953  -0.002633   0.001235   0.006001   0.021728  -0.002908
    24  H    0.049738   0.013324  -0.000720  -0.012263  -0.010978  -0.001185
    25  H    0.019278   0.015215  -0.002834  -0.010876  -0.011529  -0.002258
               7          8          9         10         11         12
     1  C   -0.027237   0.412440  -1.460280  -1.114279   0.234556  -1.621294
     2  C    0.010117  -0.029388  -0.585393   0.141329  -0.990384   0.954244
     3  C   -0.017857  -0.094322   0.262532  -0.355217   1.005911  -1.284080
     4  C   -0.057771   0.015487  -0.456646  -2.350851  -0.255439  -0.957527
     5  C   -0.831167   1.604776  -0.497336  -2.328054  -1.552493  -0.199875
     6  C    0.385360  -0.596515   0.261791  -0.373896  -0.201649  -0.187522
     7  C    6.997200   0.552607  -0.580261   0.142439  -0.148672  -0.236197
     8  C    0.552607   8.451200  -1.494444  -1.111064   0.179722  -1.058885
     9  C   -0.580261  -1.494444   9.032156   0.509264   1.492740  -1.282788
    10  C    0.142439  -1.111064   0.509264   9.116402  -0.481285   2.089668
    11  C   -0.148672   0.179722   1.492740  -0.481285  14.012964  -3.646890
    12  C   -0.236197  -1.058885  -1.282788   2.089668  -3.646890  14.874820
    13  C   -0.993296   0.246863   1.510924  -0.502565   1.317624  -4.436634
    14  C    0.937266  -1.571367  -1.260949   2.046097  -4.450765   2.603404
    15  H   -0.002669   0.005921   0.081850  -0.008546  -0.018504  -0.018278
    16  H    0.000381   0.000840   0.004515  -0.011045   0.032694  -0.039713
    17  H   -0.000386  -0.001327  -0.003378   0.017949  -0.021833   0.077669
    18  H    0.001624   0.008027  -0.028864   0.022095  -0.011347  -0.047366
    19  H   -0.007955  -0.045175   0.074416   0.422525   0.061605  -0.060821
    20  H    0.004985   0.045940  -0.029063   0.022904  -0.008758  -0.010484
    21  H   -0.021328  -0.018045  -0.003440   0.017831  -0.006163   0.004287
    22  H    0.380068  -0.022126   0.004085  -0.010946   0.003152  -0.009459
    23  H   -0.097908   0.359352   0.080678  -0.008403  -0.001405   0.007046
    24  H    0.012202   0.046654   0.342402   0.004722   0.019987  -0.076540
    25  H    0.016505   0.023451   0.364845   0.004260   0.003052  -0.039447
              13         14         15         16         17         18
     1  C    0.189442  -1.041142   0.360361  -0.020628  -0.018267   0.046625
     2  C   -0.141872  -0.231704  -0.098225   0.379467  -0.021754   0.005309
     3  C   -0.200276  -0.188905  -0.003216  -0.014230   0.371448  -0.088900
     4  C   -1.575592  -0.231389   0.022135   0.013888  -0.059720   0.444177
     5  C   -0.285405  -0.847189   0.005824  -0.001676   0.000337   0.010044
     6  C    1.022738  -1.313398   0.001266  -0.000365   0.000406  -0.004864
     7  C   -0.993296   0.937266  -0.002669   0.000381  -0.000386   0.001624
     8  C    0.246863  -1.571367   0.005921   0.000840  -0.001327   0.008027
     9  C    1.510924  -1.260949   0.081850   0.004515  -0.003378  -0.028864
    10  C   -0.502565   2.046097  -0.008546  -0.011045   0.017949   0.022095
    11  C    1.317624  -4.450765  -0.018504   0.032694  -0.021833  -0.011347
    12  C   -4.436634   2.603404  -0.018278  -0.039713   0.077669  -0.047366
    13  C   14.020524  -3.647173  -0.001371   0.003101  -0.005923  -0.009394
    14  C   -3.647173  14.803261   0.007115  -0.009472   0.004279  -0.010678
    15  H   -0.001371   0.007115   0.438944  -0.009006   0.001355   0.000218
    16  H    0.003101  -0.009472  -0.009006   0.419366  -0.006580   0.001939
    17  H   -0.005923   0.004279   0.001355  -0.006580   0.420941  -0.009970
    18  H   -0.009394  -0.010678   0.000218   0.001939  -0.009970   0.455197
    19  H    0.065427  -0.059816   0.000361  -0.000525   0.001314  -0.005614
    20  H   -0.011711  -0.046524  -0.000122   0.000015  -0.000143   0.001279
    21  H   -0.022745   0.077618   0.000016  -0.000007   0.000009  -0.000144
    22  H    0.032366  -0.037990  -0.000127   0.000007  -0.000007   0.000015
    23  H   -0.018579  -0.016678   0.000626  -0.000125   0.000015  -0.000120
    24  H    0.022935  -0.077956  -0.000326   0.000447  -0.000078   0.000193
    25  H    0.000835  -0.038643  -0.001496   0.000835  -0.000202   0.000193
              19         20         21         22         23         24
     1  C   -0.045160   0.007901  -0.001321   0.000752   0.005953   0.049738
     2  C   -0.007967   0.001653  -0.000390   0.000376  -0.002633   0.013324
     3  C    0.049948  -0.004777   0.000402  -0.000361   0.001235  -0.000720
     4  C   -0.062493   0.010180   0.000350  -0.001694   0.006001  -0.012263
     5  C   -0.058955   0.442274  -0.058840   0.013417   0.021728  -0.010978
     6  C    0.050428  -0.087998   0.371471  -0.013567  -0.002908  -0.001185
     7  C   -0.007955   0.004985  -0.021328   0.380068  -0.097908   0.012202
     8  C   -0.045175   0.045940  -0.018045  -0.022126   0.359352   0.046654
     9  C    0.074416  -0.029063  -0.003440   0.004085   0.080678   0.342402
    10  C    0.422525   0.022904   0.017831  -0.010946  -0.008403   0.004722
    11  C    0.061605  -0.008758  -0.006163   0.003152  -0.001405   0.019987
    12  C   -0.060821  -0.010484   0.004287  -0.009459   0.007046  -0.076540
    13  C    0.065427  -0.011711  -0.022745   0.032366  -0.018579   0.022935
    14  C   -0.059816  -0.046524   0.077618  -0.037990  -0.016678  -0.077956
    15  H    0.000361  -0.000122   0.000016  -0.000127   0.000626  -0.000326
    16  H   -0.000525   0.000015  -0.000007   0.000007  -0.000125   0.000447
    17  H    0.001314  -0.000143   0.000009  -0.000007   0.000015  -0.000078
    18  H   -0.005614   0.001279  -0.000144   0.000015  -0.000120   0.000193
    19  H    0.441112  -0.005447   0.001299  -0.000518   0.000347   0.000536
    20  H   -0.005447   0.455199  -0.009999   0.001897   0.000214   0.000226
    21  H    0.001299  -0.009999   0.421126  -0.006613   0.001382  -0.000094
    22  H   -0.000518   0.001897  -0.006613   0.419466  -0.008962   0.000498
    23  H    0.000347   0.000214   0.001382  -0.008962   0.438596  -0.000376
    24  H    0.000536   0.000226  -0.000094   0.000498  -0.000376   0.495348
    25  H    0.000483   0.000167  -0.000192   0.000795  -0.001382  -0.079583
              25
     1  C    0.019278
     2  C    0.015215
     3  C   -0.002834
     4  C   -0.010876
     5  C   -0.011529
     6  C   -0.002258
     7  C    0.016505
     8  C    0.023451
     9  C    0.364845
    10  C    0.004260
    11  C    0.003052
    12  C   -0.039447
    13  C    0.000835
    14  C   -0.038643
    15  H   -0.001496
    16  H    0.000835
    17  H   -0.000202
    18  H    0.000193
    19  H    0.000483
    20  H    0.000167
    21  H   -0.000192
    22  H    0.000795
    23  H   -0.001382
    24  H   -0.079583
    25  H    0.494730
 Mulliken charges:
               1
     1  C    0.091035
     2  C   -0.414901
     3  C   -0.441665
     4  C    0.050814
     5  C    0.052565
     6  C   -0.441956
     7  C   -0.418049
     8  C    0.089377
     9  C   -0.339355
    10  C    0.098667
    11  C   -0.568422
    12  C    0.602663
    13  C   -0.580244
    14  C    0.602696
    15  H    0.235893
    16  H    0.255877
    17  H    0.253846
    18  H    0.220326
    19  H    0.190644
    20  H    0.220193
    21  H    0.253532
    22  H    0.255473
    23  H    0.236305
    24  H    0.250888
    25  H    0.243799
 Sum of Mulliken charges =   1.00000
 Mulliken charges with hydrogens summed into heavy atoms:
               1
     1  C    0.326928
     2  C   -0.159024
     3  C   -0.187819
     4  C    0.271140
     5  C    0.272758
     6  C   -0.188424
     7  C   -0.162576
     8  C    0.325682
     9  C    0.155332
    10  C    0.289311
    11  C   -0.568422
    12  C    0.602663
    13  C   -0.580244
    14  C    0.602696
 Electronic spatial extent (au):  <R**2>=           2844.3774
 Charge=              1.0000 electrons
 Dipole moment (field-independent basis, Debye):
    X=              0.0076    Y=              0.1802    Z=             -0.0014  Tot=              0.1804
 Quadrupole moment (field-independent basis, Debye-Ang):
   XX=            -31.3765   YY=            -56.2622   ZZ=            -84.0453
   XY=              0.0042   XZ=             -0.0073   YZ=              0.1429
 Traceless Quadrupole moment (field-independent basis, Debye-Ang):
   XX=             25.8515   YY=              0.9658   ZZ=            -26.8173
   XY=              0.0042   XZ=             -0.0073   YZ=              0.1429
 Octapole moment (field-independent basis, Debye-Ang**2):
  XXX=              0.3248  YYY=              5.1902  ZZZ=             -0.0483  XYY=             -0.0014
  XXY=             -6.1621  XXZ=              0.2327  XZZ=             -0.0420  YZZ=             -3.0990
  YYZ=              0.1708  XYZ=             -0.0363
 Hexadecapole moment (field-independent basis, Debye-Ang**3):
 XXXX=          -2117.7103 YYYY=           -609.3702 ZZZZ=            -99.1233 XXXY=              0.1865
 XXXZ=             -0.2020 YYYX=             -0.0799 YYYZ=              1.5624 ZZZX=             -0.0083
 ZZZY=              0.0630 XXYY=           -505.7553 XXZZ=           -587.4971 YYZZ=           -145.5827
 XXYZ=              1.5300 YYXZ=             -0.0010 ZZXY=              0.0036
 N-N= 7.825481630797D+02 E-N=-2.801512734156D+03  KE= 5.375945394153D+02
 Unable to Open any file for archive entry.
 1\1\GINC-GADI-CPU-CLX-0113\SP\RM062X TD-FC\6-311++G(d,p)\C14H11(1+)\TS
 1578\28-Jul-2022\0\\#n M062X/6-311++G(d,p) TD(NStates=1) EmpiricalDisp
 ersion=GD3 SP\\SP_0\\1,1\C,0,-0.0234,2.494455,1.360431\C,0,-0.0261,3.6
 91458,0.671989\C,0,-0.0078,3.666761,-0.71383\C,0,0.02325,2.449806,-1.4
 07538\C,0,0.02355,-2.449206,-1.407538\C,0,-0.006,-3.663761,-0.71383\C,
 0,-0.02325,-3.690408,0.671989\C,0,-0.0177,-2.492655,1.360431\C,0,-0.01
 305,-0.0066,1.453369\C,0,0.0366,0.0003,-1.429189\C,0,0.00525,1.273455,
 0.677065\C,0,0.0156,1.235221,-0.730804\C,0,0.0057,-1.273605,0.677065\C
 ,0,0.0144,-1.236121,-0.730804\H,0,-0.0096,2.489721,2.443647\H,0,-0.026
 7,4.629253,1.211689\H,0,0.0039,4.611812,-1.272349\H,0,0.0114,2.4545,-2
 .490059\H,0,0.03375,0.00015,-2.510266\H,0,0.0105,-2.45405,-2.490059\H,
 0,0.0048,-4.608062,-1.272349\H,0,-0.02325,-4.627003,1.211689\H,0,-0.00
 3,-2.487771,2.443647\H,0,-0.907585,-0.0015,2.147437\H,0,0.811585,-0.00
 15,2.144137\\Version=ES64L-G16RevC.01\State=1-A\HF=-539.758258\RMSD=5.
 012e-09\PG=C01 [X(C14H11)]\\@
 The archive entry for this job was punched.


 ARTHROPOD AXIOM: A COMPUTER SYSTEM IS LIKE A SPIDER'S WEB.
 YOU CANNOT PULL ON ONE END WITHOUT MAKING THE OTHER END MOVE.
     -- GREG WETTSTEIN
 Job cpu time:       0 days  1 hours 19 minutes 53.3 seconds.
 Elapsed time:       0 days  0 hours  1 minutes 40.0 seconds.
 File lengths (MBytes):  RWF=    460 Int=      0 D2E=      0 Chk=     15 Scr=      1
 Normal termination of Gaussian 16 at Thu Jul 28 14:58:19 2022.
