 Entering Gaussian System, Link 0=g16
 Initial command:
 /apps/gaussian/g16c01/g16/l1.exe "/jobfs/53002009.gadi-pbs/Gau-759438.inp" -scrdir="/jobfs/53002009.gadi-pbs/"
 Entering Link 1 = /apps/gaussian/g16c01/g16/l1.exe PID=    759439.
  
 Copyright (c) 1988-2019, Gaussian, Inc.  All Rights Reserved.
  
 This is part of the Gaussian(R) 16 program.  It is based on
 the Gaussian(R) 09 system (copyright 2009, Gaussian, Inc.),
 the Gaussian(R) 03 system (copyright 2003, Gaussian, Inc.),
 the Gaussian(R) 98 system (copyright 1998, Gaussian, Inc.),
 the Gaussian(R) 94 system (copyright 1995, Gaussian, Inc.),
 the Gaussian 92(TM) system (copyright 1992, Gaussian, Inc.),
 the Gaussian 90(TM) system (copyright 1990, Gaussian, Inc.),
 the Gaussian 88(TM) system (copyright 1988, Gaussian, Inc.),
 the Gaussian 86(TM) system (copyright 1986, Carnegie Mellon
 University), and the Gaussian 82(TM) system (copyright 1983,
 Carnegie Mellon University). Gaussian is a federally registered
 trademark of Gaussian, Inc.
  
 This software contains proprietary and confidential information,
 including trade secrets, belonging to Gaussian, Inc.
  
 This software is provided under written license and may be
 used, copied, transmitted, or stored only in accord with that
 written license.
  
 The following legend is applicable only to US Government
 contracts under FAR:
  
                    RESTRICTED RIGHTS LEGEND
  
 Use, reproduction and disclosure by the US Government is
 subject to restrictions as set forth in subparagraphs (a)
 and (c) of the Commercial Computer Software - Restricted
 Rights clause in FAR 52.227-19.
  
 Gaussian, Inc.
 340 Quinnipiac St., Bldg. 40, Wallingford CT 06492
  
  
 ---------------------------------------------------------------
 Warning -- This program may not be used in any manner that
 competes with the business of Gaussian, Inc. or will provide
 assistance to any competitor of Gaussian, Inc.  The licensee
 of this program is prohibited from giving any competitor of
 Gaussian, Inc. access to this program.  By using this program,
 the user acknowledges that Gaussian, Inc. is engaged in the
 business of creating and licensing software in the field of
 computational chemistry and represents and warrants to the
 licensee that it is not a competitor of Gaussian, Inc. and that
 it will not use this program in any manner prohibited above.
 ---------------------------------------------------------------
  

 Cite this work as:
 Gaussian 16, Revision C.01,
 M. J. Frisch, G. W. Trucks, H. B. Schlegel, G. E. Scuseria, 
 M. A. Robb, J. R. Cheeseman, G. Scalmani, V. Barone, 
 G. A. Petersson, H. Nakatsuji, X. Li, M. Caricato, A. V. Marenich, 
 J. Bloino, B. G. Janesko, R. Gomperts, B. Mennucci, H. P. Hratchian, 
 J. V. Ortiz, A. F. Izmaylov, J. L. Sonnenberg, D. Williams-Young, 
 F. Ding, F. Lipparini, F. Egidi, J. Goings, B. Peng, A. Petrone, 
 T. Henderson, D. Ranasinghe, V. G. Zakrzewski, J. Gao, N. Rega, 
 G. Zheng, W. Liang, M. Hada, M. Ehara, K. Toyota, R. Fukuda, 
 J. Hasegawa, M. Ishida, T. Nakajima, Y. Honda, O. Kitao, H. Nakai, 
 T. Vreven, K. Throssell, J. A. Montgomery, Jr., J. E. Peralta, 
 F. Ogliaro, M. J. Bearpark, J. J. Heyd, E. N. Brothers, K. N. Kudin, 
 V. N. Staroverov, T. A. Keith, R. Kobayashi, J. Normand, 
 K. Raghavachari, A. P. Rendell, J. C. Burant, S. S. Iyengar, 
 J. Tomasi, M. Cossi, J. M. Millam, M. Klene, C. Adamo, R. Cammi, 
 J. W. Ochterski, R. L. Martin, K. Morokuma, O. Farkas, 
 J. B. Foresman, and D. J. Fox, Gaussian, Inc., Wallingford CT, 2019.
 
 ******************************************
 Gaussian 16:  ES64L-G16RevC.01  3-Jul-2019
                28-Jul-2022 
 ******************************************
 %NProcShared=48
 Will use up to   48 processors via shared memory.
 %mem = 190GB
 ---------------------------------------------------------------
 #n M062X/6-311++G(d,p) TD(NStates=1) EmpiricalDispersion=GD3 SP
 ---------------------------------------------------------------
 1/38=1,172=1/1;
 2/12=2,17=6,18=5,40=1/2;
 3/5=4,6=6,7=1111,11=9,25=1,30=1,74=-55,124=31/1,2,3,8;
 4//1;
 5/5=2,38=5/2;
 8/6=1,10=2,108=1/1;
 9/41=1,42=1,70=2/14;
 6/7=2,8=2,9=2,10=2/1;
 99/5=1,9=1/99;
 ----
 SP_0
 ----
 Symbolic Z-matrix:
 Charge =  1 Multiplicity = 1
 C                    -0.0117    2.49356   1.36043 
 C                    -0.01305   3.69648   0.67199 
 C                    -0.0039    3.67531  -0.71383 
 C                     0.01162   2.45648  -1.40754 
 C                     0.01177  -2.45618  -1.40754 
 C                    -0.003    -3.67381  -0.71383 
 C                    -0.01162  -3.69596   0.67199 
 C                    -0.00885  -2.49266   1.36043 
 C                    -0.00653  -0.0033    1.45337 
 C                     0.0183    0.00015  -1.42919 
 C                     0.00263   1.26776   0.67707 
 C                     0.0078    1.23635  -0.7308 
 C                     0.00285  -1.26783   0.67707 
 C                     0.0072   -1.2368   -0.7308 
 H                    -0.0048    2.4889    2.44365 
 H                    -0.01335   4.633     1.21169 
 H                     0.00195   4.61054  -1.27235 
 H                     0.0057    2.46103  -2.49006 
 H                     0.01688   0.00008  -2.51027 
 H                     0.00525  -2.4608   -2.49006 
 H                     0.0024   -4.60866  -1.27235 
 H                    -0.01163  -4.63188   1.21169 
 H                    -0.0015   -2.48792   2.44365 
 H                    -0.88359  -0.00075   2.14661 
 H                     0.83559  -0.00075   2.14496 
 
                          Input orientation:                          
 ---------------------------------------------------------------------
 Center     Atomic      Atomic             Coordinates (Angstroms)
 Number     Number       Type             X           Y           Z
 ---------------------------------------------------------------------
      1          6           0       -0.011700    2.493555    1.360431
      2          6           0       -0.013050    3.696483    0.671989
      3          6           0       -0.003900    3.675311   -0.713830
      4          6           0        0.011625    2.456481   -1.407538
      5          6           0        0.011775   -2.456181   -1.407538
      6          6           0       -0.003000   -3.673811   -0.713830
      7          6           0       -0.011625   -3.695958    0.671989
      8          6           0       -0.008850   -2.492655    1.360431
      9          6           0       -0.006525   -0.003300    1.453369
     10          6           0        0.018300    0.000150   -1.429189
     11          6           0        0.002625    1.267755    0.677065
     12          6           0        0.007800    1.236346   -0.730804
     13          6           0        0.002850   -1.267830    0.677065
     14          6           0        0.007200   -1.236796   -0.730804
     15          1           0       -0.004800    2.488896    2.443647
     16          1           0       -0.013350    4.633003    1.211689
     17          1           0        0.001950    4.610537   -1.272349
     18          1           0        0.005700    2.461025   -2.490059
     19          1           0        0.016875    0.000075   -2.510266
     20          1           0        0.005250   -2.460800   -2.490059
     21          1           0        0.002400   -4.608662   -1.272349
     22          1           0       -0.011625   -4.631878    1.211689
     23          1           0       -0.001500   -2.487921    2.443647
     24          1           0       -0.883585   -0.000750    2.146612
     25          1           0        0.835585   -0.000750    2.144962
 ---------------------------------------------------------------------
                    Distance matrix (angstroms):
                    1          2          3          4          5
     1  C    0.000000
     2  C    1.385998   0.000000
     3  C    2.387293   1.386011   0.000000
     4  C    2.768316   2.421290   1.402504   0.000000
     5  C    5.671163   6.494638   6.170630   4.912662   0.000000
     6  C    6.506845   7.499455   7.349122   6.169435   1.401453
     7  C    6.227682   7.392441   7.500411   6.494419   2.421162
     8  C    4.986211   6.227311   6.507410   5.670628   2.768286
     9  C    2.498589   3.781401   4.269536   3.773015   3.768521
    10  C    3.741650   4.251918   3.744201   2.456435   2.456435
    11  C    1.403488   2.428784   2.780460   2.399733   4.267710
    12  C    2.440127   2.832055   2.439052   1.395247   3.754030
    13  C    3.822985   4.964341   5.135102   4.268037   2.399547
    14  C    4.276580   5.128887   4.912149   3.754768   1.394593
    15  H    1.083248   2.144086   3.373017   3.851356   6.267830
    16  H    2.144613   1.080900   2.150555   3.405616   7.557613
    17  H    3.378362   2.148527   1.089323   2.158316   7.068018
    18  H    3.850667   3.394887   2.151644   1.082547   5.034958
    19  H    4.604406   4.877610   4.090840   2.692576   2.692439
    20  H    6.274727   6.921778   6.388030   5.035032   1.082551
    21  H    7.574511   8.529720   8.302782   7.066442   2.156743
    22  H    7.126985   8.345830   8.527431   7.556833   3.405078
    23  H    5.097898   6.433176   6.924962   6.267289   3.851339
    24  H    2.756777   4.074540   4.740190   4.412637   4.411666
    25  H    2.748625   4.069320   4.731897   4.397403   4.396369
                    6          7          8          9         10
     6  C    0.000000
     7  C    1.386023   0.000000
     8  C    2.386990   1.386325   0.000000
     9  C    4.262560   3.774428   2.491090   0.000000
    10  C    3.743018   4.251712   3.741229   2.882667   0.000000
    11  C    5.133585   4.963736   3.822016   1.489400   2.458327
    12  C    4.910198   5.127946   4.275393   2.511481   1.419871
    13  C    2.779095   2.428176   1.402613   1.483837   2.458519
    14  C    2.437095   2.831194   2.439406   2.508448   1.420528
    15  H    6.924494   6.433602   5.097963   2.681733   4.603613
    16  H    8.527068   8.346429   7.127212   4.642603   5.332782
    17  H    8.303155   8.531031   7.575420   5.358834   4.613083
    18  H    6.386805   6.921509   6.274188   4.650126   2.679834
    19  H    4.089623   4.877317   4.603983   3.963706   1.081078
    20  H    2.150919   3.394768   3.850648   4.646512   2.679905
    21  H    1.088999   2.147947   3.377742   5.351540   4.611507
    22  H    2.150719   1.080381   2.144390   4.634886   5.332055
    23  H    3.372832   2.144348   1.083251   2.674699   4.603232
    24  H    4.738031   4.073007   2.755509   1.117956   3.687784
    25  H    4.729407   4.067183   2.745569   1.089705   3.666403
                   11         12         13         14         15
    11  C    0.000000
    12  C    1.408229   0.000000
    13  C    2.535585   2.872806   0.000000
    14  C    2.873133   2.473142   1.408218   0.000000
    15  H    2.147569   3.412650   4.151369   4.894698   0.000000
    16  H    3.407488   3.912928   5.925025   6.182899   2.472850
    17  H    3.869678   3.417378   6.193175   5.872359   4.279022
    18  H    3.384461   2.143553   4.892345   4.094980   4.933796
    19  H    3.430203   2.166779   3.430286   2.167124   5.544002
    20  H    4.892116   4.094371   3.384355   2.143168   6.988637
    21  H    6.191324   5.870044   3.867993   3.415080   8.011492
    22  H    5.923824   6.181400   3.406296   3.911549   7.226561
    23  H    4.150413   4.893607   2.146964   3.412115   4.976818
    24  H    2.134020   3.256455   2.133267   3.255892   2.656846
    25  H    2.111314   3.238158   2.110370   3.237910   2.644579
                   16         17         18         19         20
    16  H    0.000000
    17  H    2.484187   0.000000
    18  H    4.291945   2.470472   0.000000
    19  H    5.942885   4.773785   2.461058   0.000000
    20  H    8.001583   7.175419   4.921825   2.460985   0.000000
    21  H    9.569695   9.219199   7.173793   4.772117   2.469036
    22  H    9.264881   9.570416   8.000782   5.942117   4.291480
    23  H    7.226716   8.012287   6.988102   5.543619   4.933785
    24  H    4.806564   5.808393   5.324461   4.743136   5.323588
    25  H    4.802432   5.799735   5.313423   4.726673   5.312694
                   21         22         23         24         25
    21  H    0.000000
    22  H    2.484186   0.000000
    23  H    4.278573   2.472726   0.000000
    24  H    5.805783   4.804346   2.655621   0.000000
    25  H    5.796988   4.799595   2.641201   1.719171   0.000000
 Stoichiometry    C14H11(1+)
 Framework group  C1[X(C14H11)]
 Deg. of freedom    69
 Full point group                 C1      NOp   1
 Largest Abelian subgroup         C1      NOp   1
 Largest concise Abelian subgroup C1      NOp   1
                         Standard orientation:                         
 ---------------------------------------------------------------------
 Center     Atomic      Atomic             Coordinates (Angstroms)
 Number     Number       Type             X           Y           Z
 ---------------------------------------------------------------------
      1          6           0        2.493470   -1.360631    0.001990
      2          6           0        3.696442   -0.672288    0.007674
      3          6           0        3.675356    0.713563    0.007686
      4          6           0        2.456567    1.407434   -0.003037
      5          6           0       -2.456095    1.407739   -0.002307
      6          6           0       -3.673766    0.714024    0.008102
      7          6           0       -3.695999   -0.671820    0.007573
      8          6           0       -2.492740   -1.360303    0.000033
      9          6           0       -0.003391   -1.453378   -0.003352
     10          6           0        0.000236    1.429281   -0.009129
     11          6           0        1.267711   -0.677110   -0.007599
     12          6           0        1.236390    0.730765   -0.003465
     13          6           0       -1.267874   -0.676951   -0.007370
     14          6           0       -1.236752    0.730914   -0.002422
     15          1           0        2.488742   -2.443778   -0.012067
     16          1           0        4.632928   -1.212036    0.004240
     17          1           0        4.610616    1.272050    0.005359
     18          1           0        2.461180    2.489892    0.010041
     19          1           0        0.000230    2.510324   -0.000560
     20          1           0       -2.460644    2.490194    0.011372
     21          1           0       -4.608583    1.272625    0.006560
     22          1           0       -4.631953   -1.211450    0.004174
     23          1           0       -2.488076   -2.443448   -0.014475
     24          1           0       -0.000729   -2.152402    0.869108
     25          1           0       -0.001036   -2.139392   -0.850014
 ---------------------------------------------------------------------
 Rotational constants (GHZ):           2.1360671           0.4458696           0.3696805
 Standard basis: 6-311++G(d,p) (5D, 7F)
 There are   399 symmetry adapted cartesian basis functions of A   symmetry.
 There are   385 symmetry adapted basis functions of A   symmetry.
   385 basis functions,   603 primitive gaussians,   399 cartesian basis functions
    47 alpha electrons       47 beta electrons
       nuclear repulsion energy       781.8813664206 Hartrees.
 NAtoms=   25 NActive=   25 NUniq=   25 SFac= 1.00D+00 NAtFMM=   60 NAOKFM=F Big=F
 Integral buffers will be    131072 words long.
 Regular integral format.
 Two-electron integral symmetry is turned on.
 Nuclear repulsion after empirical dispersion term =      781.8803871476 Hartrees.
 One-electron integrals computed using PRISM.
 NBasis=   385 RedAO= T EigKep=  1.15D-06  NBF=   385
 NBsUse=   379 1.00D-06 EigRej=  8.30D-07 NBFU=   379
 ExpMin= 3.60D-02 ExpMax= 4.56D+03 ExpMxC= 6.82D+02 IAcc=3 IRadAn=         5 AccDes= 0.00D+00
 Harris functional with IExCor= 1009 and IRadAn=       5 diagonalized for initial guess.
 HarFok:  IExCor= 1009 AccDes= 0.00D+00 IRadAn=         5 IDoV= 1 UseB2=F ITyADJ=14
 ICtDFT=  3500011 ScaDFX=  1.000000  1.000000  1.000000  1.000000
 FoFCou: FMM=F IPFlag=           0 FMFlag=      100000 FMFlg1=           0
         NFxFlg=           0 DoJE=T BraDBF=F KetDBF=T FulRan=T
         wScrn=  0.000000 ICntrl=       500 IOpCl=  0 I1Cent=   200000004 NGrid=           0
         NMat0=    1 NMatS0=      1 NMatT0=    0 NMatD0=    1 NMtDS0=    0 NMtDT0=    0
 Petite list used in FoFCou.
 Requested convergence on RMS density matrix=1.00D-08 within 128 cycles.
 Requested convergence on MAX density matrix=1.00D-06.
 Requested convergence on             energy=1.00D-06.
 No special actions if energy rises.
 SCF Done:  E(RM062X) =  -539.759892978     A.U. after   15 cycles
            NFock= 15  Conv=0.45D-08     -V/T= 2.0041
 DoSCS=F DFT=T ScalE2(SS,OS)=  1.000000  1.000000
 ExpMin= 3.60D-02 ExpMax= 4.56D+03 ExpMxC= 6.82D+02 IAcc=3 IRadAn=         5 AccDes= 0.00D+00
 HarFok:  IExCor=  205 AccDes= 0.00D+00 IRadAn=         5 IDoV=-2 UseB2=F ITyADJ=14
 ICtDFT= 12500011 ScaDFX=  1.000000  1.000000  1.000000  1.000000
 Range of M.O.s used for correlation:    15   379
 NBasis=   385 NAE=    47 NBE=    47 NFC=    14 NFV=     0
 NROrb=    365 NOA=    33 NOB=    33 NVA=   332 NVB=   332

 **** Warning!!: The largest alpha MO coefficient is  0.15192844D+03

 Orbital symmetries:
       Occupied  (A) (A) (A) (A) (A) (A) (A) (A) (A) (A) (A) (A)
                 (A) (A) (A) (A) (A) (A) (A) (A) (A) (A) (A) (A)
                 (A) (A) (A) (A) (A) (A) (A) (A) (A) (A) (A) (A)
                 (A) (A) (A) (A) (A) (A) (A) (A) (A) (A) (A)
       Virtual   (A) (A) (A) (A) (A) (A) (A) (A) (A) (A) (A) (A)
                 (A) (A) (A) (A) (A) (A) (A) (A) (A) (A) (A) (A)
                 (A) (A) (A) (A) (A) (A) (A) (A) (A) (A) (A) (A)
                 (A) (A) (A) (A) (A) (A) (A) (A) (A) (A) (A) (A)
                 (A) (A) (A) (A) (A) (A) (A) (A) (A) (A) (A) (A)
                 (A) (A) (A) (A) (A) (A) (A) (A) (A) (A) (A) (A)
                 (A) (A) (A) (A) (A) (A) (A) (A) (A) (A) (A) (A)
                 (A) (A) (A) (A) (A) (A) (A) (A) (A) (A) (A) (A)
                 (A) (A) (A) (A) (A) (A) (A) (A) (A) (A) (A) (A)
                 (A) (A) (A) (A) (A) (A) (A) (A) (A) (A) (A) (A)
                 (A) (A) (A) (A) (A) (A) (A) (A) (A) (A) (A) (A)
                 (A) (A) (A) (A) (A) (A) (A) (A) (A) (A) (A) (A)
                 (A) (A) (A) (A) (A) (A) (A) (A) (A) (A) (A) (A)
                 (A) (A) (A) (A) (A) (A) (A) (A) (A) (A) (A) (A)
                 (A) (A) (A) (A) (A) (A) (A) (A) (A) (A) (A) (A)
                 (A) (A) (A) (A) (A) (A) (A) (A) (A) (A) (A) (A)
                 (A) (A) (A) (A) (A) (A) (A) (A) (A) (A) (A) (A)
                 (A) (A) (A) (A) (A) (A) (A) (A) (A) (A) (A) (A)
                 (A) (A) (A) (A) (A) (A) (A) (A) (A) (A) (A) (A)
                 (A) (A) (A) (A) (A) (A) (A) (A) (A) (A) (A) (A)
                 (A) (A) (A) (A) (A) (A) (A) (A) (A) (A) (A) (A)
                 (A) (A) (A) (A) (A) (A) (A) (A) (A) (A) (A) (A)
                 (A) (A) (A) (A) (A) (A) (A) (A) (A) (A) (A) (A)
                 (A) (A) (A) (A) (A) (A) (A) (A) (A) (A) (A) (A)
                 (A) (A) (A) (A) (A) (A) (A) (A) (A) (A) (A) (A)
                 (A) (A) (A) (A) (A) (A) (A) (A) (A) (A) (A) (A)
                 (A) (A) (A) (A) (A) (A) (A) (A) (A) (A) (A) (A)
                 (A) (A) (A) (A) (A) (A) (A) (A)
     4 initial guesses have been made.
 Convergence on wavefunction:    0.001000000000000
 Iteration     1 Dimension     4 NMult     0 NNew      4
 CISAX will form     4 AO SS matrices at one time.
 Iteration     2 Dimension     6 NMult     4 NNew      2
 Iteration     3 Dimension     8 NMult     6 NNew      2
 Iteration     4 Dimension    10 NMult     8 NNew      2
 Iteration     5 Dimension    12 NMult    10 NNew      2
 Iteration     6 Dimension    14 NMult    12 NNew      2
 ***********************************************************************
 Excited states from <AA,BB:AA,BB> singles matrix:
 ***********************************************************************
 
 Ground to excited state transition densities written to RWF  633
 Ground to excited state transition electric dipole moments (Au):
       state          X           Y           Z        Dip. S.      Osc.
         1        -0.0042     -0.6492      0.0031      0.4214      0.0293
 Ground to excited state transition velocity dipole moments (Au):
       state          X           Y           Z        Dip. S.      Osc.
         1         0.0004      0.0752     -0.0004      0.0057      0.0362
 Ground to excited state transition magnetic dipole moments (Au):
       state          X           Y           Z
         1        -0.0040      0.0003      0.0002
 Ground to excited state transition velocity quadrupole moments (Au):
       state          XX          YY          ZZ          XY          XZ          YZ
         1         0.2886      0.0369     -0.0100      0.0007     -0.0001      0.0006
 <0|del|b> * <b|rxdel|0> + <0|del|b> * <b|delr+rdel|0>
 Rotatory Strengths (R) in cgs (10**-40 erg-esu-cm/Gauss)
       state          XX          YY          ZZ    R(velocity)    E-M Angle
         1         0.0984     -0.0046      0.0658      0.0532       90.00
 1/2[<0|r|b>*<b|rxdel|0> + (<0|rxdel|b>*<b|r|0>)*]
 Rotatory Strengths (R) in cgs (10**-40 erg-esu-cm/Gauss)
       state          XX          YY          ZZ     R(length)
         1        -0.0120      0.1549     -0.0005      0.0475
  1/2[<0|del|b>*<b|r|0> + (<0|r|b>*<b|del|0>)*] (Au)
       state          X           Y           Z        Dip. S.   Osc.(frdel)
         1        -0.0000     -0.0488     -0.0000      0.0488      0.0326

 Excitation energies and oscillator strengths:
 
 Excited State   1:      Singlet-A      2.8336 eV  437.55 nm  f=0.0293  <S**2>=0.000
      47 -> 48         0.70425
 This state for optimization and/or second-order correction.
 Total Energy, E(TD-HF/TD-DFT) =  -539.655759367    
 Copying the excited state density for this state as the 1-particle RhoCI density.
 SavETr:  write IOETrn=   770 NScale= 10 NData=  16 NLR=1 NState=    1 LETran=      28.

 **********************************************************************

            Population analysis using the SCF Density.

 **********************************************************************

 Orbital symmetries:
       Occupied  (A) (A) (A) (A) (A) (A) (A) (A) (A) (A) (A) (A)
                 (A) (A) (A) (A) (A) (A) (A) (A) (A) (A) (A) (A)
                 (A) (A) (A) (A) (A) (A) (A) (A) (A) (A) (A) (A)
                 (A) (A) (A) (A) (A) (A) (A) (A) (A) (A) (A)
       Virtual   (A) (A) (A) (A) (A) (A) (A) (A) (A) (A) (A) (A)
                 (A) (A) (A) (A) (A) (A) (A) (A) (A) (A) (A) (A)
                 (A) (A) (A) (A) (A) (A) (A) (A) (A) (A) (A) (A)
                 (A) (A) (A) (A) (A) (A) (A) (A) (A) (A) (A) (A)
                 (A) (A) (A) (A) (A) (A) (A) (A) (A) (A) (A) (A)
                 (A) (A) (A) (A) (A) (A) (A) (A) (A) (A) (A) (A)
                 (A) (A) (A) (A) (A) (A) (A) (A) (A) (A) (A) (A)
                 (A) (A) (A) (A) (A) (A) (A) (A) (A) (A) (A) (A)
                 (A) (A) (A) (A) (A) (A) (A) (A) (A) (A) (A) (A)
                 (A) (A) (A) (A) (A) (A) (A) (A) (A) (A) (A) (A)
                 (A) (A) (A) (A) (A) (A) (A) (A) (A) (A) (A) (A)
                 (A) (A) (A) (A) (A) (A) (A) (A) (A) (A) (A) (A)
                 (A) (A) (A) (A) (A) (A) (A) (A) (A) (A) (A) (A)
                 (A) (A) (A) (A) (A) (A) (A) (A) (A) (A) (A) (A)
                 (A) (A) (A) (A) (A) (A) (A) (A) (A) (A) (A) (A)
                 (A) (A) (A) (A) (A) (A) (A) (A) (A) (A) (A) (A)
                 (A) (A) (A) (A) (A) (A) (A) (A) (A) (A) (A) (A)
                 (A) (A) (A) (A) (A) (A) (A) (A) (A) (A) (A) (A)
                 (A) (A) (A) (A) (A) (A) (A) (A) (A) (A) (A) (A)
                 (A) (A) (A) (A) (A) (A) (A) (A) (A) (A) (A) (A)
                 (A) (A) (A) (A) (A) (A) (A) (A) (A) (A) (A) (A)
                 (A) (A) (A) (A) (A) (A) (A) (A) (A) (A) (A) (A)
                 (A) (A) (A) (A) (A) (A) (A) (A) (A) (A) (A) (A)
                 (A) (A) (A) (A) (A) (A) (A) (A) (A) (A) (A) (A)
                 (A) (A) (A) (A) (A) (A) (A) (A) (A) (A) (A) (A)
                 (A) (A) (A) (A) (A) (A) (A) (A) (A) (A) (A) (A)
                 (A) (A) (A) (A) (A) (A) (A) (A) (A) (A) (A) (A)
                 (A) (A) (A) (A) (A) (A) (A) (A)
 The electronic state is 1-A.
 Alpha  occ. eigenvalues --  -10.77672 -10.73239 -10.73197 -10.72376 -10.72373
 Alpha  occ. eigenvalues --  -10.71302 -10.71280 -10.70976 -10.70962 -10.70955
 Alpha  occ. eigenvalues --  -10.69898 -10.69882 -10.69667 -10.69647  -1.16494
 Alpha  occ. eigenvalues --   -1.12623  -1.07030  -1.05679  -1.01472  -1.00158
 Alpha  occ. eigenvalues --   -0.95841  -0.91040  -0.86428  -0.85930  -0.83822
 Alpha  occ. eigenvalues --   -0.78414  -0.76036  -0.74449  -0.69559  -0.69226
 Alpha  occ. eigenvalues --   -0.68496  -0.68138  -0.68011  -0.64857  -0.64386
 Alpha  occ. eigenvalues --   -0.62965  -0.61762  -0.60051  -0.59794  -0.59049
 Alpha  occ. eigenvalues --   -0.56881  -0.55176  -0.54780  -0.52500  -0.46741
 Alpha  occ. eigenvalues --   -0.46044  -0.44567
 Alpha virt. eigenvalues --   -0.26105  -0.14593  -0.14079  -0.12683  -0.11181
 Alpha virt. eigenvalues --   -0.10091  -0.09242  -0.08016  -0.07955  -0.07481
 Alpha virt. eigenvalues --   -0.07208  -0.07131  -0.05641  -0.05581  -0.05319
 Alpha virt. eigenvalues --   -0.03848  -0.03676  -0.03278  -0.03131  -0.02166
 Alpha virt. eigenvalues --   -0.01377  -0.00949   0.00194   0.00557   0.00668
 Alpha virt. eigenvalues --    0.01063   0.01512   0.01956   0.02224   0.02282
 Alpha virt. eigenvalues --    0.02458   0.02663   0.02825   0.03247   0.03347
 Alpha virt. eigenvalues --    0.04234   0.04508   0.04701   0.05075   0.05375
 Alpha virt. eigenvalues --    0.06004   0.06304   0.06606   0.07042   0.07266
 Alpha virt. eigenvalues --    0.07906   0.08231   0.08352   0.08574   0.08925
 Alpha virt. eigenvalues --    0.09539   0.09556   0.10038   0.10875   0.11047
 Alpha virt. eigenvalues --    0.11130   0.12178   0.12223   0.12938   0.12946
 Alpha virt. eigenvalues --    0.13417   0.13496   0.14014   0.14458   0.16121
 Alpha virt. eigenvalues --    0.16233   0.16486   0.17324   0.17607   0.17757
 Alpha virt. eigenvalues --    0.18130   0.19130   0.19281   0.19668   0.19765
 Alpha virt. eigenvalues --    0.21611   0.21626   0.22690   0.23083   0.23559
 Alpha virt. eigenvalues --    0.23813   0.24588   0.25200   0.26899   0.27673
 Alpha virt. eigenvalues --    0.28846   0.29285   0.29850   0.31393   0.35814
 Alpha virt. eigenvalues --    0.36541   0.38190   0.39341   0.41137   0.41359
 Alpha virt. eigenvalues --    0.41976   0.42124   0.42962   0.43774   0.44256
 Alpha virt. eigenvalues --    0.45018   0.45127   0.46049   0.46159   0.47924
 Alpha virt. eigenvalues --    0.48496   0.48859   0.49002   0.50397   0.51265
 Alpha virt. eigenvalues --    0.51642   0.51739   0.52137   0.53083   0.53937
 Alpha virt. eigenvalues --    0.54051   0.54736   0.55712   0.55769   0.57408
 Alpha virt. eigenvalues --    0.58259   0.58819   0.61461   0.62212   0.62326
 Alpha virt. eigenvalues --    0.63221   0.63507   0.64841   0.65178   0.67084
 Alpha virt. eigenvalues --    0.70480   0.70530   0.71035   0.72452   0.72860
 Alpha virt. eigenvalues --    0.75765   0.75936   0.76320   0.76800   0.77041
 Alpha virt. eigenvalues --    0.77809   0.77846   0.78250   0.80140   0.80361
 Alpha virt. eigenvalues --    0.81325   0.81610   0.82164   0.83053   0.85117
 Alpha virt. eigenvalues --    0.87147   0.88110   0.88171   0.89542   0.90428
 Alpha virt. eigenvalues --    0.90959   0.91427   0.93366   0.94715   0.96385
 Alpha virt. eigenvalues --    0.96679   1.00289   1.01310   1.01784   1.02886
 Alpha virt. eigenvalues --    1.03195   1.03976   1.04721   1.05423   1.08912
 Alpha virt. eigenvalues --    1.19385   1.23233   1.24066   1.25344   1.28067
 Alpha virt. eigenvalues --    1.29944   1.31517   1.34452   1.35868   1.36125
 Alpha virt. eigenvalues --    1.39441   1.40122   1.41016   1.43240   1.43560
 Alpha virt. eigenvalues --    1.43635   1.45262   1.45430   1.46386   1.46646
 Alpha virt. eigenvalues --    1.47734   1.48278   1.51764   1.53686   1.55765
 Alpha virt. eigenvalues --    1.56009   1.56483   1.56668   1.57891   1.61586
 Alpha virt. eigenvalues --    1.63102   1.63331   1.63533   1.66187   1.68228
 Alpha virt. eigenvalues --    1.68488   1.68720   1.69733   1.74603   1.76002
 Alpha virt. eigenvalues --    1.77211   1.78088   1.79984   1.80422   1.81020
 Alpha virt. eigenvalues --    1.83117   1.83314   1.83518   1.83996   1.84103
 Alpha virt. eigenvalues --    1.84404   1.86011   1.86167   1.88308   1.91311
 Alpha virt. eigenvalues --    1.92167   1.94104   1.95174   1.97881   1.98446
 Alpha virt. eigenvalues --    2.00025   2.02369   2.04607   2.06995   2.11923
 Alpha virt. eigenvalues --    2.12107   2.14090   2.15280   2.19527   2.21233
 Alpha virt. eigenvalues --    2.23074   2.28800   2.30369   2.34497   2.35151
 Alpha virt. eigenvalues --    2.36279   2.38300   2.39039   2.42384   2.43437
 Alpha virt. eigenvalues --    2.46750   2.47508   2.49580   2.53058   2.53798
 Alpha virt. eigenvalues --    2.54186   2.56658   2.57930   2.58419   2.59714
 Alpha virt. eigenvalues --    2.59940   2.61535   2.62225   2.63573   2.63941
 Alpha virt. eigenvalues --    2.64791   2.65067   2.65361   2.65398   2.67972
 Alpha virt. eigenvalues --    2.68362   2.71065   2.71397   2.73414   2.74837
 Alpha virt. eigenvalues --    2.76389   2.79024   2.79860   2.83151   2.83224
 Alpha virt. eigenvalues --    2.85237   2.86375   2.92167   2.96879   2.99700
 Alpha virt. eigenvalues --    3.00302   3.04711   3.11566   3.11865   3.13622
 Alpha virt. eigenvalues --    3.20890   3.23574   3.27132   3.28443   3.31056
 Alpha virt. eigenvalues --    3.33411   3.33657   3.43473   3.46065   3.47373
 Alpha virt. eigenvalues --    3.49041   3.50623   3.56605   3.65379   3.67179
 Alpha virt. eigenvalues --    3.67551   3.93356   3.94310   3.94666   3.96173
 Alpha virt. eigenvalues --    4.03581   4.06909   4.07661   4.12549   4.35375
 Alpha virt. eigenvalues --    4.61130   4.70230   4.72090  23.45196  23.59978
 Alpha virt. eigenvalues --   23.82550  23.85263  23.88092  23.89635  23.90592
 Alpha virt. eigenvalues --   23.92392  23.98256  24.00527  24.00936  24.01113
 Alpha virt. eigenvalues --   24.11243  24.11372
          Condensed to atoms (all electrons):
               1          2          3          4          5          6
     1  C    8.526986   0.418241  -0.572756   1.837413  -0.012318  -0.095715
     2  C    0.418241   7.086100   0.367369  -0.988353  -0.034628  -0.015964
     3  C   -0.572756   0.367369   6.614634   0.745940  -0.119692   0.017499
     4  C    1.837413  -0.988353   0.745940  10.725138  -0.299657  -0.121332
     5  C   -0.012318  -0.034628  -0.119692  -0.299657  10.684145   0.752851
     6  C   -0.095715  -0.015964   0.017499  -0.121332   0.752851   6.617944
     7  C   -0.022417   0.005017  -0.015917  -0.033849  -0.988456   0.368776
     8  C    0.411481  -0.023905  -0.095689  -0.006706   1.818270  -0.567293
     9  C   -1.298393  -0.724270   0.284847  -0.305662  -0.326564   0.284006
    10  C   -1.219156   0.212487  -0.363701  -2.509224  -2.505072  -0.371881
    11  C    0.286514  -0.965412   1.014474  -0.192376  -1.526562  -0.190180
    12  C   -1.891760   1.205490  -1.361184  -1.372633  -0.304093  -0.196431
    13  C    0.197149  -0.200134  -0.189519  -1.536305  -0.193899   1.019578
    14  C   -1.066354  -0.211038  -0.197246  -0.318079  -1.321080  -1.373716
    15  H    0.364527  -0.102816  -0.002296   0.025170   0.005887   0.001167
    16  H   -0.019005   0.378424  -0.015476   0.014056  -0.001623  -0.000346
    17  H   -0.022205  -0.018167   0.372474  -0.064906   0.000372   0.000406
    18  H    0.048722   0.003583  -0.085826   0.452315   0.007608  -0.005039
    19  H   -0.046311  -0.007687   0.050629  -0.066236  -0.064606   0.050814
    20  H    0.007583   0.001904  -0.005001   0.007680   0.451639  -0.085363
    21  H   -0.001329  -0.000400   0.000404   0.000373  -0.064615   0.372526
    22  H    0.000739   0.000374  -0.000344  -0.001628   0.013859  -0.015164
    23  H    0.005861  -0.002685   0.001157   0.005958   0.024981  -0.002183
    24  H    0.041308   0.014033  -0.001117  -0.012283  -0.011549  -0.001343
    25  H    0.025847   0.014857  -0.002218  -0.011518  -0.011939  -0.001930
               7          8          9         10         11         12
     1  C   -0.022417   0.411481  -1.298393  -1.219156   0.286514  -1.891760
     2  C    0.005017  -0.023905  -0.724270   0.212487  -0.965412   1.205490
     3  C   -0.015917  -0.095689   0.284847  -0.363701   1.014474  -1.361184
     4  C   -0.033849  -0.006706  -0.305662  -2.509224  -0.192376  -1.372633
     5  C   -0.988456   1.818270  -0.326564  -2.505072  -1.526562  -0.304093
     6  C    0.368776  -0.567293   0.284006  -0.371881  -0.190180  -0.196431
     7  C    7.094785   0.422077  -0.722980   0.214341  -0.205598  -0.213420
     8  C    0.422077   8.526381  -1.316597  -1.217618   0.190895  -1.075675
     9  C   -0.722980  -1.316597   9.422332   0.337740   1.603116  -1.718999
    10  C    0.214341  -1.217618   0.337740   9.209866  -0.518945   2.355894
    11  C   -0.205598   0.190895   1.603116  -0.518945  14.367622  -3.802285
    12  C   -0.213420  -1.075675  -1.718999   2.355894  -3.802285  15.711345
    13  C   -0.970435   0.301862   1.615952  -0.529231   1.203025  -4.693023
    14  C    1.200472  -1.866297  -1.705419   2.338885  -4.705803   2.918037
    15  H   -0.002708   0.005857   0.088208  -0.009157  -0.025578  -0.022384
    16  H    0.000377   0.000783   0.004298  -0.010231   0.029943  -0.037433
    17  H   -0.000399  -0.001336  -0.005040   0.019977  -0.026417   0.087647
    18  H    0.001896   0.007660  -0.026481   0.016440  -0.007752  -0.051877
    19  H   -0.007708  -0.046274   0.075555   0.421952   0.070256  -0.063131
    20  H    0.003379   0.048417  -0.026635   0.016603  -0.010775  -0.012942
    21  H   -0.017932  -0.022210  -0.005054   0.019970  -0.006314   0.005084
    22  H    0.378769  -0.019794   0.004050  -0.010182   0.003260  -0.009362
    23  H   -0.102819   0.363852   0.087615  -0.009098   0.000371   0.006824
    24  H    0.013397   0.039838   0.349116   0.005003   0.017337  -0.068798
    25  H    0.015560   0.027926   0.360930   0.004856   0.008232  -0.049928
              13         14         15         16         17         18
     1  C    0.197149  -1.066354   0.364527  -0.019005  -0.022205   0.048722
     2  C   -0.200134  -0.211038  -0.102816   0.378424  -0.018167   0.003583
     3  C   -0.189519  -0.197246  -0.002296  -0.015476   0.372474  -0.085826
     4  C   -1.536305  -0.318079   0.025170   0.014056  -0.064906   0.452315
     5  C   -0.193899  -1.321080   0.005887  -0.001623   0.000372   0.007608
     6  C    1.019578  -1.373716   0.001167  -0.000346   0.000406  -0.005039
     7  C   -0.970435   1.200472  -0.002708   0.000377  -0.000399   0.001896
     8  C    0.301862  -1.866297   0.005857   0.000783  -0.001336   0.007660
     9  C    1.615952  -1.705419   0.088208   0.004298  -0.005040  -0.026481
    10  C   -0.529231   2.338885  -0.009157  -0.010231   0.019977   0.016440
    11  C    1.203025  -4.705803  -0.025578   0.029943  -0.026417  -0.007752
    12  C   -4.693023   2.918037  -0.022384  -0.037433   0.087647  -0.051877
    13  C   14.347325  -3.809667   0.000396   0.003243  -0.006205  -0.010968
    14  C   -3.809667  15.675357   0.006826  -0.009385   0.005082  -0.012967
    15  H    0.000396   0.006826   0.438593  -0.009020   0.001420   0.000202
    16  H    0.003243  -0.009385  -0.009020   0.419335  -0.006582   0.001932
    17  H   -0.006205   0.005082   0.001420  -0.006582   0.421527  -0.010091
    18  H   -0.010968  -0.012967   0.000202   0.001932  -0.010091   0.453902
    19  H    0.071664  -0.062952   0.000325  -0.000529   0.001369  -0.005956
    20  H   -0.007776  -0.051352  -0.000114   0.000015  -0.000142   0.001282
    21  H   -0.026872   0.087765   0.000014  -0.000007   0.000010  -0.000143
    22  H    0.029713  -0.036537  -0.000126   0.000007  -0.000007   0.000015
    23  H   -0.025296  -0.021568   0.000607  -0.000126   0.000014  -0.000114
    24  H    0.018446  -0.069626  -0.000590   0.000538  -0.000107   0.000183
    25  H    0.007413  -0.049364  -0.001221   0.000735  -0.000175   0.000188
              19         20         21         22         23         24
     1  C   -0.046311   0.007583  -0.001329   0.000739   0.005861   0.041308
     2  C   -0.007687   0.001904  -0.000400   0.000374  -0.002685   0.014033
     3  C    0.050629  -0.005001   0.000404  -0.000344   0.001157  -0.001117
     4  C   -0.066236   0.007680   0.000373  -0.001628   0.005958  -0.012283
     5  C   -0.064606   0.451639  -0.064615   0.013859   0.024981  -0.011549
     6  C    0.050814  -0.085363   0.372526  -0.015164  -0.002183  -0.001343
     7  C   -0.007708   0.003379  -0.017932   0.378769  -0.102819   0.013397
     8  C   -0.046274   0.048417  -0.022210  -0.019794   0.363852   0.039838
     9  C    0.075555  -0.026635  -0.005054   0.004050   0.087615   0.349116
    10  C    0.421952   0.016603   0.019970  -0.010182  -0.009098   0.005003
    11  C    0.070256  -0.010775  -0.006314   0.003260   0.000371   0.017337
    12  C   -0.063131  -0.012942   0.005084  -0.009362   0.006824  -0.068798
    13  C    0.071664  -0.007776  -0.026872   0.029713  -0.025296   0.018446
    14  C   -0.062952  -0.051352   0.087765  -0.036537  -0.021568  -0.069626
    15  H    0.000325  -0.000114   0.000014  -0.000126   0.000607  -0.000590
    16  H   -0.000529   0.000015  -0.000007   0.000007  -0.000126   0.000538
    17  H    0.001369  -0.000142   0.000010  -0.000007   0.000014  -0.000107
    18  H   -0.005956   0.001282  -0.000143   0.000015  -0.000114   0.000183
    19  H    0.441570  -0.005881   0.001365  -0.000528   0.000319   0.000579
    20  H   -0.005881   0.453878  -0.010118   0.001913   0.000203   0.000199
    21  H    0.001365  -0.010118   0.421644  -0.006600   0.001431  -0.000115
    22  H   -0.000528   0.001913  -0.006600   0.419377  -0.008998   0.000565
    23  H    0.000319   0.000203   0.001431  -0.008998   0.438528  -0.000628
    24  H    0.000579   0.000199  -0.000115   0.000565  -0.000628   0.494785
    25  H    0.000540   0.000174  -0.000169   0.000714  -0.001155  -0.079793
              25
     1  C    0.025847
     2  C    0.014857
     3  C   -0.002218
     4  C   -0.011518
     5  C   -0.011939
     6  C   -0.001930
     7  C    0.015560
     8  C    0.027926
     9  C    0.360930
    10  C    0.004856
    11  C    0.008232
    12  C   -0.049928
    13  C    0.007413
    14  C   -0.049364
    15  H   -0.001221
    16  H    0.000735
    17  H   -0.000175
    18  H    0.000188
    19  H    0.000540
    20  H    0.000174
    21  H   -0.000169
    22  H    0.000714
    23  H   -0.001155
    24  H   -0.079793
    25  H    0.494475
 Mulliken charges:
               1
     1  C    0.095350
     2  C   -0.412419
     3  C   -0.441445
     4  C    0.026704
     5  C    0.026741
     6  C   -0.441690
     7  C   -0.414207
     8  C    0.094095
     9  C   -0.335672
    10  C    0.099479
    11  C   -0.611048
    12  C    0.655037
    13  C   -0.616438
    14  C    0.656026
    15  H    0.236810
    16  H    0.256076
    17  H    0.251482
    18  H    0.221285
    19  H    0.190861
    20  H    0.221231
    21  H    0.251291
    22  H    0.255915
    23  H    0.236950
    24  H    0.250624
    25  H    0.246961
 Sum of Mulliken charges =   1.00000
 Mulliken charges with hydrogens summed into heavy atoms:
               1
     1  C    0.332160
     2  C   -0.156343
     3  C   -0.189963
     4  C    0.247989
     5  C    0.247973
     6  C   -0.190399
     7  C   -0.158292
     8  C    0.331046
     9  C    0.161912
    10  C    0.290340
    11  C   -0.611048
    12  C    0.655037
    13  C   -0.616438
    14  C    0.656026
 Electronic spatial extent (au):  <R**2>=           2850.1035
 Charge=              1.0000 electrons
 Dipole moment (field-independent basis, Debye):
    X=              0.0039    Y=              0.1843    Z=             -0.0004  Tot=              0.1843
 Quadrupole moment (field-independent basis, Debye-Ang):
   XX=            -31.2462   YY=            -56.2631   ZZ=            -84.0935
   XY=              0.0022   XZ=             -0.0037   YZ=              0.0716
 Traceless Quadrupole moment (field-independent basis, Debye-Ang):
   XX=             25.9547   YY=              0.9379   ZZ=            -26.8926
   XY=              0.0022   XZ=             -0.0037   YZ=              0.0716
 Octapole moment (field-independent basis, Debye-Ang**2):
  XXX=              0.1632  YYY=              5.2045  ZZZ=             -0.0232  XYY=             -0.0011
  XXY=             -5.6638  XXZ=              0.1207  XZZ=             -0.0205  YZZ=             -3.0924
  YYZ=              0.0870  XYZ=             -0.0183
 Hexadecapole moment (field-independent basis, Debye-Ang**3):
 XXXX=          -2120.0631 YYYY=           -609.2712 ZZZZ=            -99.2025 XXXY=              0.0933
 XXXZ=             -0.1024 YYYX=             -0.0395 YYYZ=              0.7821 ZZZX=             -0.0044
 ZZZY=              0.0320 XXYY=           -506.7153 XXZZ=           -589.1176 YYZZ=           -145.6417
 XXYZ=              0.7724 YYXZ=             -0.0004 ZZXY=              0.0018
 N-N= 7.818803871476D+02 E-N=-2.800140496237D+03  KE= 5.375496992864D+02
 Unable to Open any file for archive entry.
 1\1\GINC-GADI-CPU-CLX-0113\SP\RM062X TD-FC\6-311++G(d,p)\C14H11(1+)\TS
 1578\28-Jul-2022\0\\#n M062X/6-311++G(d,p) TD(NStates=1) EmpiricalDisp
 ersion=GD3 SP\\SP_0\\1,1\C,0,-0.0117,2.493555,1.360431\C,0,-0.01305,3.
 696483,0.671989\C,0,-0.0039,3.675311,-0.71383\C,0,0.011625,2.456481,-1
 .407538\C,0,0.011775,-2.456181,-1.407538\C,0,-0.003,-3.673811,-0.71383
 \C,0,-0.011625,-3.695958,0.671989\C,0,-0.00885,-2.492655,1.360431\C,0,
 -0.006525,-0.0033,1.453369\C,0,0.0183,0.00015,-1.429189\C,0,0.002625,1
 .267755,0.677065\C,0,0.0078,1.236346,-0.730804\C,0,0.00285,-1.26783,0.
 677065\C,0,0.0072,-1.236796,-0.730804\H,0,-0.0048,2.488896,2.443647\H,
 0,-0.01335,4.633003,1.211689\H,0,0.00195,4.610537,-1.272349\H,0,0.0057
 ,2.461025,-2.490059\H,0,0.016875,0.000075,-2.510266\H,0,0.00525,-2.460
 8,-2.490059\H,0,0.0024,-4.608662,-1.272349\H,0,-0.011625,-4.631878,1.2
 11689\H,0,-0.0015,-2.487921,2.443647\H,0,-0.883585,-0.00075,2.146612\H
 ,0,0.835585,-0.00075,2.144962\\Version=ES64L-G16RevC.01\State=1-A\HF=-
 539.759893\RMSD=4.547e-09\PG=C01 [X(C14H11)]\\@
 The archive entry for this job was punched.


 NOTHING MAKES A PERSON MORE PRODUCTIVE THAN THE LAST MINUTE.
 Job cpu time:       0 days  1 hours 19 minutes 51.6 seconds.
 Elapsed time:       0 days  0 hours  1 minutes 40.3 seconds.
 File lengths (MBytes):  RWF=    460 Int=      0 D2E=      0 Chk=     15 Scr=      1
 Normal termination of Gaussian 16 at Thu Jul 28 15:03:21 2022.
