 Entering Gaussian System, Link 0=g16
 Initial command:
 /apps/gaussian/g16c01/g16/l1.exe "/jobfs/53002009.gadi-pbs/Gau-795040.inp" -scrdir="/jobfs/53002009.gadi-pbs/"
 Entering Link 1 = /apps/gaussian/g16c01/g16/l1.exe PID=    795041.
  
 Copyright (c) 1988-2019, Gaussian, Inc.  All Rights Reserved.
  
 This is part of the Gaussian(R) 16 program.  It is based on
 the Gaussian(R) 09 system (copyright 2009, Gaussian, Inc.),
 the Gaussian(R) 03 system (copyright 2003, Gaussian, Inc.),
 the Gaussian(R) 98 system (copyright 1998, Gaussian, Inc.),
 the Gaussian(R) 94 system (copyright 1995, Gaussian, Inc.),
 the Gaussian 92(TM) system (copyright 1992, Gaussian, Inc.),
 the Gaussian 90(TM) system (copyright 1990, Gaussian, Inc.),
 the Gaussian 88(TM) system (copyright 1988, Gaussian, Inc.),
 the Gaussian 86(TM) system (copyright 1986, Carnegie Mellon
 University), and the Gaussian 82(TM) system (copyright 1983,
 Carnegie Mellon University). Gaussian is a federally registered
 trademark of Gaussian, Inc.
  
 This software contains proprietary and confidential information,
 including trade secrets, belonging to Gaussian, Inc.
  
 This software is provided under written license and may be
 used, copied, transmitted, or stored only in accord with that
 written license.
  
 The following legend is applicable only to US Government
 contracts under FAR:
  
                    RESTRICTED RIGHTS LEGEND
  
 Use, reproduction and disclosure by the US Government is
 subject to restrictions as set forth in subparagraphs (a)
 and (c) of the Commercial Computer Software - Restricted
 Rights clause in FAR 52.227-19.
  
 Gaussian, Inc.
 340 Quinnipiac St., Bldg. 40, Wallingford CT 06492
  
  
 ---------------------------------------------------------------
 Warning -- This program may not be used in any manner that
 competes with the business of Gaussian, Inc. or will provide
 assistance to any competitor of Gaussian, Inc.  The licensee
 of this program is prohibited from giving any competitor of
 Gaussian, Inc. access to this program.  By using this program,
 the user acknowledges that Gaussian, Inc. is engaged in the
 business of creating and licensing software in the field of
 computational chemistry and represents and warrants to the
 licensee that it is not a competitor of Gaussian, Inc. and that
 it will not use this program in any manner prohibited above.
 ---------------------------------------------------------------
  

 Cite this work as:
 Gaussian 16, Revision C.01,
 M. J. Frisch, G. W. Trucks, H. B. Schlegel, G. E. Scuseria, 
 M. A. Robb, J. R. Cheeseman, G. Scalmani, V. Barone, 
 G. A. Petersson, H. Nakatsuji, X. Li, M. Caricato, A. V. Marenich, 
 J. Bloino, B. G. Janesko, R. Gomperts, B. Mennucci, H. P. Hratchian, 
 J. V. Ortiz, A. F. Izmaylov, J. L. Sonnenberg, D. Williams-Young, 
 F. Ding, F. Lipparini, F. Egidi, J. Goings, B. Peng, A. Petrone, 
 T. Henderson, D. Ranasinghe, V. G. Zakrzewski, J. Gao, N. Rega, 
 G. Zheng, W. Liang, M. Hada, M. Ehara, K. Toyota, R. Fukuda, 
 J. Hasegawa, M. Ishida, T. Nakajima, Y. Honda, O. Kitao, H. Nakai, 
 T. Vreven, K. Throssell, J. A. Montgomery, Jr., J. E. Peralta, 
 F. Ogliaro, M. J. Bearpark, J. J. Heyd, E. N. Brothers, K. N. Kudin, 
 V. N. Staroverov, T. A. Keith, R. Kobayashi, J. Normand, 
 K. Raghavachari, A. P. Rendell, J. C. Burant, S. S. Iyengar, 
 J. Tomasi, M. Cossi, J. M. Millam, M. Klene, C. Adamo, R. Cammi, 
 J. W. Ochterski, R. L. Martin, K. Morokuma, O. Farkas, 
 J. B. Foresman, and D. J. Fox, Gaussian, Inc., Wallingford CT, 2019.
 
 ******************************************
 Gaussian 16:  ES64L-G16RevC.01  3-Jul-2019
                28-Jul-2022 
 ******************************************
 %NProcShared=48
 Will use up to   48 processors via shared memory.
 %mem = 190GB
 ---------------------------------------------------------------
 #n M062X/6-311++G(d,p) TD(NStates=1) EmpiricalDispersion=GD3 SP
 ---------------------------------------------------------------
 1/38=1,172=1/1;
 2/12=2,17=6,18=5,40=1/2;
 3/5=4,6=6,7=1111,11=9,25=1,30=1,74=-55,124=31/1,2,3,8;
 4//1;
 5/5=2,38=5/2;
 8/6=1,10=2,108=1/1;
 9/41=1,42=1,70=2/14;
 6/7=2,8=2,9=2,10=2/1;
 99/5=1,9=1/99;
 ------
 SP_100
 ------
 Symbolic Z-matrix:
 Charge =  1 Multiplicity = 1
 C                    -0.004     2.49206   1.36043 
 C                    -0.0068    3.69746   0.67199 
 C                    -0.0014    3.67616  -0.71383 
 C                     0.00795   2.45831  -1.40754 
 C                     0.00765  -2.45891  -1.40754 
 C                    -0.0032   -3.67916  -0.71383 
 C                    -0.00965  -3.69851   0.67199 
 C                    -0.0097   -2.49386   1.36043 
 C                    -0.00445   0.0066    1.45337 
 C                     0.0122   -0.0003   -1.42919 
 C                     0.00205   1.26596   0.67707 
 C                     0.0044    1.23732  -0.7308 
 C                     0.0016   -1.26581   0.67707 
 C                     0.0056   -1.23642  -0.7308 
 H                     0.0012    2.48732   2.44365 
 H                    -0.0066    4.63275   1.21169 
 H                     0.0019    4.60761  -1.27235 
 H                     0.0032    2.4629   -2.49006 
 H                     0.01125  -0.00015  -2.51027 
 H                     0.0041   -2.46335  -2.49006 
 H                     0.001    -4.61136  -1.27235 
 H                    -0.01005  -4.635     1.21169 
 H                    -0.0054   -2.48927   2.44365 
 H                    -0.87559   0.0015    2.14414 
 H                     0.84359   0.0015    2.14744 
 
                          Input orientation:                          
 ---------------------------------------------------------------------
 Center     Atomic      Atomic             Coordinates (Angstroms)
 Number     Number       Type             X           Y           Z
 ---------------------------------------------------------------------
      1          6           0       -0.004000    2.492055    1.360431
      2          6           0       -0.006800    3.697458    0.671989
      3          6           0       -0.001400    3.676161   -0.713830
      4          6           0        0.007950    2.458306   -1.407538
      5          6           0        0.007650   -2.458906   -1.407538
      6          6           0       -0.003200   -3.679161   -0.713830
      7          6           0       -0.009650   -3.698508    0.671989
      8          6           0       -0.009700   -2.493855    1.360431
      9          6           0       -0.004450    0.006600    1.453369
     10          6           0        0.012200   -0.000300   -1.429189
     11          6           0        0.002050    1.265955    0.677065
     12          6           0        0.004400    1.237321   -0.730804
     13          6           0        0.001600   -1.265805    0.677065
     14          6           0        0.005600   -1.236421   -0.730804
     15          1           0        0.001200    2.487321    2.443647
     16          1           0       -0.006600    4.632753    1.211689
     17          1           0        0.001900    4.607612   -1.272349
     18          1           0        0.003200    2.462900   -2.490059
     19          1           0        0.011250   -0.000150   -2.510266
     20          1           0        0.004100   -2.463350   -2.490059
     21          1           0        0.001000   -4.611362   -1.272349
     22          1           0       -0.010050   -4.635003    1.211689
     23          1           0       -0.005400   -2.489271    2.443647
     24          1           0       -0.875585    0.001500    2.144137
     25          1           0        0.843585    0.001500    2.147437
 ---------------------------------------------------------------------
                    Distance matrix (angstroms):
                    1          2          3          4          5
     1  C    0.000000
     2  C    1.388149   0.000000
     3  C    2.388446   1.385993   0.000000
     4  C    2.768201   2.420774   1.401602   0.000000
     5  C    5.672196   6.498112   6.174169   4.917212   0.000000
     6  C    6.510489   7.505666   7.355322   6.176557   1.403699
     7  C    6.228728   7.395967   7.503753   6.498546   2.421021
     8  C    4.985913   6.229472   6.509357   5.673259   2.768244
     9  C    2.487192   3.772664   4.261741   3.767732   3.776725
    10  C    3.740866   4.253084   3.745436   2.458705   2.458706
    11  C    1.403690   2.431524   2.782749   2.401521   4.268512
    12  C    2.438789   2.832001   2.438906   1.395989   3.757669
    13  C    3.819494   4.963273   5.133968   4.267858   2.401894
    14  C    4.274914   5.129439   4.912616   3.756192   1.397298
    15  H    1.083239   2.145523   3.373871   3.851300   6.268718
    16  H    2.145861   1.079839   2.150051   3.404230   7.559906
    17  H    3.377447   2.146836   1.086073   2.153562   7.067813
    18  H    3.850607   3.394522   2.151049   1.082541   5.039449
    19  H    4.603652   4.878461   4.091773   2.694444   2.694718
    20  H    6.275538   6.924899   6.391292   5.039302   1.082536
    21  H    7.575625   8.533288   8.306322   7.070964   2.156707
    22  H    7.128613   8.349922   8.531304   7.561462   3.405299
    23  H    5.097741   6.435401   6.926921   6.269794   3.851327
    24  H    2.752584   4.072114   4.736592   4.408052   4.410000
    25  H    2.746023   4.069423   4.733284   4.401367   4.403434
                    6          7          8          9         10
     6  C    0.000000
     7  C    1.385969   0.000000
     8  C    2.389048   1.387495   0.000000
     9  C    4.275697   3.786609   2.502187   0.000000
    10  C    3.747799   4.253489   3.741694   2.882614   0.000000
    11  C    5.137002   4.964479   3.821426   1.479414   2.457603
    12  C    4.916517   5.131319   4.277281   2.507063   1.421094
    13  C    2.785480   2.432734   1.405426   1.490536   2.457218
    14  C    2.442815   2.833714   2.440213   2.513128   1.419782
    15  H    6.927855   6.434545   5.097606   2.671078   4.602960
    16  H    8.532031   8.348724   7.128161   4.632462   5.332895
    17  H    8.305575   8.530663   7.573803   5.347793   4.610592
    18  H    6.393743   6.925436   6.276612   4.645868   2.681955
    19  H    4.094205   4.879040   4.604487   3.963672   1.081077
    20  H    2.152496   3.394754   3.850636   4.653101   2.681814
    21  H    1.086720   2.147991   3.378680   5.362382   4.613742
    22  H    2.149722   1.080879   2.146308   4.647894   5.334342
    23  H    3.374241   2.145004   1.083234   2.685149   4.603710
    24  H    4.740917   4.075184   2.755131   1.111784   3.681959
    25  H    4.738265   4.073698   2.752139   1.095865   3.671983
                   11         12         13         14         15
    11  C    0.000000
    12  C    1.408162   0.000000
    13  C    2.531760   2.871888   0.000000
    14  C    2.871236   2.473742   1.408181   0.000000
    15  H    2.147684   3.411693   4.148104   4.893201   0.000000
    16  H    3.408992   3.911823   5.922742   6.182284   2.473997
    17  H    3.868706   3.413523   6.188477   5.869072   4.278348
    18  H    3.385757   2.144067   4.892230   4.096335   4.933767
    19  H    3.429604   2.167456   3.429439   2.166768   5.543362
    20  H    4.892688   4.097553   3.385970   2.144839   6.989321
    21  H    6.192178   5.873702   3.872075   3.418116   8.012486
    22  H    5.925139   6.185279   3.411371   3.914573   7.228094
    23  H    4.150011   4.895378   2.148890   3.412754   4.976596
    24  H    2.126356   3.250679   2.127866   3.251803   2.652878
    25  H    2.114006   3.242801   2.115891   3.243291   2.641337
                   16         17         18         19         20
    16  H    0.000000
    17  H    2.484180   0.000000
    18  H    4.290839   2.466295   0.000000
    19  H    5.942816   4.771163   2.463146   0.000000
    20  H    8.003607   7.175049   4.926250   2.463293   0.000000
    21  H    9.572051   9.218974   7.178301   4.774497   2.469166
    22  H    9.267757   9.570607   8.005207   5.944347   4.291761
    23  H    7.227790   8.010894   6.990388   5.544119   4.933783
    24  H    4.803447   5.801605   5.320388   4.738137   5.322133
    25  H    4.800723   5.798244   5.317058   4.731488   5.318514
                   21         22         23         24         25
    21  H    0.000000
    22  H    2.484175   0.000000
    23  H    4.279245   2.474249   0.000000
    24  H    5.806830   4.807886   2.655347   0.000000
    25  H    5.803739   4.806400   2.648104   1.719173   0.000000
 Stoichiometry    C14H11(1+)
 Framework group  C1[X(C14H11)]
 Deg. of freedom    69
 Full point group                 C1      NOp   1
 Largest Abelian subgroup         C1      NOp   1
 Largest concise Abelian subgroup C1      NOp   1
                         Standard orientation:                         
 ---------------------------------------------------------------------
 Center     Atomic      Atomic             Coordinates (Angstroms)
 Number     Number       Type             X           Y           Z
 ---------------------------------------------------------------------
      1          6           0        2.492227   -1.360123   -0.001262
      2          6           0        3.697542   -0.671550    0.004988
      3          6           0        3.676072    0.714277    0.005657
      4          6           0        2.458132    1.407867   -0.001087
      5          6           0       -2.459079    1.407252   -0.002547
      6          6           0       -3.679250    0.713351    0.004825
      7          6           0       -3.698425   -0.672486    0.005192
      8          6           0       -2.493685   -1.360771    0.002654
      9          6           0        0.006784   -1.453373   -0.002108
     10          6           0       -0.000475    1.429230   -0.006122
     11          6           0        1.266043   -0.676891   -0.004754
     12          6           0        1.237232    0.730972   -0.000941
     13          6           0       -1.265717   -0.677209   -0.005210
     14          6           0       -1.236510    0.730668   -0.003027
     15          1           0        2.487632   -2.443307   -0.011213
     16          1           0        4.632905   -1.211127    0.002756
     17          1           0        4.607453    1.272921    0.005139
     18          1           0        2.462588    2.490357    0.008411
     19          1           0       -0.000462    2.510292   -0.000432
     20          1           0       -2.463662    2.489746    0.005748
     21          1           0       -4.611521    1.271766    0.002740
     22          1           0       -4.634851   -1.212299    0.002890
     23          1           0       -2.488962   -2.443957   -0.006393
     24          1           0        0.001460   -2.147954    0.865988
     25          1           0        0.002075   -2.143717   -0.853180
 ---------------------------------------------------------------------
 Rotational constants (GHZ):           2.1361546           0.4454552           0.3693964
 Standard basis: 6-311++G(d,p) (5D, 7F)
 There are   399 symmetry adapted cartesian basis functions of A   symmetry.
 There are   385 symmetry adapted basis functions of A   symmetry.
   385 basis functions,   603 primitive gaussians,   399 cartesian basis functions
    47 alpha electrons       47 beta electrons
       nuclear repulsion energy       781.6552018470 Hartrees.
 NAtoms=   25 NActive=   25 NUniq=   25 SFac= 1.00D+00 NAtFMM=   60 NAOKFM=F Big=F
 Integral buffers will be    131072 words long.
 Regular integral format.
 Two-electron integral symmetry is turned on.
 Nuclear repulsion after empirical dispersion term =      781.6542225049 Hartrees.
 One-electron integrals computed using PRISM.
 NBasis=   385 RedAO= T EigKep=  1.13D-06  NBF=   385
 NBsUse=   379 1.00D-06 EigRej=  8.32D-07 NBFU=   379
 ExpMin= 3.60D-02 ExpMax= 4.56D+03 ExpMxC= 6.82D+02 IAcc=3 IRadAn=         5 AccDes= 0.00D+00
 Harris functional with IExCor= 1009 and IRadAn=       5 diagonalized for initial guess.
 HarFok:  IExCor= 1009 AccDes= 0.00D+00 IRadAn=         5 IDoV= 1 UseB2=F ITyADJ=14
 ICtDFT=  3500011 ScaDFX=  1.000000  1.000000  1.000000  1.000000
 FoFCou: FMM=F IPFlag=           0 FMFlag=      100000 FMFlg1=           0
         NFxFlg=           0 DoJE=T BraDBF=F KetDBF=T FulRan=T
         wScrn=  0.000000 ICntrl=       500 IOpCl=  0 I1Cent=   200000004 NGrid=           0
         NMat0=    1 NMatS0=      1 NMatT0=    0 NMatD0=    1 NMtDS0=    0 NMtDT0=    0
 Petite list used in FoFCou.
 Requested convergence on RMS density matrix=1.00D-08 within 128 cycles.
 Requested convergence on MAX density matrix=1.00D-06.
 Requested convergence on             energy=1.00D-06.
 No special actions if energy rises.
 SCF Done:  E(RM062X) =  -539.760137884     A.U. after   15 cycles
            NFock= 15  Conv=0.46D-08     -V/T= 2.0041
 DoSCS=F DFT=T ScalE2(SS,OS)=  1.000000  1.000000
 ExpMin= 3.60D-02 ExpMax= 4.56D+03 ExpMxC= 6.82D+02 IAcc=3 IRadAn=         5 AccDes= 0.00D+00
 HarFok:  IExCor=  205 AccDes= 0.00D+00 IRadAn=         5 IDoV=-2 UseB2=F ITyADJ=14
 ICtDFT= 12500011 ScaDFX=  1.000000  1.000000  1.000000  1.000000
 Range of M.O.s used for correlation:    15   379
 NBasis=   385 NAE=    47 NBE=    47 NFC=    14 NFV=     0
 NROrb=    365 NOA=    33 NOB=    33 NVA=   332 NVB=   332

 **** Warning!!: The largest alpha MO coefficient is  0.15358787D+03

 Orbital symmetries:
       Occupied  (A) (A) (A) (A) (A) (A) (A) (A) (A) (A) (A) (A)
                 (A) (A) (A) (A) (A) (A) (A) (A) (A) (A) (A) (A)
                 (A) (A) (A) (A) (A) (A) (A) (A) (A) (A) (A) (A)
                 (A) (A) (A) (A) (A) (A) (A) (A) (A) (A) (A)
       Virtual   (A) (A) (A) (A) (A) (A) (A) (A) (A) (A) (A) (A)
                 (A) (A) (A) (A) (A) (A) (A) (A) (A) (A) (A) (A)
                 (A) (A) (A) (A) (A) (A) (A) (A) (A) (A) (A) (A)
                 (A) (A) (A) (A) (A) (A) (A) (A) (A) (A) (A) (A)
                 (A) (A) (A) (A) (A) (A) (A) (A) (A) (A) (A) (A)
                 (A) (A) (A) (A) (A) (A) (A) (A) (A) (A) (A) (A)
                 (A) (A) (A) (A) (A) (A) (A) (A) (A) (A) (A) (A)
                 (A) (A) (A) (A) (A) (A) (A) (A) (A) (A) (A) (A)
                 (A) (A) (A) (A) (A) (A) (A) (A) (A) (A) (A) (A)
                 (A) (A) (A) (A) (A) (A) (A) (A) (A) (A) (A) (A)
                 (A) (A) (A) (A) (A) (A) (A) (A) (A) (A) (A) (A)
                 (A) (A) (A) (A) (A) (A) (A) (A) (A) (A) (A) (A)
                 (A) (A) (A) (A) (A) (A) (A) (A) (A) (A) (A) (A)
                 (A) (A) (A) (A) (A) (A) (A) (A) (A) (A) (A) (A)
                 (A) (A) (A) (A) (A) (A) (A) (A) (A) (A) (A) (A)
                 (A) (A) (A) (A) (A) (A) (A) (A) (A) (A) (A) (A)
                 (A) (A) (A) (A) (A) (A) (A) (A) (A) (A) (A) (A)
                 (A) (A) (A) (A) (A) (A) (A) (A) (A) (A) (A) (A)
                 (A) (A) (A) (A) (A) (A) (A) (A) (A) (A) (A) (A)
                 (A) (A) (A) (A) (A) (A) (A) (A) (A) (A) (A) (A)
                 (A) (A) (A) (A) (A) (A) (A) (A) (A) (A) (A) (A)
                 (A) (A) (A) (A) (A) (A) (A) (A) (A) (A) (A) (A)
                 (A) (A) (A) (A) (A) (A) (A) (A) (A) (A) (A) (A)
                 (A) (A) (A) (A) (A) (A) (A) (A) (A) (A) (A) (A)
                 (A) (A) (A) (A) (A) (A) (A) (A) (A) (A) (A) (A)
                 (A) (A) (A) (A) (A) (A) (A) (A) (A) (A) (A) (A)
                 (A) (A) (A) (A) (A) (A) (A) (A) (A) (A) (A) (A)
                 (A) (A) (A) (A) (A) (A) (A) (A)
     4 initial guesses have been made.
 Convergence on wavefunction:    0.001000000000000
 Iteration     1 Dimension     4 NMult     0 NNew      4
 CISAX will form     4 AO SS matrices at one time.
 Iteration     2 Dimension     6 NMult     4 NNew      2
 Iteration     3 Dimension     8 NMult     6 NNew      2
 Iteration     4 Dimension    10 NMult     8 NNew      2
 Iteration     5 Dimension    12 NMult    10 NNew      2
 Iteration     6 Dimension    14 NMult    12 NNew      2
 ***********************************************************************
 Excited states from <AA,BB:AA,BB> singles matrix:
 ***********************************************************************
 
 Ground to excited state transition densities written to RWF  633
 Ground to excited state transition electric dipole moments (Au):
       state          X           Y           Z        Dip. S.      Osc.
         1         0.0085     -0.6476      0.0019      0.4194      0.0291
 Ground to excited state transition velocity dipole moments (Au):
       state          X           Y           Z        Dip. S.      Osc.
         1        -0.0009      0.0750     -0.0002      0.0056      0.0361
 Ground to excited state transition magnetic dipole moments (Au):
       state          X           Y           Z
         1        -0.0028     -0.0006     -0.0004
 Ground to excited state transition velocity quadrupole moments (Au):
       state          XX          YY          ZZ          XY          XZ          YZ
         1         0.2916      0.0363     -0.0099     -0.0013      0.0000      0.0002
 <0|del|b> * <b|rxdel|0> + <0|del|b> * <b|delr+rdel|0>
 Rotatory Strengths (R) in cgs (10**-40 erg-esu-cm/Gauss)
       state          XX          YY          ZZ    R(velocity)    E-M Angle
         1        -0.1629      0.0072     -0.1391     -0.0983       90.00
 1/2[<0|r|b>*<b|rxdel|0> + (<0|rxdel|b>*<b|r|0>)*]
 Rotatory Strengths (R) in cgs (10**-40 erg-esu-cm/Gauss)
       state          XX          YY          ZZ     R(length)
         1         0.0168     -0.2808      0.0006     -0.0878
  1/2[<0|del|b>*<b|r|0> + (<0|r|b>*<b|del|0>)*] (Au)
       state          X           Y           Z        Dip. S.   Osc.(frdel)
         1        -0.0000     -0.0486     -0.0000      0.0486      0.0324

 Excitation energies and oscillator strengths:
 
 Excited State   1:      Singlet-A      2.8302 eV  438.07 nm  f=0.0291  <S**2>=0.000
      47 -> 48         0.70425
 This state for optimization and/or second-order correction.
 Total Energy, E(TD-HF/TD-DFT) =  -539.656128140    
 Copying the excited state density for this state as the 1-particle RhoCI density.
 SavETr:  write IOETrn=   770 NScale= 10 NData=  16 NLR=1 NState=    1 LETran=      28.

 **********************************************************************

            Population analysis using the SCF Density.

 **********************************************************************

 Orbital symmetries:
       Occupied  (A) (A) (A) (A) (A) (A) (A) (A) (A) (A) (A) (A)
                 (A) (A) (A) (A) (A) (A) (A) (A) (A) (A) (A) (A)
                 (A) (A) (A) (A) (A) (A) (A) (A) (A) (A) (A) (A)
                 (A) (A) (A) (A) (A) (A) (A) (A) (A) (A) (A)
       Virtual   (A) (A) (A) (A) (A) (A) (A) (A) (A) (A) (A) (A)
                 (A) (A) (A) (A) (A) (A) (A) (A) (A) (A) (A) (A)
                 (A) (A) (A) (A) (A) (A) (A) (A) (A) (A) (A) (A)
                 (A) (A) (A) (A) (A) (A) (A) (A) (A) (A) (A) (A)
                 (A) (A) (A) (A) (A) (A) (A) (A) (A) (A) (A) (A)
                 (A) (A) (A) (A) (A) (A) (A) (A) (A) (A) (A) (A)
                 (A) (A) (A) (A) (A) (A) (A) (A) (A) (A) (A) (A)
                 (A) (A) (A) (A) (A) (A) (A) (A) (A) (A) (A) (A)
                 (A) (A) (A) (A) (A) (A) (A) (A) (A) (A) (A) (A)
                 (A) (A) (A) (A) (A) (A) (A) (A) (A) (A) (A) (A)
                 (A) (A) (A) (A) (A) (A) (A) (A) (A) (A) (A) (A)
                 (A) (A) (A) (A) (A) (A) (A) (A) (A) (A) (A) (A)
                 (A) (A) (A) (A) (A) (A) (A) (A) (A) (A) (A) (A)
                 (A) (A) (A) (A) (A) (A) (A) (A) (A) (A) (A) (A)
                 (A) (A) (A) (A) (A) (A) (A) (A) (A) (A) (A) (A)
                 (A) (A) (A) (A) (A) (A) (A) (A) (A) (A) (A) (A)
                 (A) (A) (A) (A) (A) (A) (A) (A) (A) (A) (A) (A)
                 (A) (A) (A) (A) (A) (A) (A) (A) (A) (A) (A) (A)
                 (A) (A) (A) (A) (A) (A) (A) (A) (A) (A) (A) (A)
                 (A) (A) (A) (A) (A) (A) (A) (A) (A) (A) (A) (A)
                 (A) (A) (A) (A) (A) (A) (A) (A) (A) (A) (A) (A)
                 (A) (A) (A) (A) (A) (A) (A) (A) (A) (A) (A) (A)
                 (A) (A) (A) (A) (A) (A) (A) (A) (A) (A) (A) (A)
                 (A) (A) (A) (A) (A) (A) (A) (A) (A) (A) (A) (A)
                 (A) (A) (A) (A) (A) (A) (A) (A) (A) (A) (A) (A)
                 (A) (A) (A) (A) (A) (A) (A) (A) (A) (A) (A) (A)
                 (A) (A) (A) (A) (A) (A) (A) (A) (A) (A) (A) (A)
                 (A) (A) (A) (A) (A) (A) (A) (A)
 The electronic state is 1-A.
 Alpha  occ. eigenvalues --  -10.77670 -10.73267 -10.73183 -10.72397 -10.72392
 Alpha  occ. eigenvalues --  -10.71339 -10.71294 -10.70981 -10.70978 -10.70967
 Alpha  occ. eigenvalues --  -10.69933 -10.69901 -10.69668 -10.69627  -1.16477
 Alpha  occ. eigenvalues --   -1.12571  -1.07001  -1.05698  -1.01418  -1.00168
 Alpha  occ. eigenvalues --   -0.95821  -0.91045  -0.86425  -0.85920  -0.83821
 Alpha  occ. eigenvalues --   -0.78408  -0.76034  -0.74439  -0.69559  -0.69230
 Alpha  occ. eigenvalues --   -0.68493  -0.68158  -0.68049  -0.64818  -0.64352
 Alpha  occ. eigenvalues --   -0.63003  -0.61795  -0.60037  -0.59755  -0.59064
 Alpha  occ. eigenvalues --   -0.56886  -0.55193  -0.54796  -0.52479  -0.46702
 Alpha  occ. eigenvalues --   -0.46050  -0.44545
 Alpha virt. eigenvalues --   -0.26099  -0.14617  -0.14085  -0.12713  -0.11180
 Alpha virt. eigenvalues --   -0.10089  -0.09238  -0.08003  -0.07962  -0.07479
 Alpha virt. eigenvalues --   -0.07206  -0.07136  -0.05641  -0.05581  -0.05323
 Alpha virt. eigenvalues --   -0.03841  -0.03664  -0.03279  -0.03132  -0.02167
 Alpha virt. eigenvalues --   -0.01374  -0.00942   0.00193   0.00568   0.00664
 Alpha virt. eigenvalues --    0.01060   0.01513   0.01953   0.02223   0.02283
 Alpha virt. eigenvalues --    0.02456   0.02663   0.02799   0.03277   0.03356
 Alpha virt. eigenvalues --    0.04236   0.04507   0.04699   0.05061   0.05371
 Alpha virt. eigenvalues --    0.06017   0.06301   0.06601   0.07044   0.07263
 Alpha virt. eigenvalues --    0.07902   0.08209   0.08356   0.08563   0.08926
 Alpha virt. eigenvalues --    0.09541   0.09555   0.10038   0.10858   0.11058
 Alpha virt. eigenvalues --    0.11123   0.12171   0.12234   0.12935   0.12950
 Alpha virt. eigenvalues --    0.13415   0.13507   0.14015   0.14435   0.16187
 Alpha virt. eigenvalues --    0.16238   0.16427   0.17331   0.17624   0.17780
 Alpha virt. eigenvalues --    0.18129   0.19112   0.19266   0.19658   0.19756
 Alpha virt. eigenvalues --    0.21597   0.21617   0.22703   0.23093   0.23557
 Alpha virt. eigenvalues --    0.23821   0.24583   0.25271   0.26911   0.27651
 Alpha virt. eigenvalues --    0.28847   0.29288   0.29857   0.31386   0.35815
 Alpha virt. eigenvalues --    0.36507   0.38199   0.39320   0.41146   0.41374
 Alpha virt. eigenvalues --    0.41974   0.42147   0.42969   0.43741   0.44272
 Alpha virt. eigenvalues --    0.45031   0.45076   0.46121   0.46144   0.47935
 Alpha virt. eigenvalues --    0.48506   0.48860   0.49007   0.50406   0.51226
 Alpha virt. eigenvalues --    0.51631   0.51729   0.52125   0.53027   0.53948
 Alpha virt. eigenvalues --    0.54066   0.54708   0.55698   0.55764   0.57441
 Alpha virt. eigenvalues --    0.58255   0.58817   0.61456   0.62206   0.62339
 Alpha virt. eigenvalues --    0.63234   0.63488   0.64917   0.65167   0.67172
 Alpha virt. eigenvalues --    0.70442   0.70566   0.71032   0.72443   0.72871
 Alpha virt. eigenvalues --    0.75772   0.75985   0.76316   0.76859   0.77072
 Alpha virt. eigenvalues --    0.77828   0.77884   0.78245   0.79999   0.80373
 Alpha virt. eigenvalues --    0.81298   0.81634   0.82155   0.83045   0.85161
 Alpha virt. eigenvalues --    0.87173   0.88143   0.88389   0.89380   0.90416
 Alpha virt. eigenvalues --    0.91004   0.91366   0.93301   0.94676   0.96416
 Alpha virt. eigenvalues --    0.96657   1.00325   1.01299   1.01752   1.02826
 Alpha virt. eigenvalues --    1.03201   1.03924   1.04741   1.05388   1.08853
 Alpha virt. eigenvalues --    1.19437   1.23244   1.24058   1.25312   1.28039
 Alpha virt. eigenvalues --    1.29869   1.31598   1.34417   1.35845   1.36077
 Alpha virt. eigenvalues --    1.39419   1.40138   1.41011   1.43156   1.43544
 Alpha virt. eigenvalues --    1.43587   1.45236   1.45412   1.46368   1.46655
 Alpha virt. eigenvalues --    1.47696   1.48191   1.51757   1.53662   1.55755
 Alpha virt. eigenvalues --    1.55943   1.56466   1.56621   1.57851   1.61537
 Alpha virt. eigenvalues --    1.63144   1.63398   1.63605   1.66161   1.68269
 Alpha virt. eigenvalues --    1.68433   1.68713   1.69737   1.74534   1.75998
 Alpha virt. eigenvalues --    1.77199   1.78081   1.80001   1.80331   1.80914
 Alpha virt. eigenvalues --    1.83139   1.83279   1.83574   1.83940   1.84112
 Alpha virt. eigenvalues --    1.84364   1.85965   1.86131   1.88277   1.91336
 Alpha virt. eigenvalues --    1.92142   1.94113   1.95179   1.97814   1.98349
 Alpha virt. eigenvalues --    1.99926   2.02396   2.04546   2.07086   2.11866
 Alpha virt. eigenvalues --    2.12114   2.14121   2.15261   2.19376   2.21256
 Alpha virt. eigenvalues --    2.22998   2.28736   2.30309   2.34561   2.35053
 Alpha virt. eigenvalues --    2.36268   2.38432   2.39236   2.42420   2.44090
 Alpha virt. eigenvalues --    2.46672   2.46783   2.49523   2.53010   2.53804
 Alpha virt. eigenvalues --    2.54224   2.56707   2.57897   2.58369   2.59683
 Alpha virt. eigenvalues --    2.59897   2.61556   2.62204   2.63574   2.63884
 Alpha virt. eigenvalues --    2.64798   2.65096   2.65326   2.65384   2.67973
 Alpha virt. eigenvalues --    2.68428   2.71024   2.71408   2.73381   2.74831
 Alpha virt. eigenvalues --    2.76357   2.78936   2.79812   2.83089   2.83134
 Alpha virt. eigenvalues --    2.85122   2.86341   2.92148   2.96954   2.99628
 Alpha virt. eigenvalues --    3.00222   3.04834   3.11413   3.11723   3.13448
 Alpha virt. eigenvalues --    3.20895   3.23698   3.26993   3.28373   3.30960
 Alpha virt. eigenvalues --    3.33232   3.33658   3.43450   3.46026   3.47104
 Alpha virt. eigenvalues --    3.48878   3.50462   3.56572   3.65626   3.66940
 Alpha virt. eigenvalues --    3.67545   3.93636   3.94598   3.94654   3.96183
 Alpha virt. eigenvalues --    4.03720   4.06891   4.07624   4.12554   4.35428
 Alpha virt. eigenvalues --    4.61214   4.70102   4.71951  23.45243  23.60159
 Alpha virt. eigenvalues --   23.82460  23.85330  23.88091  23.89509  23.90558
 Alpha virt. eigenvalues --   23.92352  23.98103  24.00303  24.00528  24.00760
 Alpha virt. eigenvalues --   24.10959  24.11170
          Condensed to atoms (all electrons):
               1          2          3          4          5          6
     1  C    8.558574   0.377441  -0.553314   1.878078  -0.012510  -0.095968
     2  C    0.377441   7.126731   0.363756  -1.033119  -0.026278  -0.015327
     3  C   -0.553314   0.363756   6.609460   0.768836  -0.124062   0.017283
     4  C    1.878078  -1.033119   0.768836  10.811214  -0.336121  -0.120973
     5  C   -0.012510  -0.026278  -0.124062  -0.336121  10.883385   0.754077
     6  C   -0.095968  -0.015327   0.017283  -0.120973   0.754077   6.603445
     7  C   -0.022555   0.003503  -0.015417  -0.027870  -1.030650   0.360659
     8  C    0.410168  -0.019329  -0.096104  -0.024126   1.916950  -0.564210
     9  C   -1.265913  -0.760423   0.288271  -0.291599  -0.251212   0.290339
    10  C   -1.248504   0.233040  -0.371610  -2.541995  -2.546601  -0.356348
    11  C    0.320110  -0.953411   1.016820  -0.203228  -1.525775  -0.184199
    12  C   -1.952993   1.269276  -1.395139  -1.425145  -0.341251  -0.198721
    13  C    0.195825  -0.226358  -0.185761  -1.508592  -0.206740   1.009095
    14  C   -1.086431  -0.207567  -0.197121  -0.315660  -1.521803  -1.371548
    15  H    0.364920  -0.104341  -0.001850   0.025876   0.005931   0.001129
    16  H   -0.019968   0.378972  -0.015503   0.013674  -0.001601  -0.000338
    17  H   -0.023496  -0.016945   0.373239  -0.066029   0.000365   0.000402
    18  H    0.049083   0.002879  -0.084515   0.454177   0.007026  -0.005026
    19  H   -0.046502  -0.007684   0.051047  -0.065390  -0.068407   0.050729
    20  H    0.007551   0.001966  -0.005096   0.006882   0.455214  -0.085447
    21  H   -0.001336  -0.000401   0.000406   0.000367  -0.066492   0.373109
    22  H    0.000791   0.000375  -0.000341  -0.001593   0.014055  -0.016105
    23  H    0.005828  -0.002712   0.001147   0.005808   0.026206  -0.002052
    24  H    0.037028   0.013319  -0.001584  -0.011214  -0.012720  -0.001135
    25  H    0.030374   0.015698  -0.001582  -0.012392  -0.011478  -0.002154
               7          8          9         10         11         12
     1  C   -0.022555   0.410168  -1.265913  -1.248504   0.320110  -1.952993
     2  C    0.003503  -0.019329  -0.760423   0.233040  -0.953411   1.269276
     3  C   -0.015417  -0.096104   0.288271  -0.371610   1.016820  -1.395139
     4  C   -0.027870  -0.024126  -0.291599  -2.541995  -0.203228  -1.425145
     5  C   -1.030650   1.916950  -0.251212  -2.546601  -1.525775  -0.341251
     6  C    0.360659  -0.564210   0.290339  -0.356348  -0.184199  -0.198721
     7  C    7.106431   0.370966  -0.761476   0.228553  -0.214311  -0.202788
     8  C    0.370966   8.560829  -1.229549  -1.251086   0.209105  -1.067600
     9  C   -0.761476  -1.229549   9.513657   0.300673   1.629514  -1.805834
    10  C    0.228553  -1.251086   0.300673   9.201616  -0.513605   2.385368
    11  C   -0.214311   0.209105   1.629514  -0.513605  14.388677  -3.815403
    12  C   -0.202788  -1.067600  -1.805834   2.385368  -3.815403  15.851585
    13  C   -0.942224   0.283428   1.602347  -0.495793   1.154709  -4.762300
    14  C    1.276018  -2.002233  -1.833468   2.415424  -4.734449   3.003615
    15  H   -0.002663   0.005819   0.088983  -0.009266  -0.027262  -0.022312
    16  H    0.000370   0.000701   0.003679  -0.009827   0.028426  -0.034838
    17  H   -0.000401  -0.001321  -0.005416   0.020302  -0.027666   0.090186
    18  H    0.001977   0.007391  -0.025983   0.014747  -0.006857  -0.052714
    19  H   -0.007644  -0.046588   0.075708   0.421844   0.074437  -0.063767
    20  H    0.003332   0.049631  -0.025667   0.014608  -0.011397  -0.013576
    21  H   -0.017425  -0.023395  -0.005394   0.020290  -0.006198   0.005223
    22  H    0.378257  -0.018381   0.004195  -0.009936   0.003200  -0.009317
    23  H   -0.104194   0.366337   0.090116  -0.009363   0.000895   0.006722
    24  H    0.014627   0.039923   0.350791   0.004936   0.017905  -0.067670
    25  H    0.014245   0.026236   0.360141   0.005194   0.008662  -0.051961
              13         14         15         16         17         18
     1  C    0.195825  -1.086431   0.364920  -0.019968  -0.023496   0.049083
     2  C   -0.226358  -0.207567  -0.104341   0.378972  -0.016945   0.002879
     3  C   -0.185761  -0.197121  -0.001850  -0.015503   0.373239  -0.084515
     4  C   -1.508592  -0.315660   0.025876   0.013674  -0.066029   0.454177
     5  C   -0.206740  -1.521803   0.005931  -0.001601   0.000365   0.007026
     6  C    1.009095  -1.371548   0.001129  -0.000338   0.000402  -0.005026
     7  C   -0.942224   1.276018  -0.002663   0.000370  -0.000401   0.001977
     8  C    0.283428  -2.002233   0.005819   0.000701  -0.001321   0.007391
     9  C    1.602347  -1.833468   0.088983   0.003679  -0.005416  -0.025983
    10  C   -0.495793   2.415424  -0.009266  -0.009827   0.020302   0.014747
    11  C    1.154709  -4.734449  -0.027262   0.028426  -0.027666  -0.006857
    12  C   -4.762300   3.003615  -0.022312  -0.034838   0.090186  -0.052714
    13  C   14.446023  -3.796869   0.000868   0.003224  -0.006404  -0.011114
    14  C   -3.796869  15.921696   0.006742  -0.009259   0.005231  -0.013606
    15  H    0.000868   0.006742   0.438660  -0.008992   0.001449   0.000195
    16  H    0.003224  -0.009259  -0.008992   0.419408  -0.006614   0.001904
    17  H   -0.006404   0.005231   0.001449  -0.006614   0.421967  -0.010191
    18  H   -0.011114  -0.013606   0.000195   0.001904  -0.010191   0.453693
    19  H    0.072016  -0.063897   0.000309  -0.000531   0.001382  -0.005957
    20  H   -0.006913  -0.053737  -0.000112   0.000015  -0.000143   0.001275
    21  H   -0.026785   0.089841   0.000013  -0.000007   0.000010  -0.000142
    22  H    0.028921  -0.036645  -0.000126   0.000008  -0.000007   0.000015
    23  H   -0.027995  -0.023877   0.000597  -0.000127   0.000014  -0.000113
    24  H    0.015922  -0.065965  -0.000721   0.000605  -0.000130   0.000209
    25  H    0.010061  -0.053202  -0.001055   0.000670  -0.000155   0.000160
              19         20         21         22         23         24
     1  C   -0.046502   0.007551  -0.001336   0.000791   0.005828   0.037028
     2  C   -0.007684   0.001966  -0.000401   0.000375  -0.002712   0.013319
     3  C    0.051047  -0.005096   0.000406  -0.000341   0.001147  -0.001584
     4  C   -0.065390   0.006882   0.000367  -0.001593   0.005808  -0.011214
     5  C   -0.068407   0.455214  -0.066492   0.014055   0.026206  -0.012720
     6  C    0.050729  -0.085447   0.373109  -0.016105  -0.002052  -0.001135
     7  C   -0.007644   0.003332  -0.017425   0.378257  -0.104194   0.014627
     8  C   -0.046588   0.049631  -0.023395  -0.018381   0.366337   0.039923
     9  C    0.075708  -0.025667  -0.005394   0.004195   0.090116   0.350791
    10  C    0.421844   0.014608   0.020290  -0.009936  -0.009363   0.004936
    11  C    0.074437  -0.011397  -0.006198   0.003200   0.000895   0.017905
    12  C   -0.063767  -0.013576   0.005223  -0.009317   0.006722  -0.067670
    13  C    0.072016  -0.006913  -0.026785   0.028921  -0.027995   0.015922
    14  C   -0.063897  -0.053737   0.089841  -0.036645  -0.023877  -0.065965
    15  H    0.000309  -0.000112   0.000013  -0.000126   0.000597  -0.000721
    16  H   -0.000531   0.000015  -0.000007   0.000008  -0.000127   0.000605
    17  H    0.001382  -0.000143   0.000010  -0.000007   0.000014  -0.000130
    18  H   -0.005957   0.001275  -0.000142   0.000015  -0.000113   0.000209
    19  H    0.441879  -0.006094   0.001387  -0.000532   0.000321   0.000581
    20  H   -0.006094   0.453755  -0.010128   0.001939   0.000193   0.000176
    21  H    0.001387  -0.010128   0.421714  -0.006578   0.001429  -0.000114
    22  H   -0.000532   0.001939  -0.006578   0.419330  -0.009033   0.000552
    23  H    0.000321   0.000193   0.001429  -0.009033   0.438716  -0.000635
    24  H    0.000581   0.000176  -0.000114   0.000552  -0.000635   0.494365
    25  H    0.000567   0.000190  -0.000167   0.000715  -0.001192  -0.079778
              25
     1  C    0.030374
     2  C    0.015698
     3  C   -0.001582
     4  C   -0.012392
     5  C   -0.011478
     6  C   -0.002154
     7  C    0.014245
     8  C    0.026236
     9  C    0.360141
    10  C    0.005194
    11  C    0.008662
    12  C   -0.051961
    13  C    0.010061
    14  C   -0.053202
    15  H   -0.001055
    16  H    0.000670
    17  H   -0.000155
    18  H    0.000160
    19  H    0.000567
    20  H    0.000190
    21  H   -0.000167
    22  H    0.000715
    23  H   -0.001192
    24  H   -0.079778
    25  H    0.494416
 Mulliken charges:
               1
     1  C    0.093717
     2  C   -0.413061
     3  C   -0.441267
     4  C    0.020136
     5  C    0.020493
     6  C   -0.440717
     7  C   -0.409319
     8  C    0.096437
     9  C   -0.336480
    10  C    0.097340
    11  C   -0.628702
    12  C    0.671353
    13  C   -0.618589
    14  C    0.668769
    15  H    0.237208
    16  H    0.255949
    17  H    0.250371
    18  H    0.221489
    19  H    0.190787
    20  H    0.221585
    21  H    0.250773
    22  H    0.256244
    23  H    0.236968
    24  H    0.250728
    25  H    0.247789
 Sum of Mulliken charges =   1.00000
 Mulliken charges with hydrogens summed into heavy atoms:
               1
     1  C    0.330925
     2  C   -0.157112
     3  C   -0.190896
     4  C    0.241625
     5  C    0.242078
     6  C   -0.189944
     7  C   -0.153075
     8  C    0.333405
     9  C    0.162037
    10  C    0.288127
    11  C   -0.628702
    12  C    0.671353
    13  C   -0.618589
    14  C    0.668769
 Electronic spatial extent (au):  <R**2>=           2852.0334
 Charge=              1.0000 electrons
 Dipole moment (field-independent basis, Debye):
    X=             -0.0078    Y=              0.1854    Z=              0.0004  Tot=              0.1856
 Quadrupole moment (field-independent basis, Debye-Ang):
   XX=            -31.2030   YY=            -56.2631   ZZ=            -84.1096
   XY=             -0.0043   XZ=              0.0074   YZ=              0.0491
 Traceless Quadrupole moment (field-independent basis, Debye-Ang):
   XX=             25.9889   YY=              0.9288   ZZ=            -26.9177
   XY=             -0.0043   XZ=              0.0074   YZ=              0.0491
 Octapole moment (field-independent basis, Debye-Ang**2):
  XXX=             -0.3271  YYY=              5.2074  ZZZ=             -0.0090  XYY=              0.0024
  XXY=             -5.4994  XXZ=              0.0816  XZZ=              0.0407  YZZ=             -3.0907
  YYZ=              0.0458  XYZ=              0.0367
 Hexadecapole moment (field-independent basis, Debye-Ang**3):
 XXXX=          -2120.8559 YYYY=           -609.2549 ZZZZ=            -99.2402 XXXY=             -0.1867
 XXXZ=              0.2056 YYYX=              0.0786 YYYZ=              0.5595 ZZZX=              0.0091
 ZZZY=              0.0133 XXYY=           -507.0443 XXZZ=           -589.6614 YYZZ=           -145.6624
 XXYZ=              0.5085 YYXZ=              0.0008 ZZXY=             -0.0037
 N-N= 7.816542225049D+02 E-N=-2.799675646954D+03  KE= 5.375349358897D+02
 Unable to Open any file for archive entry.
 1\1\GINC-GADI-CPU-CLX-0113\SP\RM062X TD-FC\6-311++G(d,p)\C14H11(1+)\TS
 1578\28-Jul-2022\0\\#n M062X/6-311++G(d,p) TD(NStates=1) EmpiricalDisp
 ersion=GD3 SP\\SP_100\\1,1\C,0,-0.004,2.492055,1.360431\C,0,-0.0068,3.
 697458,0.671989\C,0,-0.0014,3.676161,-0.71383\C,0,0.00795,2.458306,-1.
 407538\C,0,0.00765,-2.458906,-1.407538\C,0,-0.0032,-3.679161,-0.71383\
 C,0,-0.00965,-3.698508,0.671989\C,0,-0.0097,-2.493855,1.360431\C,0,-0.
 00445,0.0066,1.453369\C,0,0.0122,-0.0003,-1.429189\C,0,0.00205,1.26595
 5,0.677065\C,0,0.0044,1.237321,-0.730804\C,0,0.0016,-1.265805,0.677065
 \C,0,0.0056,-1.236421,-0.730804\H,0,0.0012,2.487321,2.443647\H,0,-0.00
 66,4.632753,1.211689\H,0,0.0019,4.607612,-1.272349\H,0,0.0032,2.4629,-
 2.490059\H,0,0.01125,-0.00015,-2.510266\H,0,0.0041,-2.46335,-2.490059\
 H,0,0.001,-4.611362,-1.272349\H,0,-0.01005,-4.635003,1.211689\H,0,-0.0
 054,-2.489271,2.443647\H,0,-0.875585,0.0015,2.144137\H,0,0.843585,0.00
 15,2.147437\\Version=ES64L-G16RevC.01\State=1-A\HF=-539.7601379\RMSD=4
 .566e-09\PG=C01 [X(C14H11)]\\@
 The archive entry for this job was punched.


 STEINBACH'S GUIDELINES FOR SYSTEMS PROGRAMMING:
 NEVER TEST FOR AN ERROR CONDITION YOU DON'T KNOW HOW
 TO HANDLE.
 Job cpu time:       0 days  1 hours 19 minutes 54.6 seconds.
 Elapsed time:       0 days  0 hours  1 minutes 40.1 seconds.
 File lengths (MBytes):  RWF=    460 Int=      0 D2E=      0 Chk=     15 Scr=      1
 Normal termination of Gaussian 16 at Thu Jul 28 16:35:05 2022.
