 Entering Gaussian System, Link 0=g16
 Initial command:
 /apps/gaussian/g16c01/g16/l1.exe "/jobfs/53002009.gadi-pbs/Gau-752608.inp" -scrdir="/jobfs/53002009.gadi-pbs/"
 Entering Link 1 = /apps/gaussian/g16c01/g16/l1.exe PID=    752609.
  
 Copyright (c) 1988-2019, Gaussian, Inc.  All Rights Reserved.
  
 This is part of the Gaussian(R) 16 program.  It is based on
 the Gaussian(R) 09 system (copyright 2009, Gaussian, Inc.),
 the Gaussian(R) 03 system (copyright 2003, Gaussian, Inc.),
 the Gaussian(R) 98 system (copyright 1998, Gaussian, Inc.),
 the Gaussian(R) 94 system (copyright 1995, Gaussian, Inc.),
 the Gaussian 92(TM) system (copyright 1992, Gaussian, Inc.),
 the Gaussian 90(TM) system (copyright 1990, Gaussian, Inc.),
 the Gaussian 88(TM) system (copyright 1988, Gaussian, Inc.),
 the Gaussian 86(TM) system (copyright 1986, Carnegie Mellon
 University), and the Gaussian 82(TM) system (copyright 1983,
 Carnegie Mellon University). Gaussian is a federally registered
 trademark of Gaussian, Inc.
  
 This software contains proprietary and confidential information,
 including trade secrets, belonging to Gaussian, Inc.
  
 This software is provided under written license and may be
 used, copied, transmitted, or stored only in accord with that
 written license.
  
 The following legend is applicable only to US Government
 contracts under FAR:
  
                    RESTRICTED RIGHTS LEGEND
  
 Use, reproduction and disclosure by the US Government is
 subject to restrictions as set forth in subparagraphs (a)
 and (c) of the Commercial Computer Software - Restricted
 Rights clause in FAR 52.227-19.
  
 Gaussian, Inc.
 340 Quinnipiac St., Bldg. 40, Wallingford CT 06492
  
  
 ---------------------------------------------------------------
 Warning -- This program may not be used in any manner that
 competes with the business of Gaussian, Inc. or will provide
 assistance to any competitor of Gaussian, Inc.  The licensee
 of this program is prohibited from giving any competitor of
 Gaussian, Inc. access to this program.  By using this program,
 the user acknowledges that Gaussian, Inc. is engaged in the
 business of creating and licensing software in the field of
 computational chemistry and represents and warrants to the
 licensee that it is not a competitor of Gaussian, Inc. and that
 it will not use this program in any manner prohibited above.
 ---------------------------------------------------------------
  

 Cite this work as:
 Gaussian 16, Revision C.01,
 M. J. Frisch, G. W. Trucks, H. B. Schlegel, G. E. Scuseria, 
 M. A. Robb, J. R. Cheeseman, G. Scalmani, V. Barone, 
 G. A. Petersson, H. Nakatsuji, X. Li, M. Caricato, A. V. Marenich, 
 J. Bloino, B. G. Janesko, R. Gomperts, B. Mennucci, H. P. Hratchian, 
 J. V. Ortiz, A. F. Izmaylov, J. L. Sonnenberg, D. Williams-Young, 
 F. Ding, F. Lipparini, F. Egidi, J. Goings, B. Peng, A. Petrone, 
 T. Henderson, D. Ranasinghe, V. G. Zakrzewski, J. Gao, N. Rega, 
 G. Zheng, W. Liang, M. Hada, M. Ehara, K. Toyota, R. Fukuda, 
 J. Hasegawa, M. Ishida, T. Nakajima, Y. Honda, O. Kitao, H. Nakai, 
 T. Vreven, K. Throssell, J. A. Montgomery, Jr., J. E. Peralta, 
 F. Ogliaro, M. J. Bearpark, J. J. Heyd, E. N. Brothers, K. N. Kudin, 
 V. N. Staroverov, T. A. Keith, R. Kobayashi, J. Normand, 
 K. Raghavachari, A. P. Rendell, J. C. Burant, S. S. Iyengar, 
 J. Tomasi, M. Cossi, J. M. Millam, M. Klene, C. Adamo, R. Cammi, 
 J. W. Ochterski, R. L. Martin, K. Morokuma, O. Farkas, 
 J. B. Foresman, and D. J. Fox, Gaussian, Inc., Wallingford CT, 2019.
 
 ******************************************
 Gaussian 16:  ES64L-G16RevC.01  3-Jul-2019
                28-Jul-2022 
 ******************************************
 %NProcShared=48
 Will use up to   48 processors via shared memory.
 %mem = 190GB
 ---------------------------------------------------------------
 #n M062X/6-311++G(d,p) TD(NStates=1) EmpiricalDispersion=GD3 SP
 ---------------------------------------------------------------
 1/38=1,172=1/1;
 2/12=2,17=6,18=5,40=1/2;
 3/5=4,6=6,7=1111,11=9,25=1,30=1,74=-55,124=31/1,2,3,8;
 4//1;
 5/5=2,38=5/2;
 8/6=1,10=2,108=1/1;
 9/41=1,42=1,70=2/14;
 6/7=2,8=2,9=2,10=2/1;
 99/5=1,9=1/99;
 ------
 SP_-25
 ------
 Symbolic Z-matrix:
 Charge =  1 Multiplicity = 1
 C                    -0.00095   2.49296   1.36043 
 C                    -0.00048   3.70168   0.67199 
 C                    -0.0003    3.68436  -0.71383 
 C                    -0.00005   2.46326  -1.40754 
 C                     0.00005  -2.46306  -1.40754 
 C                     0.0003   -3.68336  -0.71383 
 C                     0.00048  -3.70133   0.67199 
 C                     0.00095  -2.49236   1.36043 
 C                     0.00003  -0.0022    1.45337 
 C                     0.        0.0001   -1.42919 
 C                    -0.00007   1.26203   0.67707 
 C                     0.0002    1.23732  -0.7308 
 C                     0.00007  -1.26208   0.67707 
 C                    -0.0002   -1.23762  -0.7308 
 H                    -0.0011    2.4884    2.44365 
 H                    -0.00057   4.63713   1.21169 
 H                    -0.00015   4.60989  -1.27235 
 H                     0.00015   2.46763  -2.49006 
 H                     0.        0.00005  -2.51027 
 H                    -0.00015  -2.46748  -2.49006 
 H                     0.00015  -4.60864  -1.27235 
 H                     0.00057  -4.63638   1.21169 
 H                     0.0011   -2.48775   2.44365 
 H                    -0.85959  -0.0005    2.14634 
 H                     0.85959  -0.0005    2.14524 
 
                          Input orientation:                          
 ---------------------------------------------------------------------
 Center     Atomic      Atomic             Coordinates (Angstroms)
 Number     Number       Type             X           Y           Z
 ---------------------------------------------------------------------
      1          6           0       -0.000950    2.492955    1.360431
      2          6           0       -0.000475    3.701683    0.671989
      3          6           0       -0.000300    3.684361   -0.713830
      4          6           0       -0.000050    2.463256   -1.407538
      5          6           0        0.000050   -2.463056   -1.407538
      6          6           0        0.000300   -3.683361   -0.713830
      7          6           0        0.000475   -3.701333    0.671989
      8          6           0        0.000950   -2.492355    1.360431
      9          6           0        0.000025   -0.002200    1.453369
     10          6           0        0.000000    0.000100   -1.429189
     11          6           0       -0.000075    1.262030    0.677065
     12          6           0        0.000200    1.237321   -0.730804
     13          6           0        0.000075   -1.262080    0.677065
     14          6           0       -0.000200   -1.237621   -0.730804
     15          1           0       -0.001100    2.488396    2.443647
     16          1           0       -0.000575    4.637128    1.211689
     17          1           0       -0.000150    4.609887   -1.272349
     18          1           0        0.000150    2.467625   -2.490059
     19          1           0        0.000000    0.000050   -2.510266
     20          1           0       -0.000150   -2.467475   -2.490059
     21          1           0        0.000150   -4.608637   -1.272349
     22          1           0        0.000575   -4.636378    1.211689
     23          1           0        0.001100   -2.487746    2.443647
     24          1           0       -0.859585   -0.000500    2.146337
     25          1           0        0.859585   -0.000500    2.145237
 ---------------------------------------------------------------------
                    Distance matrix (angstroms):
                    1          2          3          4          5
     1  C    0.000000
     2  C    1.391034   0.000000
     3  C    2.392072   1.385927   0.000000
     4  C    2.768128   2.420358   1.404396   0.000000
     5  C    5.676592   6.506031   6.186434   4.926312   0.000000
     6  C    6.515323   7.513945   7.367722   6.185639   1.403701
     7  C    6.232428   7.403016   7.514584   6.505889   2.420282
     8  C    4.985310   6.232179   6.515703   5.676243   2.768124
     9  C    2.496885   3.785407   4.276387   3.776673   3.773672
    10  C    3.741164   4.256368   3.753068   2.463251   2.463251
    11  C    1.407894   2.439658   2.793256   2.405933   4.268704
    12  C    2.439238   2.835650   2.447099   1.400316   3.761749
    13  C    3.816710   4.963766   5.138275   4.268922   2.405808
    14  C    4.276735   5.134642   4.922011   3.762241   1.399879
    15  H    1.083226   2.147286   3.376388   3.851267   6.272839
    16  H    2.149326   1.079969   2.148346   3.403832   7.567890
    17  H    3.378303   2.145993   1.080991   2.150884   7.074235
    18  H    3.850573   3.394326   2.153006   1.082530   5.048115
    19  H    4.604006   4.881479   4.098943   2.698776   2.698685
    20  H    6.279502   6.932320   6.403130   5.048164   1.082530
    21  H    7.573912   8.534745   8.311784   7.073185   2.149836
    22  H    7.130885   8.355509   8.540628   7.567374   3.403480
    23  H    5.097131   6.437997   6.932861   6.272483   3.851264
    24  H    2.751767   4.076510   4.743114   4.408959   4.408308
    25  H    2.752046   4.076312   4.742559   4.408092   4.407402
                    6          7          8          9         10
     6  C    0.000000
     7  C    1.385936   0.000000
     8  C    2.391873   1.391251   0.000000
     9  C    4.271732   3.780759   2.491889   0.000000
    10  C    3.752282   4.256237   3.740897   2.882559   0.000000
    11  C    5.137264   4.963366   3.816071   1.483552   2.455356
    12  C    4.920711   5.134017   4.275950   2.511379   1.420724
    13  C    2.792345   2.439258   1.407326   1.479846   2.455485
    14  C    2.445799   2.835085   2.438775   2.509358   1.421160
    15  H    6.932550   6.438285   5.097180   2.680246   4.603312
    16  H    8.540384   8.355909   7.131035   4.645619   5.336316
    17  H    8.312034   8.535621   7.574521   5.357321   4.612454
    18  H    6.402314   6.932142   6.279146   4.653027   2.685912
    19  H    4.098134   4.881289   4.603735   3.963636   1.081077
    20  H    2.152526   3.394253   3.850571   4.650613   2.685958
    21  H    1.080777   2.145612   3.377896   5.352457   4.611405
    22  H    2.148456   1.079623   2.149176   4.640476   5.335838
    23  H    3.376264   2.147456   1.083226   2.675554   4.603068
    24  H    4.741669   4.075484   2.750911   1.104145   3.677400
    25  H    4.740897   4.074886   2.750003   1.103416   3.676331
                   11         12         13         14         15
    11  C    0.000000
    12  C    1.408086   0.000000
    13  C    2.524110   2.868641   0.000000
    14  C    2.868859   2.474942   1.408081   0.000000
    15  H    2.150532   3.412086   4.145707   4.894930   0.000000
    16  H    3.417179   3.915606   5.923384   6.187565   2.476847
    17  H    3.874063   3.415768   6.187100   5.872531   4.278943
    18  H    3.388825   2.146771   4.892992   4.101686   4.933750
    19  H    3.428071   2.167331   3.428126   2.167560   5.543746
    20  H    4.892840   4.101279   3.388754   2.146513   6.993005
    21  H    6.185867   5.870988   3.872939   3.414238   8.011024
    22  H    5.922587   6.186568   3.416388   3.914694   7.230500
    23  H    4.145073   4.894207   2.150133   3.411738   4.976142
    24  H    2.119316   3.247980   2.118811   3.247607   2.649527
    25  H    2.118614   3.246899   2.117987   3.246738   2.650364
                   16         17         18         19         20
    16  H    0.000000
    17  H    2.484187   0.000000
    18  H    4.290651   2.464164   0.000000
    19  H    5.946044   4.773158   2.467658   0.000000
    20  H    8.011137   7.181356   4.935100   2.467608   0.000000
    21  H    9.573642   9.218524   7.180272   4.772047   2.463208
    22  H    9.273506   9.574125   8.010605   5.945537   4.290347
    23  H    7.230598   8.011556   6.992650   5.543499   4.933748
    24  H    4.808228   5.803595   5.322307   4.735276   5.321725
    25  H    4.808220   5.802991   5.321300   4.734194   5.320816
                   21         22         23         24         25
    21  H    0.000000
    22  H    2.484193   0.000000
    23  H    4.278645   2.476760   0.000000
    24  H    5.801852   4.806746   2.648691   0.000000
    25  H    5.801159   4.806327   2.648101   1.719170   0.000000
 Stoichiometry    C14H11(1+)
 Framework group  C1[X(C14H11)]
 Deg. of freedom    69
 Full point group                 C1      NOp   1
 Largest Abelian subgroup         C1      NOp   1
 Largest concise Abelian subgroup C1      NOp   1
                         Standard orientation:                         
 ---------------------------------------------------------------------
 Center     Atomic      Atomic             Coordinates (Angstroms)
 Number     Number       Type             X           Y           Z
 ---------------------------------------------------------------------
      1          6           0       -2.492897   -1.360536   -0.000648
      2          6           0       -3.701654   -0.672145   -0.000033
      3          6           0       -3.684391    0.713675    0.000133
      4          6           0       -2.463315    1.407434    0.000234
      5          6           0        2.462997    1.407642   -0.000252
      6          6           0        3.683331    0.713985   -0.000144
      7          6           0        3.701362   -0.671833    0.000036
      8          6           0        2.492413   -1.360326    0.000659
      9          6           0        0.002262   -1.453369    0.000031
     10          6           0       -0.000160    1.429189   -0.000009
     11          6           0       -1.262001   -0.677118    0.000077
     12          6           0       -1.237351    0.730752    0.000342
     13          6           0        1.262109   -0.677012   -0.000073
     14          6           0        1.237591    0.730856   -0.000353
     15          1           0       -2.488292   -2.443752   -0.000793
     16          1           0       -4.637076   -1.211885   -0.000018
     17          1           0       -4.609940    1.272154    0.000390
     18          1           0       -2.467730    2.489955    0.000429
     19          1           0       -0.000155    2.510266   -0.000015
     20          1           0        2.467370    2.490163   -0.000458
     21          1           0        4.608584    1.272543   -0.000407
     22          1           0        4.636430   -1.211493    0.000028
     23          1           0        2.487850   -2.443542    0.000815
     24          1           0        0.000489   -2.146341   -0.859575
     25          1           0        0.000693   -2.145232    0.859595
 ---------------------------------------------------------------------
 Rotational constants (GHZ):           2.1362268           0.4446267           0.3688270
 Standard basis: 6-311++G(d,p) (5D, 7F)
 There are   399 symmetry adapted cartesian basis functions of A   symmetry.
 There are   385 symmetry adapted basis functions of A   symmetry.
   385 basis functions,   603 primitive gaussians,   399 cartesian basis functions
    47 alpha electrons       47 beta electrons
       nuclear repulsion energy       781.1975446195 Hartrees.
 NAtoms=   25 NActive=   25 NUniq=   25 SFac= 1.00D+00 NAtFMM=   60 NAOKFM=F Big=F
 Integral buffers will be    131072 words long.
 Regular integral format.
 Two-electron integral symmetry is turned on.
 Nuclear repulsion after empirical dispersion term =      781.1965651276 Hartrees.
 One-electron integrals computed using PRISM.
 NBasis=   385 RedAO= T EigKep=  1.12D-06  NBF=   385
 NBsUse=   379 1.00D-06 EigRej=  8.39D-07 NBFU=   379
 ExpMin= 3.60D-02 ExpMax= 4.56D+03 ExpMxC= 6.82D+02 IAcc=3 IRadAn=         5 AccDes= 0.00D+00
 Harris functional with IExCor= 1009 and IRadAn=       5 diagonalized for initial guess.
 HarFok:  IExCor= 1009 AccDes= 0.00D+00 IRadAn=         5 IDoV= 1 UseB2=F ITyADJ=14
 ICtDFT=  3500011 ScaDFX=  1.000000  1.000000  1.000000  1.000000
 FoFCou: FMM=F IPFlag=           0 FMFlag=      100000 FMFlg1=           0
         NFxFlg=           0 DoJE=T BraDBF=F KetDBF=T FulRan=T
         wScrn=  0.000000 ICntrl=       500 IOpCl=  0 I1Cent=   200000004 NGrid=           0
         NMat0=    1 NMatS0=      1 NMatT0=    0 NMatD0=    1 NMtDS0=    0 NMtDT0=    0
 Petite list used in FoFCou.
 Requested convergence on RMS density matrix=1.00D-08 within 128 cycles.
 Requested convergence on MAX density matrix=1.00D-06.
 Requested convergence on             energy=1.00D-06.
 No special actions if energy rises.
 SCF Done:  E(RM062X) =  -539.760228010     A.U. after   15 cycles
            NFock= 15  Conv=0.46D-08     -V/T= 2.0042
 DoSCS=F DFT=T ScalE2(SS,OS)=  1.000000  1.000000
 ExpMin= 3.60D-02 ExpMax= 4.56D+03 ExpMxC= 6.82D+02 IAcc=3 IRadAn=         5 AccDes= 0.00D+00
 HarFok:  IExCor=  205 AccDes= 0.00D+00 IRadAn=         5 IDoV=-2 UseB2=F ITyADJ=14
 ICtDFT= 12500011 ScaDFX=  1.000000  1.000000  1.000000  1.000000
 Range of M.O.s used for correlation:    15   379
 NBasis=   385 NAE=    47 NBE=    47 NFC=    14 NFV=     0
 NROrb=    365 NOA=    33 NOB=    33 NVA=   332 NVB=   332

 **** Warning!!: The largest alpha MO coefficient is  0.14787765D+03

 Orbital symmetries:
       Occupied  (A) (A) (A) (A) (A) (A) (A) (A) (A) (A) (A) (A)
                 (A) (A) (A) (A) (A) (A) (A) (A) (A) (A) (A) (A)
                 (A) (A) (A) (A) (A) (A) (A) (A) (A) (A) (A) (A)
                 (A) (A) (A) (A) (A) (A) (A) (A) (A) (A) (A)
       Virtual   (A) (A) (A) (A) (A) (A) (A) (A) (A) (A) (A) (A)
                 (A) (A) (A) (A) (A) (A) (A) (A) (A) (A) (A) (A)
                 (A) (A) (A) (A) (A) (A) (A) (A) (A) (A) (A) (A)
                 (A) (A) (A) (A) (A) (A) (A) (A) (A) (A) (A) (A)
                 (A) (A) (A) (A) (A) (A) (A) (A) (A) (A) (A) (A)
                 (A) (A) (A) (A) (A) (A) (A) (A) (A) (A) (A) (A)
                 (A) (A) (A) (A) (A) (A) (A) (A) (A) (A) (A) (A)
                 (A) (A) (A) (A) (A) (A) (A) (A) (A) (A) (A) (A)
                 (A) (A) (A) (A) (A) (A) (A) (A) (A) (A) (A) (A)
                 (A) (A) (A) (A) (A) (A) (A) (A) (A) (A) (A) (A)
                 (A) (A) (A) (A) (A) (A) (A) (A) (A) (A) (A) (A)
                 (A) (A) (A) (A) (A) (A) (A) (A) (A) (A) (A) (A)
                 (A) (A) (A) (A) (A) (A) (A) (A) (A) (A) (A) (A)
                 (A) (A) (A) (A) (A) (A) (A) (A) (A) (A) (A) (A)
                 (A) (A) (A) (A) (A) (A) (A) (A) (A) (A) (A) (A)
                 (A) (A) (A) (A) (A) (A) (A) (A) (A) (A) (A) (A)
                 (A) (A) (A) (A) (A) (A) (A) (A) (A) (A) (A) (A)
                 (A) (A) (A) (A) (A) (A) (A) (A) (A) (A) (A) (A)
                 (A) (A) (A) (A) (A) (A) (A) (A) (A) (A) (A) (A)
                 (A) (A) (A) (A) (A) (A) (A) (A) (A) (A) (A) (A)
                 (A) (A) (A) (A) (A) (A) (A) (A) (A) (A) (A) (A)
                 (A) (A) (A) (A) (A) (A) (A) (A) (A) (A) (A) (A)
                 (A) (A) (A) (A) (A) (A) (A) (A) (A) (A) (A) (A)
                 (A) (A) (A) (A) (A) (A) (A) (A) (A) (A) (A) (A)
                 (A) (A) (A) (A) (A) (A) (A) (A) (A) (A) (A) (A)
                 (A) (A) (A) (A) (A) (A) (A) (A) (A) (A) (A) (A)
                 (A) (A) (A) (A) (A) (A) (A) (A) (A) (A) (A) (A)
                 (A) (A) (A) (A) (A) (A) (A) (A)
     4 initial guesses have been made.
 Convergence on wavefunction:    0.001000000000000
 Iteration     1 Dimension     4 NMult     0 NNew      4
 CISAX will form     4 AO SS matrices at one time.
 Iteration     2 Dimension     6 NMult     4 NNew      2
 Iteration     3 Dimension     8 NMult     6 NNew      2
 Iteration     4 Dimension    10 NMult     8 NNew      2
 Iteration     5 Dimension    12 NMult    10 NNew      2
 Iteration     6 Dimension    14 NMult    12 NNew      2
 ***********************************************************************
 Excited states from <AA,BB:AA,BB> singles matrix:
 ***********************************************************************
 
 Ground to excited state transition densities written to RWF  633
 Ground to excited state transition electric dipole moments (Au):
       state          X           Y           Z        Dip. S.      Osc.
         1         0.0029     -0.6443     -0.0001      0.4151      0.0287
 Ground to excited state transition velocity dipole moments (Au):
       state          X           Y           Z        Dip. S.      Osc.
         1        -0.0003      0.0746      0.0000      0.0056      0.0357
 Ground to excited state transition magnetic dipole moments (Au):
       state          X           Y           Z
         1        -0.0000      0.0002     -0.0001
 Ground to excited state transition velocity quadrupole moments (Au):
       state          XX          YY          ZZ          XY          XZ          YZ
         1         0.2975      0.0351     -0.0098     -0.0004     -0.0000     -0.0000
 <0|del|b> * <b|rxdel|0> + <0|del|b> * <b|delr+rdel|0>
 Rotatory Strengths (R) in cgs (10**-40 erg-esu-cm/Gauss)
       state          XX          YY          ZZ    R(velocity)    E-M Angle
         1         0.0731      0.0001      0.0497      0.0409       90.00
 1/2[<0|r|b>*<b|rxdel|0> + (<0|rxdel|b>*<b|r|0>)*]
 Rotatory Strengths (R) in cgs (10**-40 erg-esu-cm/Gauss)
       state          XX          YY          ZZ     R(length)
         1         0.0001      0.1101     -0.0000      0.0367
  1/2[<0|del|b>*<b|r|0> + (<0|r|b>*<b|del|0>)*] (Au)
       state          X           Y           Z        Dip. S.   Osc.(frdel)
         1        -0.0000     -0.0480     -0.0000      0.0480      0.0320

 Excitation energies and oscillator strengths:
 
 Excited State   1:      Singlet-A      2.8228 eV  439.22 nm  f=0.0287  <S**2>=0.000
      47 -> 48         0.70426
 This state for optimization and/or second-order correction.
 Total Energy, E(TD-HF/TD-DFT) =  -539.656491104    
 Copying the excited state density for this state as the 1-particle RhoCI density.
 SavETr:  write IOETrn=   770 NScale= 10 NData=  16 NLR=1 NState=    1 LETran=      28.

 **********************************************************************

            Population analysis using the SCF Density.

 **********************************************************************

 Orbital symmetries:
       Occupied  (A) (A) (A) (A) (A) (A) (A) (A) (A) (A) (A) (A)
                 (A) (A) (A) (A) (A) (A) (A) (A) (A) (A) (A) (A)
                 (A) (A) (A) (A) (A) (A) (A) (A) (A) (A) (A) (A)
                 (A) (A) (A) (A) (A) (A) (A) (A) (A) (A) (A)
       Virtual   (A) (A) (A) (A) (A) (A) (A) (A) (A) (A) (A) (A)
                 (A) (A) (A) (A) (A) (A) (A) (A) (A) (A) (A) (A)
                 (A) (A) (A) (A) (A) (A) (A) (A) (A) (A) (A) (A)
                 (A) (A) (A) (A) (A) (A) (A) (A) (A) (A) (A) (A)
                 (A) (A) (A) (A) (A) (A) (A) (A) (A) (A) (A) (A)
                 (A) (A) (A) (A) (A) (A) (A) (A) (A) (A) (A) (A)
                 (A) (A) (A) (A) (A) (A) (A) (A) (A) (A) (A) (A)
                 (A) (A) (A) (A) (A) (A) (A) (A) (A) (A) (A) (A)
                 (A) (A) (A) (A) (A) (A) (A) (A) (A) (A) (A) (A)
                 (A) (A) (A) (A) (A) (A) (A) (A) (A) (A) (A) (A)
                 (A) (A) (A) (A) (A) (A) (A) (A) (A) (A) (A) (A)
                 (A) (A) (A) (A) (A) (A) (A) (A) (A) (A) (A) (A)
                 (A) (A) (A) (A) (A) (A) (A) (A) (A) (A) (A) (A)
                 (A) (A) (A) (A) (A) (A) (A) (A) (A) (A) (A) (A)
                 (A) (A) (A) (A) (A) (A) (A) (A) (A) (A) (A) (A)
                 (A) (A) (A) (A) (A) (A) (A) (A) (A) (A) (A) (A)
                 (A) (A) (A) (A) (A) (A) (A) (A) (A) (A) (A) (A)
                 (A) (A) (A) (A) (A) (A) (A) (A) (A) (A) (A) (A)
                 (A) (A) (A) (A) (A) (A) (A) (A) (A) (A) (A) (A)
                 (A) (A) (A) (A) (A) (A) (A) (A) (A) (A) (A) (A)
                 (A) (A) (A) (A) (A) (A) (A) (A) (A) (A) (A) (A)
                 (A) (A) (A) (A) (A) (A) (A) (A) (A) (A) (A) (A)
                 (A) (A) (A) (A) (A) (A) (A) (A) (A) (A) (A) (A)
                 (A) (A) (A) (A) (A) (A) (A) (A) (A) (A) (A) (A)
                 (A) (A) (A) (A) (A) (A) (A) (A) (A) (A) (A) (A)
                 (A) (A) (A) (A) (A) (A) (A) (A) (A) (A) (A) (A)
                 (A) (A) (A) (A) (A) (A) (A) (A) (A) (A) (A) (A)
                 (A) (A) (A) (A) (A) (A) (A) (A)
 The electronic state is 1-A.
 Alpha  occ. eigenvalues --  -10.77665 -10.73254 -10.73227 -10.72436 -10.72434
 Alpha  occ. eigenvalues --  -10.71376 -10.71361 -10.71007 -10.71002 -10.70979
 Alpha  occ. eigenvalues --  -10.69978 -10.69967 -10.69636 -10.69623  -1.16442
 Alpha  occ. eigenvalues --   -1.12466  -1.06945  -1.05731  -1.01313  -1.00185
 Alpha  occ. eigenvalues --   -0.95782  -0.91056  -0.86418  -0.85902  -0.83816
 Alpha  occ. eigenvalues --   -0.78400  -0.76028  -0.74418  -0.69561  -0.69246
 Alpha  occ. eigenvalues --   -0.68505  -0.68193  -0.68102  -0.64739  -0.64284
 Alpha  occ. eigenvalues --   -0.63066  -0.61867  -0.60003  -0.59679  -0.59093
 Alpha  occ. eigenvalues --   -0.56897  -0.55215  -0.54839  -0.52438  -0.46625
 Alpha  occ. eigenvalues --   -0.46056  -0.44501
 Alpha virt. eigenvalues --   -0.26088  -0.14669  -0.14098  -0.12773  -0.11179
 Alpha virt. eigenvalues --   -0.10086  -0.09230  -0.07983  -0.07970  -0.07476
 Alpha virt. eigenvalues --   -0.07203  -0.07146  -0.05643  -0.05581  -0.05332
 Alpha virt. eigenvalues --   -0.03826  -0.03646  -0.03279  -0.03133  -0.02165
 Alpha virt. eigenvalues --   -0.01368  -0.00930   0.00192   0.00592   0.00663
 Alpha virt. eigenvalues --    0.01056   0.01513   0.01941   0.02220   0.02285
 Alpha virt. eigenvalues --    0.02450   0.02670   0.02746   0.03320   0.03368
 Alpha virt. eigenvalues --    0.04240   0.04505   0.04695   0.05031   0.05365
 Alpha virt. eigenvalues --    0.06034   0.06296   0.06596   0.07044   0.07255
 Alpha virt. eigenvalues --    0.07892   0.08164   0.08362   0.08537   0.08929
 Alpha virt. eigenvalues --    0.09548   0.09558   0.10039   0.10868   0.11031
 Alpha virt. eigenvalues --    0.11116   0.12175   0.12243   0.12918   0.12973
 Alpha virt. eigenvalues --    0.13407   0.13523   0.14017   0.14384   0.16234
 Alpha virt. eigenvalues --    0.16287   0.16356   0.17347   0.17626   0.17797
 Alpha virt. eigenvalues --    0.18123   0.19074   0.19235   0.19638   0.19732
 Alpha virt. eigenvalues --    0.21562   0.21588   0.22725   0.23110   0.23560
 Alpha virt. eigenvalues --    0.23803   0.24575   0.25329   0.26920   0.27605
 Alpha virt. eigenvalues --    0.28846   0.29295   0.29860   0.31359   0.35819
 Alpha virt. eigenvalues --    0.36429   0.38182   0.39276   0.41157   0.41405
 Alpha virt. eigenvalues --    0.41967   0.42201   0.42984   0.43679   0.44293
 Alpha virt. eigenvalues --    0.44965   0.45010   0.46116   0.46144   0.47948
 Alpha virt. eigenvalues --    0.48530   0.48867   0.49026   0.50424   0.51157
 Alpha virt. eigenvalues --    0.51588   0.51676   0.52115   0.52907   0.53969
 Alpha virt. eigenvalues --    0.54089   0.54651   0.55685   0.55759   0.57469
 Alpha virt. eigenvalues --    0.58241   0.58812   0.61441   0.62193   0.62344
 Alpha virt. eigenvalues --    0.63213   0.63491   0.64967   0.65153   0.67256
 Alpha virt. eigenvalues --    0.70416   0.70606   0.71019   0.72410   0.72868
 Alpha virt. eigenvalues --    0.75779   0.76014   0.76286   0.76905   0.77091
 Alpha virt. eigenvalues --    0.77841   0.77874   0.78237   0.79882   0.80394
 Alpha virt. eigenvalues --    0.81244   0.81658   0.82132   0.83014   0.85183
 Alpha virt. eigenvalues --    0.87163   0.88176   0.88606   0.89121   0.90406
 Alpha virt. eigenvalues --    0.91083   0.91255   0.93190   0.94631   0.96457
 Alpha virt. eigenvalues --    0.96635   1.00396   1.01287   1.01692   1.02708
 Alpha virt. eigenvalues --    1.03196   1.03857   1.04735   1.05398   1.08766
 Alpha virt. eigenvalues --    1.19553   1.23275   1.24052   1.25276   1.27998
 Alpha virt. eigenvalues --    1.29708   1.31753   1.34306   1.35766   1.36003
 Alpha virt. eigenvalues --    1.39351   1.40167   1.40948   1.43020   1.43454
 Alpha virt. eigenvalues --    1.43529   1.45208   1.45312   1.46365   1.46678
 Alpha virt. eigenvalues --    1.47638   1.48012   1.51727   1.53624   1.55772
 Alpha virt. eigenvalues --    1.55823   1.56350   1.56575   1.57776   1.61442
 Alpha virt. eigenvalues --    1.63236   1.63540   1.63746   1.66110   1.68303
 Alpha virt. eigenvalues --    1.68359   1.68690   1.69733   1.74388   1.75988
 Alpha virt. eigenvalues --    1.77168   1.78048   1.80017   1.80136   1.80705
 Alpha virt. eigenvalues --    1.83165   1.83211   1.83612   1.83819   1.84165
 Alpha virt. eigenvalues --    1.84271   1.85883   1.86051   1.88220   1.91384
 Alpha virt. eigenvalues --    1.92068   1.94128   1.95193   1.97689   1.98153
 Alpha virt. eigenvalues --    1.99740   2.02426   2.04405   2.07259   2.11813
 Alpha virt. eigenvalues --    2.12056   2.14106   2.15220   2.19102   2.21248
 Alpha virt. eigenvalues --    2.22794   2.28624   2.30157   2.34647   2.34949
 Alpha virt. eigenvalues --    2.36219   2.38689   2.39592   2.42373   2.44672
 Alpha virt. eigenvalues --    2.46166   2.46510   2.49362   2.52904   2.53805
 Alpha virt. eigenvalues --    2.54236   2.56788   2.57839   2.58299   2.59644
 Alpha virt. eigenvalues --    2.59814   2.61602   2.62133   2.63537   2.63796
 Alpha virt. eigenvalues --    2.64779   2.65114   2.65240   2.65309   2.67953
 Alpha virt. eigenvalues --    2.68539   2.70956   2.71415   2.73344   2.74819
 Alpha virt. eigenvalues --    2.76303   2.78783   2.79722   2.82857   2.83056
 Alpha virt. eigenvalues --    2.84883   2.86292   2.92111   2.97003   2.99509
 Alpha virt. eigenvalues --    3.00057   3.05110   3.11090   3.11439   3.13047
 Alpha virt. eigenvalues --    3.20998   3.23714   3.26714   3.28211   3.30771
 Alpha virt. eigenvalues --    3.32808   3.33578   3.43409   3.45904   3.46577
 Alpha virt. eigenvalues --    3.48528   3.50137   3.56486   3.65883   3.66830
 Alpha virt. eigenvalues --    3.67426   3.94195   3.94603   3.95156   3.96216
 Alpha virt. eigenvalues --    4.04012   4.06904   4.07486   4.12549   4.35530
 Alpha virt. eigenvalues --    4.61368   4.69827   4.71632  23.45343  23.60532
 Alpha virt. eigenvalues --   23.82253  23.85581  23.87909  23.89290  23.90501
 Alpha virt. eigenvalues --   23.92276  23.97776  23.99655  23.99837  24.00103
 Alpha virt. eigenvalues --   24.10533  24.10648
          Condensed to atoms (all electrons):
               1          2          3          4          5          6
     1  C    8.589670   0.319787  -0.547280   1.982146  -0.030632  -0.095643
     2  C    0.319787   7.130057   0.354691  -1.073913  -0.018845  -0.014562
     3  C   -0.547280   0.354691   6.587371   0.759593  -0.123540   0.016946
     4  C    1.982146  -1.073913   0.759593  11.011741  -0.363240  -0.124418
     5  C   -0.030632  -0.018845  -0.123540  -0.363240  10.996537   0.765074
     6  C   -0.095643  -0.014562   0.016946  -0.124418   0.765074   6.589065
     7  C   -0.017988   0.001684  -0.014530  -0.018333  -1.076842   0.355971
     8  C    0.405269  -0.019145  -0.095571  -0.026671   1.970335  -0.543713
     9  C   -1.165024  -0.801493   0.294655  -0.214513  -0.225573   0.293765
    10  C   -1.281432   0.247363  -0.351688  -2.576304  -2.576136  -0.355950
    11  C    0.290412  -0.912915   1.010645  -0.266717  -1.501239  -0.175080
    12  C   -2.082692   1.349210  -1.393006  -1.609937  -0.330233  -0.199444
    13  C    0.210730  -0.240219  -0.174311  -1.504760  -0.263222   1.011704
    14  C   -1.075807  -0.195601  -0.199848  -0.336523  -1.584646  -1.400043
    15  H    0.367402  -0.105909  -0.001452   0.027329   0.005738   0.001106
    16  H   -0.019002   0.378791  -0.016756   0.013692  -0.001545  -0.000329
    17  H   -0.024767  -0.016511   0.374840  -0.067918   0.000320   0.000400
    18  H    0.050163   0.003051  -0.084973   0.457640   0.006357  -0.005089
    19  H   -0.046803  -0.007703   0.051200  -0.070219  -0.069456   0.051266
    20  H    0.007216   0.002041  -0.005070   0.006404   0.457574  -0.084661
    21  H   -0.001313  -0.000400   0.000399   0.000317  -0.067843   0.374894
    22  H    0.000701   0.000364  -0.000328  -0.001544   0.013565  -0.016573
    23  H    0.005736  -0.002653   0.001102   0.005762   0.027275  -0.001400
    24  H    0.033198   0.014690  -0.001459  -0.012475  -0.011975  -0.001605
    25  H    0.032290   0.014206  -0.001637  -0.012030  -0.012382  -0.001449
               7          8          9         10         11         12
     1  C   -0.017988   0.405269  -1.165024  -1.281432   0.290412  -2.082692
     2  C    0.001684  -0.019145  -0.801493   0.247363  -0.912915   1.349210
     3  C   -0.014530  -0.095571   0.294655  -0.351688   1.010645  -1.393006
     4  C   -0.018333  -0.026671  -0.214513  -2.576304  -0.266717  -1.609937
     5  C   -1.076842   1.970335  -0.225573  -2.576136  -1.501239  -0.330233
     6  C    0.355971  -0.543713   0.293765  -0.355950  -0.175080  -0.199444
     7  C    7.139013   0.320602  -0.802716   0.249235  -0.244673  -0.197146
     8  C    0.320602   8.589470  -1.176347  -1.280946   0.205902  -1.082273
     9  C   -0.802716  -1.176347   9.596015   0.258528   1.614495  -1.943267
    10  C    0.249235  -1.280946   0.258528   9.166391  -0.457657   2.435913
    11  C   -0.244673   0.205902   1.614495  -0.457657  14.507240  -3.770447
    12  C   -0.197146  -1.082273  -1.943267   2.435913  -3.770447  16.075185
    13  C   -0.916613   0.305008   1.623282  -0.460835   1.093056  -4.800811
    14  C    1.349726  -2.068781  -1.934961   2.428661  -4.810582   3.081087
    15  H   -0.002674   0.005751   0.091681  -0.009593  -0.030388  -0.024768
    16  H    0.000366   0.000730   0.003615  -0.009462   0.026991  -0.033743
    17  H   -0.000400  -0.001320  -0.005737   0.020520  -0.027363   0.091936
    18  H    0.002040   0.007272  -0.024849   0.013027  -0.007101  -0.054459
    19  H   -0.007702  -0.046787   0.075705   0.421939   0.077178  -0.065271
    20  H    0.002860   0.050044  -0.024941   0.012955  -0.011848  -0.013936
    21  H   -0.016349  -0.024862  -0.005744   0.020535  -0.006331   0.005317
    22  H    0.379034  -0.019524   0.003433  -0.009412   0.003078  -0.009082
    23  H   -0.106080   0.366933   0.091377  -0.009579   0.001544   0.006574
    24  H    0.014246   0.032240   0.356444   0.005357   0.013149  -0.059626
    25  H    0.014720   0.033654   0.356118   0.005282   0.013723  -0.060469
              13         14         15         16         17         18
     1  C    0.210730  -1.075807   0.367402  -0.019002  -0.024767   0.050163
     2  C   -0.240219  -0.195601  -0.105909   0.378791  -0.016511   0.003051
     3  C   -0.174311  -0.199848  -0.001452  -0.016756   0.374840  -0.084973
     4  C   -1.504760  -0.336523   0.027329   0.013692  -0.067918   0.457640
     5  C   -0.263222  -1.584646   0.005738  -0.001545   0.000320   0.006357
     6  C    1.011704  -1.400043   0.001106  -0.000329   0.000400  -0.005089
     7  C   -0.916613   1.349726  -0.002674   0.000366  -0.000400   0.002040
     8  C    0.305008  -2.068781   0.005751   0.000730  -0.001320   0.007272
     9  C    1.623282  -1.934961   0.091681   0.003615  -0.005737  -0.024849
    10  C   -0.460835   2.428661  -0.009593  -0.009462   0.020520   0.013027
    11  C    1.093056  -4.810582  -0.030388   0.026991  -0.027363  -0.007101
    12  C   -4.800811   3.081087  -0.024768  -0.033743   0.091936  -0.054459
    13  C   14.479273  -3.777823   0.001524   0.003081  -0.006272  -0.011863
    14  C   -3.777823  16.054740   0.006549  -0.009110   0.005312  -0.013860
    15  H    0.001524   0.006549   0.438986  -0.009019   0.001466   0.000175
    16  H    0.003081  -0.009110  -0.009019   0.419448  -0.006628   0.001927
    17  H   -0.006272   0.005312   0.001466  -0.006628   0.422405  -0.010251
    18  H   -0.011863  -0.013860   0.000175   0.001927  -0.010251   0.453604
    19  H    0.077720  -0.065353   0.000310  -0.000540   0.001417  -0.006224
    20  H   -0.007035  -0.054195  -0.000112   0.000015  -0.000143   0.001267
    21  H   -0.027622   0.092124   0.000014  -0.000007   0.000010  -0.000143
    22  H    0.026804  -0.033129  -0.000127   0.000007  -0.000007   0.000015
    23  H   -0.030081  -0.024332   0.000579  -0.000127   0.000014  -0.000113
    24  H    0.013653  -0.060220  -0.000895   0.000622  -0.000140   0.000175
    25  H    0.013468  -0.059957  -0.000924   0.000639  -0.000145   0.000188
              19         20         21         22         23         24
     1  C   -0.046803   0.007216  -0.001313   0.000701   0.005736   0.033198
     2  C   -0.007703   0.002041  -0.000400   0.000364  -0.002653   0.014690
     3  C    0.051200  -0.005070   0.000399  -0.000328   0.001102  -0.001459
     4  C   -0.070219   0.006404   0.000317  -0.001544   0.005762  -0.012475
     5  C   -0.069456   0.457574  -0.067843   0.013565   0.027275  -0.011975
     6  C    0.051266  -0.084661   0.374894  -0.016573  -0.001400  -0.001605
     7  C   -0.007702   0.002860  -0.016349   0.379034  -0.106080   0.014246
     8  C   -0.046787   0.050044  -0.024862  -0.019524   0.366933   0.032240
     9  C    0.075705  -0.024941  -0.005744   0.003433   0.091377   0.356444
    10  C    0.421939   0.012955   0.020535  -0.009412  -0.009579   0.005357
    11  C    0.077178  -0.011848  -0.006331   0.003078   0.001544   0.013149
    12  C   -0.065271  -0.013936   0.005317  -0.009082   0.006574  -0.059626
    13  C    0.077720  -0.007035  -0.027622   0.026804  -0.030081   0.013653
    14  C   -0.065353  -0.054195   0.092124  -0.033129  -0.024332  -0.060220
    15  H    0.000310  -0.000112   0.000014  -0.000127   0.000579  -0.000895
    16  H   -0.000540   0.000015  -0.000007   0.000007  -0.000127   0.000622
    17  H    0.001417  -0.000143   0.000010  -0.000007   0.000014  -0.000140
    18  H   -0.006224   0.001267  -0.000143   0.000015  -0.000113   0.000175
    19  H    0.442738  -0.006190   0.001418  -0.000540   0.000306   0.000596
    20  H   -0.006190   0.453578  -0.010279   0.001917   0.000177   0.000185
    21  H    0.001418  -0.010279   0.422504  -0.006640   0.001470  -0.000144
    22  H   -0.000540   0.001917  -0.006640   0.419468  -0.009008   0.000640
    23  H    0.000306   0.000177   0.001470  -0.009008   0.439021  -0.000932
    24  H    0.000596   0.000185  -0.000144   0.000640  -0.000932   0.493940
    25  H    0.000593   0.000177  -0.000140   0.000623  -0.000875  -0.079657
              25
     1  C    0.032290
     2  C    0.014206
     3  C   -0.001637
     4  C   -0.012030
     5  C   -0.012382
     6  C   -0.001449
     7  C    0.014720
     8  C    0.033654
     9  C    0.356118
    10  C    0.005282
    11  C    0.013723
    12  C   -0.060469
    13  C    0.013468
    14  C   -0.059957
    15  H   -0.000924
    16  H    0.000639
    17  H   -0.000145
    18  H    0.000188
    19  H    0.000593
    20  H    0.000177
    21  H   -0.000140
    22  H    0.000623
    23  H   -0.000875
    24  H   -0.079657
    25  H    0.493873
 Mulliken charges:
               1
     1  C    0.093666
     2  C   -0.406067
     3  C   -0.439992
     4  C    0.014892
     5  C    0.014572
     6  C   -0.440232
     7  C   -0.407449
     8  C    0.092732
     9  C   -0.333947
    10  C    0.093287
    11  C   -0.635070
    12  C    0.685389
    13  C   -0.637834
    14  C    0.686571
    15  H    0.237256
    16  H    0.256345
    17  H    0.248962
    18  H    0.222023
    19  H    0.190402
    20  H    0.222000
    21  H    0.248815
    22  H    0.256263
    23  H    0.237311
    24  H    0.249995
    25  H    0.250112
 Sum of Mulliken charges =   1.00000
 Mulliken charges with hydrogens summed into heavy atoms:
               1
     1  C    0.330921
     2  C   -0.149722
     3  C   -0.191031
     4  C    0.236914
     5  C    0.236571
     6  C   -0.191416
     7  C   -0.151185
     8  C    0.330043
     9  C    0.166160
    10  C    0.283689
    11  C   -0.635070
    12  C    0.685389
    13  C   -0.637834
    14  C    0.686571
 Electronic spatial extent (au):  <R**2>=           2855.9172
 Charge=              1.0000 electrons
 Dipole moment (field-independent basis, Debye):
    X=             -0.0026    Y=              0.1876    Z=              0.0001  Tot=              0.1876
 Quadrupole moment (field-independent basis, Debye-Ang):
   XX=            -31.1160   YY=            -56.2627   ZZ=            -84.1419
   XY=             -0.0015   XZ=             -0.0025   YZ=              0.0004
 Traceless Quadrupole moment (field-independent basis, Debye-Ang):
   XX=             26.0575   YY=              0.9108   ZZ=            -26.9683
   XY=             -0.0015   XZ=             -0.0025   YZ=              0.0004
 Octapole moment (field-independent basis, Debye-Ang**2):
  XXX=             -0.1095  YYY=              5.2103  ZZZ=              0.0015  XYY=              0.0009
  XXY=             -5.1743  XXZ=              0.0000  XZZ=              0.0134  YZZ=             -3.0883
  YYZ=             -0.0032  XYZ=             -0.0123
 Hexadecapole moment (field-independent basis, Debye-Ang**3):
 XXXX=          -2122.4361 YYYY=           -609.2457 ZZZZ=            -99.3297 XXXY=             -0.0622
 XXXZ=             -0.0691 YYYX=              0.0260 YYYZ=              0.0096 ZZZX=             -0.0031
 ZZZY=             -0.0020 XXYY=           -507.7122 XXZZ=           -590.7516 YYZZ=           -145.7035
 XXYZ=             -0.0019 YYXZ=             -0.0002 ZZXY=             -0.0012
 N-N= 7.811965651276D+02 E-N=-2.798734785013D+03  KE= 5.375056253208D+02
 Unable to Open any file for archive entry.
 1\1\GINC-GADI-CPU-CLX-0113\SP\RM062X TD-FC\6-311++G(d,p)\C14H11(1+)\TS
 1578\28-Jul-2022\0\\#n M062X/6-311++G(d,p) TD(NStates=1) EmpiricalDisp
 ersion=GD3 SP\\SP_-25\\1,1\C,0,-0.00095,2.492955,1.360431\C,0,-0.00047
 5,3.701683,0.671989\C,0,-0.0003,3.684361,-0.71383\C,0,-0.00005,2.46325
 6,-1.407538\C,0,0.00005,-2.463056,-1.407538\C,0,0.0003,-3.683361,-0.71
 383\C,0,0.000475,-3.701333,0.671989\C,0,0.00095,-2.492355,1.360431\C,0
 ,0.000025,-0.0022,1.453369\C,0,0.,0.0001,-1.429189\C,0,-0.000075,1.262
 03,0.677065\C,0,0.0002,1.237321,-0.730804\C,0,0.000075,-1.26208,0.6770
 65\C,0,-0.0002,-1.237621,-0.730804\H,0,-0.0011,2.488396,2.443647\H,0,-
 0.000575,4.637128,1.211689\H,0,-0.00015,4.609887,-1.272349\H,0,0.00015
 ,2.467625,-2.490059\H,0,0.,0.00005,-2.510266\H,0,-0.00015,-2.467475,-2
 .490059\H,0,0.00015,-4.608637,-1.272349\H,0,0.000575,-4.636378,1.21168
 9\H,0,0.0011,-2.487746,2.443647\H,0,-0.859585,-0.0005,2.146337\H,0,0.8
 59585,-0.0005,2.145237\\Version=ES64L-G16RevC.01\State=1-A\HF=-539.760
 228\RMSD=4.586e-09\PG=C01 [X(C14H11)]\\@
 The archive entry for this job was punched.


 MEMORIES ARE LIKE AN ENGLISH GRAMMER LESSON -
 PRESENT TENSE, AND PAST PERFECT.
 Job cpu time:       0 days  1 hours 19 minutes 35.1 seconds.
 Elapsed time:       0 days  0 hours  1 minutes 39.6 seconds.
 File lengths (MBytes):  RWF=    460 Int=      0 D2E=      0 Chk=     15 Scr=      1
 Normal termination of Gaussian 16 at Thu Jul 28 14:45:40 2022.
