 Entering Gaussian System, Link 0=g16
 Initial command:
 /apps/gaussian/g16c01/g16/l1.exe "/jobfs/53002009.gadi-pbs/Gau-806231.inp" -scrdir="/jobfs/53002009.gadi-pbs/"
 Entering Link 1 = /apps/gaussian/g16c01/g16/l1.exe PID=    806232.
  
 Copyright (c) 1988-2019, Gaussian, Inc.  All Rights Reserved.
  
 This is part of the Gaussian(R) 16 program.  It is based on
 the Gaussian(R) 09 system (copyright 2009, Gaussian, Inc.),
 the Gaussian(R) 03 system (copyright 2003, Gaussian, Inc.),
 the Gaussian(R) 98 system (copyright 1998, Gaussian, Inc.),
 the Gaussian(R) 94 system (copyright 1995, Gaussian, Inc.),
 the Gaussian 92(TM) system (copyright 1992, Gaussian, Inc.),
 the Gaussian 90(TM) system (copyright 1990, Gaussian, Inc.),
 the Gaussian 88(TM) system (copyright 1988, Gaussian, Inc.),
 the Gaussian 86(TM) system (copyright 1986, Carnegie Mellon
 University), and the Gaussian 82(TM) system (copyright 1983,
 Carnegie Mellon University). Gaussian is a federally registered
 trademark of Gaussian, Inc.
  
 This software contains proprietary and confidential information,
 including trade secrets, belonging to Gaussian, Inc.
  
 This software is provided under written license and may be
 used, copied, transmitted, or stored only in accord with that
 written license.
  
 The following legend is applicable only to US Government
 contracts under FAR:
  
                    RESTRICTED RIGHTS LEGEND
  
 Use, reproduction and disclosure by the US Government is
 subject to restrictions as set forth in subparagraphs (a)
 and (c) of the Commercial Computer Software - Restricted
 Rights clause in FAR 52.227-19.
  
 Gaussian, Inc.
 340 Quinnipiac St., Bldg. 40, Wallingford CT 06492
  
  
 ---------------------------------------------------------------
 Warning -- This program may not be used in any manner that
 competes with the business of Gaussian, Inc. or will provide
 assistance to any competitor of Gaussian, Inc.  The licensee
 of this program is prohibited from giving any competitor of
 Gaussian, Inc. access to this program.  By using this program,
 the user acknowledges that Gaussian, Inc. is engaged in the
 business of creating and licensing software in the field of
 computational chemistry and represents and warrants to the
 licensee that it is not a competitor of Gaussian, Inc. and that
 it will not use this program in any manner prohibited above.
 ---------------------------------------------------------------
  

 Cite this work as:
 Gaussian 16, Revision C.01,
 M. J. Frisch, G. W. Trucks, H. B. Schlegel, G. E. Scuseria, 
 M. A. Robb, J. R. Cheeseman, G. Scalmani, V. Barone, 
 G. A. Petersson, H. Nakatsuji, X. Li, M. Caricato, A. V. Marenich, 
 J. Bloino, B. G. Janesko, R. Gomperts, B. Mennucci, H. P. Hratchian, 
 J. V. Ortiz, A. F. Izmaylov, J. L. Sonnenberg, D. Williams-Young, 
 F. Ding, F. Lipparini, F. Egidi, J. Goings, B. Peng, A. Petrone, 
 T. Henderson, D. Ranasinghe, V. G. Zakrzewski, J. Gao, N. Rega, 
 G. Zheng, W. Liang, M. Hada, M. Ehara, K. Toyota, R. Fukuda, 
 J. Hasegawa, M. Ishida, T. Nakajima, Y. Honda, O. Kitao, H. Nakai, 
 T. Vreven, K. Throssell, J. A. Montgomery, Jr., J. E. Peralta, 
 F. Ogliaro, M. J. Bearpark, J. J. Heyd, E. N. Brothers, K. N. Kudin, 
 V. N. Staroverov, T. A. Keith, R. Kobayashi, J. Normand, 
 K. Raghavachari, A. P. Rendell, J. C. Burant, S. S. Iyengar, 
 J. Tomasi, M. Cossi, J. M. Millam, M. Klene, C. Adamo, R. Cammi, 
 J. W. Ochterski, R. L. Martin, K. Morokuma, O. Farkas, 
 J. B. Foresman, and D. J. Fox, Gaussian, Inc., Wallingford CT, 2019.
 
 ******************************************
 Gaussian 16:  ES64L-G16RevC.01  3-Jul-2019
                28-Jul-2022 
 ******************************************
 %NProcShared=48
 Will use up to   48 processors via shared memory.
 %mem = 190GB
 ---------------------------------------------------------------
 #n M062X/6-311++G(d,p) TD(NStates=1) EmpiricalDispersion=GD3 SP
 ---------------------------------------------------------------
 1/38=1,172=1/1;
 2/12=2,17=6,18=5,40=1/2;
 3/5=4,6=6,7=1111,11=9,25=1,30=1,74=-55,124=31/1,2,3,8;
 4//1;
 5/5=2,38=5/2;
 8/6=1,10=2,108=1/1;
 9/41=1,42=1,70=2/14;
 6/7=2,8=2,9=2,10=2/1;
 99/5=1,9=1/99;
 ------
 SP_150
 ------
 Symbolic Z-matrix:
 Charge =  1 Multiplicity = 1
 C                    -0.0411    2.49446   1.36043 
 C                    -0.04935   3.68036   0.67199 
 C                    -0.0138    3.64666  -0.71383 
 C                     0.0468    2.43586  -1.40754 
 C                     0.0468   -2.43586  -1.40754 
 C                    -0.0138   -3.64666  -0.71383 
 C                    -0.04935  -3.68036   0.67199 
 C                    -0.0411   -2.49446   1.36043 
 C                    -0.02625   0.        1.45337 
 C                     0.0732    0.       -1.42919 
 C                     0.01095   1.285     0.67707 
 C                     0.03      1.23387  -0.7308 
 C                     0.01095  -1.28501   0.67707 
 C                     0.03     -1.23387  -0.7308 
 H                    -0.0126    2.48942   2.44365 
 H                    -0.04995   4.6195    1.21169 
 H                     0.0087    4.61061  -1.27235 
 H                     0.0219    2.441    -2.49006 
 H                     0.0675    0.       -2.51027 
 H                     0.0219   -2.441    -2.49006 
 H                     0.0087   -4.61061  -1.27235 
 H                    -0.04995  -4.6195    1.21169 
 H                    -0.0126   -2.48942   2.44365 
 H                    -0.95559   0.        2.14579 
 H                     0.76359   0.        2.14579 
 
                          Input orientation:                          
 ---------------------------------------------------------------------
 Center     Atomic      Atomic             Coordinates (Angstroms)
 Number     Number       Type             X           Y           Z
 ---------------------------------------------------------------------
      1          6           0       -0.041100    2.494455    1.360431
      2          6           0       -0.049350    3.680358    0.671989
      3          6           0       -0.013800    3.646661   -0.713830
      4          6           0        0.046800    2.435856   -1.407538
      5          6           0        0.046800   -2.435856   -1.407538
      6          6           0       -0.013800   -3.646661   -0.713830
      7          6           0       -0.049350   -3.680358    0.671989
      8          6           0       -0.041100   -2.494455    1.360431
      9          6           0       -0.026250    0.000000    1.453369
     10          6           0        0.073200    0.000000   -1.429189
     11          6           0        0.010950    1.285005    0.677065
     12          6           0        0.030000    1.233871   -0.730804
     13          6           0        0.010950   -1.285005    0.677065
     14          6           0        0.030000   -1.233871   -0.730804
     15          1           0       -0.012600    2.489421    2.443647
     16          1           0       -0.049950    4.619503    1.211689
     17          1           0        0.008700    4.610612   -1.272349
     18          1           0        0.021900    2.441000   -2.490059
     19          1           0        0.067500    0.000000   -2.510266
     20          1           0        0.021900   -2.441000   -2.490059
     21          1           0        0.008700   -4.610612   -1.272349
     22          1           0       -0.049950   -4.619503    1.211689
     23          1           0       -0.012600   -2.489421    2.443647
     24          1           0       -0.955585    0.000000    2.145787
     25          1           0        0.763585    0.000000    2.145787
 ---------------------------------------------------------------------
                    Distance matrix (angstroms):
                    1          2          3          4          5
     1  C    0.000000
     2  C    1.371272   0.000000
     3  C    2.372948   1.386684   0.000000
     4  C    2.769984   2.425379   1.396765   0.000000
     5  C    5.654851   6.460786   6.122248   4.871712   0.000000
     6  C    6.482022   7.457008   7.293322   6.122248   1.396765
     7  C    6.213078   7.360716   7.457008   6.460786   2.425379
     8  C    4.988910   6.213078   6.482022   5.654851   2.769984
     9  C    2.496230   3.762462   4.242056   3.758127   3.758127
    10  C    3.743975   4.239694   3.717182   2.436095   2.436095
    11  C    1.390132   2.396117   2.740916   2.381452   4.265168
    12  C    2.442824   2.821245   2.413247   1.379500   3.731641
    13  C    3.841096   4.965732   5.124113   4.265168   2.381452
    14  C    4.275364   5.111142   4.880758   3.731641   1.379500
    15  H    1.083603   2.135054   3.362866   3.852016   6.252480
    16  H    2.130266   1.083176   2.157626   3.411455   7.526473
    17  H    3.378185   2.156199   1.114294   2.179287   7.047868
    18  H    3.851376   3.397003   2.147064   1.082820   4.995618
    19  H    4.606126   4.866769   4.065947   2.673917   2.673917
    20  H    6.260108   6.890185   6.341599   4.995618   1.082820
    21  H    7.577334   8.516103   8.276171   7.047868   2.179287
    22  H    7.115518   8.317390   8.487544   7.526473   3.411455
    23  H    5.100313   6.419213   6.900809   6.252480   3.852016
    24  H    2.770446   4.066740   4.728901   4.423154   4.423154
    25  H    2.736167   4.046972   4.698923   4.367298   4.367298
                    6          7          8          9         10
     6  C    0.000000
     7  C    1.386684   0.000000
     8  C    2.372948   1.371272   0.000000
     9  C    4.242056   3.762462   2.496230   0.000000
    10  C    3.717182   4.239694   3.743975   2.884273   0.000000
    11  C    5.124113   4.965732   3.841096   1.501756   2.468080
    12  C    4.880758   5.111142   4.275364   2.509226   1.418466
    13  C    2.740916   2.396117   1.390132   1.501756   2.468080
    14  C    2.413247   2.821245   2.442824   2.509226   1.418466
    15  H    6.900809   6.419213   5.100313   2.679189   4.604719
    16  H    8.487544   8.317390   7.115518   4.625881   5.322519
    17  H    8.276171   8.516103   7.577334   5.356165   4.613730
    18  H    6.341599   6.890185   6.260108   4.638041   2.662059
    19  H    4.065947   4.866769   4.606126   3.964744   1.081092
    20  H    2.147064   3.397003   3.851376   4.638041   2.662059
    21  H    1.114294   2.156199   3.378185   5.356165   4.613730
    22  H    2.157626   1.083176   2.130266   4.625881   5.322519
    23  H    3.362866   2.135054   1.083603   2.679189   4.604719
    24  H    4.728901   4.066740   2.770446   1.158925   3.720061
    25  H    4.698923   4.046972   2.736167   1.050372   3.641028
                   11         12         13         14         15
    11  C    0.000000
    12  C    1.408926   0.000000
    13  C    2.570010   2.885688   0.000000
    14  C    2.885688   2.467742   1.408926   0.000000
    15  H    2.138220   3.413995   4.167452   4.893042   0.000000
    16  H    3.377634   3.904123   5.928975   6.167792   2.460968
    17  H    3.854852   3.419957   6.209551   5.869558   4.278847
    18  H    3.371516   2.133590   4.890185   4.074275   4.934064
    19  H    3.437079   2.165717   3.437079   2.165717   5.544807
    20  H    4.890185   4.074275   3.371516   2.133590   6.975077
    21  H    6.209551   5.869558   3.854852   3.419957   8.013710
    22  H    5.928975   6.167792   3.377634   3.904123   7.214979
    23  H    4.167452   4.893042   2.138220   3.413995   4.978842
    24  H    2.177745   3.281553   2.177745   3.281553   2.678649
    25  H    2.091612   3.214866   2.091612   3.214866   2.624576
                   16         17         18         19         20
    16  H    0.000000
    17  H    2.484746   0.000000
    18  H    4.295809   2.488013   0.000000
    19  H    5.933511   4.774268   2.441510   0.000000
    20  H    7.972378   7.155992   4.882000   2.441510   0.000000
    21  H    9.558708   9.221224   7.155992   4.774268   2.488013
    22  H    9.239006   9.558708   7.972378   5.933511   4.295809
    23  H    7.214979   8.013710   6.975077   5.544807   4.934064
    24  H    4.799221   5.819901   5.329637   4.767130   5.329637
    25  H    4.782697   5.788890   5.291469   4.707798   5.291469
                   21         22         23         24         25
    21  H    0.000000
    22  H    2.484746   0.000000
    23  H    4.278847   2.460968   0.000000
    24  H    5.819901   4.799221   2.678649   0.000000
    25  H    5.788890   4.782697   2.624576   1.719170   0.000000
 Stoichiometry    C14H11(1+)
 Framework group  CS[SG(C2H3),X(C12H8)]
 Deg. of freedom    37
 Full point group                 CS      NOp   2
 Largest Abelian subgroup         CS      NOp   2
 Largest concise Abelian subgroup CS      NOp   2
                         Standard orientation:                         
 ---------------------------------------------------------------------
 Center     Atomic      Atomic             Coordinates (Angstroms)
 Number     Number       Type             X           Y           Z
 ---------------------------------------------------------------------
      1          6           0       -1.361013    0.004065    2.494455
      2          6           0       -0.673029    0.030489    3.680358
      3          6           0        0.713246    0.031540    3.646661
      4          6           0        1.408312   -0.010723    2.435856
      5          6           0        1.408312   -0.010723   -2.435856
      6          6           0        0.713246    0.031540   -3.646661
      7          6           0       -0.673029    0.030489   -3.680358
      8          6           0       -1.361013    0.004065   -2.494455
      9          6           0       -1.453526   -0.013233   -0.000000
     10          6           0        1.430653   -0.036542    0.000000
     11          6           0       -0.676511   -0.029924    1.285005
     12          6           0        0.731370   -0.011796    1.233871
     13          6           0       -0.676511   -0.029924   -1.285005
     14          6           0        0.731370   -0.011796   -1.233871
     15          1           0       -2.443099   -0.053024    2.489421
     16          1           0       -1.212556    0.016839    4.619503
     17          1           0        1.272164    0.023794    4.610612
     18          1           0        2.489798    0.042749    2.441000
     19          1           0        2.511202   -0.002301    0.000000
     20          1           0        2.489798    0.042749   -2.441000
     21          1           0        1.272164    0.023794   -4.610612
     22          1           0       -1.212556    0.016839   -4.619503
     23          1           0       -2.443099   -0.053024   -2.489421
     24          1           0       -2.170240    0.897496   -0.000000
     25          1           0       -2.124849   -0.821074   -0.000000
 ---------------------------------------------------------------------
 Rotational constants (GHZ):           2.1336763           0.4495860           0.3722129
 Standard basis: 6-311++G(d,p) (5D, 7F)
 There are   218 symmetry adapted cartesian basis functions of A'  symmetry.
 There are   181 symmetry adapted cartesian basis functions of A"  symmetry.
 There are   210 symmetry adapted basis functions of A'  symmetry.
 There are   175 symmetry adapted basis functions of A"  symmetry.
   385 basis functions,   603 primitive gaussians,   399 cartesian basis functions
    47 alpha electrons       47 beta electrons
       nuclear repulsion energy       783.8323589660 Hartrees.
 NAtoms=   25 NActive=   25 NUniq=   15 SFac= 2.78D+00 NAtFMM=   60 NAOKFM=F Big=F
 Integral buffers will be    131072 words long.
 Regular integral format.
 Two-electron integral symmetry is turned on.
 Nuclear repulsion after empirical dispersion term =      783.8313801894 Hartrees.
 One-electron integrals computed using PRISM.
 NBasis=   385 RedAO= T EigKep=  1.64D-06  NBF=   210   175
 NBsUse=   379 1.00D-06 EigRej=  8.16D-07 NBFU=   207   172
 ExpMin= 3.60D-02 ExpMax= 4.56D+03 ExpMxC= 6.82D+02 IAcc=3 IRadAn=         5 AccDes= 0.00D+00
 Harris functional with IExCor= 1009 and IRadAn=       5 diagonalized for initial guess.
 HarFok:  IExCor= 1009 AccDes= 0.00D+00 IRadAn=         5 IDoV= 1 UseB2=F ITyADJ=14
 ICtDFT=  3500011 ScaDFX=  1.000000  1.000000  1.000000  1.000000
 FoFCou: FMM=F IPFlag=           0 FMFlag=      100000 FMFlg1=           0
         NFxFlg=           0 DoJE=T BraDBF=F KetDBF=T FulRan=T
         wScrn=  0.000000 ICntrl=       500 IOpCl=  0 I1Cent=   200000004 NGrid=           0
         NMat0=    1 NMatS0=      1 NMatT0=    0 NMatD0=    1 NMtDS0=    0 NMtDT0=    0
 Petite list used in FoFCou.
 Initial guess orbital symmetries:
       Occupied  (A") (A') (A") (A') (A') (A") (A') (A') (A") (A")
                 (A') (A') (A") (A') (A') (A") (A') (A') (A") (A")
                 (A') (A') (A") (A') (A") (A') (A") (A') (A') (A")
                 (A") (A') (A") (A') (A") (A') (A') (A') (A") (A')
                 (A") (A") (A') (A') (A") (A") (A')
       Virtual   (A') (A') (A") (A") (A') (A') (A") (A') (A') (A")
                 (A') (A") (A') (A") (A') (A') (A") (A') (A") (A")
                 (A') (A') (A') (A") (A') (A') (A") (A") (A') (A')
                 (A") (A') (A") (A') (A") (A') (A") (A') (A') (A')
                 (A") (A') (A') (A") (A') (A") (A') (A") (A") (A")
                 (A") (A") (A') (A') (A') (A') (A') (A') (A') (A")
                 (A") (A') (A") (A') (A') (A') (A") (A") (A') (A")
                 (A") (A') (A') (A") (A") (A') (A') (A") (A') (A")
                 (A') (A') (A") (A") (A") (A') (A') (A') (A') (A")
                 (A") (A') (A") (A') (A") (A') (A") (A') (A") (A')
                 (A") (A') (A') (A') (A') (A") (A') (A") (A") (A')
                 (A') (A") (A") (A') (A') (A') (A") (A") (A') (A')
                 (A") (A") (A') (A') (A') (A") (A") (A") (A') (A')
                 (A') (A") (A') (A") (A') (A') (A") (A') (A') (A")
                 (A") (A") (A') (A') (A") (A") (A') (A") (A") (A')
                 (A') (A") (A") (A') (A") (A") (A') (A') (A') (A")
                 (A') (A") (A") (A') (A') (A') (A") (A') (A") (A")
                 (A') (A') (A') (A") (A") (A') (A") (A") (A') (A")
                 (A') (A') (A") (A') (A") (A') (A") (A') (A") (A')
                 (A') (A") (A') (A') (A') (A") (A") (A') (A') (A")
                 (A") (A') (A') (A') (A") (A") (A") (A') (A') (A')
                 (A") (A') (A") (A") (A') (A') (A") (A") (A') (A')
                 (A") (A') (A") (A") (A') (A') (A") (A") (A") (A')
                 (A') (A') (A") (A") (A") (A') (A") (A') (A") (A')
                 (A') (A') (A") (A') (A") (A") (A') (A") (A') (A')
                 (A") (A') (A") (A") (A') (A') (A") (A') (A') (A')
                 (A') (A") (A') (A") (A") (A') (A') (A") (A') (A")
                 (A") (A') (A") (A') (A') (A') (A') (A") (A") (A")
                 (A') (A") (A') (A') (A") (A") (A') (A") (A') (A')
                 (A") (A') (A") (A') (A') (A") (A') (A') (A") (A")
                 (A') (A") (A') (A') (A") (A') (A') (A") (A') (A")
                 (A') (A') (A") (A') (A") (A") (A") (A') (A') (A")
                 (A') (A') (A") (A') (A") (A') (A") (A') (A") (A')
                 (A") (A')
 The electronic state of the initial guess is 1-A'.
 Requested convergence on RMS density matrix=1.00D-08 within 128 cycles.
 Requested convergence on MAX density matrix=1.00D-06.
 Requested convergence on             energy=1.00D-06.
 No special actions if energy rises.
 SCF Done:  E(RM062X) =  -539.751595763     A.U. after   15 cycles
            NFock= 15  Conv=0.68D-08     -V/T= 2.0038
 DoSCS=F DFT=T ScalE2(SS,OS)=  1.000000  1.000000
 ExpMin= 3.60D-02 ExpMax= 4.56D+03 ExpMxC= 6.82D+02 IAcc=3 IRadAn=         5 AccDes= 0.00D+00
 HarFok:  IExCor=  205 AccDes= 0.00D+00 IRadAn=         5 IDoV=-2 UseB2=F ITyADJ=14
 ICtDFT= 12500011 ScaDFX=  1.000000  1.000000  1.000000  1.000000
 Range of M.O.s used for correlation:    15   379
 NBasis=   385 NAE=    47 NBE=    47 NFC=    14 NFV=     0
 NROrb=    365 NOA=    33 NOB=    33 NVA=   332 NVB=   332

 **** Warning!!: The largest alpha MO coefficient is  0.14189393D+03

 Orbital symmetries:
       Occupied  (A') (A") (A') (A") (A') (A") (A') (A') (A") (A')
                 (A") (A') (A") (A') (A') (A") (A') (A') (A") (A")
                 (A') (A') (A') (A") (A") (A') (A") (A') (A') (A")
                 (A') (A") (A') (A") (A') (A") (A') (A") (A') (A')
                 (A") (A') (A") (A') (A") (A") (A')
       Virtual   (A') (A') (A") (A") (A') (A') (A") (A') (A') (A")
                 (A') (A') (A") (A') (A') (A") (A") (A') (A") (A')
                 (A') (A") (A') (A') (A") (A') (A') (A') (A") (A')
                 (A") (A") (A") (A") (A') (A") (A") (A') (A') (A')
                 (A") (A') (A") (A') (A') (A') (A') (A") (A') (A")
                 (A") (A') (A') (A') (A") (A') (A') (A") (A") (A')
                 (A") (A') (A") (A') (A') (A") (A") (A') (A') (A")
                 (A') (A") (A') (A") (A') (A") (A') (A") (A') (A')
                 (A") (A") (A') (A") (A') (A') (A") (A') (A") (A')
                 (A") (A') (A") (A') (A') (A') (A') (A") (A") (A')
                 (A") (A') (A") (A') (A') (A") (A') (A") (A') (A")
                 (A') (A") (A') (A") (A') (A") (A') (A") (A") (A')
                 (A') (A') (A") (A') (A") (A") (A') (A') (A') (A")
                 (A") (A') (A') (A') (A') (A") (A') (A') (A") (A")
                 (A") (A') (A") (A') (A") (A") (A') (A") (A") (A')
                 (A') (A") (A") (A') (A") (A') (A') (A") (A') (A')
                 (A") (A") (A') (A') (A") (A") (A') (A") (A') (A")
                 (A') (A') (A") (A') (A") (A') (A") (A") (A') (A')
                 (A') (A") (A') (A") (A') (A") (A") (A') (A') (A")
                 (A") (A') (A') (A') (A') (A") (A') (A") (A') (A")
                 (A') (A") (A') (A') (A") (A") (A") (A') (A') (A')
                 (A') (A") (A") (A") (A') (A') (A") (A") (A') (A')
                 (A") (A') (A") (A") (A') (A") (A') (A") (A") (A')
                 (A') (A') (A") (A") (A") (A') (A") (A') (A') (A")
                 (A') (A') (A") (A") (A') (A") (A') (A") (A') (A')
                 (A") (A") (A') (A') (A") (A') (A') (A") (A') (A')
                 (A") (A') (A') (A") (A') (A") (A') (A") (A') (A')
                 (A") (A') (A") (A') (A") (A') (A") (A') (A") (A')
                 (A") (A") (A') (A') (A') (A") (A") (A') (A') (A")
                 (A") (A') (A") (A') (A') (A') (A") (A') (A") (A")
                 (A') (A") (A') (A') (A") (A') (A') (A") (A') (A")
                 (A') (A') (A") (A') (A") (A") (A") (A') (A') (A")
                 (A') (A') (A") (A') (A") (A') (A") (A') (A') (A")
                 (A") (A')
     4 initial guesses have been made.
 Convergence on wavefunction:    0.001000000000000
 Iteration     1 Dimension     4 NMult     0 NNew      4
 CISAX will form     4 AO SS matrices at one time.
 Iteration     2 Dimension     6 NMult     4 NNew      2
 Iteration     3 Dimension     8 NMult     6 NNew      2
 Iteration     4 Dimension    10 NMult     8 NNew      2
 Iteration     5 Dimension    12 NMult    10 NNew      2
 Iteration     6 Dimension    14 NMult    12 NNew      2
 ***********************************************************************
 Excited states from <AA,BB:AA,BB> singles matrix:
 ***********************************************************************
 
 Ground to excited state transition densities written to RWF  633
 Ground to excited state transition electric dipole moments (Au):
       state          X           Y           Z        Dip. S.      Osc.
         1        -0.6628      0.0129      0.0000      0.4394      0.0307
 Ground to excited state transition velocity dipole moments (Au):
       state          X           Y           Z        Dip. S.      Osc.
         1         0.0764     -0.0016      0.0000      0.0058      0.0371
 Ground to excited state transition magnetic dipole moments (Au):
       state          X           Y           Z
         1        -0.0000     -0.0000     -0.0173
 Ground to excited state transition velocity quadrupole moments (Au):
       state          XX          YY          ZZ          XY          XZ          YZ
         1         0.0409     -0.0102      0.2575      0.0018     -0.0000      0.0000
 <0|del|b> * <b|rxdel|0> + <0|del|b> * <b|delr+rdel|0>
 Rotatory Strengths (R) in cgs (10**-40 erg-esu-cm/Gauss)
       state          XX          YY          ZZ    R(velocity)    E-M Angle
         1        -0.0000      0.0000     -0.0000     -0.0000       90.00
 1/2[<0|r|b>*<b|rxdel|0> + (<0|rxdel|b>*<b|r|0>)*]
 Rotatory Strengths (R) in cgs (10**-40 erg-esu-cm/Gauss)
       state          XX          YY          ZZ     R(length)
         1        -0.0000      0.0000      0.0000      0.0000
  1/2[<0|del|b>*<b|r|0> + (<0|r|b>*<b|del|0>)*] (Au)
       state          X           Y           Z        Dip. S.   Osc.(frdel)
         1        -0.0506     -0.0000      0.0000      0.0506      0.0338

 Excitation energies and oscillator strengths:
 
 Excited State   1:      Singlet-A'     2.8530 eV  434.57 nm  f=0.0307  <S**2>=0.000
      47 -> 48         0.70418
 This state for optimization and/or second-order correction.
 Total Energy, E(TD-HF/TD-DFT) =  -539.646748663    
 Copying the excited state density for this state as the 1-particle RhoCI density.
 SavETr:  write IOETrn=   770 NScale= 10 NData=  16 NLR=1 NState=    1 LETran=      28.

 **********************************************************************

            Population analysis using the SCF Density.

 **********************************************************************

 Orbital symmetries:
       Occupied  (A') (A") (A') (A") (A') (A") (A') (A') (A") (A')
                 (A") (A') (A") (A') (A') (A") (A') (A') (A") (A")
                 (A') (A') (A') (A") (A") (A') (A") (A') (A') (A")
                 (A') (A") (A') (A") (A') (A") (A') (A") (A') (A')
                 (A") (A') (A") (A') (A") (A") (A')
       Virtual   (A') (A') (A") (A") (A') (A') (A") (A') (A') (A")
                 (A') (A') (A") (A') (A') (A") (A") (A') (A") (A')
                 (A') (A") (A') (A') (A") (A') (A') (A') (A") (A')
                 (A") (A") (A") (A") (A') (A") (A") (A') (A') (A')
                 (A") (A') (A") (A') (A') (A') (A') (A") (A') (A")
                 (A") (A') (A') (A') (A") (A') (A') (A") (A") (A')
                 (A") (A') (A") (A') (A') (A") (A") (A') (A') (A")
                 (A') (A") (A') (A") (A') (A") (A') (A") (A') (A')
                 (A") (A") (A') (A") (A') (A') (A") (A') (A") (A')
                 (A") (A') (A") (A') (A') (A') (A') (A") (A") (A')
                 (A") (A') (A") (A') (A') (A") (A') (A") (A') (A")
                 (A') (A") (A') (A") (A') (A") (A') (A") (A") (A')
                 (A') (A') (A") (A') (A") (A") (A') (A') (A') (A")
                 (A") (A') (A') (A') (A') (A") (A') (A') (A") (A")
                 (A") (A') (A") (A') (A") (A") (A') (A") (A") (A')
                 (A') (A") (A") (A') (A") (A') (A') (A") (A') (A')
                 (A") (A") (A') (A') (A") (A") (A') (A") (A') (A")
                 (A') (A') (A") (A') (A") (A') (A") (A") (A') (A')
                 (A') (A") (A') (A") (A') (A") (A") (A') (A') (A")
                 (A") (A') (A') (A') (A') (A") (A') (A") (A') (A")
                 (A') (A") (A') (A') (A") (A") (A") (A') (A') (A')
                 (A') (A") (A") (A") (A') (A') (A") (A") (A') (A')
                 (A") (A') (A") (A") (A') (A") (A') (A") (A") (A')
                 (A') (A') (A") (A") (A") (A') (A") (A') (A') (A")
                 (A') (A') (A") (A") (A') (A") (A') (A") (A') (A')
                 (A") (A") (A') (A') (A") (A') (A') (A") (A') (A')
                 (A") (A') (A') (A") (A') (A") (A') (A") (A') (A')
                 (A") (A') (A") (A') (A") (A') (A") (A') (A") (A')
                 (A") (A") (A') (A') (A') (A") (A") (A') (A') (A")
                 (A") (A') (A") (A') (A') (A') (A") (A') (A") (A")
                 (A') (A") (A') (A') (A") (A') (A') (A") (A') (A")
                 (A') (A') (A") (A') (A") (A") (A") (A') (A') (A")
                 (A') (A') (A") (A') (A") (A') (A") (A') (A') (A")
                 (A") (A')
 The electronic state is 1-A'.
 Alpha  occ. eigenvalues --  -10.77704 -10.73167 -10.73166 -10.72205 -10.72203
 Alpha  occ. eigenvalues --  -10.71064 -10.71064 -10.70958 -10.70826 -10.70826
 Alpha  occ. eigenvalues --  -10.69756 -10.69756 -10.69657 -10.69657  -1.16663
 Alpha  occ. eigenvalues --   -1.13091  -1.07306  -1.05510  -1.01986  -1.00026
 Alpha  occ. eigenvalues --   -0.96025  -0.90986  -0.86470  -0.86021  -0.83835
 Alpha  occ. eigenvalues --   -0.78492  -0.76036  -0.74540  -0.69589  -0.69276
 Alpha  occ. eigenvalues --   -0.68563  -0.67915  -0.67615  -0.65211  -0.64694
 Alpha  occ. eigenvalues --   -0.62558  -0.61455  -0.60119  -0.60108  -0.58894
 Alpha  occ. eigenvalues --   -0.56849  -0.55041  -0.54557  -0.52688  -0.47123
 Alpha  occ. eigenvalues --   -0.45956  -0.44732
 Alpha virt. eigenvalues --   -0.26174  -0.14434  -0.14037  -0.12446  -0.11190
 Alpha virt. eigenvalues --   -0.10114  -0.09278  -0.08133  -0.07918  -0.07493
 Alpha virt. eigenvalues --   -0.07251  -0.07066  -0.05635  -0.05584  -0.05289
 Alpha virt. eigenvalues --   -0.03929  -0.03866  -0.03282  -0.03119  -0.02149
 Alpha virt. eigenvalues --   -0.01415  -0.01035   0.00203   0.00454   0.00680
 Alpha virt. eigenvalues --    0.01075   0.01508   0.01929   0.02259   0.02281
 Alpha virt. eigenvalues --    0.02450   0.02767   0.03000   0.03146   0.03263
 Alpha virt. eigenvalues --    0.04219   0.04519   0.04729   0.05185   0.05425
 Alpha virt. eigenvalues --    0.05768   0.06332   0.06658   0.06982   0.07254
 Alpha virt. eigenvalues --    0.07910   0.08293   0.08374   0.08639   0.08927
 Alpha virt. eigenvalues --    0.09509   0.09610   0.09993   0.10793   0.11073
 Alpha virt. eigenvalues --    0.11203   0.12175   0.12185   0.12849   0.12992
 Alpha virt. eigenvalues --    0.13332   0.13458   0.13977   0.14628   0.15455
 Alpha virt. eigenvalues --    0.15936   0.16833   0.16867   0.17288   0.17748
 Alpha virt. eigenvalues --    0.18092   0.19282   0.19398   0.19586   0.19760
 Alpha virt. eigenvalues --    0.21508   0.21761   0.22658   0.22948   0.23584
 Alpha virt. eigenvalues --    0.23885   0.24478   0.24624   0.26741   0.27836
 Alpha virt. eigenvalues --    0.28768   0.29184   0.29679   0.31469   0.35679
 Alpha virt. eigenvalues --    0.36752   0.37707   0.39516   0.40962   0.41289
 Alpha virt. eigenvalues --    0.41877   0.42041   0.42799   0.43099   0.44035
 Alpha virt. eigenvalues --    0.44045   0.45438   0.45624   0.46316   0.47745
 Alpha virt. eigenvalues --    0.48378   0.48881   0.48923   0.50318   0.50875
 Alpha virt. eigenvalues --    0.51523   0.51920   0.52247   0.53683   0.53813
 Alpha virt. eigenvalues --    0.53837   0.54857   0.55753   0.55910   0.56924
 Alpha virt. eigenvalues --    0.58256   0.58751   0.61415   0.61735   0.62241
 Alpha virt. eigenvalues --    0.62859   0.63036   0.63820   0.65265   0.65993
 Alpha virt. eigenvalues --    0.70059   0.70533   0.70985   0.71966   0.72579
 Alpha virt. eigenvalues --    0.75113   0.75362   0.75721   0.76241   0.76256
 Alpha virt. eigenvalues --    0.77145   0.77689   0.78273   0.80175   0.80604
 Alpha virt. eigenvalues --    0.80793   0.82183   0.82419   0.83055   0.84020
 Alpha virt. eigenvalues --    0.86128   0.86264   0.87601   0.89209   0.90360
 Alpha virt. eigenvalues --    0.91379   0.91793   0.94091   0.95154   0.95676
 Alpha virt. eigenvalues --    0.96968   1.00291   1.01282   1.02284   1.02492
 Alpha virt. eigenvalues --    1.03937   1.04001   1.04994   1.06780   1.09772
 Alpha virt. eigenvalues --    1.19006   1.23327   1.24146   1.25769   1.28477
 Alpha virt. eigenvalues --    1.30436   1.30737   1.34894   1.35784   1.36672
 Alpha virt. eigenvalues --    1.39278   1.39982   1.40772   1.43569   1.43935
 Alpha virt. eigenvalues --    1.44055   1.44929   1.45631   1.46720   1.46815
 Alpha virt. eigenvalues --    1.48402   1.49114   1.51680   1.54047   1.56004
 Alpha virt. eigenvalues --    1.56077   1.57081   1.57332   1.58275   1.62026
 Alpha virt. eigenvalues --    1.62728   1.62826   1.62841   1.66358   1.67786
 Alpha virt. eigenvalues --    1.68662   1.69034   1.69614   1.75018   1.75980
 Alpha virt. eigenvalues --    1.77262   1.77927   1.79356   1.80912   1.81846
 Alpha virt. eigenvalues --    1.82510   1.82727   1.83553   1.83985   1.84643
 Alpha virt. eigenvalues --    1.84693   1.86412   1.86775   1.88670   1.91164
 Alpha virt. eigenvalues --    1.91924   1.93924   1.95271   1.98528   1.99295
 Alpha virt. eigenvalues --    2.00952   2.01847   2.04702   2.06471   2.12107
 Alpha virt. eigenvalues --    2.12271   2.13411   2.15359   2.20617   2.20923
 Alpha virt. eigenvalues --    2.23312   2.29428   2.30627   2.33875   2.35770
 Alpha virt. eigenvalues --    2.36013   2.36961   2.37267   2.38778   2.41940
 Alpha virt. eigenvalues --    2.47136   2.49291   2.51530   2.53244   2.53551
 Alpha virt. eigenvalues --    2.53869   2.56594   2.58346   2.58915   2.60260
 Alpha virt. eigenvalues --    2.60342   2.61431   2.62190   2.62617   2.63616
 Alpha virt. eigenvalues --    2.64385   2.64799   2.65355   2.65867   2.67702
 Alpha virt. eigenvalues --    2.67799   2.71032   2.71462   2.74002   2.74781
 Alpha virt. eigenvalues --    2.76831   2.79482   2.80417   2.83505   2.84481
 Alpha virt. eigenvalues --    2.86188   2.86962   2.92421   2.95051   3.00489
 Alpha virt. eigenvalues --    3.01056   3.03300   3.12558   3.13044   3.15173
 Alpha virt. eigenvalues --    3.20169   3.22232   3.28295   3.28814   3.31740
 Alpha virt. eigenvalues --    3.33026   3.34614   3.43713   3.46193   3.49223
 Alpha virt. eigenvalues --    3.50178   3.51829   3.56716   3.63303   3.67856
 Alpha virt. eigenvalues --    3.68750   3.90678   3.91396   3.94692   3.96099
 Alpha virt. eigenvalues --    4.02325   4.07077   4.07432   4.12247   4.34584
 Alpha virt. eigenvalues --    4.59776   4.70879   4.72817  23.44707  23.58308
 Alpha virt. eigenvalues --   23.82636  23.84783  23.87845  23.90959  23.91057
 Alpha virt. eigenvalues --   23.92913  23.99274  24.01601  24.04853  24.04901
 Alpha virt. eigenvalues --   24.13770  24.13776
          Condensed to atoms (all electrons):
               1          2          3          4          5          6
     1  C    8.430950   0.615808  -0.599092   1.414040   0.001128  -0.092122
     2  C    0.615808   6.878976   0.381120  -0.611377  -0.090256  -0.021317
     3  C   -0.599092   0.381120   6.695187   0.580311  -0.098619   0.019823
     4  C    1.414040  -0.611377   0.580311   9.596055   0.035544  -0.098619
     5  C    0.001128  -0.090256  -0.098619   0.035544   9.596055   0.580311
     6  C   -0.092122  -0.021317   0.019823  -0.098619   0.580311   6.695187
     7  C   -0.030467   0.016919  -0.021317  -0.090256  -0.611377   0.381120
     8  C    0.413070  -0.030467  -0.092122   0.001128   1.414040  -0.599092
     9  C   -1.598872  -0.353398   0.211555  -0.705029  -0.705029   0.211555
    10  C   -1.004588   0.012018  -0.325901  -2.049058  -2.049058  -0.325901
    11  C    0.259293  -0.920286   0.956492  -0.581414  -1.537862  -0.204147
    12  C   -1.509141   0.571642  -1.203206  -0.373655  -0.028624  -0.168193
    13  C    0.246510  -0.081315  -0.204147  -1.537862  -0.581414   0.956492
    14  C   -1.034020  -0.241177  -0.168193  -0.028624  -0.373655  -1.203206
    15  H    0.356928  -0.093649  -0.004853   0.016880   0.005403   0.001492
    16  H   -0.027162   0.385198  -0.011376   0.011106  -0.001682  -0.000392
    17  H   -0.013778  -0.027973   0.371413  -0.050419   0.000319   0.000378
    18  H    0.044617   0.008610  -0.092380   0.433393   0.012289  -0.004392
    19  H   -0.042234  -0.008691   0.048125  -0.049624  -0.049624   0.048125
    20  H    0.007901   0.001231  -0.004392   0.012289   0.433393  -0.092380
    21  H   -0.001247  -0.000358   0.000378   0.000319  -0.050419   0.371413
    22  H    0.000755   0.000372  -0.000392  -0.001682   0.011106  -0.011376
    23  H    0.006455  -0.002362   0.001492   0.005403   0.016880  -0.004853
    24  H    0.062851   0.010486  -0.001013  -0.010436  -0.010436  -0.001013
    25  H    0.010636   0.016746  -0.002812  -0.010540  -0.010540  -0.002812
               7          8          9         10         11         12
     1  C   -0.030467   0.413070  -1.598872  -1.004588   0.259293  -1.509141
     2  C    0.016919  -0.030467  -0.353398   0.012018  -0.920286   0.571642
     3  C   -0.021317  -0.092122   0.211555  -0.325901   0.956492  -1.203206
     4  C   -0.090256   0.001128  -0.705029  -2.049058  -0.581414  -0.373655
     5  C   -0.611377   1.414040  -0.705029  -2.049058  -1.537862  -0.028624
     6  C    0.381120  -0.599092   0.211555  -0.325901  -0.204147  -0.168193
     7  C    6.878976   0.615808  -0.353398   0.012018  -0.081315  -0.241177
     8  C    0.615808   8.430950  -1.598872  -1.004588   0.246510  -1.034020
     9  C   -0.353398  -1.598872   8.290309   0.885126   1.018673  -0.394991
    10  C    0.012018  -1.004588   0.885126   8.635797  -0.129093   1.466794
    11  C   -0.081315   0.246510   1.018673  -0.129093  12.777831  -2.882600
    12  C   -0.241177  -1.034020  -0.394991   1.466794  -2.882600  13.040209
    13  C   -0.920286   0.259293   1.018673  -0.129093   1.237079  -3.719495
    14  C    0.571642  -1.509141  -0.394991   1.466794  -3.719495   2.154034
    15  H   -0.002362   0.006455   0.068277  -0.007091  -0.010081  -0.008081
    16  H    0.000372   0.000755   0.002094  -0.010726   0.030249  -0.033230
    17  H   -0.000358  -0.001247   0.000024   0.011667  -0.008423   0.058261
    18  H    0.001231   0.007901  -0.031660   0.023480  -0.009704  -0.046423
    19  H   -0.008691  -0.042234   0.070406   0.424715   0.045171  -0.052561
    20  H    0.008610   0.044617  -0.031660   0.023480  -0.003413  -0.010357
    21  H   -0.027973  -0.013778   0.000024   0.011667  -0.005846   0.002200
    22  H    0.385198  -0.027162   0.002094  -0.010726   0.002112  -0.008869
    23  H   -0.093649   0.356928   0.068277  -0.007091  -0.004111   0.006740
    24  H    0.010486   0.062851   0.329436   0.003345   0.025565  -0.088596
    25  H    0.016746   0.010636   0.371453   0.003558  -0.008681  -0.018924
              13         14         15         16         17         18
     1  C    0.246510  -1.034020   0.356928  -0.027162  -0.013778   0.044617
     2  C   -0.081315  -0.241177  -0.093649   0.385198  -0.027973   0.008610
     3  C   -0.204147  -0.168193  -0.004853  -0.011376   0.371413  -0.092380
     4  C   -1.537862  -0.028624   0.016880   0.011106  -0.050419   0.433393
     5  C   -0.581414  -0.373655   0.005403  -0.001682   0.000319   0.012289
     6  C    0.956492  -1.203206   0.001492  -0.000392   0.000378  -0.004392
     7  C   -0.920286   0.571642  -0.002362   0.000372  -0.000358   0.001231
     8  C    0.259293  -1.509141   0.006455   0.000755  -0.001247   0.007901
     9  C    1.018673  -0.394991   0.068277   0.002094   0.000024  -0.031660
    10  C   -0.129093   1.466794  -0.007091  -0.010726   0.011667   0.023480
    11  C    1.237079  -3.719495  -0.010081   0.030249  -0.008423  -0.009704
    12  C   -3.719495   2.154034  -0.008081  -0.033230   0.058261  -0.046423
    13  C   12.777831  -2.882600  -0.004111   0.002112  -0.005846  -0.003413
    14  C   -2.882600  13.040209   0.006740  -0.008869   0.002200  -0.010357
    15  H   -0.004111   0.006740   0.441713  -0.008834   0.001200   0.000185
    16  H    0.002112  -0.008869  -0.008834   0.419660  -0.006553   0.001877
    17  H   -0.005846   0.002200   0.001200  -0.006553   0.420763  -0.010137
    18  H   -0.003413  -0.010357   0.000185   0.001877  -0.010137   0.460993
    19  H    0.045171  -0.052561   0.000448  -0.000510   0.001144  -0.004394
    20  H   -0.009704  -0.046423  -0.000142   0.000018  -0.000141   0.001059
    21  H   -0.008423   0.058261   0.000025  -0.000007   0.000008  -0.000141
    22  H    0.030249  -0.033230  -0.000130   0.000008  -0.000007   0.000018
    23  H   -0.010081  -0.008081   0.000570  -0.000130   0.000025  -0.000142
    24  H    0.025565  -0.088596   0.000033   0.000344  -0.000071   0.000308
    25  H   -0.008681  -0.018924  -0.001834   0.000963  -0.000216   0.000128
              19         20         21         22         23         24
     1  C   -0.042234   0.007901  -0.001247   0.000755   0.006455   0.062851
     2  C   -0.008691   0.001231  -0.000358   0.000372  -0.002362   0.010486
     3  C    0.048125  -0.004392   0.000378  -0.000392   0.001492  -0.001013
     4  C   -0.049624   0.012289   0.000319  -0.001682   0.005403  -0.010436
     5  C   -0.049624   0.433393  -0.050419   0.011106   0.016880  -0.010436
     6  C    0.048125  -0.092380   0.371413  -0.011376  -0.004853  -0.001013
     7  C   -0.008691   0.008610  -0.027973   0.385198  -0.093649   0.010486
     8  C   -0.042234   0.044617  -0.013778  -0.027162   0.356928   0.062851
     9  C    0.070406  -0.031660   0.000024   0.002094   0.068277   0.329436
    10  C    0.424715   0.023480   0.011667  -0.010726  -0.007091   0.003345
    11  C    0.045171  -0.003413  -0.005846   0.002112  -0.004111   0.025565
    12  C   -0.052561  -0.010357   0.002200  -0.008869   0.006740  -0.088596
    13  C    0.045171  -0.009704  -0.008423   0.030249  -0.010081   0.025565
    14  C   -0.052561  -0.046423   0.058261  -0.033230  -0.008081  -0.088596
    15  H    0.000448  -0.000142   0.000025  -0.000130   0.000570   0.000033
    16  H   -0.000510   0.000018  -0.000007   0.000008  -0.000130   0.000344
    17  H    0.001144  -0.000141   0.000008  -0.000007   0.000025  -0.000071
    18  H   -0.004394   0.001059  -0.000141   0.000018  -0.000142   0.000308
    19  H    0.441714  -0.004394   0.001144  -0.000510   0.000448   0.000277
    20  H   -0.004394   0.460993  -0.010137   0.001877   0.000185   0.000308
    21  H    0.001144  -0.010137   0.420763  -0.006553   0.001200  -0.000071
    22  H   -0.000510   0.001877  -0.006553   0.419660  -0.008834   0.000344
    23  H    0.000448   0.000185   0.001200  -0.008834   0.441713   0.000033
    24  H    0.000277   0.000308  -0.000071   0.000344   0.000033   0.495409
    25  H    0.000479   0.000128  -0.000216   0.000963  -0.001834  -0.078441
              25
     1  C    0.010636
     2  C    0.016746
     3  C   -0.002812
     4  C   -0.010540
     5  C   -0.010540
     6  C   -0.002812
     7  C    0.016746
     8  C    0.010636
     9  C    0.371453
    10  C    0.003558
    11  C   -0.008681
    12  C   -0.018924
    13  C   -0.008681
    14  C   -0.018924
    15  H   -0.001834
    16  H    0.000963
    17  H   -0.000216
    18  H    0.000128
    19  H    0.000479
    20  H    0.000128
    21  H   -0.000216
    22  H    0.000963
    23  H   -0.001834
    24  H   -0.078441
    25  H    0.494946
 Mulliken charges:
               1
     1  C    0.081781
     2  C   -0.416503
     3  C   -0.436081
     4  C    0.092124
     5  C    0.092124
     6  C   -0.436081
     7  C   -0.416503
     8  C    0.081781
     9  C   -0.380075
    10  C    0.072457
    11  C   -0.492504
    12  C    0.522263
    13  C   -0.492504
    14  C    0.522263
    15  H    0.234817
    16  H    0.254714
    17  H    0.257768
    18  H    0.217054
    19  H    0.188658
    20  H    0.217054
    21  H    0.257768
    22  H    0.254714
    23  H    0.234817
    24  H    0.251030
    25  H    0.237068
 Sum of Mulliken charges =   1.00000
 Mulliken charges with hydrogens summed into heavy atoms:
               1
     1  C    0.316598
     2  C   -0.161789
     3  C   -0.178314
     4  C    0.309178
     5  C    0.309178
     6  C   -0.178314
     7  C   -0.161789
     8  C    0.316598
     9  C    0.108023
    10  C    0.261114
    11  C   -0.492504
    12  C    0.522263
    13  C   -0.492504
    14  C    0.522263
 Electronic spatial extent (au):  <R**2>=           2833.1864
 Charge=              1.0000 electrons
 Dipole moment (field-independent basis, Debye):
    X=              0.1699    Y=             -0.0045    Z=              0.0000  Tot=              0.1700
 Quadrupole moment (field-independent basis, Debye-Ang):
   XX=            -56.2577   YY=            -83.9486   ZZ=            -31.6453
   XY=              0.2854   XZ=              0.0000   YZ=              0.0000
 Traceless Quadrupole moment (field-independent basis, Debye-Ang):
   XX=              1.0262   YY=            -26.6647   ZZ=             25.6385
   XY=              0.2854   XZ=              0.0000   YZ=              0.0000
 Octapole moment (field-independent basis, Debye-Ang**2):
  XXX=              5.1386  YYY=             -0.0951  ZZZ=              0.0000  XYY=             -3.1198
  XXY=              0.3098  XXZ=             -0.0000  XZZ=             -7.1884  YZZ=              0.4337
  YYZ=             -0.0000  XYZ=              0.0000
 Hexadecapole moment (field-independent basis, Debye-Ang**3):
 XXXX=           -609.7919 YYYY=            -99.1025 ZZZZ=          -2113.3080 XXXY=              3.1626
 XXXZ=              0.0000 YYYX=              0.1079 YYYZ=             -0.0000 ZZZX=             -0.0000
 ZZZY=             -0.0000 XXYY=           -145.4758 XXZZ=           -503.9514 YYZZ=           -584.2972
 XXYZ=              0.0000 YYXZ=             -0.0000 ZZXY=              2.9855
 N-N= 7.838313801894D+02 E-N=-2.804147743636D+03  KE= 5.376846814279D+02
 Symmetry A'   KE= 3.038813870947D+02
 Symmetry A"   KE= 2.338032943332D+02
 Unable to Open any file for archive entry.
 1\1\GINC-GADI-CPU-CLX-0113\SP\RM062X TD-FC\6-311++G(d,p)\C14H11(1+)\TS
 1578\28-Jul-2022\0\\#n M062X/6-311++G(d,p) TD(NStates=1) EmpiricalDisp
 ersion=GD3 SP\\SP_150\\1,1\C,0,-0.0411,2.494455,1.360431\C,0,-0.04935,
 3.680358,0.671989\C,0,-0.0138,3.646661,-0.71383\C,0,0.0468,2.435856,-1
 .407538\C,0,0.0468,-2.435856,-1.407538\C,0,-0.0138,-3.646661,-0.71383\
 C,0,-0.04935,-3.680358,0.671989\C,0,-0.0411,-2.494455,1.360431\C,0,-0.
 02625,0.,1.453369\C,0,0.0732,0.,-1.429189\C,0,0.01095,1.285005,0.67706
 5\C,0,0.03,1.233871,-0.730804\C,0,0.01095,-1.285005,0.677065\C,0,0.03,
 -1.233871,-0.730804\H,0,-0.0126,2.489421,2.443647\H,0,-0.04995,4.61950
 3,1.211689\H,0,0.0087,4.610612,-1.272349\H,0,0.0219,2.441,-2.490059\H,
 0,0.0675,0.,-2.510266\H,0,0.0219,-2.441,-2.490059\H,0,0.0087,-4.610612
 ,-1.272349\H,0,-0.04995,-4.619503,1.211689\H,0,-0.0126,-2.489421,2.443
 647\H,0,-0.955585,0.,2.145787\H,0,0.763585,0.,2.145787\\Version=ES64L-
 G16RevC.01\State=1-A'\HF=-539.7515958\RMSD=6.819e-09\PG=CS [SG(C2H3),X
 (C12H8)]\\@
 The archive entry for this job was punched.


 Once you get people laughing, they're
 listening and you can tell them almost anything.
                                 -- Herb Gardner
 Job cpu time:       0 days  0 hours 42 minutes 38.5 seconds.
 Elapsed time:       0 days  0 hours  0 minutes 53.5 seconds.
 File lengths (MBytes):  RWF=    460 Int=      0 D2E=      0 Chk=     15 Scr=      1
 Normal termination of Gaussian 16 at Thu Jul 28 17:04:20 2022.
