 Entering Gaussian System, Link 0=g16
 Initial command:
 /apps/gaussian/g16c01/g16/l1.exe "/jobfs/53002009.gadi-pbs/Gau-739555.inp" -scrdir="/jobfs/53002009.gadi-pbs/"
 Entering Link 1 = /apps/gaussian/g16c01/g16/l1.exe PID=    739556.
  
 Copyright (c) 1988-2019, Gaussian, Inc.  All Rights Reserved.
  
 This is part of the Gaussian(R) 16 program.  It is based on
 the Gaussian(R) 09 system (copyright 2009, Gaussian, Inc.),
 the Gaussian(R) 03 system (copyright 2003, Gaussian, Inc.),
 the Gaussian(R) 98 system (copyright 1998, Gaussian, Inc.),
 the Gaussian(R) 94 system (copyright 1995, Gaussian, Inc.),
 the Gaussian 92(TM) system (copyright 1992, Gaussian, Inc.),
 the Gaussian 90(TM) system (copyright 1990, Gaussian, Inc.),
 the Gaussian 88(TM) system (copyright 1988, Gaussian, Inc.),
 the Gaussian 86(TM) system (copyright 1986, Carnegie Mellon
 University), and the Gaussian 82(TM) system (copyright 1983,
 Carnegie Mellon University). Gaussian is a federally registered
 trademark of Gaussian, Inc.
  
 This software contains proprietary and confidential information,
 including trade secrets, belonging to Gaussian, Inc.
  
 This software is provided under written license and may be
 used, copied, transmitted, or stored only in accord with that
 written license.
  
 The following legend is applicable only to US Government
 contracts under FAR:
  
                    RESTRICTED RIGHTS LEGEND
  
 Use, reproduction and disclosure by the US Government is
 subject to restrictions as set forth in subparagraphs (a)
 and (c) of the Commercial Computer Software - Restricted
 Rights clause in FAR 52.227-19.
  
 Gaussian, Inc.
 340 Quinnipiac St., Bldg. 40, Wallingford CT 06492
  
  
 ---------------------------------------------------------------
 Warning -- This program may not be used in any manner that
 competes with the business of Gaussian, Inc. or will provide
 assistance to any competitor of Gaussian, Inc.  The licensee
 of this program is prohibited from giving any competitor of
 Gaussian, Inc. access to this program.  By using this program,
 the user acknowledges that Gaussian, Inc. is engaged in the
 business of creating and licensing software in the field of
 computational chemistry and represents and warrants to the
 licensee that it is not a competitor of Gaussian, Inc. and that
 it will not use this program in any manner prohibited above.
 ---------------------------------------------------------------
  

 Cite this work as:
 Gaussian 16, Revision C.01,
 M. J. Frisch, G. W. Trucks, H. B. Schlegel, G. E. Scuseria, 
 M. A. Robb, J. R. Cheeseman, G. Scalmani, V. Barone, 
 G. A. Petersson, H. Nakatsuji, X. Li, M. Caricato, A. V. Marenich, 
 J. Bloino, B. G. Janesko, R. Gomperts, B. Mennucci, H. P. Hratchian, 
 J. V. Ortiz, A. F. Izmaylov, J. L. Sonnenberg, D. Williams-Young, 
 F. Ding, F. Lipparini, F. Egidi, J. Goings, B. Peng, A. Petrone, 
 T. Henderson, D. Ranasinghe, V. G. Zakrzewski, J. Gao, N. Rega, 
 G. Zheng, W. Liang, M. Hada, M. Ehara, K. Toyota, R. Fukuda, 
 J. Hasegawa, M. Ishida, T. Nakajima, Y. Honda, O. Kitao, H. Nakai, 
 T. Vreven, K. Throssell, J. A. Montgomery, Jr., J. E. Peralta, 
 F. Ogliaro, M. J. Bearpark, J. J. Heyd, E. N. Brothers, K. N. Kudin, 
 V. N. Staroverov, T. A. Keith, R. Kobayashi, J. Normand, 
 K. Raghavachari, A. P. Rendell, J. C. Burant, S. S. Iyengar, 
 J. Tomasi, M. Cossi, J. M. Millam, M. Klene, C. Adamo, R. Cammi, 
 J. W. Ochterski, R. L. Martin, K. Morokuma, O. Farkas, 
 J. B. Foresman, and D. J. Fox, Gaussian, Inc., Wallingford CT, 2019.
 
 ******************************************
 Gaussian 16:  ES64L-G16RevC.01  3-Jul-2019
                28-Jul-2022 
 ******************************************
 %NProcShared=48
 Will use up to   48 processors via shared memory.
 %mem = 190GB
 ---------------------------------------------------------------
 #n M062X/6-311++G(d,p) TD(NStates=1) EmpiricalDispersion=GD3 SP
 ---------------------------------------------------------------
 1/38=1,172=1/1;
 2/12=2,17=6,18=5,40=1/2;
 3/5=4,6=6,7=1111,11=9,25=1,30=1,74=-55,124=31/1,2,3,8;
 4//1;
 5/5=2,38=5/2;
 8/6=1,10=2,108=1/1;
 9/41=1,42=1,70=2/14;
 6/7=2,8=2,9=2,10=2/1;
 99/5=1,9=1/99;
 ------
 SP_-75
 ------
 Symbolic Z-matrix:
 Charge =  1 Multiplicity = 1
 C                     0.02445   2.49146   1.36043 
 C                     0.02903   3.71376   0.67199 
 C                     0.0082    3.70531  -0.71383 
 C                    -0.02727   2.47903  -1.40754 
 C                    -0.02732  -2.47913  -1.40754 
 C                     0.0079   -3.70581  -0.71383 
 C                     0.02855  -3.71393   0.67199 
 C                     0.0235   -2.49176   1.36043 
 C                     0.0153    0.0011    1.45337 
 C                    -0.0427   -0.00005  -1.42919 
 C                    -0.00635   1.24868   0.67707 
 C                    -0.0176    1.23965  -0.7308 
 C                    -0.00643  -1.24866   0.67707 
 C                    -0.0174   -1.2395   -0.7308 
 H                     0.0079    2.48712   2.44365 
 H                     0.02943   4.64663   1.21169 
 H                    -0.005     4.60816  -1.27235 
 H                    -0.01285   2.483    -2.49006 
 H                    -0.03938  -0.00003  -2.51027 
 H                    -0.0127   -2.48308  -2.49006 
 H                    -0.00515  -4.60879  -1.27235 
 H                     0.02885  -4.647     1.21169 
 H                     0.0068   -2.48745   2.44365 
 H                    -0.80359   0.00025   2.14551 
 H                     0.91559   0.00025   2.14606 
 
                          Input orientation:                          
 ---------------------------------------------------------------------
 Center     Atomic      Atomic             Coordinates (Angstroms)
 Number     Number       Type             X           Y           Z
 ---------------------------------------------------------------------
      1          6           0        0.024450    2.491455    1.360431
      2          6           0        0.029025    3.713758    0.671989
      3          6           0        0.008200    3.705311   -0.713830
      4          6           0       -0.027275    2.479031   -1.407538
      5          6           0       -0.027325   -2.479131   -1.407538
      6          6           0        0.007900   -3.705811   -0.713830
      7          6           0        0.028550   -3.713933    0.671989
      8          6           0        0.023500   -2.491755    1.360431
      9          6           0        0.015300    0.001100    1.453369
     10          6           0       -0.042700   -0.000050   -1.429189
     11          6           0       -0.006350    1.248680    0.677065
     12          6           0       -0.017600    1.239646   -0.730804
     13          6           0       -0.006425   -1.248655    0.677065
     14          6           0       -0.017400   -1.239496   -0.730804
     15          1           0        0.007900    2.487121    2.443647
     16          1           0        0.029425    4.646628    1.211689
     17          1           0       -0.005000    4.608162   -1.272349
     18          1           0       -0.012850    2.483000   -2.490059
     19          1           0       -0.039375   -0.000025   -2.510266
     20          1           0       -0.012700   -2.483075   -2.490059
     21          1           0       -0.005150   -4.608787   -1.272349
     22          1           0        0.028850   -4.647003    1.211689
     23          1           0        0.006800   -2.487446    2.443647
     24          1           0       -0.803585    0.000250    2.145512
     25          1           0        0.915585    0.000250    2.146062
 ---------------------------------------------------------------------
                    Distance matrix (angstroms):
                    1          2          3          4          5
     1  C    0.000000
     2  C    1.402853   0.000000
     3  C    2.403387   1.386001   0.000000
     4  C    2.768480   2.419122   1.409344   0.000000
     5  C    5.689557   6.532954   6.223328   4.958162   0.000000
     6  C    6.535208   7.547910   7.411122   6.223724   1.409686
     7  C    6.243461   7.427691   7.547588   6.533020   2.419151
     8  C    4.983210   6.243587   6.535015   5.689723   2.768464
     9  C    2.492105   3.794018   4.291618   3.785068   3.786575
    10  C    3.740867   4.267606   3.774126   2.479224   2.479223
    11  C    1.418601   2.465337   2.823090   2.420696   4.271134
    12  C    2.437634   2.844509   2.465858   1.412139   3.779863
    13  C    3.802153   4.962542   5.145540   4.271024   2.420760
    14  C    4.277267   5.148272   4.944902   3.779618   1.412361
    15  H    1.083351   2.154961   3.384324   3.851354   6.284626
    16  H    2.160305   1.077740   2.143397   3.400300   7.592102
    17  H    3.378290   2.140459   1.061724   2.133535   7.088617
    18  H    3.850680   3.393386   2.156265   1.082624   5.078859
    19  H    4.603677   4.891177   4.118126   2.713277   2.713323
    20  H    6.290755   6.957085   6.438288   5.078835   1.082627
    21  H    7.572704   8.546717   8.332847   7.089142   2.134058
    22  H    7.140009   8.378162   8.571418   7.592355   3.400467
    23  H    5.095402   6.449356   6.951252   6.284798   3.851345
    24  H    2.740091   4.081011   4.749980   4.401270   4.401599
    25  H    2.759971   4.092557   4.767579   4.434119   4.434465
                    6          7          8          9         10
     6  C    0.000000
     7  C    1.385997   0.000000
     8  C    2.403484   1.402746   0.000000
     9  C    4.293949   3.796340   2.494600   0.000000
    10  C    3.774515   4.267664   3.740983   2.883142   0.000000
    11  C    5.146044   4.962738   3.802464   1.469548   2.448868
    12  C    4.945552   5.148583   4.277652   2.511113   1.423101
    13  C    2.823546   2.465531   1.418867   1.471396   2.448803
    14  C    2.466503   2.844781   2.437845   2.512122   1.422887
    15  H    6.951408   6.449207   5.095371   2.676006   4.602981
    16  H    8.571542   8.377963   7.139935   4.651832   5.345190
    17  H    8.332722   8.546276   7.572395   5.353034   4.611034
    18  H    6.438696   6.957172   6.290929   4.659533   2.700347
    19  H    4.118527   4.891265   4.603799   3.964012   1.081082
    20  H    2.156501   3.393414   3.850670   4.660744   2.700326
    21  H    1.061828   2.140642   3.378487   5.355466   4.611558
    22  H    2.143340   1.077913   2.160381   4.654402   5.345421
    23  H    3.384387   2.154882   1.083353   2.678355   4.603091
    24  H    4.750709   4.081528   2.740531   1.072210   3.654782
    25  H    4.768413   4.093272   2.761000   1.135930   3.701450
                   11         12         13         14         15
    11  C    0.000000
    12  C    1.407943   0.000000
    13  C    2.497335   2.858997   0.000000
    14  C    2.858887   2.479142   1.407942   0.000000
    15  H    2.157487   3.410863   4.132437   4.895452   0.000000
    16  H    3.439935   3.922119   5.919584   6.198542   2.486293
    17  H    3.884113   3.411793   6.172724   5.872693   4.278739
    18  H    3.399156   2.154282   4.894483   4.117278   4.933751
    19  H    3.423366   2.168812   3.423338   2.168699   5.543409
    20  H    4.894559   4.117481   3.399192   2.154412   7.003194
    21  H    6.173341   5.873465   3.884675   3.412557   8.010038
    22  H    5.919978   6.199038   3.440325   3.922566   7.239743
    23  H    4.132750   4.895809   2.157682   3.411027   4.974567
    24  H    2.085785   3.229097   2.086040   3.229280   2.632854
    25  H    2.136936   3.268531   2.137245   3.268607   2.664015
                   16         17         18         19         20
    16  H    0.000000
    17  H    2.484574   0.000000
    18  H    4.287891   2.449325   0.000000
    19  H    5.953912   4.771688   2.483249   0.000000
    20  H    8.033516   7.195034   4.966075   2.483275   0.000000
    21  H    9.583024   9.216949   7.195576   4.772242   2.449801
    22  H    9.293631   9.582780   8.033780   5.954159   4.288036
    23  H    7.239699   8.009770   7.003369   5.543523   4.933746
    24  H    4.811939   5.792440   5.317690   4.718081   5.317981
    25  H    4.821531   5.810840   5.340380   4.753245   5.340621
                   21         22         23         24         25
    21  H    0.000000
    22  H    2.484565   0.000000
    23  H    4.278885   2.486341   0.000000
    24  H    5.793315   4.812685   2.633294   0.000000
    25  H    5.811756   4.822480   2.665160   1.719170   0.000000
 Stoichiometry    C14H11(1+)
 Framework group  C1[X(C14H11)]
 Deg. of freedom    69
 Full point group                 C1      NOp   1
 Largest Abelian subgroup         C1      NOp   1
 Largest concise Abelian subgroup C1      NOp   1
                         Standard orientation:                         
 ---------------------------------------------------------------------
 Center     Atomic      Atomic             Coordinates (Angstroms)
 Number     Number       Type             X           Y           Z
 ---------------------------------------------------------------------
      1          6           0       -2.491486   -1.360581    0.002703
      2          6           0       -3.713774   -0.672264    0.017809
      3          6           0       -3.705297    0.713711    0.018334
      4          6           0       -2.479000    1.407856   -0.006380
      5          6           0        2.479162    1.407747   -0.006137
      6          6           0        3.705825    0.713552    0.018471
      7          6           0        3.713917   -0.672421    0.017773
      8          6           0        2.491725   -1.360677    0.002047
      9          6           0       -0.001132   -1.453422   -0.007731
     10          6           0        0.000083    1.429687   -0.021323
     11          6           0       -1.248694   -0.676849   -0.017494
     12          6           0       -1.239630    0.731026   -0.007056
     13          6           0        1.248641   -0.676903   -0.017422
     14          6           0        1.239512    0.730968   -0.006710
     15          1           0       -2.487173   -2.443414   -0.030530
     16          1           0       -4.646656   -1.211886    0.009841
     17          1           0       -4.608135    1.272387    0.013685
     18          1           0       -2.482947    2.490026    0.024718
     19          1           0        0.000080    2.510585   -0.001346
     20          1           0        2.483128    2.489914    0.025161
     21          1           0        4.608814    1.272185    0.014079
     22          1           0        4.646975   -1.212082    0.009815
     23          1           0        2.487394   -2.443507   -0.031336
     24          1           0       -0.000248   -2.132870   -0.837180
     25          1           0       -0.000350   -2.159900    0.881778
 ---------------------------------------------------------------------
 Rotational constants (GHZ):           2.1353583           0.4417193           0.3668175
 Standard basis: 6-311++G(d,p) (5D, 7F)
 There are   399 symmetry adapted cartesian basis functions of A   symmetry.
 There are   385 symmetry adapted basis functions of A   symmetry.
   385 basis functions,   603 primitive gaussians,   399 cartesian basis functions
    47 alpha electrons       47 beta electrons
       nuclear repulsion energy       779.5389871980 Hartrees.
 NAtoms=   25 NActive=   25 NUniq=   25 SFac= 1.00D+00 NAtFMM=   60 NAOKFM=F Big=F
 Integral buffers will be    131072 words long.
 Regular integral format.
 Two-electron integral symmetry is turned on.
 Nuclear repulsion after empirical dispersion term =      779.5380070965 Hartrees.
 One-electron integrals computed using PRISM.
 NBasis=   385 RedAO= T EigKep=  1.35D-06  NBF=   385
 NBsUse=   379 1.00D-06 EigRej=  8.95D-07 NBFU=   379
 ExpMin= 3.60D-02 ExpMax= 4.56D+03 ExpMxC= 6.82D+02 IAcc=3 IRadAn=         5 AccDes= 0.00D+00
 Harris functional with IExCor= 1009 and IRadAn=       5 diagonalized for initial guess.
 HarFok:  IExCor= 1009 AccDes= 0.00D+00 IRadAn=         5 IDoV= 1 UseB2=F ITyADJ=14
 ICtDFT=  3500011 ScaDFX=  1.000000  1.000000  1.000000  1.000000
 FoFCou: FMM=F IPFlag=           0 FMFlag=      100000 FMFlg1=           0
         NFxFlg=           0 DoJE=T BraDBF=F KetDBF=T FulRan=T
         wScrn=  0.000000 ICntrl=       500 IOpCl=  0 I1Cent=   200000004 NGrid=           0
         NMat0=    1 NMatS0=      1 NMatT0=    0 NMatD0=    1 NMtDS0=    0 NMtDT0=    0
 Petite list used in FoFCou.
 Requested convergence on RMS density matrix=1.00D-08 within 128 cycles.
 Requested convergence on MAX density matrix=1.00D-06.
 Requested convergence on             energy=1.00D-06.
 No special actions if energy rises.
 SCF Done:  E(RM062X) =  -539.756116371     A.U. after   15 cycles
            NFock= 15  Conv=0.51D-08     -V/T= 2.0044
 DoSCS=F DFT=T ScalE2(SS,OS)=  1.000000  1.000000
 ExpMin= 3.60D-02 ExpMax= 4.56D+03 ExpMxC= 6.82D+02 IAcc=3 IRadAn=         5 AccDes= 0.00D+00
 HarFok:  IExCor=  205 AccDes= 0.00D+00 IRadAn=         5 IDoV=-2 UseB2=F ITyADJ=14
 ICtDFT= 12500011 ScaDFX=  1.000000  1.000000  1.000000  1.000000
 Range of M.O.s used for correlation:    15   379
 NBasis=   385 NAE=    47 NBE=    47 NFC=    14 NFV=     0
 NROrb=    365 NOA=    33 NOB=    33 NVA=   332 NVB=   332

 **** Warning!!: The largest alpha MO coefficient is  0.14897273D+03

 Orbital symmetries:
       Occupied  (A) (A) (A) (A) (A) (A) (A) (A) (A) (A) (A) (A)
                 (A) (A) (A) (A) (A) (A) (A) (A) (A) (A) (A) (A)
                 (A) (A) (A) (A) (A) (A) (A) (A) (A) (A) (A) (A)
                 (A) (A) (A) (A) (A) (A) (A) (A) (A) (A) (A)
       Virtual   (A) (A) (A) (A) (A) (A) (A) (A) (A) (A) (A) (A)
                 (A) (A) (A) (A) (A) (A) (A) (A) (A) (A) (A) (A)
                 (A) (A) (A) (A) (A) (A) (A) (A) (A) (A) (A) (A)
                 (A) (A) (A) (A) (A) (A) (A) (A) (A) (A) (A) (A)
                 (A) (A) (A) (A) (A) (A) (A) (A) (A) (A) (A) (A)
                 (A) (A) (A) (A) (A) (A) (A) (A) (A) (A) (A) (A)
                 (A) (A) (A) (A) (A) (A) (A) (A) (A) (A) (A) (A)
                 (A) (A) (A) (A) (A) (A) (A) (A) (A) (A) (A) (A)
                 (A) (A) (A) (A) (A) (A) (A) (A) (A) (A) (A) (A)
                 (A) (A) (A) (A) (A) (A) (A) (A) (A) (A) (A) (A)
                 (A) (A) (A) (A) (A) (A) (A) (A) (A) (A) (A) (A)
                 (A) (A) (A) (A) (A) (A) (A) (A) (A) (A) (A) (A)
                 (A) (A) (A) (A) (A) (A) (A) (A) (A) (A) (A) (A)
                 (A) (A) (A) (A) (A) (A) (A) (A) (A) (A) (A) (A)
                 (A) (A) (A) (A) (A) (A) (A) (A) (A) (A) (A) (A)
                 (A) (A) (A) (A) (A) (A) (A) (A) (A) (A) (A) (A)
                 (A) (A) (A) (A) (A) (A) (A) (A) (A) (A) (A) (A)
                 (A) (A) (A) (A) (A) (A) (A) (A) (A) (A) (A) (A)
                 (A) (A) (A) (A) (A) (A) (A) (A) (A) (A) (A) (A)
                 (A) (A) (A) (A) (A) (A) (A) (A) (A) (A) (A) (A)
                 (A) (A) (A) (A) (A) (A) (A) (A) (A) (A) (A) (A)
                 (A) (A) (A) (A) (A) (A) (A) (A) (A) (A) (A) (A)
                 (A) (A) (A) (A) (A) (A) (A) (A) (A) (A) (A) (A)
                 (A) (A) (A) (A) (A) (A) (A) (A) (A) (A) (A) (A)
                 (A) (A) (A) (A) (A) (A) (A) (A) (A) (A) (A) (A)
                 (A) (A) (A) (A) (A) (A) (A) (A) (A) (A) (A) (A)
                 (A) (A) (A) (A) (A) (A) (A) (A) (A) (A) (A) (A)
                 (A) (A) (A) (A) (A) (A) (A) (A)
     4 initial guesses have been made.
 Convergence on wavefunction:    0.001000000000000
 Iteration     1 Dimension     4 NMult     0 NNew      4
 CISAX will form     4 AO SS matrices at one time.
 Iteration     2 Dimension     6 NMult     4 NNew      2
 Iteration     3 Dimension     8 NMult     6 NNew      2
 Iteration     4 Dimension    10 NMult     8 NNew      2
 Iteration     5 Dimension    12 NMult    10 NNew      2
 Iteration     6 Dimension    14 NMult    12 NNew      2
 ***********************************************************************
 Excited states from <AA,BB:AA,BB> singles matrix:
 ***********************************************************************
 
 Ground to excited state transition densities written to RWF  633
 Ground to excited state transition electric dipole moments (Au):
       state          X           Y           Z        Dip. S.      Osc.
         1        -0.0015     -0.6321      0.0068      0.3996      0.0273
 Ground to excited state transition velocity dipole moments (Au):
       state          X           Y           Z        Dip. S.      Osc.
         1         0.0002      0.0724     -0.0009      0.0052      0.0341
 Ground to excited state transition magnetic dipole moments (Au):
       state          X           Y           Z
         1        -0.0090     -0.0001     -0.0000
 Ground to excited state transition velocity quadrupole moments (Au):
       state          XX          YY          ZZ          XY          XZ          YZ
         1         0.3152      0.0302     -0.0094      0.0002      0.0000      0.0014
 <0|del|b> * <b|rxdel|0> + <0|del|b> * <b|delr+rdel|0>
 Rotatory Strengths (R) in cgs (10**-40 erg-esu-cm/Gauss)
       state          XX          YY          ZZ    R(velocity)    E-M Angle
         1        -0.0264     -0.0034     -0.0278     -0.0192       90.00
 1/2[<0|r|b>*<b|rxdel|0> + (<0|rxdel|b>*<b|r|0>)*]
 Rotatory Strengths (R) in cgs (10**-40 erg-esu-cm/Gauss)
       state          XX          YY          ZZ     R(length)
         1        -0.0095     -0.0429      0.0001     -0.0174
  1/2[<0|del|b>*<b|r|0> + (<0|r|b>*<b|del|0>)*] (Au)
       state          X           Y           Z        Dip. S.   Osc.(frdel)
         1        -0.0000     -0.0457     -0.0000      0.0457      0.0305

 Excitation energies and oscillator strengths:
 
 Excited State   1:      Singlet-A      2.7894 eV  444.48 nm  f=0.0273  <S**2>=0.000
      47 -> 48         0.70427
 This state for optimization and/or second-order correction.
 Total Energy, E(TD-HF/TD-DFT) =  -539.653606176    
 Copying the excited state density for this state as the 1-particle RhoCI density.
 SavETr:  write IOETrn=   770 NScale= 10 NData=  16 NLR=1 NState=    1 LETran=      28.

 **********************************************************************

            Population analysis using the SCF Density.

 **********************************************************************

 Orbital symmetries:
       Occupied  (A) (A) (A) (A) (A) (A) (A) (A) (A) (A) (A) (A)
                 (A) (A) (A) (A) (A) (A) (A) (A) (A) (A) (A) (A)
                 (A) (A) (A) (A) (A) (A) (A) (A) (A) (A) (A) (A)
                 (A) (A) (A) (A) (A) (A) (A) (A) (A) (A) (A)
       Virtual   (A) (A) (A) (A) (A) (A) (A) (A) (A) (A) (A) (A)
                 (A) (A) (A) (A) (A) (A) (A) (A) (A) (A) (A) (A)
                 (A) (A) (A) (A) (A) (A) (A) (A) (A) (A) (A) (A)
                 (A) (A) (A) (A) (A) (A) (A) (A) (A) (A) (A) (A)
                 (A) (A) (A) (A) (A) (A) (A) (A) (A) (A) (A) (A)
                 (A) (A) (A) (A) (A) (A) (A) (A) (A) (A) (A) (A)
                 (A) (A) (A) (A) (A) (A) (A) (A) (A) (A) (A) (A)
                 (A) (A) (A) (A) (A) (A) (A) (A) (A) (A) (A) (A)
                 (A) (A) (A) (A) (A) (A) (A) (A) (A) (A) (A) (A)
                 (A) (A) (A) (A) (A) (A) (A) (A) (A) (A) (A) (A)
                 (A) (A) (A) (A) (A) (A) (A) (A) (A) (A) (A) (A)
                 (A) (A) (A) (A) (A) (A) (A) (A) (A) (A) (A) (A)
                 (A) (A) (A) (A) (A) (A) (A) (A) (A) (A) (A) (A)
                 (A) (A) (A) (A) (A) (A) (A) (A) (A) (A) (A) (A)
                 (A) (A) (A) (A) (A) (A) (A) (A) (A) (A) (A) (A)
                 (A) (A) (A) (A) (A) (A) (A) (A) (A) (A) (A) (A)
                 (A) (A) (A) (A) (A) (A) (A) (A) (A) (A) (A) (A)
                 (A) (A) (A) (A) (A) (A) (A) (A) (A) (A) (A) (A)
                 (A) (A) (A) (A) (A) (A) (A) (A) (A) (A) (A) (A)
                 (A) (A) (A) (A) (A) (A) (A) (A) (A) (A) (A) (A)
                 (A) (A) (A) (A) (A) (A) (A) (A) (A) (A) (A) (A)
                 (A) (A) (A) (A) (A) (A) (A) (A) (A) (A) (A) (A)
                 (A) (A) (A) (A) (A) (A) (A) (A) (A) (A) (A) (A)
                 (A) (A) (A) (A) (A) (A) (A) (A) (A) (A) (A) (A)
                 (A) (A) (A) (A) (A) (A) (A) (A) (A) (A) (A) (A)
                 (A) (A) (A) (A) (A) (A) (A) (A) (A) (A) (A) (A)
                 (A) (A) (A) (A) (A) (A) (A) (A) (A) (A) (A) (A)
                 (A) (A) (A) (A) (A) (A) (A) (A)
 The electronic state is 1-A.
 Alpha  occ. eigenvalues --  -10.77655 -10.73308 -10.73294 -10.72587 -10.72586
 Alpha  occ. eigenvalues --  -10.71557 -10.71550 -10.71117 -10.71115 -10.70981
 Alpha  occ. eigenvalues --  -10.70175 -10.70170 -10.69579 -10.69573  -1.16333
 Alpha  occ. eigenvalues --   -1.12093  -1.06762  -1.05841  -1.00996  -1.00184
 Alpha  occ. eigenvalues --   -0.95648  -0.91086  -0.86406  -0.85841  -0.83798
 Alpha  occ. eigenvalues --   -0.78390  -0.75991  -0.74343  -0.69599  -0.69379
 Alpha  occ. eigenvalues --   -0.68705  -0.68269  -0.68102  -0.64471  -0.64052
 Alpha  occ. eigenvalues --   -0.63219  -0.62097  -0.59848  -0.59401  -0.59179
 Alpha  occ. eigenvalues --   -0.56951  -0.55295  -0.54934  -0.52295  -0.46421
 Alpha  occ. eigenvalues --   -0.46008  -0.44329
 Alpha virt. eigenvalues --   -0.26063  -0.14892  -0.14151  -0.13005  -0.11177
 Alpha virt. eigenvalues --   -0.10078  -0.09203  -0.08029  -0.07899  -0.07463
 Alpha virt. eigenvalues --   -0.07238  -0.07138  -0.05648  -0.05583  -0.05370
 Alpha virt. eigenvalues --   -0.03770  -0.03668  -0.03287  -0.03132  -0.02148
 Alpha virt. eigenvalues --   -0.01355  -0.00905   0.00192   0.00674   0.00741
 Alpha virt. eigenvalues --    0.01033   0.01511   0.01856   0.02195   0.02302
 Alpha virt. eigenvalues --    0.02405   0.02544   0.02777   0.03230   0.03406
 Alpha virt. eigenvalues --    0.04256   0.04497   0.04678   0.04938   0.05353
 Alpha virt. eigenvalues --    0.05976   0.06281   0.06607   0.07025   0.07187
 Alpha virt. eigenvalues --    0.07838   0.07988   0.08326   0.08473   0.08939
 Alpha virt. eigenvalues --    0.09567   0.09592   0.10017   0.10732   0.10991
 Alpha virt. eigenvalues --    0.11127   0.12261   0.12289   0.12860   0.13071
 Alpha virt. eigenvalues --    0.13405   0.13522   0.14037   0.14177   0.15864
 Alpha virt. eigenvalues --    0.16425   0.16684   0.17292   0.17421   0.17650
 Alpha virt. eigenvalues --    0.18066   0.18831   0.19142   0.19561   0.19711
 Alpha virt. eigenvalues --    0.21399   0.21436   0.22595   0.23134   0.23281
 Alpha virt. eigenvalues --    0.23582   0.24528   0.24640   0.26774   0.27407
 Alpha virt. eigenvalues --    0.28817   0.29262   0.29774   0.31129   0.35784
 Alpha virt. eigenvalues --    0.36120   0.37789   0.39083   0.41153   0.41512
 Alpha virt. eigenvalues --    0.41916   0.42436   0.43051   0.43500   0.44145
 Alpha virt. eigenvalues --    0.44545   0.44676   0.44906   0.46036   0.47872
 Alpha virt. eigenvalues --    0.48643   0.48940   0.49040   0.50477   0.51125
 Alpha virt. eigenvalues --    0.51286   0.51303   0.52137   0.52368   0.54002
 Alpha virt. eigenvalues --    0.54119   0.54431   0.55766   0.55821   0.57340
 Alpha virt. eigenvalues --    0.58149   0.58727   0.61333   0.62009   0.62274
 Alpha virt. eigenvalues --    0.62816   0.63668   0.63935   0.65124   0.66896
 Alpha virt. eigenvalues --    0.70475   0.70556   0.70909   0.71949   0.72675
 Alpha virt. eigenvalues --    0.75157   0.75576   0.76100   0.76313   0.76833
 Alpha virt. eigenvalues --    0.77284   0.77600   0.78056   0.80396   0.80658
 Alpha virt. eigenvalues --    0.81092   0.81588   0.81996   0.82745   0.84571
 Alpha virt. eigenvalues --    0.86564   0.86683   0.87867   0.89521   0.90498
 Alpha virt. eigenvalues --    0.90744   0.91471   0.93083   0.94762   0.96284
 Alpha virt. eigenvalues --    0.96768   1.00426   1.01238   1.01547   1.02643
 Alpha virt. eigenvalues --    1.02930   1.04010   1.04280   1.06267   1.08892
 Alpha virt. eigenvalues --    1.19858   1.23324   1.24098   1.25517   1.27978
 Alpha virt. eigenvalues --    1.29048   1.32188   1.33457   1.35210   1.35894
 Alpha virt. eigenvalues --    1.38883   1.40204   1.40306   1.42766   1.42968
 Alpha virt. eigenvalues --    1.43271   1.44905   1.44933   1.46606   1.46828
 Alpha virt. eigenvalues --    1.47412   1.47552   1.51515   1.53597   1.55426
 Alpha virt. eigenvalues --    1.55814   1.56214   1.56360   1.57539   1.61160
 Alpha virt. eigenvalues --    1.63540   1.64177   1.64199   1.65908   1.67845
 Alpha virt. eigenvalues --    1.68462   1.68633   1.69650   1.73793   1.75850
 Alpha virt. eigenvalues --    1.76945   1.77740   1.79303   1.79833   1.79971
 Alpha virt. eigenvalues --    1.83020   1.83111   1.83179   1.83423   1.83920
 Alpha virt. eigenvalues --    1.84349   1.85709   1.85818   1.88054   1.91541
 Alpha virt. eigenvalues --    1.91556   1.94102   1.95280   1.97321   1.97492
 Alpha virt. eigenvalues --    1.99130   2.02312   2.03892   2.07575   2.11543
 Alpha virt. eigenvalues --    2.11781   2.13355   2.15047   2.18302   2.20681
 Alpha virt. eigenvalues --    2.21941   2.28289   2.29366   2.34222   2.35587
 Alpha virt. eigenvalues --    2.35845   2.39162   2.40489   2.41006   2.41958
 Alpha virt. eigenvalues --    2.45777   2.48251   2.49321   2.52627   2.53687
 Alpha virt. eigenvalues --    2.54038   2.56843   2.57759   2.58347   2.59584
 Alpha virt. eigenvalues --    2.59703   2.61329   2.61748   2.63077   2.63650
 Alpha virt. eigenvalues --    2.63971   2.64350   2.64805   2.65290   2.67688
 Alpha virt. eigenvalues --    2.68948   2.70827   2.71285   2.73402   2.74789
 Alpha virt. eigenvalues --    2.76248   2.78115   2.79485   2.82170   2.82772
 Alpha virt. eigenvalues --    2.84105   2.86308   2.92012   2.96165   2.99317
 Alpha virt. eigenvalues --    2.99509   3.05882   3.09755   3.10302   3.11204
 Alpha virt. eigenvalues --    3.20792   3.23349   3.25670   3.27488   3.30061
 Alpha virt. eigenvalues --    3.30989   3.32491   3.43292   3.44290   3.45470
 Alpha virt. eigenvalues --    3.47046   3.49078   3.56082   3.64758   3.67132
 Alpha virt. eigenvalues --    3.68284   3.94315   3.95775   3.96021   3.97409
 Alpha virt. eigenvalues --    4.04618   4.06615   4.07346   4.12390   4.35652
 Alpha virt. eigenvalues --    4.61492   4.68505   4.70165  23.45679  23.61794
 Alpha virt. eigenvalues --   23.81243  23.86162  23.86840  23.89025  23.90386
 Alpha virt. eigenvalues --   23.92303  23.96250  23.96844  23.96979  23.98779
 Alpha virt. eigenvalues --   24.08999  24.09150
          Condensed to atoms (all electrons):
               1          2          3          4          5          6
     1  C    8.291013   0.557495  -0.588142   1.583682   0.015715  -0.083314
     2  C    0.557495   6.842022   0.364364  -0.768186  -0.045827  -0.014368
     3  C   -0.588142   0.364364   6.567539   0.554413  -0.109328   0.016239
     4  C    1.583682  -0.768186   0.554413  10.206824  -0.015823  -0.109230
     5  C    0.015715  -0.045827  -0.109328  -0.015823  10.201270   0.550967
     6  C   -0.083314  -0.014368   0.016239  -0.109230   0.550967   6.566915
     7  C   -0.032757   0.007820  -0.014398  -0.045969  -0.763951   0.363625
     8  C    0.375472  -0.032585  -0.083331   0.014881   1.585920  -0.589990
     9  C   -1.380609  -0.589570   0.272438  -0.446210  -0.447607   0.272747
    10  C   -1.068113   0.148628  -0.323517  -2.272497  -2.271034  -0.322659
    11  C    0.164202  -0.943863   1.099975  -0.756450  -1.614090  -0.131615
    12  C   -1.357381   0.965455  -1.285108  -0.623814  -0.101787  -0.212218
    13  C    0.074276  -0.174875  -0.132505  -1.616733  -0.761727   1.101445
    14  C   -1.003342  -0.209596  -0.212345  -0.104409  -0.622352  -1.282366
    15  H    0.356538  -0.099693  -0.000019   0.023845   0.005287   0.001153
    16  H   -0.023296   0.381137  -0.018719   0.013094  -0.001432  -0.000312
    17  H   -0.017896  -0.024071   0.383790  -0.058200  -0.000150   0.000366
    18  H    0.043698   0.009023  -0.094972   0.440110   0.012052  -0.004564
    19  H   -0.044604  -0.008942   0.052394  -0.078090  -0.078054   0.052422
    20  H    0.007234   0.001568  -0.004565   0.012017   0.439739  -0.095080
    21  H   -0.001238  -0.000356   0.000366  -0.000145  -0.058143   0.383768
    22  H    0.000623   0.000340  -0.000312  -0.001439   0.013141  -0.018758
    23  H    0.005637  -0.002559   0.001153   0.005299   0.023774  -0.000027
    24  H    0.014430   0.015140  -0.001642  -0.013621  -0.013804  -0.001579
    25  H    0.049041   0.012606  -0.000823  -0.012291  -0.012098  -0.000907
               7          8          9         10         11         12
     1  C   -0.032757   0.375472  -1.380609  -1.068113   0.164202  -1.357381
     2  C    0.007820  -0.032585  -0.589570   0.148628  -0.943863   0.965455
     3  C   -0.014398  -0.083331   0.272438  -0.323517   1.099975  -1.285108
     4  C   -0.045969   0.014881  -0.446210  -2.272497  -0.756450  -0.623814
     5  C   -0.763951   1.585920  -0.447607  -2.271034  -1.614090  -0.101787
     6  C    0.363625  -0.589990   0.272747  -0.322659  -0.131615  -0.212218
     7  C    6.836023   0.558606  -0.586307   0.147280  -0.173133  -0.209456
     8  C    0.558606   8.287644  -1.378185  -1.067651   0.075145  -0.999469
     9  C   -0.586307  -1.378185   8.812181   0.412470   1.568270  -1.351793
    10  C    0.147280  -1.067651   0.412470   8.933924  -0.293335   1.848127
    11  C   -0.173133   0.075145   1.568270  -0.293335  14.104857  -3.399040
    12  C   -0.209456  -0.999469  -1.351793   1.848127  -3.399040  14.498101
    13  C   -0.941794   0.157909   1.567558  -0.296592   1.415396  -4.574603
    14  C    0.960153  -1.356796  -1.351023   1.846770  -4.568566   2.406476
    15  H   -0.002542   0.005623   0.083785  -0.009413  -0.017714  -0.020407
    16  H    0.000338   0.000607   0.003575  -0.010010   0.026120  -0.029108
    17  H   -0.000355  -0.001233  -0.003047   0.017591  -0.020770   0.072358
    18  H    0.001566   0.007216  -0.027401   0.027767  -0.026484  -0.034472
    19  H   -0.008969  -0.044594   0.071324   0.424150   0.086503  -0.068083
    20  H    0.009169   0.043658  -0.027392   0.027959  -0.011790  -0.005798
    21  H   -0.024132  -0.017780  -0.003050   0.017583  -0.005453   0.003890
    22  H    0.381086  -0.023152   0.003661  -0.010072   0.002414  -0.008396
    23  H   -0.099431   0.356682   0.083718  -0.009389  -0.000586   0.006125
    24  H    0.015340   0.014995   0.374614   0.007357   0.002558  -0.037896
    25  H    0.012342   0.048284   0.342225   0.004700   0.022299  -0.079200
              13         14         15         16         17         18
     1  C    0.074276  -1.003342   0.356538  -0.023296  -0.017896   0.043698
     2  C   -0.174875  -0.209596  -0.099693   0.381137  -0.024071   0.009023
     3  C   -0.132505  -0.212345  -0.000019  -0.018719   0.383790  -0.094972
     4  C   -1.616733  -0.104409   0.023845   0.013094  -0.058200   0.440110
     5  C   -0.761727  -0.622352   0.005287  -0.001432  -0.000150   0.012052
     6  C    1.101445  -1.282366   0.001153  -0.000312   0.000366  -0.004564
     7  C   -0.941794   0.960153  -0.002542   0.000338  -0.000355   0.001566
     8  C    0.157909  -1.356796   0.005623   0.000607  -0.001233   0.007216
     9  C    1.567558  -1.351023   0.083785   0.003575  -0.003047  -0.027401
    10  C   -0.296592   1.846770  -0.009413  -0.010010   0.017591   0.027767
    11  C    1.415396  -4.568566  -0.017714   0.026120  -0.020770  -0.026484
    12  C   -4.574603   2.406476  -0.020407  -0.029108   0.072358  -0.034472
    13  C   14.126305  -3.396198  -0.000535   0.002391  -0.005462  -0.011908
    14  C   -3.396198  14.498518   0.006152  -0.008364   0.003895  -0.005939
    15  H   -0.000535   0.006152   0.441017  -0.008975   0.001583   0.000096
    16  H    0.002391  -0.008364  -0.008975   0.420404  -0.007092   0.001972
    17  H   -0.005462   0.003895   0.001583  -0.007092   0.425771  -0.010654
    18  H   -0.011908  -0.005939   0.000096   0.001972  -0.010654   0.455220
    19  H    0.086671  -0.067836   0.000363  -0.000587   0.001477  -0.006331
    20  H   -0.026549  -0.034529  -0.000138   0.000016  -0.000149   0.001292
    21  H   -0.020730   0.072195   0.000021  -0.000007   0.000011  -0.000149
    22  H    0.026267  -0.029409  -0.000128   0.000007  -0.000007   0.000016
    23  H   -0.017872  -0.020387   0.000574  -0.000127   0.000021  -0.000137
    24  H    0.002552  -0.037540  -0.001678   0.000783  -0.000206   0.000129
    25  H    0.022176  -0.079650  -0.000211   0.000442  -0.000092   0.000248
              19         20         21         22         23         24
     1  C   -0.044604   0.007234  -0.001238   0.000623   0.005637   0.014430
     2  C   -0.008942   0.001568  -0.000356   0.000340  -0.002559   0.015140
     3  C    0.052394  -0.004565   0.000366  -0.000312   0.001153  -0.001642
     4  C   -0.078090   0.012017  -0.000145  -0.001439   0.005299  -0.013621
     5  C   -0.078054   0.439739  -0.058143   0.013141   0.023774  -0.013804
     6  C    0.052422  -0.095080   0.383768  -0.018758  -0.000027  -0.001579
     7  C   -0.008969   0.009169  -0.024132   0.381086  -0.099431   0.015340
     8  C   -0.044594   0.043658  -0.017780  -0.023152   0.356682   0.014995
     9  C    0.071324  -0.027392  -0.003050   0.003661   0.083718   0.374614
    10  C    0.424150   0.027959   0.017583  -0.010072  -0.009389   0.007357
    11  C    0.086503  -0.011790  -0.005453   0.002414  -0.000586   0.002558
    12  C   -0.068083  -0.005798   0.003890  -0.008396   0.006125  -0.037896
    13  C    0.086671  -0.026549  -0.020730   0.026267  -0.017872   0.002552
    14  C   -0.067836  -0.034529   0.072195  -0.029409  -0.020387  -0.037540
    15  H    0.000363  -0.000138   0.000021  -0.000128   0.000574  -0.001678
    16  H   -0.000587   0.000016  -0.000007   0.000007  -0.000127   0.000783
    17  H    0.001477  -0.000149   0.000011  -0.000007   0.000021  -0.000206
    18  H   -0.006331   0.001292  -0.000149   0.000016  -0.000137   0.000129
    19  H    0.447653  -0.006325   0.001473  -0.000586   0.000365   0.000683
    20  H   -0.006325   0.455247  -0.010632   0.001975   0.000092   0.000125
    21  H    0.001473  -0.010632   0.425694  -0.007087   0.001584  -0.000204
    22  H   -0.000586   0.001975  -0.007087   0.420410  -0.008976   0.000776
    23  H    0.000365   0.000092   0.001584  -0.008976   0.440919  -0.001638
    24  H    0.000683   0.000125  -0.000204   0.000776  -0.001638   0.491006
    25  H    0.000504   0.000254  -0.000094   0.000450  -0.000246  -0.078095
              25
     1  C    0.049041
     2  C    0.012606
     3  C   -0.000823
     4  C   -0.012291
     5  C   -0.012098
     6  C   -0.000907
     7  C    0.012342
     8  C    0.048284
     9  C    0.342225
    10  C    0.004700
    11  C    0.022299
    12  C   -0.079200
    13  C    0.022176
    14  C   -0.079650
    15  H   -0.000211
    16  H    0.000442
    17  H   -0.000092
    18  H    0.000248
    19  H    0.000504
    20  H    0.000254
    21  H   -0.000094
    22  H    0.000450
    23  H   -0.000246
    24  H   -0.078095
    25  H    0.491121
 Mulliken charges:
               1
     1  C    0.061636
     2  C   -0.391108
     3  C   -0.442944
     4  C    0.068944
     5  C    0.069344
     6  C   -0.442658
     7  C   -0.390151
     8  C    0.062125
     9  C   -0.276372
    10  C    0.089976
    11  C   -0.604849
    12  C    0.597496
    13  C   -0.604863
    14  C    0.596489
    15  H    0.235417
    16  H    0.257143
    17  H    0.242520
    18  H    0.222605
    19  H    0.187017
    20  H    0.222602
    21  H    0.242613
    22  H    0.257155
    23  H    0.235435
    24  H    0.247414
    25  H    0.257014
 Sum of Mulliken charges =   1.00000
 Mulliken charges with hydrogens summed into heavy atoms:
               1
     1  C    0.297053
     2  C   -0.133965
     3  C   -0.200424
     4  C    0.291549
     5  C    0.291946
     6  C   -0.200046
     7  C   -0.132996
     8  C    0.297561
     9  C    0.228056
    10  C    0.276994
    11  C   -0.604849
    12  C    0.597496
    13  C   -0.604863
    14  C    0.596489
 Electronic spatial extent (au):  <R**2>=           2869.8194
 Charge=              1.0000 electrons
 Dipole moment (field-independent basis, Debye):
    X=              0.0014    Y=              0.1924    Z=              0.0025  Tot=              0.1925
 Quadrupole moment (field-independent basis, Debye-Ang):
   XX=            -30.8127   YY=            -56.2578   ZZ=            -84.2552
   XY=              0.0008   XZ=              0.0012   YZ=              0.1682
 Traceless Quadrupole moment (field-independent basis, Debye-Ang):
   XX=             26.2959   YY=              0.8508   ZZ=            -27.1466
   XY=              0.0008   XZ=              0.0012   YZ=              0.1682
 Octapole moment (field-independent basis, Debye-Ang**2):
  XXX=              0.0558  YYY=              5.1909  ZZZ=             -0.0411  XYY=             -0.0008
  XXY=             -4.0690  XXZ=              0.3266  XZZ=             -0.0063  YZZ=             -3.0887
  YYZ=              0.2059  XYZ=              0.0062
 Hexadecapole moment (field-independent basis, Debye-Ang**3):
 XXXX=          -2128.0439 YYYY=           -609.4833 ZZZZ=            -99.8097 XXXY=              0.0310
 XXXZ=              0.0357 YYYX=             -0.0126 YYYZ=              1.8493 ZZZX=              0.0018
 ZZZY=              0.0734 XXYY=           -510.1896 XXZZ=           -594.6147 YYZZ=           -145.8568
 XXYZ=              1.8435 YYXZ=             -0.0001 ZZXY=              0.0007
 N-N= 7.795380070965D+02 E-N=-2.795323162217D+03  KE= 5.374050681104D+02
 Unable to Open any file for archive entry.
 1\1\GINC-GADI-CPU-CLX-0113\SP\RM062X TD-FC\6-311++G(d,p)\C14H11(1+)\TS
 1578\28-Jul-2022\0\\#n M062X/6-311++G(d,p) TD(NStates=1) EmpiricalDisp
 ersion=GD3 SP\\SP_-75\\1,1\C,0,0.02445,2.491455,1.360431\C,0,0.029025,
 3.713758,0.671989\C,0,0.0082,3.705311,-0.71383\C,0,-0.027275,2.479031,
 -1.407538\C,0,-0.027325,-2.479131,-1.407538\C,0,0.0079,-3.705811,-0.71
 383\C,0,0.02855,-3.713933,0.671989\C,0,0.0235,-2.491755,1.360431\C,0,0
 .0153,0.0011,1.453369\C,0,-0.0427,-0.00005,-1.429189\C,0,-0.00635,1.24
 868,0.677065\C,0,-0.0176,1.239646,-0.730804\C,0,-0.006425,-1.248655,0.
 677065\C,0,-0.0174,-1.239496,-0.730804\H,0,0.0079,2.487121,2.443647\H,
 0,0.029425,4.646628,1.211689\H,0,-0.005,4.608162,-1.272349\H,0,-0.0128
 5,2.483,-2.490059\H,0,-0.039375,-0.000025,-2.510266\H,0,-0.0127,-2.483
 075,-2.490059\H,0,-0.00515,-4.608787,-1.272349\H,0,0.02885,-4.647003,1
 .211689\H,0,0.0068,-2.487446,2.443647\H,0,-0.803585,0.00025,2.145512\H
 ,0,0.915585,0.00025,2.146062\\Version=ES64L-G16RevC.01\State=1-A\HF=-5
 39.7561164\RMSD=5.090e-09\PG=C01 [X(C14H11)]\\@
 The archive entry for this job was punched.


 IN-LAWS ARE LIKE SEEDS. YOU DON'T NEED THEM
 BUT THEY COME WITH THE TOMATO.
 Job cpu time:       0 days  1 hours 19 minutes 29.2 seconds.
 Elapsed time:       0 days  0 hours  1 minutes 39.5 seconds.
 File lengths (MBytes):  RWF=    460 Int=      0 D2E=      0 Chk=     15 Scr=      1
 Normal termination of Gaussian 16 at Thu Jul 28 14:11:15 2022.
