 Entering Gaussian System, Link 0=g16
 Initial command:
 /apps/gaussian/g16c01/g16/l1.exe "/jobfs/53002009.gadi-pbs/Gau-778704.inp" -scrdir="/jobfs/53002009.gadi-pbs/"
 Entering Link 1 = /apps/gaussian/g16c01/g16/l1.exe PID=    778705.
  
 Copyright (c) 1988-2019, Gaussian, Inc.  All Rights Reserved.
  
 This is part of the Gaussian(R) 16 program.  It is based on
 the Gaussian(R) 09 system (copyright 2009, Gaussian, Inc.),
 the Gaussian(R) 03 system (copyright 2003, Gaussian, Inc.),
 the Gaussian(R) 98 system (copyright 1998, Gaussian, Inc.),
 the Gaussian(R) 94 system (copyright 1995, Gaussian, Inc.),
 the Gaussian 92(TM) system (copyright 1992, Gaussian, Inc.),
 the Gaussian 90(TM) system (copyright 1990, Gaussian, Inc.),
 the Gaussian 88(TM) system (copyright 1988, Gaussian, Inc.),
 the Gaussian 86(TM) system (copyright 1986, Carnegie Mellon
 University), and the Gaussian 82(TM) system (copyright 1983,
 Carnegie Mellon University). Gaussian is a federally registered
 trademark of Gaussian, Inc.
  
 This software contains proprietary and confidential information,
 including trade secrets, belonging to Gaussian, Inc.
  
 This software is provided under written license and may be
 used, copied, transmitted, or stored only in accord with that
 written license.
  
 The following legend is applicable only to US Government
 contracts under FAR:
  
                    RESTRICTED RIGHTS LEGEND
  
 Use, reproduction and disclosure by the US Government is
 subject to restrictions as set forth in subparagraphs (a)
 and (c) of the Commercial Computer Software - Restricted
 Rights clause in FAR 52.227-19.
  
 Gaussian, Inc.
 340 Quinnipiac St., Bldg. 40, Wallingford CT 06492
  
  
 ---------------------------------------------------------------
 Warning -- This program may not be used in any manner that
 competes with the business of Gaussian, Inc. or will provide
 assistance to any competitor of Gaussian, Inc.  The licensee
 of this program is prohibited from giving any competitor of
 Gaussian, Inc. access to this program.  By using this program,
 the user acknowledges that Gaussian, Inc. is engaged in the
 business of creating and licensing software in the field of
 computational chemistry and represents and warrants to the
 licensee that it is not a competitor of Gaussian, Inc. and that
 it will not use this program in any manner prohibited above.
 ---------------------------------------------------------------
  

 Cite this work as:
 Gaussian 16, Revision C.01,
 M. J. Frisch, G. W. Trucks, H. B. Schlegel, G. E. Scuseria, 
 M. A. Robb, J. R. Cheeseman, G. Scalmani, V. Barone, 
 G. A. Petersson, H. Nakatsuji, X. Li, M. Caricato, A. V. Marenich, 
 J. Bloino, B. G. Janesko, R. Gomperts, B. Mennucci, H. P. Hratchian, 
 J. V. Ortiz, A. F. Izmaylov, J. L. Sonnenberg, D. Williams-Young, 
 F. Ding, F. Lipparini, F. Egidi, J. Goings, B. Peng, A. Petrone, 
 T. Henderson, D. Ranasinghe, V. G. Zakrzewski, J. Gao, N. Rega, 
 G. Zheng, W. Liang, M. Hada, M. Ehara, K. Toyota, R. Fukuda, 
 J. Hasegawa, M. Ishida, T. Nakajima, Y. Honda, O. Kitao, H. Nakai, 
 T. Vreven, K. Throssell, J. A. Montgomery, Jr., J. E. Peralta, 
 F. Ogliaro, M. J. Bearpark, J. J. Heyd, E. N. Brothers, K. N. Kudin, 
 V. N. Staroverov, T. A. Keith, R. Kobayashi, J. Normand, 
 K. Raghavachari, A. P. Rendell, J. C. Burant, S. S. Iyengar, 
 J. Tomasi, M. Cossi, J. M. Millam, M. Klene, C. Adamo, R. Cammi, 
 J. W. Ochterski, R. L. Martin, K. Morokuma, O. Farkas, 
 J. B. Foresman, and D. J. Fox, Gaussian, Inc., Wallingford CT, 2019.
 
 ******************************************
 Gaussian 16:  ES64L-G16RevC.01  3-Jul-2019
                28-Jul-2022 
 ******************************************
 %NProcShared=48
 Will use up to   48 processors via shared memory.
 %mem = 190GB
 ---------------------------------------------------------------
 #n M062X/6-311++G(d,p) TD(NStates=1) EmpiricalDispersion=GD3 SP
 ---------------------------------------------------------------
 1/38=1,172=1/1;
 2/12=2,17=6,18=5,40=1/2;
 3/5=4,6=6,7=1111,11=9,25=1,30=1,74=-55,124=31/1,2,3,8;
 4//1;
 5/5=2,38=5/2;
 8/6=1,10=2,108=1/1;
 9/41=1,42=1,70=2/14;
 6/7=2,8=2,9=2,10=2/1;
 99/5=1,9=1/99;
 -----
 SP_50
 -----
 Symbolic Z-matrix:
 Charge =  1 Multiplicity = 1
 C                     0.0019    2.49206   1.36043 
 C                     0.00095   3.70116   0.67199 
 C                     0.0006    3.68286  -0.71383 
 C                     0.0001    2.46296  -1.40754 
 C                    -0.0001   -2.46336  -1.40754 
 C                    -0.0006   -3.68486  -0.71383 
 C                    -0.00095  -3.70186   0.67199 
 C                    -0.0019   -2.49325   1.36043 
 C                    -0.00005   0.0044    1.45337 
 C                     0.       -0.0002   -1.42919 
 C                     0.00015   1.26211   0.67707 
 C                    -0.0004    1.23777  -0.7308 
 C                    -0.00015  -1.26201   0.67707 
 C                     0.0004   -1.23717  -0.7308 
 H                     0.0022    2.48742   2.44365 
 H                     0.00115   4.636     1.21169 
 H                     0.0003    4.60801  -1.27235 
 H                    -0.0003    2.4674   -2.49006 
 H                     0.       -0.0001   -2.51027 
 H                     0.0003   -2.4677   -2.49006 
 H                    -0.0003   -4.61051  -1.27235 
 H                    -0.00115  -4.6375    1.21169 
 H                    -0.0022   -2.48872   2.44365 
 H                    -0.85959   0.001     2.14469 
 H                     0.85959   0.001     2.14689 
 
                          Input orientation:                          
 ---------------------------------------------------------------------
 Center     Atomic      Atomic             Coordinates (Angstroms)
 Number     Number       Type             X           Y           Z
 ---------------------------------------------------------------------
      1          6           0        0.001900    2.492055    1.360431
      2          6           0        0.000950    3.701158    0.671989
      3          6           0        0.000600    3.682861   -0.713830
      4          6           0        0.000100    2.462956   -1.407538
      5          6           0       -0.000100   -2.463356   -1.407538
      6          6           0       -0.000600   -3.684861   -0.713830
      7          6           0       -0.000950   -3.701858    0.671989
      8          6           0       -0.001900   -2.493255    1.360431
      9          6           0       -0.000050    0.004400    1.453369
     10          6           0        0.000000   -0.000200   -1.429189
     11          6           0        0.000150    1.262105    0.677065
     12          6           0       -0.000400    1.237771   -0.730804
     13          6           0       -0.000150   -1.262005    0.677065
     14          6           0        0.000400   -1.237171   -0.730804
     15          1           0        0.002200    2.487421    2.443647
     16          1           0        0.001150    4.636003    1.211689
     17          1           0        0.000300    4.608012   -1.272349
     18          1           0       -0.000300    2.467400   -2.490059
     19          1           0        0.000000   -0.000100   -2.510266
     20          1           0        0.000300   -2.467700   -2.490059
     21          1           0       -0.000300   -4.610512   -1.272349
     22          1           0       -0.001150   -4.637503    1.211689
     23          1           0       -0.002200   -2.488721    2.443647
     24          1           0       -0.859585    0.001000    2.144687
     25          1           0        0.859585    0.001000    2.146887
 ---------------------------------------------------------------------
                    Distance matrix (angstroms):
                    1          2          3          4          5
     1  C    0.000000
     2  C    1.391360   0.000000
     3  C    2.391773   1.385940   0.000000
     4  C    2.768123   2.420243   1.403353   0.000000
     5  C    5.676069   6.505818   6.185242   4.926312   0.000000
     6  C    6.515893   7.514903   7.367722   6.186832   1.404744
     7  C    6.232056   7.403016   7.513626   6.506102   2.420397
     8  C    4.985311   6.232553   6.515134   5.676767   2.768131
     9  C    2.489391   3.778436   4.269406   3.772173   3.778175
    10  C    3.740764   4.256172   3.751890   2.463251   2.463251
    11  C    1.407043   2.439058   2.791890   2.405746   4.269031
    12  C    2.438544   2.834803   2.445149   1.399660   3.762487
    13  C    3.815752   4.963166   5.136759   4.268595   2.405995
    14  C    4.275558   5.133704   4.920061   3.761504   1.400535
    15  H    1.083226   2.147541   3.376202   3.851263   6.272306
    16  H    2.149102   1.079450   2.148512   3.403305   7.567116
    17  H    3.377693   2.145422   1.080670   2.149312   7.072660
    18  H    3.850570   3.394217   2.152286   1.082530   5.048188
    19  H    4.603600   4.881194   4.097729   2.698639   2.698822
    20  H    6.278969   6.932053   6.401905   5.048091   1.082530
    21  H    7.574826   8.536059   8.312159   7.074760   2.151408
    22  H    7.131110   8.356108   8.540263   7.568148   3.404007
    23  H    5.097205   6.438430   6.932394   6.273017   3.851269
    24  H    2.750013   4.074375   4.739951   4.406653   4.407955
    25  H    2.749453   4.074770   4.741061   4.408387   4.409767
                    6          7          8          9         10
     6  C    0.000000
     7  C    1.385923   0.000000
     8  C    2.392172   1.390926   0.000000
     9  C    4.278715   3.787731   2.499384   0.000000
    10  C    3.753460   4.256433   3.741297   2.882562   0.000000
    11  C    5.138780   4.963966   3.817031   1.477995   2.455549
    12  C    4.922661   5.134955   4.277128   2.508349   1.421377
    13  C    2.793711   2.439858   1.408179   1.485406   2.455292
    14  C    2.447749   2.835932   2.439470   2.512391   1.420507
    15  H    6.933018   6.437853   5.097108   2.673209   4.602947
    16  H    8.540750   8.355310   7.130810   4.637904   5.335599
    17  H    8.311660   8.534307   7.573607   5.350026   4.610880
    18  H    6.403538   6.932409   6.279679   4.649408   2.685981
    19  H    4.099347   4.881574   4.604142   3.963638   1.081077
    20  H    2.153247   3.394362   3.850575   4.654235   2.685889
    21  H    1.081098   2.146183   3.378507   5.359753   4.612979
    22  H    2.148290   1.080142   2.149401   4.648190   5.336555
    23  H    3.376450   2.147202   1.083226   2.682593   4.603434
    24  H    4.742842   4.076426   2.751725   1.103056   3.675796
    25  H    4.744385   4.077622   2.753539   1.104514   3.677935
                   11         12         13         14         15
    11  C    0.000000
    12  C    1.408079   0.000000
    13  C    2.524110   2.868968   0.000000
    14  C    2.868532   2.474942   1.408088   0.000000
    15  H    2.149934   3.411564   4.144757   4.893846   0.000000
    16  H    3.415993   3.914238   5.922189   6.186069   2.476717
    17  H    3.872378   3.413473   6.185250   5.870216   4.278497
    18  H    3.388718   2.146384   4.892764   4.101076   4.933747
    19  H    3.428154   2.167674   3.428044   2.167217   5.543376
    20  H    4.893069   4.101889   3.388860   2.146900   6.992473
    21  H    6.187717   5.873303   3.874624   3.416533   8.011822
    22  H    5.923782   6.188063   3.417574   3.916062   7.230648
    23  H    4.146024   4.895292   2.150732   3.412261   4.976144
    24  H    2.117415   3.245959   2.118425   3.246705   2.648460
    25  H    2.118818   3.248120   2.120071   3.248441   2.646784
                   16         17         18         19         20
    16  H    0.000000
    17  H    2.484196   0.000000
    18  H    4.290196   2.462730   0.000000
    19  H    5.945284   4.771492   2.467583   0.000000
    20  H    8.010339   7.179730   4.935100   2.467683   0.000000
    21  H    9.574366   9.218524   7.181898   4.773713   2.464642
    22  H    9.273506   9.573400   8.011403   5.946298   4.290802
    23  H    7.230451   8.010759   6.993182   5.543870   4.933751
    24  H    4.805684   5.800008   5.319997   4.733653   5.321161
    25  H    4.805701   5.801216   5.322011   4.735817   5.322980
                   21         22         23         24         25
    21  H    0.000000
    22  H    2.484185   0.000000
    23  H    4.279092   2.476890   0.000000
    24  H    5.803495   4.808649   2.650131   0.000000
    25  H    5.804879   4.809488   2.651311   1.719171   0.000000
 Stoichiometry    C14H11(1+)
 Framework group  C1[X(C14H11)]
 Deg. of freedom    69
 Full point group                 C1      NOp   1
 Largest Abelian subgroup         C1      NOp   1
 Largest concise Abelian subgroup C1      NOp   1
                         Standard orientation:                         
 ---------------------------------------------------------------------
 Center     Atomic      Atomic             Coordinates (Angstroms)
 Number     Number       Type             X           Y           Z
 ---------------------------------------------------------------------
      1          6           0        2.492171   -1.360221   -0.001296
      2          6           0        3.701216   -0.671677   -0.000065
      3          6           0        3.682802    0.714141    0.000266
      4          6           0        2.462838    1.407746    0.000468
      5          6           0       -2.463474    1.407330   -0.000504
      6          6           0       -3.684920    0.713519   -0.000288
      7          6           0       -3.701800   -0.672301    0.000073
      8          6           0       -2.493139   -1.360641    0.001318
      9          6           0        0.004524   -1.453369    0.000063
     10          6           0       -0.000320    1.429189   -0.000018
     11          6           0        1.262163   -0.676958    0.000154
     12          6           0        1.237710    0.730908    0.000684
     13          6           0       -1.261947   -0.677172   -0.000146
     14          6           0       -1.237231    0.730700   -0.000705
     15          1           0        2.487629   -2.443437   -0.001586
     16          1           0        4.636106   -1.211298   -0.000037
     17          1           0        4.607906    1.272738    0.000780
     18          1           0        2.467191    2.490267    0.000858
     19          1           0       -0.000311    2.510266   -0.000029
     20          1           0       -2.467909    2.489851   -0.000916
     21          1           0       -4.610618    1.271960   -0.000814
     22          1           0       -4.637400   -1.212080    0.000056
     23          1           0       -2.488514   -2.443857    0.001630
     24          1           0        0.000977   -2.144678    0.859604
     25          1           0        0.001387   -2.146896   -0.859566
 ---------------------------------------------------------------------
 Rotational constants (GHZ):           2.1362264           0.4446266           0.3688269
 Standard basis: 6-311++G(d,p) (5D, 7F)
 There are   399 symmetry adapted cartesian basis functions of A   symmetry.
 There are   385 symmetry adapted basis functions of A   symmetry.
   385 basis functions,   603 primitive gaussians,   399 cartesian basis functions
    47 alpha electrons       47 beta electrons
       nuclear repulsion energy       781.1976461151 Hartrees.
 NAtoms=   25 NActive=   25 NUniq=   25 SFac= 1.00D+00 NAtFMM=   60 NAOKFM=F Big=F
 Integral buffers will be    131072 words long.
 Regular integral format.
 Two-electron integral symmetry is turned on.
 Nuclear repulsion after empirical dispersion term =      781.1966666237 Hartrees.
 One-electron integrals computed using PRISM.
 NBasis=   385 RedAO= T EigKep=  1.12D-06  NBF=   385
 NBsUse=   379 1.00D-06 EigRej=  8.39D-07 NBFU=   379
 ExpMin= 3.60D-02 ExpMax= 4.56D+03 ExpMxC= 6.82D+02 IAcc=3 IRadAn=         5 AccDes= 0.00D+00
 Harris functional with IExCor= 1009 and IRadAn=       5 diagonalized for initial guess.
 HarFok:  IExCor= 1009 AccDes= 0.00D+00 IRadAn=         5 IDoV= 1 UseB2=F ITyADJ=14
 ICtDFT=  3500011 ScaDFX=  1.000000  1.000000  1.000000  1.000000
 FoFCou: FMM=F IPFlag=           0 FMFlag=      100000 FMFlg1=           0
         NFxFlg=           0 DoJE=T BraDBF=F KetDBF=T FulRan=T
         wScrn=  0.000000 ICntrl=       500 IOpCl=  0 I1Cent=   200000004 NGrid=           0
         NMat0=    1 NMatS0=      1 NMatT0=    0 NMatD0=    1 NMtDS0=    0 NMtDT0=    0
 Petite list used in FoFCou.
 Requested convergence on RMS density matrix=1.00D-08 within 128 cycles.
 Requested convergence on MAX density matrix=1.00D-06.
 Requested convergence on             energy=1.00D-06.
 No special actions if energy rises.
 SCF Done:  E(RM062X) =  -539.760211263     A.U. after   15 cycles
            NFock= 15  Conv=0.45D-08     -V/T= 2.0042
 DoSCS=F DFT=T ScalE2(SS,OS)=  1.000000  1.000000
 ExpMin= 3.60D-02 ExpMax= 4.56D+03 ExpMxC= 6.82D+02 IAcc=3 IRadAn=         5 AccDes= 0.00D+00
 HarFok:  IExCor=  205 AccDes= 0.00D+00 IRadAn=         5 IDoV=-2 UseB2=F ITyADJ=14
 ICtDFT= 12500011 ScaDFX=  1.000000  1.000000  1.000000  1.000000
 Range of M.O.s used for correlation:    15   379
 NBasis=   385 NAE=    47 NBE=    47 NFC=    14 NFV=     0
 NROrb=    365 NOA=    33 NOB=    33 NVA=   332 NVB=   332

 **** Warning!!: The largest alpha MO coefficient is  0.14884198D+03

 Orbital symmetries:
       Occupied  (A) (A) (A) (A) (A) (A) (A) (A) (A) (A) (A) (A)
                 (A) (A) (A) (A) (A) (A) (A) (A) (A) (A) (A) (A)
                 (A) (A) (A) (A) (A) (A) (A) (A) (A) (A) (A) (A)
                 (A) (A) (A) (A) (A) (A) (A) (A) (A) (A) (A)
       Virtual   (A) (A) (A) (A) (A) (A) (A) (A) (A) (A) (A) (A)
                 (A) (A) (A) (A) (A) (A) (A) (A) (A) (A) (A) (A)
                 (A) (A) (A) (A) (A) (A) (A) (A) (A) (A) (A) (A)
                 (A) (A) (A) (A) (A) (A) (A) (A) (A) (A) (A) (A)
                 (A) (A) (A) (A) (A) (A) (A) (A) (A) (A) (A) (A)
                 (A) (A) (A) (A) (A) (A) (A) (A) (A) (A) (A) (A)
                 (A) (A) (A) (A) (A) (A) (A) (A) (A) (A) (A) (A)
                 (A) (A) (A) (A) (A) (A) (A) (A) (A) (A) (A) (A)
                 (A) (A) (A) (A) (A) (A) (A) (A) (A) (A) (A) (A)
                 (A) (A) (A) (A) (A) (A) (A) (A) (A) (A) (A) (A)
                 (A) (A) (A) (A) (A) (A) (A) (A) (A) (A) (A) (A)
                 (A) (A) (A) (A) (A) (A) (A) (A) (A) (A) (A) (A)
                 (A) (A) (A) (A) (A) (A) (A) (A) (A) (A) (A) (A)
                 (A) (A) (A) (A) (A) (A) (A) (A) (A) (A) (A) (A)
                 (A) (A) (A) (A) (A) (A) (A) (A) (A) (A) (A) (A)
                 (A) (A) (A) (A) (A) (A) (A) (A) (A) (A) (A) (A)
                 (A) (A) (A) (A) (A) (A) (A) (A) (A) (A) (A) (A)
                 (A) (A) (A) (A) (A) (A) (A) (A) (A) (A) (A) (A)
                 (A) (A) (A) (A) (A) (A) (A) (A) (A) (A) (A) (A)
                 (A) (A) (A) (A) (A) (A) (A) (A) (A) (A) (A) (A)
                 (A) (A) (A) (A) (A) (A) (A) (A) (A) (A) (A) (A)
                 (A) (A) (A) (A) (A) (A) (A) (A) (A) (A) (A) (A)
                 (A) (A) (A) (A) (A) (A) (A) (A) (A) (A) (A) (A)
                 (A) (A) (A) (A) (A) (A) (A) (A) (A) (A) (A) (A)
                 (A) (A) (A) (A) (A) (A) (A) (A) (A) (A) (A) (A)
                 (A) (A) (A) (A) (A) (A) (A) (A) (A) (A) (A) (A)
                 (A) (A) (A) (A) (A) (A) (A) (A) (A) (A) (A) (A)
                 (A) (A) (A) (A) (A) (A) (A) (A)
     4 initial guesses have been made.
 Convergence on wavefunction:    0.001000000000000
 Iteration     1 Dimension     4 NMult     0 NNew      4
 CISAX will form     4 AO SS matrices at one time.
 Iteration     2 Dimension     6 NMult     4 NNew      2
 Iteration     3 Dimension     8 NMult     6 NNew      2
 Iteration     4 Dimension    10 NMult     8 NNew      2
 Iteration     5 Dimension    12 NMult    10 NNew      2
 Iteration     6 Dimension    14 NMult    12 NNew      2
 ***********************************************************************
 Excited states from <AA,BB:AA,BB> singles matrix:
 ***********************************************************************
 
 Ground to excited state transition densities written to RWF  633
 Ground to excited state transition electric dipole moments (Au):
       state          X           Y           Z        Dip. S.      Osc.
         1         0.0057     -0.6443     -0.0001      0.4152      0.0287
 Ground to excited state transition velocity dipole moments (Au):
       state          X           Y           Z        Dip. S.      Osc.
         1        -0.0006      0.0746      0.0000      0.0056      0.0357
 Ground to excited state transition magnetic dipole moments (Au):
       state          X           Y           Z
         1        -0.0001     -0.0004     -0.0002
 Ground to excited state transition velocity quadrupole moments (Au):
       state          XX          YY          ZZ          XY          XZ          YZ
         1         0.2975      0.0351     -0.0098     -0.0009      0.0000     -0.0001
 <0|del|b> * <b|rxdel|0> + <0|del|b> * <b|delr+rdel|0>
 Rotatory Strengths (R) in cgs (10**-40 erg-esu-cm/Gauss)
       state          XX          YY          ZZ    R(velocity)    E-M Angle
         1        -0.1153      0.0003     -0.0954     -0.0701       90.00
 1/2[<0|r|b>*<b|rxdel|0> + (<0|rxdel|b>*<b|r|0>)*]
 Rotatory Strengths (R) in cgs (10**-40 erg-esu-cm/Gauss)
       state          XX          YY          ZZ     R(length)
         1         0.0002     -0.1888     -0.0000     -0.0629
  1/2[<0|del|b>*<b|r|0> + (<0|r|b>*<b|del|0>)*] (Au)
       state          X           Y           Z        Dip. S.   Osc.(frdel)
         1        -0.0000     -0.0480     -0.0000      0.0480      0.0320

 Excitation energies and oscillator strengths:
 
 Excited State   1:      Singlet-A      2.8228 eV  439.22 nm  f=0.0287  <S**2>=0.000
      47 -> 48         0.70426
 This state for optimization and/or second-order correction.
 Total Energy, E(TD-HF/TD-DFT) =  -539.656474724    
 Copying the excited state density for this state as the 1-particle RhoCI density.
 SavETr:  write IOETrn=   770 NScale= 10 NData=  16 NLR=1 NState=    1 LETran=      28.

 **********************************************************************

            Population analysis using the SCF Density.

 **********************************************************************

 Orbital symmetries:
       Occupied  (A) (A) (A) (A) (A) (A) (A) (A) (A) (A) (A) (A)
                 (A) (A) (A) (A) (A) (A) (A) (A) (A) (A) (A) (A)
                 (A) (A) (A) (A) (A) (A) (A) (A) (A) (A) (A) (A)
                 (A) (A) (A) (A) (A) (A) (A) (A) (A) (A) (A)
       Virtual   (A) (A) (A) (A) (A) (A) (A) (A) (A) (A) (A) (A)
                 (A) (A) (A) (A) (A) (A) (A) (A) (A) (A) (A) (A)
                 (A) (A) (A) (A) (A) (A) (A) (A) (A) (A) (A) (A)
                 (A) (A) (A) (A) (A) (A) (A) (A) (A) (A) (A) (A)
                 (A) (A) (A) (A) (A) (A) (A) (A) (A) (A) (A) (A)
                 (A) (A) (A) (A) (A) (A) (A) (A) (A) (A) (A) (A)
                 (A) (A) (A) (A) (A) (A) (A) (A) (A) (A) (A) (A)
                 (A) (A) (A) (A) (A) (A) (A) (A) (A) (A) (A) (A)
                 (A) (A) (A) (A) (A) (A) (A) (A) (A) (A) (A) (A)
                 (A) (A) (A) (A) (A) (A) (A) (A) (A) (A) (A) (A)
                 (A) (A) (A) (A) (A) (A) (A) (A) (A) (A) (A) (A)
                 (A) (A) (A) (A) (A) (A) (A) (A) (A) (A) (A) (A)
                 (A) (A) (A) (A) (A) (A) (A) (A) (A) (A) (A) (A)
                 (A) (A) (A) (A) (A) (A) (A) (A) (A) (A) (A) (A)
                 (A) (A) (A) (A) (A) (A) (A) (A) (A) (A) (A) (A)
                 (A) (A) (A) (A) (A) (A) (A) (A) (A) (A) (A) (A)
                 (A) (A) (A) (A) (A) (A) (A) (A) (A) (A) (A) (A)
                 (A) (A) (A) (A) (A) (A) (A) (A) (A) (A) (A) (A)
                 (A) (A) (A) (A) (A) (A) (A) (A) (A) (A) (A) (A)
                 (A) (A) (A) (A) (A) (A) (A) (A) (A) (A) (A) (A)
                 (A) (A) (A) (A) (A) (A) (A) (A) (A) (A) (A) (A)
                 (A) (A) (A) (A) (A) (A) (A) (A) (A) (A) (A) (A)
                 (A) (A) (A) (A) (A) (A) (A) (A) (A) (A) (A) (A)
                 (A) (A) (A) (A) (A) (A) (A) (A) (A) (A) (A) (A)
                 (A) (A) (A) (A) (A) (A) (A) (A) (A) (A) (A) (A)
                 (A) (A) (A) (A) (A) (A) (A) (A) (A) (A) (A) (A)
                 (A) (A) (A) (A) (A) (A) (A) (A) (A) (A) (A) (A)
                 (A) (A) (A) (A) (A) (A) (A) (A)
 The electronic state is 1-A.
 Alpha  occ. eigenvalues --  -10.77665 -10.73268 -10.73213 -10.72437 -10.72434
 Alpha  occ. eigenvalues --  -10.71383 -10.71354 -10.71010 -10.71000 -10.70979
 Alpha  occ. eigenvalues --  -10.69983 -10.69962 -10.69643 -10.69616  -1.16443
 Alpha  occ. eigenvalues --   -1.12466  -1.06945  -1.05732  -1.01313  -1.00185
 Alpha  occ. eigenvalues --   -0.95782  -0.91056  -0.86419  -0.85902  -0.83816
 Alpha  occ. eigenvalues --   -0.78400  -0.76028  -0.74418  -0.69561  -0.69246
 Alpha  occ. eigenvalues --   -0.68505  -0.68193  -0.68102  -0.64739  -0.64284
 Alpha  occ. eigenvalues --   -0.63066  -0.61866  -0.60003  -0.59679  -0.59093
 Alpha  occ. eigenvalues --   -0.56897  -0.55216  -0.54837  -0.52438  -0.46625
 Alpha  occ. eigenvalues --   -0.46056  -0.44501
 Alpha virt. eigenvalues --   -0.26088  -0.14669  -0.14098  -0.12773  -0.11179
 Alpha virt. eigenvalues --   -0.10086  -0.09230  -0.07983  -0.07970  -0.07476
 Alpha virt. eigenvalues --   -0.07203  -0.07146  -0.05643  -0.05581  -0.05332
 Alpha virt. eigenvalues --   -0.03826  -0.03646  -0.03279  -0.03133  -0.02165
 Alpha virt. eigenvalues --   -0.01368  -0.00930   0.00192   0.00592   0.00663
 Alpha virt. eigenvalues --    0.01055   0.01513   0.01941   0.02220   0.02285
 Alpha virt. eigenvalues --    0.02450   0.02670   0.02746   0.03319   0.03369
 Alpha virt. eigenvalues --    0.04240   0.04505   0.04695   0.05031   0.05365
 Alpha virt. eigenvalues --    0.06034   0.06296   0.06596   0.07044   0.07255
 Alpha virt. eigenvalues --    0.07892   0.08164   0.08362   0.08537   0.08929
 Alpha virt. eigenvalues --    0.09548   0.09558   0.10038   0.10859   0.11039
 Alpha virt. eigenvalues --    0.11116   0.12173   0.12244   0.12918   0.12973
 Alpha virt. eigenvalues --    0.13408   0.13523   0.14017   0.14384   0.16231
 Alpha virt. eigenvalues --    0.16287   0.16359   0.17347   0.17626   0.17797
 Alpha virt. eigenvalues --    0.18123   0.19074   0.19235   0.19637   0.19732
 Alpha virt. eigenvalues --    0.21561   0.21589   0.22725   0.23109   0.23560
 Alpha virt. eigenvalues --    0.23803   0.24575   0.25329   0.26920   0.27605
 Alpha virt. eigenvalues --    0.28846   0.29294   0.29860   0.31359   0.35818
 Alpha virt. eigenvalues --    0.36430   0.38182   0.39276   0.41157   0.41405
 Alpha virt. eigenvalues --    0.41967   0.42201   0.42984   0.43679   0.44293
 Alpha virt. eigenvalues --    0.44964   0.45011   0.46116   0.46144   0.47948
 Alpha virt. eigenvalues --    0.48530   0.48867   0.49026   0.50423   0.51157
 Alpha virt. eigenvalues --    0.51588   0.51676   0.52115   0.52907   0.53969
 Alpha virt. eigenvalues --    0.54089   0.54651   0.55685   0.55759   0.57469
 Alpha virt. eigenvalues --    0.58241   0.58812   0.61441   0.62192   0.62345
 Alpha virt. eigenvalues --    0.63213   0.63490   0.64967   0.65153   0.67256
 Alpha virt. eigenvalues --    0.70415   0.70607   0.71019   0.72410   0.72867
 Alpha virt. eigenvalues --    0.75779   0.76015   0.76285   0.76904   0.77091
 Alpha virt. eigenvalues --    0.77838   0.77876   0.78237   0.79883   0.80394
 Alpha virt. eigenvalues --    0.81244   0.81658   0.82132   0.83014   0.85183
 Alpha virt. eigenvalues --    0.87163   0.88175   0.88605   0.89121   0.90405
 Alpha virt. eigenvalues --    0.91084   0.91255   0.93191   0.94632   0.96456
 Alpha virt. eigenvalues --    0.96635   1.00396   1.01286   1.01691   1.02709
 Alpha virt. eigenvalues --    1.03196   1.03857   1.04735   1.05398   1.08767
 Alpha virt. eigenvalues --    1.19553   1.23275   1.24051   1.25276   1.27998
 Alpha virt. eigenvalues --    1.29707   1.31754   1.34306   1.35766   1.36003
 Alpha virt. eigenvalues --    1.39351   1.40167   1.40948   1.43020   1.43454
 Alpha virt. eigenvalues --    1.43530   1.45199   1.45322   1.46364   1.46679
 Alpha virt. eigenvalues --    1.47638   1.48013   1.51727   1.53625   1.55772
 Alpha virt. eigenvalues --    1.55823   1.56350   1.56575   1.57776   1.61442
 Alpha virt. eigenvalues --    1.63235   1.63541   1.63745   1.66110   1.68303
 Alpha virt. eigenvalues --    1.68359   1.68691   1.69733   1.74388   1.75988
 Alpha virt. eigenvalues --    1.77167   1.78048   1.80016   1.80135   1.80704
 Alpha virt. eigenvalues --    1.83164   1.83212   1.83613   1.83819   1.84164
 Alpha virt. eigenvalues --    1.84273   1.85883   1.86052   1.88220   1.91384
 Alpha virt. eigenvalues --    1.92068   1.94128   1.95194   1.97689   1.98153
 Alpha virt. eigenvalues --    1.99740   2.02425   2.04406   2.07259   2.11806
 Alpha virt. eigenvalues --    2.12064   2.14106   2.15220   2.19101   2.21249
 Alpha virt. eigenvalues --    2.22794   2.28624   2.30157   2.34646   2.34949
 Alpha virt. eigenvalues --    2.36219   2.38687   2.39593   2.42373   2.44668
 Alpha virt. eigenvalues --    2.46170   2.46509   2.49362   2.52904   2.53805
 Alpha virt. eigenvalues --    2.54237   2.56788   2.57840   2.58300   2.59644
 Alpha virt. eigenvalues --    2.59814   2.61602   2.62132   2.63536   2.63797
 Alpha virt. eigenvalues --    2.64779   2.65114   2.65239   2.65309   2.67952
 Alpha virt. eigenvalues --    2.68541   2.70956   2.71414   2.73344   2.74820
 Alpha virt. eigenvalues --    2.76304   2.78777   2.79723   2.82860   2.83057
 Alpha virt. eigenvalues --    2.84884   2.86292   2.92111   2.97003   2.99508
 Alpha virt. eigenvalues --    3.00058   3.05104   3.11090   3.11438   3.13049
 Alpha virt. eigenvalues --    3.20979   3.23739   3.26714   3.28211   3.30770
 Alpha virt. eigenvalues --    3.32810   3.33579   3.43408   3.45905   3.46576
 Alpha virt. eigenvalues --    3.48528   3.50137   3.56486   3.65879   3.66815
 Alpha virt. eigenvalues --    3.67444   3.94193   3.94601   3.95157   3.96217
 Alpha virt. eigenvalues --    4.04009   4.06899   4.07489   4.12549   4.35528
 Alpha virt. eigenvalues --    4.61366   4.69825   4.71633  23.45343  23.60530
 Alpha virt. eigenvalues --   23.82251  23.85563  23.87929  23.89291  23.90505
 Alpha virt. eigenvalues --   23.92279  23.97775  23.99617  23.99875  24.00106
 Alpha virt. eigenvalues --   24.10511  24.10670
          Condensed to atoms (all electrons):
               1          2          3          4          5          6
     1  C    8.589763   0.320782  -0.541879   1.964727  -0.024735  -0.095542
     2  C    0.320782   7.143627   0.356533  -1.078417  -0.018043  -0.014513
     3  C   -0.541879   0.356533   6.589948   0.767837  -0.124865   0.016947
     4  C    1.964727  -1.078417   0.767837  10.988974  -0.363418  -0.123106
     5  C   -0.024735  -0.018043  -0.124865  -0.363418  11.019542   0.756863
     6  C   -0.095542  -0.014513   0.016947  -0.123106   0.756863   6.586539
     7  C   -0.019697   0.001678  -0.014577  -0.019072  -1.072581   0.353990
     8  C    0.405348  -0.017381  -0.095690  -0.032659   1.988375  -0.549013
     9  C   -1.181632  -0.803386   0.293317  -0.231076  -0.208869   0.295093
    10  C   -1.280825   0.250208  -0.358048  -2.575881  -2.576220  -0.349507
    11  C    0.312188  -0.918302   1.012074  -0.261895  -1.506317  -0.173908
    12  C   -2.062452   1.350067  -1.403524  -1.572057  -0.339640  -0.200006
    13  C    0.203529  -0.246962  -0.175454  -1.499264  -0.268864   1.009961
    14  C   -1.085595  -0.197886  -0.199194  -0.327033  -1.622862  -1.389460
    15  H    0.366704  -0.106173  -0.001371   0.027251   0.005774   0.001100
    16  H   -0.019785   0.379161  -0.016485   0.013501  -0.001544  -0.000328
    17  H   -0.024918  -0.016267   0.374925  -0.067808   0.000316   0.000398
    18  H    0.049988   0.002765  -0.084503   0.457543   0.006425  -0.005060
    19  H   -0.046779  -0.007702   0.051299  -0.069067  -0.070598   0.051166
    20  H    0.007300   0.002039  -0.005099   0.006331   0.457680  -0.085127
    21  H   -0.001323  -0.000401   0.000401   0.000322  -0.067959   0.374818
    22  H    0.000745   0.000367  -0.000330  -0.001545   0.013754  -0.016851
    23  H    0.005757  -0.002685   0.001108   0.005725   0.027358  -0.001477
    24  H    0.032135   0.014016  -0.001696  -0.011695  -0.012697  -0.001404
    25  H    0.033962   0.014984  -0.001337  -0.012585  -0.011881  -0.001713
               7          8          9         10         11         12
     1  C   -0.019697   0.405348  -1.181632  -1.280825   0.312188  -2.062452
     2  C    0.001678  -0.017381  -0.803386   0.250208  -0.918302   1.350067
     3  C   -0.014577  -0.095690   0.293317  -0.358048   1.012074  -1.403524
     4  C   -0.019072  -0.032659  -0.231076  -2.575881  -0.261895  -1.572057
     5  C   -1.072581   1.988375  -0.208869  -2.576220  -1.506317  -0.339640
     6  C    0.353990  -0.549013   0.295093  -0.349507  -0.173908  -0.200006
     7  C    7.125748   0.319168  -0.800989   0.246457  -0.238048  -0.194809
     8  C    0.319168   8.590182  -1.159014  -1.281794   0.213172  -1.072677
     9  C   -0.800989  -1.159014   9.596228   0.258626   1.627367  -1.930927
    10  C    0.246457  -1.281794   0.258626   9.165808  -0.462017   2.424754
    11  C   -0.238048   0.213172   1.627367  -0.462017  14.464561  -3.780985
    12  C   -0.194809  -1.072677  -1.930927   2.424754  -3.780985  16.044127
    13  C   -0.910890   0.282965   1.609789  -0.455655   1.093025  -4.815148
    14  C    1.349055  -2.090267  -1.947624   2.439309  -4.795482   3.081570
    15  H   -0.002642   0.005728   0.091222  -0.009572  -0.029939  -0.024106
    16  H    0.000363   0.000686   0.003340  -0.009384   0.026705  -0.032816
    17  H   -0.000400  -0.001310  -0.005748   0.020542  -0.027747   0.092220
    18  H    0.002042   0.007187  -0.024985   0.012910  -0.006994  -0.054072
    19  H   -0.007703  -0.046812   0.075701   0.421931   0.077991  -0.065393
    20  H    0.003147   0.050226  -0.024800   0.013053  -0.011867  -0.013825
    21  H   -0.016591  -0.024727  -0.005735   0.020511  -0.006243   0.005310
    22  H    0.378675  -0.018743   0.003703  -0.009484   0.003081  -0.009125
    23  H   -0.105833   0.367642   0.091831  -0.009600   0.001513   0.006539
    24  H    0.014905   0.034051   0.355947   0.005241   0.014209  -0.060952
    25  H    0.013955   0.031232   0.356620   0.005399   0.013027  -0.059265
              13         14         15         16         17         18
     1  C    0.203529  -1.085595   0.366704  -0.019785  -0.024918   0.049988
     2  C   -0.246962  -0.197886  -0.106173   0.379161  -0.016267   0.002765
     3  C   -0.175454  -0.199194  -0.001371  -0.016485   0.374925  -0.084503
     4  C   -1.499264  -0.327033   0.027251   0.013501  -0.067808   0.457543
     5  C   -0.268864  -1.622862   0.005774  -0.001544   0.000316   0.006425
     6  C    1.009961  -1.389460   0.001100  -0.000328   0.000398  -0.005060
     7  C   -0.910890   1.349055  -0.002642   0.000363  -0.000400   0.002042
     8  C    0.282965  -2.090267   0.005728   0.000686  -0.001310   0.007187
     9  C    1.609789  -1.947624   0.091222   0.003340  -0.005748  -0.024985
    10  C   -0.455655   2.439309  -0.009572  -0.009384   0.020542   0.012910
    11  C    1.093025  -4.795482  -0.029939   0.026705  -0.027747  -0.006994
    12  C   -4.815148   3.081570  -0.024106  -0.032816   0.092220  -0.054072
    13  C   14.520621  -3.766266   0.001552   0.003077  -0.006361  -0.011837
    14  C   -3.766266  16.085108   0.006588  -0.009068   0.005321  -0.013978
    15  H    0.001552   0.006588   0.439042  -0.009003   0.001473   0.000178
    16  H    0.003077  -0.009068  -0.009003   0.419478  -0.006647   0.001912
    17  H   -0.006361   0.005321   0.001473  -0.006647   0.422555  -0.010293
    18  H   -0.011837  -0.013978   0.000178   0.001912  -0.010293   0.453567
    19  H    0.076906  -0.065229   0.000304  -0.000540   0.001418  -0.006173
    20  H   -0.007126  -0.054603  -0.000113   0.000015  -0.000144   0.001267
    21  H   -0.027228   0.091845   0.000014  -0.000007   0.000010  -0.000143
    22  H    0.027078  -0.034045  -0.000127   0.000007  -0.000007   0.000015
    23  H   -0.030552  -0.024977   0.000579  -0.000127   0.000014  -0.000112
    24  H    0.013198  -0.059764  -0.000930   0.000649  -0.000148   0.000195
    25  H    0.013547  -0.060285  -0.000871   0.000615  -0.000137   0.000168
              19         20         21         22         23         24
     1  C   -0.046779   0.007300  -0.001323   0.000745   0.005757   0.032135
     2  C   -0.007702   0.002039  -0.000401   0.000367  -0.002685   0.014016
     3  C    0.051299  -0.005099   0.000401  -0.000330   0.001108  -0.001696
     4  C   -0.069067   0.006331   0.000322  -0.001545   0.005725  -0.011695
     5  C   -0.070598   0.457680  -0.067959   0.013754   0.027358  -0.012697
     6  C    0.051166  -0.085127   0.374818  -0.016851  -0.001477  -0.001404
     7  C   -0.007703   0.003147  -0.016591   0.378675  -0.105833   0.014905
     8  C   -0.046812   0.050226  -0.024727  -0.018743   0.367642   0.034051
     9  C    0.075701  -0.024800  -0.005735   0.003703   0.091831   0.355947
    10  C    0.421931   0.013053   0.020511  -0.009484  -0.009600   0.005241
    11  C    0.077991  -0.011867  -0.006243   0.003081   0.001513   0.014209
    12  C   -0.065393  -0.013825   0.005310  -0.009125   0.006539  -0.060952
    13  C    0.076906  -0.007126  -0.027228   0.027078  -0.030552   0.013198
    14  C   -0.065229  -0.054603   0.091845  -0.034045  -0.024977  -0.059764
    15  H    0.000304  -0.000113   0.000014  -0.000127   0.000579  -0.000930
    16  H   -0.000540   0.000015  -0.000007   0.000007  -0.000127   0.000649
    17  H    0.001418  -0.000144   0.000010  -0.000007   0.000014  -0.000148
    18  H   -0.006173   0.001267  -0.000143   0.000015  -0.000112   0.000195
    19  H    0.442737  -0.006240   0.001417  -0.000540   0.000312   0.000591
    20  H   -0.006240   0.453619  -0.010238   0.001933   0.000174   0.000173
    21  H    0.001417  -0.010238   0.422356  -0.006623   0.001463  -0.000138
    22  H   -0.000540   0.001933  -0.006623   0.419439  -0.009026   0.000614
    23  H    0.000312   0.000174   0.001463  -0.009026   0.438974  -0.000857
    24  H    0.000591   0.000173  -0.000138   0.000614  -0.000857   0.493840
    25  H    0.000597   0.000189  -0.000146   0.000646  -0.000970  -0.079656
              25
     1  C    0.033962
     2  C    0.014984
     3  C   -0.001337
     4  C   -0.012585
     5  C   -0.011881
     6  C   -0.001713
     7  C    0.013955
     8  C    0.031232
     9  C    0.356620
    10  C    0.005399
    11  C    0.013027
    12  C   -0.059265
    13  C    0.013547
    14  C   -0.060285
    15  H   -0.000871
    16  H    0.000615
    17  H   -0.000137
    18  H    0.000168
    19  H    0.000597
    20  H    0.000189
    21  H   -0.000146
    22  H    0.000646
    23  H   -0.000970
    24  H   -0.079656
    25  H    0.493966
 Mulliken charges:
               1
     1  C    0.092234
     2  C   -0.408111
     3  C   -0.440339
     4  C    0.014368
     5  C    0.015008
     6  C   -0.439861
     7  C   -0.405352
     8  C    0.094126
     9  C   -0.334003
    10  C    0.093239
    11  C   -0.639170
    12  C    0.687192
    13  C   -0.633640
    14  C    0.684823
    15  H    0.237337
    16  H    0.256223
    17  H    0.248742
    18  H    0.221988
    19  H    0.190404
    20  H    0.222034
    21  H    0.249035
    22  H    0.256386
    23  H    0.237228
    24  H    0.250173
    25  H    0.249939
 Sum of Mulliken charges =   1.00000
 Mulliken charges with hydrogens summed into heavy atoms:
               1
     1  C    0.329571
     2  C   -0.151888
     3  C   -0.191597
     4  C    0.236355
     5  C    0.237041
     6  C   -0.190826
     7  C   -0.148966
     8  C    0.331354
     9  C    0.166108
    10  C    0.283643
    11  C   -0.639170
    12  C    0.687192
    13  C   -0.633640
    14  C    0.684823
 Electronic spatial extent (au):  <R**2>=           2855.9178
 Charge=              1.0000 electrons
 Dipole moment (field-independent basis, Debye):
    X=             -0.0053    Y=              0.1876    Z=              0.0003  Tot=              0.1877
 Quadrupole moment (field-independent basis, Debye-Ang):
   XX=            -31.1160   YY=            -56.2627   ZZ=            -84.1419
   XY=             -0.0029   XZ=              0.0049   YZ=              0.0007
 Traceless Quadrupole moment (field-independent basis, Debye-Ang):
   XX=             26.0575   YY=              0.9108   ZZ=            -26.9683
   XY=             -0.0029   XZ=              0.0049   YZ=              0.0007
 Octapole moment (field-independent basis, Debye-Ang**2):
  XXX=             -0.2190  YYY=              5.2102  ZZZ=              0.0031  XYY=              0.0019
  XXY=             -5.1742  XXZ=              0.0000  XZZ=              0.0267  YZZ=             -3.0883
  YYZ=             -0.0064  XYZ=              0.0246
 Hexadecapole moment (field-independent basis, Debye-Ang**3):
 XXXX=          -2122.4367 YYYY=           -609.2456 ZZZZ=            -99.3299 XXXY=             -0.1244
 XXXZ=              0.1382 YYYX=              0.0520 YYYZ=              0.0191 ZZZX=              0.0063
 ZZZY=             -0.0040 XXYY=           -507.7124 XXZZ=           -590.7518 YYZZ=           -145.7035
 XXYZ=             -0.0040 YYXZ=              0.0004 ZZXY=             -0.0025
 N-N= 7.811966666237D+02 E-N=-2.798735003532D+03  KE= 5.375056776344D+02
 Unable to Open any file for archive entry.
 1\1\GINC-GADI-CPU-CLX-0113\SP\RM062X TD-FC\6-311++G(d,p)\C14H11(1+)\TS
 1578\28-Jul-2022\0\\#n M062X/6-311++G(d,p) TD(NStates=1) EmpiricalDisp
 ersion=GD3 SP\\SP_50\\1,1\C,0,0.0019,2.492055,1.360431\C,0,0.00095,3.7
 01158,0.671989\C,0,0.0006,3.682861,-0.71383\C,0,0.0001,2.462956,-1.407
 538\C,0,-0.0001,-2.463356,-1.407538\C,0,-0.0006,-3.684861,-0.71383\C,0
 ,-0.00095,-3.701858,0.671989\C,0,-0.0019,-2.493255,1.360431\C,0,-0.000
 05,0.0044,1.453369\C,0,0.,-0.0002,-1.429189\C,0,0.00015,1.262105,0.677
 065\C,0,-0.0004,1.237771,-0.730804\C,0,-0.00015,-1.262005,0.677065\C,0
 ,0.0004,-1.237171,-0.730804\H,0,0.0022,2.487421,2.443647\H,0,0.00115,4
 .636003,1.211689\H,0,0.0003,4.608012,-1.272349\H,0,-0.0003,2.4674,-2.4
 90059\H,0,0.,-0.0001,-2.510266\H,0,0.0003,-2.4677,-2.490059\H,0,-0.000
 3,-4.610512,-1.272349\H,0,-0.00115,-4.637503,1.211689\H,0,-0.0022,-2.4
 88721,2.443647\H,0,-0.859585,0.001,2.144687\H,0,0.859585,0.001,2.14688
 7\\Version=ES64L-G16RevC.01\State=1-A\HF=-539.7602113\RMSD=4.498e-09\P
 G=C01 [X(C14H11)]\\@
 The archive entry for this job was punched.


 ANYONE WHO IS NOT SHOCKED BY QUANTUM THEORY HAS
 NOT UNDERSTOOD IT. -- NIELS BOHR(1885-1962)
 Job cpu time:       0 days  1 hours 19 minutes 15.4 seconds.
 Elapsed time:       0 days  0 hours  1 minutes 39.2 seconds.
 File lengths (MBytes):  RWF=    460 Int=      0 D2E=      0 Chk=     15 Scr=      1
 Normal termination of Gaussian 16 at Thu Jul 28 15:53:02 2022.
