 Entering Gaussian System, Link 0=g16
 Initial command:
 /apps/gaussian/g16c01/g16/l1.exe "/jobfs/53002009.gadi-pbs/Gau-748878.inp" -scrdir="/jobfs/53002009.gadi-pbs/"
 Entering Link 1 = /apps/gaussian/g16c01/g16/l1.exe PID=    748879.
  
 Copyright (c) 1988-2019, Gaussian, Inc.  All Rights Reserved.
  
 This is part of the Gaussian(R) 16 program.  It is based on
 the Gaussian(R) 09 system (copyright 2009, Gaussian, Inc.),
 the Gaussian(R) 03 system (copyright 2003, Gaussian, Inc.),
 the Gaussian(R) 98 system (copyright 1998, Gaussian, Inc.),
 the Gaussian(R) 94 system (copyright 1995, Gaussian, Inc.),
 the Gaussian 92(TM) system (copyright 1992, Gaussian, Inc.),
 the Gaussian 90(TM) system (copyright 1990, Gaussian, Inc.),
 the Gaussian 88(TM) system (copyright 1988, Gaussian, Inc.),
 the Gaussian 86(TM) system (copyright 1986, Carnegie Mellon
 University), and the Gaussian 82(TM) system (copyright 1983,
 Carnegie Mellon University). Gaussian is a federally registered
 trademark of Gaussian, Inc.
  
 This software contains proprietary and confidential information,
 including trade secrets, belonging to Gaussian, Inc.
  
 This software is provided under written license and may be
 used, copied, transmitted, or stored only in accord with that
 written license.
  
 The following legend is applicable only to US Government
 contracts under FAR:
  
                    RESTRICTED RIGHTS LEGEND
  
 Use, reproduction and disclosure by the US Government is
 subject to restrictions as set forth in subparagraphs (a)
 and (c) of the Commercial Computer Software - Restricted
 Rights clause in FAR 52.227-19.
  
 Gaussian, Inc.
 340 Quinnipiac St., Bldg. 40, Wallingford CT 06492
  
  
 ---------------------------------------------------------------
 Warning -- This program may not be used in any manner that
 competes with the business of Gaussian, Inc. or will provide
 assistance to any competitor of Gaussian, Inc.  The licensee
 of this program is prohibited from giving any competitor of
 Gaussian, Inc. access to this program.  By using this program,
 the user acknowledges that Gaussian, Inc. is engaged in the
 business of creating and licensing software in the field of
 computational chemistry and represents and warrants to the
 licensee that it is not a competitor of Gaussian, Inc. and that
 it will not use this program in any manner prohibited above.
 ---------------------------------------------------------------
  

 Cite this work as:
 Gaussian 16, Revision C.01,
 M. J. Frisch, G. W. Trucks, H. B. Schlegel, G. E. Scuseria, 
 M. A. Robb, J. R. Cheeseman, G. Scalmani, V. Barone, 
 G. A. Petersson, H. Nakatsuji, X. Li, M. Caricato, A. V. Marenich, 
 J. Bloino, B. G. Janesko, R. Gomperts, B. Mennucci, H. P. Hratchian, 
 J. V. Ortiz, A. F. Izmaylov, J. L. Sonnenberg, D. Williams-Young, 
 F. Ding, F. Lipparini, F. Egidi, J. Goings, B. Peng, A. Petrone, 
 T. Henderson, D. Ranasinghe, V. G. Zakrzewski, J. Gao, N. Rega, 
 G. Zheng, W. Liang, M. Hada, M. Ehara, K. Toyota, R. Fukuda, 
 J. Hasegawa, M. Ishida, T. Nakajima, Y. Honda, O. Kitao, H. Nakai, 
 T. Vreven, K. Throssell, J. A. Montgomery, Jr., J. E. Peralta, 
 F. Ogliaro, M. J. Bearpark, J. J. Heyd, E. N. Brothers, K. N. Kudin, 
 V. N. Staroverov, T. A. Keith, R. Kobayashi, J. Normand, 
 K. Raghavachari, A. P. Rendell, J. C. Burant, S. S. Iyengar, 
 J. Tomasi, M. Cossi, J. M. Millam, M. Klene, C. Adamo, R. Cammi, 
 J. W. Ochterski, R. L. Martin, K. Morokuma, O. Farkas, 
 J. B. Foresman, and D. J. Fox, Gaussian, Inc., Wallingford CT, 2019.
 
 ******************************************
 Gaussian 16:  ES64L-G16RevC.01  3-Jul-2019
                28-Jul-2022 
 ******************************************
 %NProcShared=48
 Will use up to   48 processors via shared memory.
 %mem = 190GB
 ---------------------------------------------------------------
 #n M062X/6-311++G(d,p) TD(NStates=1) EmpiricalDispersion=GD3 SP
 ---------------------------------------------------------------
 1/38=1,172=1/1;
 2/12=2,17=6,18=5,40=1/2;
 3/5=4,6=6,7=1111,11=9,25=1,30=1,74=-55,124=31/1,2,3,8;
 4//1;
 5/5=2,38=5/2;
 8/6=1,10=2,108=1/1;
 9/41=1,42=1,70=2/14;
 6/7=2,8=2,9=2,10=2/1;
 99/5=1,9=1/99;
 ------
 SP_-50
 ------
 Symbolic Z-matrix:
 Charge =  1 Multiplicity = 1
 C                     0.0293    2.49086   1.36043 
 C                     0.03385   3.71526   0.67199 
 C                     0.0098    3.70766  -0.71383 
 C                    -0.0311    2.48116  -1.40754 
 C                    -0.0313   -2.48156  -1.40754 
 C                     0.0086   -3.70966  -0.71383 
 C                     0.03195  -3.71596   0.67199 
 C                     0.0255   -2.49206   1.36043 
 C                     0.01745   0.0044    1.45337 
 C                    -0.0488   -0.0002   -1.42919 
 C                    -0.00715   1.24681   0.67707 
 C                    -0.0204    1.24017  -0.7308 
 C                    -0.00745  -1.24671   0.67707 
 C                    -0.0196   -1.23957  -0.7308 
 H                     0.0106    2.48652   2.44365 
 H                     0.03445   4.6475    1.21169 
 H                    -0.0055    4.60711  -1.27235 
 H                    -0.0149    2.4851   -2.49006 
 H                    -0.045    -0.0001   -2.51027 
 H                    -0.0143   -2.4854   -2.49006 
 H                    -0.0061   -4.60961  -1.27235 
 H                     0.03215  -4.649     1.21169 
 H                     0.0062   -2.48782   2.44365 
 H                    -0.79559   0.001     2.14469 
 H                     0.92359   0.001     2.14689 
 
                          Input orientation:                          
 ---------------------------------------------------------------------
 Center     Atomic      Atomic             Coordinates (Angstroms)
 Number     Number       Type             X           Y           Z
 ---------------------------------------------------------------------
      1          6           0        0.029300    2.490855    1.360431
      2          6           0        0.033850    3.715258    0.671989
      3          6           0        0.009800    3.707661   -0.713830
      4          6           0       -0.031100    2.481156   -1.407538
      5          6           0       -0.031300   -2.481556   -1.407538
      6          6           0        0.008600   -3.709661   -0.713830
      7          6           0        0.031950   -3.715958    0.671989
      8          6           0        0.025500   -2.492055    1.360431
      9          6           0        0.017450    0.004400    1.453369
     10          6           0       -0.048800   -0.000200   -1.429189
     11          6           0       -0.007150    1.246805    0.677065
     12          6           0       -0.020400    1.240171   -0.730804
     13          6           0       -0.007450   -1.246705    0.677065
     14          6           0       -0.019600   -1.239571   -0.730804
     15          1           0        0.010600    2.486521    2.443647
     16          1           0        0.034450    4.647503    1.211689
     17          1           0       -0.005500    4.607112   -1.272349
     18          1           0       -0.014900    2.485100   -2.490059
     19          1           0       -0.045000   -0.000100   -2.510266
     20          1           0       -0.014300   -2.485400   -2.490059
     21          1           0       -0.006100   -4.609612   -1.272349
     22          1           0        0.032150   -4.649003    1.211689
     23          1           0        0.006200   -2.487821    2.443647
     24          1           0       -0.795585    0.001000    2.144687
     25          1           0        0.923585    0.001000    2.146887
 ---------------------------------------------------------------------
                    Distance matrix (angstroms):
                    1          2          3          4          5
     1  C    0.000000
     2  C    1.404684   0.000000
     3  C    2.404902   1.386048   0.000000
     4  C    2.768645   2.419020   1.409687   0.000000
     5  C    5.691239   6.536756   6.228108   4.962712   0.000000
     6  C    6.538301   7.553182   7.417322   6.229689   1.411051
     7  C    6.244877   7.431216   7.551894   6.537020   2.419128
     8  C    4.982911   6.245379   6.537529   5.691896   2.768572
     9  C    2.488220   3.792267   4.290799   3.784371   3.790401
    10  C    3.740780   4.269240   3.776692   2.481514   2.481512
    11  C    1.419851   2.468799   2.826781   2.422760   4.271631
    12  C    2.437200   2.845492   2.467733   1.413551   3.782769
    13  C    3.799697   4.962137   5.145933   4.271191   2.423014
    14  C    4.276884   5.149856   4.947348   3.781787   1.414437
    15  H    1.083386   2.156179   3.385387   3.851414   6.286109
    16  H    2.161777   1.077199   2.142787   3.399663   7.595272
    17  H    3.378059   2.139486   1.058862   2.130404   7.090004
    18  H    3.850748   3.393260   2.156445   1.082649   5.083286
    19  H    4.603550   4.892530   4.120398   2.715296   2.715478
    20  H    6.292161   6.960533   6.442792   5.083189   1.082661
    21  H    7.572940   8.549006   8.336020   7.092101   2.132495
    22  H    7.141408   8.381655   8.575661   7.596283   3.400324
    23  H    5.095204   6.451180   6.953680   6.286792   3.851373
    24  H    2.737676   4.080749   4.749642   4.399308   4.400627
    25  H    2.760007   4.094223   4.770539   4.438078   4.439462
                    6          7          8          9         10
     6  C    0.000000
     7  C    1.386030   0.000000
     8  C    2.405288   1.404255   0.000000
     9  C    4.300125   3.801556   2.498197   0.000000
    10  C    3.778245   4.269464   3.741235   2.883323   0.000000
    11  C    5.147950   4.962920   3.800938   1.465204   2.448073
    12  C    4.949946   5.151095   4.278420   2.509816   1.423752
    13  C    2.828604   2.469573   1.420905   1.472594   2.447813
    14  C    2.470309   2.846573   2.438035   2.513851   1.422897
    15  H    6.954303   6.450579   5.095076   2.672381   4.602844
    16  H    8.576158   8.380857   7.141113   4.649420   5.346243
    17  H    8.335518   8.547242   7.571702   5.349301   4.610184
    18  H    6.444424   6.960881   6.292851   4.658921   2.702464
    19  H    4.122002   4.892879   4.604031   3.964129   1.081084
    20  H    2.157389   3.393370   3.850701   4.663768   2.702379
    21  H    1.059279   2.140214   3.378843   5.359030   4.612277
    22  H    2.142555   1.077891   2.162081   4.659698   5.347164
    23  H    3.385640   2.155865   1.083396   2.681780   4.603275
    24  H    4.752561   4.082821   2.739445   1.067220   3.651065
    25  H    4.773877   4.097086   2.764126   1.141078   3.705921
                   11         12         13         14         15
    11  C    0.000000
    12  C    1.407947   0.000000
    13  C    2.493510   2.857764   0.000000
    14  C    2.857327   2.479742   1.407940   0.000000
    15  H    2.158245   3.410497   4.130147   4.895080   0.000000
    16  H    3.442717   3.922525   5.918553   6.199503   2.487596
    17  H    3.884827   3.410247   6.169878   5.871726   4.278527
    18  H    3.400604   2.155193   4.894599   4.119244   4.933772
    19  H    3.422760   2.169185   3.422647   2.168737   5.543251
    20  H    4.894903   4.120060   3.400748   2.155712   7.004432
    21  H    6.172344   5.874814   3.887076   3.413302   8.010244
    22  H    5.920128   6.201485   3.444274   3.924307   7.241125
    23  H    4.131395   4.896506   2.159020   3.411148   4.974344
    24  H    2.080282   3.225664   2.081307   3.226394   2.630043
    25  H    2.139784   3.272271   2.141021   3.272571   2.664474
                   16         17         18         19         20
    16  H    0.000000
    17  H    2.484688   0.000000
    18  H    4.287349   2.446598   0.000000
    19  H    5.954786   4.770786   2.485464   0.000000
    20  H    8.036393   7.196292   4.970500   2.485572   0.000000
    21  H    9.584689   9.216724   7.198460   4.773002   2.448502
    22  H    9.296506   9.583712   8.037448   5.955770   4.287922
    23  H    7.240951   8.009172   7.005130   5.543702   4.933749
    24  H    4.811386   5.789355   5.316116   4.715079   5.317280
    25  H    4.822359   5.811251   5.343480   4.756809   5.344444
                   21         22         23         24         25
    21  H    0.000000
    22  H    2.484645   0.000000
    23  H    4.279109   2.487790   0.000000
    24  H    5.792855   4.814370   2.631818   0.000000
    25  H    5.814915   4.826156   2.669062   1.719171   0.000000
 Stoichiometry    C14H11(1+)
 Framework group  C1[X(C14H11)]
 Deg. of freedom    69
 Full point group                 C1      NOp   1
 Largest Abelian subgroup         C1      NOp   1
 Largest concise Abelian subgroup C1      NOp   1
                         Standard orientation:                         
 ---------------------------------------------------------------------
 Center     Atomic      Atomic             Coordinates (Angstroms)
 Number     Number       Type             X           Y           Z
 ---------------------------------------------------------------------
      1          6           0       -2.490978   -1.360501    0.004017
      2          6           0       -3.715324   -0.672137    0.020402
      3          6           0       -3.707604    0.713890    0.020764
      4          6           0       -2.481030    1.408101   -0.007623
      5          6           0        2.481682    1.407663   -0.006653
      6          6           0        3.709719    0.713251    0.021314
      7          6           0        3.715892   -0.672765    0.020256
      8          6           0        2.491933   -1.360878    0.001394
      9          6           0       -0.004528   -1.453438   -0.008881
     10          6           0        0.000332    1.429840   -0.024354
     11          6           0       -1.246862   -0.676710   -0.020098
     12          6           0       -1.240105    0.731173   -0.008550
     13          6           0        1.246648   -0.676927   -0.019810
     14          6           0        1.239637    0.730938   -0.007166
     15          1           0       -2.486732   -2.443221   -0.033755
     16          1           0       -4.647615   -1.211681    0.011277
     17          1           0       -4.607004    1.272671    0.015090
     18          1           0       -2.484886    2.490169    0.027638
     19          1           0        0.000323    2.510682   -0.001516
     20          1           0        2.485614    2.489716    0.029410
     21          1           0        4.609720    1.271862    0.016665
     22          1           0        4.648892   -1.212468    0.011171
     23          1           0        2.487611   -2.443586   -0.036981
     24          1           0       -0.000994   -2.130330   -0.833964
     25          1           0       -0.001402   -2.162807    0.884901
 ---------------------------------------------------------------------
 Rotational constants (GHZ):           2.1350922           0.4413030           0.3665283
 Standard basis: 6-311++G(d,p) (5D, 7F)
 There are   399 symmetry adapted cartesian basis functions of A   symmetry.
 There are   385 symmetry adapted basis functions of A   symmetry.
   385 basis functions,   603 primitive gaussians,   399 cartesian basis functions
    47 alpha electrons       47 beta electrons
       nuclear repulsion energy       779.2953966462 Hartrees.
 NAtoms=   25 NActive=   25 NUniq=   25 SFac= 1.00D+00 NAtFMM=   60 NAOKFM=F Big=F
 Integral buffers will be    131072 words long.
 Regular integral format.
 Two-electron integral symmetry is turned on.
 Nuclear repulsion after empirical dispersion term =      779.2944164463 Hartrees.
 One-electron integrals computed using PRISM.
 NBasis=   385 RedAO= T EigKep=  1.42D-06  NBF=   385
 NBsUse=   379 1.00D-06 EigRej=  9.05D-07 NBFU=   379
 ExpMin= 3.60D-02 ExpMax= 4.56D+03 ExpMxC= 6.82D+02 IAcc=3 IRadAn=         5 AccDes= 0.00D+00
 Harris functional with IExCor= 1009 and IRadAn=       5 diagonalized for initial guess.
 HarFok:  IExCor= 1009 AccDes= 0.00D+00 IRadAn=         5 IDoV= 1 UseB2=F ITyADJ=14
 ICtDFT=  3500011 ScaDFX=  1.000000  1.000000  1.000000  1.000000
 FoFCou: FMM=F IPFlag=           0 FMFlag=      100000 FMFlg1=           0
         NFxFlg=           0 DoJE=T BraDBF=F KetDBF=T FulRan=T
         wScrn=  0.000000 ICntrl=       500 IOpCl=  0 I1Cent=   200000004 NGrid=           0
         NMat0=    1 NMatS0=      1 NMatT0=    0 NMatD0=    1 NMtDS0=    0 NMtDT0=    0
 Petite list used in FoFCou.
 Requested convergence on RMS density matrix=1.00D-08 within 128 cycles.
 Requested convergence on MAX density matrix=1.00D-06.
 Requested convergence on             energy=1.00D-06.
 No special actions if energy rises.
 SCF Done:  E(RM062X) =  -539.754904938     A.U. after   15 cycles
            NFock= 15  Conv=0.49D-08     -V/T= 2.0044
 DoSCS=F DFT=T ScalE2(SS,OS)=  1.000000  1.000000
 ExpMin= 3.60D-02 ExpMax= 4.56D+03 ExpMxC= 6.82D+02 IAcc=3 IRadAn=         5 AccDes= 0.00D+00
 HarFok:  IExCor=  205 AccDes= 0.00D+00 IRadAn=         5 IDoV=-2 UseB2=F ITyADJ=14
 ICtDFT= 12500011 ScaDFX=  1.000000  1.000000  1.000000  1.000000
 Range of M.O.s used for correlation:    15   379
 NBasis=   385 NAE=    47 NBE=    47 NFC=    14 NFV=     0
 NROrb=    365 NOA=    33 NOB=    33 NVA=   332 NVB=   332

 **** Warning!!: The largest alpha MO coefficient is  0.14949245D+03

 Orbital symmetries:
       Occupied  (A) (A) (A) (A) (A) (A) (A) (A) (A) (A) (A) (A)
                 (A) (A) (A) (A) (A) (A) (A) (A) (A) (A) (A) (A)
                 (A) (A) (A) (A) (A) (A) (A) (A) (A) (A) (A) (A)
                 (A) (A) (A) (A) (A) (A) (A) (A) (A) (A) (A)
       Virtual   (A) (A) (A) (A) (A) (A) (A) (A) (A) (A) (A) (A)
                 (A) (A) (A) (A) (A) (A) (A) (A) (A) (A) (A) (A)
                 (A) (A) (A) (A) (A) (A) (A) (A) (A) (A) (A) (A)
                 (A) (A) (A) (A) (A) (A) (A) (A) (A) (A) (A) (A)
                 (A) (A) (A) (A) (A) (A) (A) (A) (A) (A) (A) (A)
                 (A) (A) (A) (A) (A) (A) (A) (A) (A) (A) (A) (A)
                 (A) (A) (A) (A) (A) (A) (A) (A) (A) (A) (A) (A)
                 (A) (A) (A) (A) (A) (A) (A) (A) (A) (A) (A) (A)
                 (A) (A) (A) (A) (A) (A) (A) (A) (A) (A) (A) (A)
                 (A) (A) (A) (A) (A) (A) (A) (A) (A) (A) (A) (A)
                 (A) (A) (A) (A) (A) (A) (A) (A) (A) (A) (A) (A)
                 (A) (A) (A) (A) (A) (A) (A) (A) (A) (A) (A) (A)
                 (A) (A) (A) (A) (A) (A) (A) (A) (A) (A) (A) (A)
                 (A) (A) (A) (A) (A) (A) (A) (A) (A) (A) (A) (A)
                 (A) (A) (A) (A) (A) (A) (A) (A) (A) (A) (A) (A)
                 (A) (A) (A) (A) (A) (A) (A) (A) (A) (A) (A) (A)
                 (A) (A) (A) (A) (A) (A) (A) (A) (A) (A) (A) (A)
                 (A) (A) (A) (A) (A) (A) (A) (A) (A) (A) (A) (A)
                 (A) (A) (A) (A) (A) (A) (A) (A) (A) (A) (A) (A)
                 (A) (A) (A) (A) (A) (A) (A) (A) (A) (A) (A) (A)
                 (A) (A) (A) (A) (A) (A) (A) (A) (A) (A) (A) (A)
                 (A) (A) (A) (A) (A) (A) (A) (A) (A) (A) (A) (A)
                 (A) (A) (A) (A) (A) (A) (A) (A) (A) (A) (A) (A)
                 (A) (A) (A) (A) (A) (A) (A) (A) (A) (A) (A) (A)
                 (A) (A) (A) (A) (A) (A) (A) (A) (A) (A) (A) (A)
                 (A) (A) (A) (A) (A) (A) (A) (A) (A) (A) (A) (A)
                 (A) (A) (A) (A) (A) (A) (A) (A) (A) (A) (A) (A)
                 (A) (A) (A) (A) (A) (A) (A) (A)
     4 initial guesses have been made.
 Convergence on wavefunction:    0.001000000000000
 Iteration     1 Dimension     4 NMult     0 NNew      4
 CISAX will form     4 AO SS matrices at one time.
 Iteration     2 Dimension     6 NMult     4 NNew      2
 Iteration     3 Dimension     8 NMult     6 NNew      2
 Iteration     4 Dimension    10 NMult     8 NNew      2
 Iteration     5 Dimension    12 NMult    10 NNew      2
 Iteration     6 Dimension    14 NMult    12 NNew      2
 ***********************************************************************
 Excited states from <AA,BB:AA,BB> singles matrix:
 ***********************************************************************
 
 Ground to excited state transition densities written to RWF  633
 Ground to excited state transition electric dipole moments (Au):
       state          X           Y           Z        Dip. S.      Osc.
         1        -0.0060     -0.6303      0.0079      0.3974      0.0271
 Ground to excited state transition velocity dipole moments (Au):
       state          X           Y           Z        Dip. S.      Osc.
         1         0.0006      0.0720     -0.0010      0.0052      0.0338
 Ground to excited state transition magnetic dipole moments (Au):
       state          X           Y           Z
         1        -0.0102     -0.0004     -0.0000
 Ground to excited state transition velocity quadrupole moments (Au):
       state          XX          YY          ZZ          XY          XZ          YZ
         1         0.3174      0.0294     -0.0093      0.0008      0.0000      0.0017
 <0|del|b> * <b|rxdel|0> + <0|del|b> * <b|delr+rdel|0>
 Rotatory Strengths (R) in cgs (10**-40 erg-esu-cm/Gauss)
       state          XX          YY          ZZ    R(velocity)    E-M Angle
         1        -0.1110     -0.0155     -0.1124     -0.0796       90.00
 1/2[<0|r|b>*<b|rxdel|0> + (<0|rxdel|b>*<b|r|0>)*]
 Rotatory Strengths (R) in cgs (10**-40 erg-esu-cm/Gauss)
       state          XX          YY          ZZ     R(length)
         1        -0.0433     -0.1747      0.0003     -0.0726
  1/2[<0|del|b>*<b|r|0> + (<0|r|b>*<b|del|0>)*] (Au)
       state          X           Y           Z        Dip. S.   Osc.(frdel)
         1        -0.0000     -0.0454     -0.0000      0.0454      0.0303

 Excitation energies and oscillator strengths:
 
 Excited State   1:      Singlet-A      2.7838 eV  445.39 nm  f=0.0271  <S**2>=0.000
      47 -> 48         0.70427
 This state for optimization and/or second-order correction.
 Total Energy, E(TD-HF/TD-DFT) =  -539.652603946    
 Copying the excited state density for this state as the 1-particle RhoCI density.
 SavETr:  write IOETrn=   770 NScale= 10 NData=  16 NLR=1 NState=    1 LETran=      28.

 **********************************************************************

            Population analysis using the SCF Density.

 **********************************************************************

 Orbital symmetries:
       Occupied  (A) (A) (A) (A) (A) (A) (A) (A) (A) (A) (A) (A)
                 (A) (A) (A) (A) (A) (A) (A) (A) (A) (A) (A) (A)
                 (A) (A) (A) (A) (A) (A) (A) (A) (A) (A) (A) (A)
                 (A) (A) (A) (A) (A) (A) (A) (A) (A) (A) (A)
       Virtual   (A) (A) (A) (A) (A) (A) (A) (A) (A) (A) (A) (A)
                 (A) (A) (A) (A) (A) (A) (A) (A) (A) (A) (A) (A)
                 (A) (A) (A) (A) (A) (A) (A) (A) (A) (A) (A) (A)
                 (A) (A) (A) (A) (A) (A) (A) (A) (A) (A) (A) (A)
                 (A) (A) (A) (A) (A) (A) (A) (A) (A) (A) (A) (A)
                 (A) (A) (A) (A) (A) (A) (A) (A) (A) (A) (A) (A)
                 (A) (A) (A) (A) (A) (A) (A) (A) (A) (A) (A) (A)
                 (A) (A) (A) (A) (A) (A) (A) (A) (A) (A) (A) (A)
                 (A) (A) (A) (A) (A) (A) (A) (A) (A) (A) (A) (A)
                 (A) (A) (A) (A) (A) (A) (A) (A) (A) (A) (A) (A)
                 (A) (A) (A) (A) (A) (A) (A) (A) (A) (A) (A) (A)
                 (A) (A) (A) (A) (A) (A) (A) (A) (A) (A) (A) (A)
                 (A) (A) (A) (A) (A) (A) (A) (A) (A) (A) (A) (A)
                 (A) (A) (A) (A) (A) (A) (A) (A) (A) (A) (A) (A)
                 (A) (A) (A) (A) (A) (A) (A) (A) (A) (A) (A) (A)
                 (A) (A) (A) (A) (A) (A) (A) (A) (A) (A) (A) (A)
                 (A) (A) (A) (A) (A) (A) (A) (A) (A) (A) (A) (A)
                 (A) (A) (A) (A) (A) (A) (A) (A) (A) (A) (A) (A)
                 (A) (A) (A) (A) (A) (A) (A) (A) (A) (A) (A) (A)
                 (A) (A) (A) (A) (A) (A) (A) (A) (A) (A) (A) (A)
                 (A) (A) (A) (A) (A) (A) (A) (A) (A) (A) (A) (A)
                 (A) (A) (A) (A) (A) (A) (A) (A) (A) (A) (A) (A)
                 (A) (A) (A) (A) (A) (A) (A) (A) (A) (A) (A) (A)
                 (A) (A) (A) (A) (A) (A) (A) (A) (A) (A) (A) (A)
                 (A) (A) (A) (A) (A) (A) (A) (A) (A) (A) (A) (A)
                 (A) (A) (A) (A) (A) (A) (A) (A) (A) (A) (A) (A)
                 (A) (A) (A) (A) (A) (A) (A) (A) (A) (A) (A) (A)
                 (A) (A) (A) (A) (A) (A) (A) (A)
 The electronic state is 1-A.
 Alpha  occ. eigenvalues --  -10.77654 -10.73338 -10.73283 -10.72610 -10.72608
 Alpha  occ. eigenvalues --  -10.71595 -10.71566 -10.71137 -10.71127 -10.70979
 Alpha  occ. eigenvalues --  -10.70213 -10.70192 -10.69583 -10.69556  -1.16319
 Alpha  occ. eigenvalues --   -1.12040  -1.06738  -1.05855  -1.00960  -1.00173
 Alpha  occ. eigenvalues --   -0.95629  -0.91090  -0.86406  -0.85832  -0.83795
 Alpha  occ. eigenvalues --   -0.78392  -0.75984  -0.74332  -0.69611  -0.69407
 Alpha  occ. eigenvalues --   -0.68746  -0.68274  -0.68082  -0.64435  -0.64020
 Alpha  occ. eigenvalues --   -0.63232  -0.62126  -0.59821  -0.59359  -0.59189
 Alpha  occ. eigenvalues --   -0.56961  -0.55307  -0.54939  -0.52275  -0.46403
 Alpha  occ. eigenvalues --   -0.45988  -0.44302
 Alpha virt. eigenvalues --   -0.26061  -0.14929  -0.14159  -0.13040  -0.11177
 Alpha virt. eigenvalues --   -0.10078  -0.09199  -0.08039  -0.07889  -0.07461
 Alpha virt. eigenvalues --   -0.07245  -0.07135  -0.05649  -0.05584  -0.05377
 Alpha virt. eigenvalues --   -0.03763  -0.03680  -0.03289  -0.03132  -0.02143
 Alpha virt. eigenvalues --   -0.01355  -0.00904   0.00192   0.00685   0.00753
 Alpha virt. eigenvalues --    0.01029   0.01509   0.01839   0.02193   0.02305
 Alpha virt. eigenvalues --    0.02395   0.02517   0.02800   0.03218   0.03410
 Alpha virt. eigenvalues --    0.04258   0.04496   0.04673   0.04928   0.05352
 Alpha virt. eigenvalues --    0.05955   0.06279   0.06610   0.07020   0.07173
 Alpha virt. eigenvalues --    0.07828   0.07962   0.08310   0.08471   0.08940
 Alpha virt. eigenvalues --    0.09569   0.09600   0.10011   0.10697   0.10988
 Alpha virt. eigenvalues --    0.11132   0.12270   0.12297   0.12852   0.13082
 Alpha virt. eigenvalues --    0.13410   0.13515   0.14040   0.14143   0.15795
 Alpha virt. eigenvalues --    0.16440   0.16722   0.17172   0.17433   0.17645
 Alpha virt. eigenvalues --    0.18053   0.18784   0.19132   0.19548   0.19707
 Alpha virt. eigenvalues --    0.21374   0.21413   0.22532   0.23133   0.23206
 Alpha virt. eigenvalues --    0.23586   0.24519   0.24536   0.26743   0.27375
 Alpha virt. eigenvalues --    0.28810   0.29251   0.29750   0.31097   0.35772
 Alpha virt. eigenvalues --    0.36073   0.37692   0.39054   0.41148   0.41524
 Alpha virt. eigenvalues --    0.41906   0.42473   0.43055   0.43473   0.44079
 Alpha virt. eigenvalues --    0.44301   0.44665   0.44763   0.46026   0.47847
 Alpha virt. eigenvalues --    0.48659   0.48952   0.49016   0.50483   0.51063
 Alpha virt. eigenvalues --    0.51253   0.51266   0.52138   0.52291   0.53996
 Alpha virt. eigenvalues --    0.54116   0.54403   0.55767   0.55851   0.57286
 Alpha virt. eigenvalues --    0.58129   0.58706   0.61307   0.61991   0.62253
 Alpha virt. eigenvalues --    0.62748   0.63628   0.63695   0.65120   0.66840
 Alpha virt. eigenvalues --    0.70501   0.70542   0.70876   0.71818   0.72647
 Alpha virt. eigenvalues --    0.74967   0.75491   0.76064   0.76170   0.76770
 Alpha virt. eigenvalues --    0.77189   0.77555   0.78024   0.80388   0.80671
 Alpha virt. eigenvalues --    0.81024   0.81672   0.81969   0.82694   0.84414
 Alpha virt. eigenvalues --    0.86376   0.86438   0.87777   0.89446   0.90509
 Alpha virt. eigenvalues --    0.90793   0.91470   0.93097   0.94782   0.96230
 Alpha virt. eigenvalues --    0.96802   1.00394   1.01198   1.01569   1.02597
 Alpha virt. eigenvalues --    1.02965   1.04072   1.04206   1.06467   1.08954
 Alpha virt. eigenvalues --    1.19879   1.23308   1.24104   1.25602   1.27987
 Alpha virt. eigenvalues --    1.28941   1.32226   1.33351   1.35107   1.35886
 Alpha virt. eigenvalues --    1.38777   1.40195   1.40207   1.42758   1.42886
 Alpha virt. eigenvalues --    1.43224   1.44840   1.44892   1.46664   1.46853
 Alpha virt. eigenvalues --    1.47329   1.47549   1.51476   1.53603   1.55371
 Alpha virt. eigenvalues --    1.55733   1.56141   1.56485   1.57510   1.61122
 Alpha virt. eigenvalues --    1.63579   1.64257   1.64270   1.65881   1.67770
 Alpha virt. eigenvalues --    1.68438   1.68660   1.69627   1.73700   1.75806
 Alpha virt. eigenvalues --    1.76905   1.77665   1.79171   1.79759   1.79871
 Alpha virt. eigenvalues --    1.82974   1.83070   1.83095   1.83356   1.83871
 Alpha virt. eigenvalues --    1.84352   1.85689   1.85846   1.88033   1.91460
 Alpha virt. eigenvalues --    1.91560   1.94089   1.95294   1.97276   1.97401
 Alpha virt. eigenvalues --    1.99057   2.02267   2.03812   2.07560   2.11494
 Alpha virt. eigenvalues --    2.11747   2.13236   2.15017   2.18202   2.20509
 Alpha virt. eigenvalues --    2.21818   2.28245   2.29220   2.34145   2.35715
 Alpha virt. eigenvalues --    2.35776   2.39056   2.40563   2.40595   2.41794
 Alpha virt. eigenvalues --    2.45656   2.48025   2.49644   2.52751   2.53656
 Alpha virt. eigenvalues --    2.53997   2.56816   2.57761   2.58384   2.59560
 Alpha virt. eigenvalues --    2.59740   2.61176   2.61762   2.62964   2.63471
 Alpha virt. eigenvalues --    2.63768   2.64358   2.64744   2.65328   2.67640
 Alpha virt. eigenvalues --    2.69015   2.70810   2.71259   2.73422   2.74771
 Alpha virt. eigenvalues --    2.76255   2.78019   2.79461   2.82101   2.82702
 Alpha virt. eigenvalues --    2.84022   2.86331   2.91999   2.95940   2.99297
 Alpha virt. eigenvalues --    2.99440   3.05966   3.09542   3.10117   3.10929
 Alpha virt. eigenvalues --    3.20680   3.23248   3.25512   3.27363   3.29943
 Alpha virt. eigenvalues --    3.30728   3.32281   3.43277   3.43935   3.45356
 Alpha virt. eigenvalues --    3.46809   3.48925   3.56016   3.64499   3.67082
 Alpha virt. eigenvalues --    3.68607   3.94263   3.95757   3.96262   3.97657
 Alpha virt. eigenvalues --    4.04637   4.06458   4.07479   4.12365   4.35645
 Alpha virt. eigenvalues --    4.61459   4.68273   4.69913  23.45729  23.61968
 Alpha virt. eigenvalues --   23.81071  23.86118  23.86726  23.88998  23.90347
 Alpha virt. eigenvalues --   23.92418  23.95976  23.96428  23.96627  23.98578
 Alpha virt. eigenvalues --   24.08780  24.08982
          Condensed to atoms (all electrons):
               1          2          3          4          5          6
     1  C    8.264482   0.584174  -0.589340   1.525833   0.018090  -0.081235
     2  C    0.584174   6.800018   0.365668  -0.719682  -0.049611  -0.014424
     3  C   -0.589340   0.365668   6.566214   0.518846  -0.106938   0.016202
     4  C    1.525833  -0.719682   0.518846  10.098833   0.038604  -0.106692
     5  C    0.018090  -0.049611  -0.106938   0.038604  10.075096   0.504666
     6  C   -0.081235  -0.014424   0.016202  -0.106692   0.504666   6.563903
     7  C   -0.034151   0.008856  -0.014544  -0.050152  -0.702646   0.362938
     8  C    0.369529  -0.033737  -0.081289   0.015602   1.534314  -0.596969
     9  C   -1.407015  -0.550768   0.264566  -0.483376  -0.491037   0.265585
    10  C   -1.034585   0.128550  -0.314121  -2.217447  -2.209844  -0.311138
    11  C    0.153993  -0.941493   1.103052  -0.848697  -1.623281  -0.122464
    12  C   -1.275364   0.900510  -1.262957  -0.478577  -0.052143  -0.212402
    13  C    0.063572  -0.164368  -0.126097  -1.634979  -0.874070   1.109715
    14  C   -1.000460  -0.209418  -0.212960  -0.065184  -0.469022  -1.252035
    15  H    0.354683  -0.098995   0.000213   0.023215   0.005114   0.001173
    16  H   -0.024516   0.381890  -0.018930   0.012802  -0.001392  -0.000309
    17  H   -0.016958  -0.025489   0.385489  -0.056456  -0.000224   0.000357
    18  H    0.042966   0.009919  -0.096573   0.438172   0.012795  -0.004460
    19  H   -0.043917  -0.009183   0.052410  -0.078850  -0.078609   0.052543
    20  H    0.007156   0.001500  -0.004463   0.012644   0.436622  -0.096966
    21  H   -0.001220  -0.000350   0.000359  -0.000203  -0.056201   0.385401
    22  H    0.000624   0.000338  -0.000311  -0.001422   0.012965  -0.019059
    23  H    0.005656  -0.002536   0.001173   0.005167   0.022917   0.000194
    24  H    0.011251   0.014851  -0.001642  -0.013688  -0.014389  -0.001399
    25  H    0.052419   0.012709  -0.000725  -0.012370  -0.011621  -0.001050
               7          8          9         10         11         12
     1  C   -0.034151   0.369529  -1.407015  -1.034585   0.153993  -1.275364
     2  C    0.008856  -0.033737  -0.550768   0.128550  -0.941493   0.900510
     3  C   -0.014544  -0.081289   0.264566  -0.314121   1.103052  -1.262957
     4  C   -0.050152   0.015602  -0.483376  -2.217447  -0.848697  -0.478577
     5  C   -0.702646   1.534314  -0.491037  -2.209844  -1.623281  -0.052143
     6  C    0.362938  -0.596969   0.265585  -0.311138  -0.122464  -0.212402
     7  C    6.776503   0.588537  -0.537396   0.122914  -0.157663  -0.209307
     8  C    0.588537   8.250272  -1.398349  -1.032435   0.065393  -0.984786
     9  C   -0.537396  -1.398349   8.638037   0.459279   1.516367  -1.211252
    10  C    0.122914  -1.032435   0.459279   8.852822  -0.224637   1.724908
    11  C   -0.157663   0.065393   1.516367  -0.224637  13.898976  -3.274565
    12  C   -0.209307  -0.984786  -1.211252   1.724908  -3.274565  14.153700
    13  C   -0.932087   0.128897   1.514345  -0.238488   1.453048  -4.488267
    14  C    0.877598  -1.269961  -1.206485   1.717294  -4.462208   2.287195
    15  H   -0.002467   0.005599   0.081979  -0.009349  -0.015076  -0.019508
    16  H    0.000330   0.000563   0.003258  -0.009915   0.025348  -0.027329
    17  H   -0.000346  -0.001201  -0.002432   0.016706  -0.018831   0.068493
    18  H    0.001487   0.007093  -0.027729   0.029290  -0.028808  -0.032047
    19  H   -0.009290  -0.043890   0.070152   0.424676   0.086249  -0.068287
    20  H    0.010502   0.042786  -0.027681   0.030108  -0.011238  -0.004584
    21  H   -0.025720  -0.016473  -0.002454   0.016676  -0.005281   0.003563
    22  H    0.381731  -0.024007   0.003592  -0.010173   0.002263  -0.008263
    23  H   -0.097913   0.355242   0.081625  -0.009246  -0.001061   0.005898
    24  H    0.015634   0.013541   0.377000   0.007774   0.001247  -0.035657
    25  H    0.011676   0.049338   0.340198   0.004409   0.022744  -0.080109
              13         14         15         16         17         18
     1  C    0.063572  -1.000460   0.354683  -0.024516  -0.016958   0.042966
     2  C   -0.164368  -0.209418  -0.098995   0.381890  -0.025489   0.009919
     3  C   -0.126097  -0.212960   0.000213  -0.018930   0.385489  -0.096573
     4  C   -1.634979  -0.065184   0.023215   0.012802  -0.056456   0.438172
     5  C   -0.874070  -0.469022   0.005114  -0.001392  -0.000224   0.012795
     6  C    1.109715  -1.252035   0.001173  -0.000309   0.000357  -0.004460
     7  C   -0.932087   0.877598  -0.002467   0.000330  -0.000346   0.001487
     8  C    0.128897  -1.269961   0.005599   0.000563  -0.001201   0.007093
     9  C    1.514345  -1.206485   0.081979   0.003258  -0.002432  -0.027729
    10  C   -0.238488   1.717294  -0.009349  -0.009915   0.016706   0.029290
    11  C    1.453048  -4.462208  -0.015076   0.025348  -0.018831  -0.028808
    12  C   -4.488267   2.287195  -0.019508  -0.027329   0.068493  -0.032047
    13  C   13.988302  -3.262871  -0.000858   0.002163  -0.005308  -0.011745
    14  C   -3.262871  14.150964   0.006013  -0.008128   0.003579  -0.005163
    15  H   -0.000858   0.006013   0.441747  -0.008956   0.001590   0.000084
    16  H    0.002163  -0.008128  -0.008956   0.420571  -0.007172   0.001972
    17  H   -0.005308   0.003579   0.001590  -0.007172   0.426495  -0.010785
    18  H   -0.011745  -0.005163   0.000084   0.001972  -0.010785   0.455901
    19  H    0.087125  -0.067148   0.000380  -0.000596   0.001477  -0.006263
    20  H   -0.029065  -0.032346  -0.000145   0.000017  -0.000149   0.001264
    21  H   -0.018717   0.067842   0.000023  -0.000007   0.000011  -0.000148
    22  H    0.025962  -0.028504  -0.000128   0.000007  -0.000007   0.000016
    23  H   -0.015734  -0.019342   0.000566  -0.000128   0.000023  -0.000142
    24  H    0.001335  -0.034191  -0.001836   0.000810  -0.000213   0.000122
    25  H    0.022247  -0.081974  -0.000079   0.000410  -0.000087   0.000260
              19         20         21         22         23         24
     1  C   -0.043917   0.007156  -0.001220   0.000624   0.005656   0.011251
     2  C   -0.009183   0.001500  -0.000350   0.000338  -0.002536   0.014851
     3  C    0.052410  -0.004463   0.000359  -0.000311   0.001173  -0.001642
     4  C   -0.078850   0.012644  -0.000203  -0.001422   0.005167  -0.013688
     5  C   -0.078609   0.436622  -0.056201   0.012965   0.022917  -0.014389
     6  C    0.052543  -0.096966   0.385401  -0.019059   0.000194  -0.001399
     7  C   -0.009290   0.010502  -0.025720   0.381731  -0.097913   0.015634
     8  C   -0.043890   0.042786  -0.016473  -0.024007   0.355242   0.013541
     9  C    0.070152  -0.027681  -0.002454   0.003592   0.081625   0.377000
    10  C    0.424676   0.030108   0.016676  -0.010173  -0.009246   0.007774
    11  C    0.086249  -0.011238  -0.005281   0.002263  -0.001061   0.001247
    12  C   -0.068287  -0.004584   0.003563  -0.008263   0.005898  -0.035657
    13  C    0.087125  -0.029065  -0.018717   0.025962  -0.015734   0.001335
    14  C   -0.067148  -0.032346   0.067842  -0.028504  -0.019342  -0.034191
    15  H    0.000380  -0.000145   0.000023  -0.000128   0.000566  -0.001836
    16  H   -0.000596   0.000017  -0.000007   0.000007  -0.000128   0.000810
    17  H    0.001477  -0.000149   0.000011  -0.000007   0.000023  -0.000213
    18  H   -0.006263   0.001264  -0.000148   0.000016  -0.000142   0.000122
    19  H    0.448440  -0.006229   0.001463  -0.000591   0.000385   0.000708
    20  H   -0.006229   0.456020  -0.010696   0.001981   0.000067   0.000108
    21  H    0.001463  -0.010696   0.426173  -0.007153   0.001596  -0.000209
    22  H   -0.000591   0.001981  -0.007153   0.420607  -0.008958   0.000779
    23  H    0.000385   0.000067   0.001596  -0.008958   0.441325  -0.001666
    24  H    0.000708   0.000108  -0.000209   0.000779  -0.001666   0.490548
    25  H    0.000456   0.000283  -0.000095   0.000442  -0.000225  -0.077785
              25
     1  C    0.052419
     2  C    0.012709
     3  C   -0.000725
     4  C   -0.012370
     5  C   -0.011621
     6  C   -0.001050
     7  C    0.011676
     8  C    0.049338
     9  C    0.340198
    10  C    0.004409
    11  C    0.022744
    12  C   -0.080109
    13  C    0.022247
    14  C   -0.081974
    15  H   -0.000079
    16  H    0.000410
    17  H   -0.000087
    18  H    0.000260
    19  H    0.000456
    20  H    0.000283
    21  H   -0.000095
    22  H    0.000442
    23  H   -0.000225
    24  H   -0.077785
    25  H    0.490698
 Mulliken charges:
               1
     1  C    0.054333
     2  C   -0.388927
     3  C   -0.443301
     4  C    0.078058
     5  C    0.079845
     6  C   -0.442076
     7  C   -0.385022
     8  C    0.056394
     9  C   -0.270009
    10  C    0.085974
    11  C   -0.593373
    12  C    0.581136
    13  C   -0.594058
    14  C    0.576915
    15  H    0.235019
    16  H    0.257234
    17  H    0.241439
    18  H    0.222520
    19  H    0.186390
    20  H    0.222504
    21  H    0.241820
    22  H    0.257269
    23  H    0.235119
    24  H    0.246966
    25  H    0.257833
 Sum of Mulliken charges =   1.00000
 Mulliken charges with hydrogens summed into heavy atoms:
               1
     1  C    0.289352
     2  C   -0.131692
     3  C   -0.201862
     4  C    0.300578
     5  C    0.302349
     6  C   -0.200256
     7  C   -0.127753
     8  C    0.291512
     9  C    0.234789
    10  C    0.272364
    11  C   -0.593373
    12  C    0.581136
    13  C   -0.594058
    14  C    0.576915
 Electronic spatial extent (au):  <R**2>=           2871.8447
 Charge=              1.0000 electrons
 Dipole moment (field-independent basis, Debye):
    X=              0.0055    Y=              0.1928    Z=              0.0030  Tot=              0.1929
 Quadrupole moment (field-independent basis, Debye-Ang):
   XX=            -30.7698   YY=            -56.2565   ZZ=            -84.2712
   XY=              0.0031   XZ=              0.0049   YZ=              0.1916
 Traceless Quadrupole moment (field-independent basis, Debye-Ang):
   XX=             26.3294   YY=              0.8427   ZZ=            -27.1720
   XY=              0.0031   XZ=              0.0049   YZ=              0.1916
 Octapole moment (field-independent basis, Debye-Ang**2):
  XXX=              0.2237  YYY=              5.1836  ZZZ=             -0.0481  XYY=             -0.0032
  XXY=             -3.9162  XXZ=              0.3792  XZZ=             -0.0252  YZZ=             -3.0901
  YYZ=              0.2413  XYZ=              0.0250
 Hexadecapole moment (field-independent basis, Debye-Ang**3):
 XXXX=          -2128.8717 YYYY=           -609.5494 ZZZZ=            -99.8988 XXXY=              0.1238
 XXXZ=              0.1437 YYYX=             -0.0501 YYYZ=              2.0976 ZZZX=              0.0072
 ZZZY=              0.0873 XXYY=           -510.5606 XXZZ=           -595.1722 YYZZ=           -145.8796
 XXYZ=              2.1141 YYXZ=             -0.0004 ZZXY=              0.0028
 N-N= 7.792944164463D+02 E-N=-2.794821920993D+03  KE= 5.373912318346D+02
 Unable to Open any file for archive entry.
 1\1\GINC-GADI-CPU-CLX-0113\SP\RM062X TD-FC\6-311++G(d,p)\C14H11(1+)\TS
 1578\28-Jul-2022\0\\#n M062X/6-311++G(d,p) TD(NStates=1) EmpiricalDisp
 ersion=GD3 SP\\SP_-50\\1,1\C,0,0.0293,2.490855,1.360431\C,0,0.03385,3.
 715258,0.671989\C,0,0.0098,3.707661,-0.71383\C,0,-0.0311,2.481156,-1.4
 07538\C,0,-0.0313,-2.481556,-1.407538\C,0,0.0086,-3.709661,-0.71383\C,
 0,0.03195,-3.715958,0.671989\C,0,0.0255,-2.492055,1.360431\C,0,0.01745
 ,0.0044,1.453369\C,0,-0.0488,-0.0002,-1.429189\C,0,-0.00715,1.246805,0
 .677065\C,0,-0.0204,1.240171,-0.730804\C,0,-0.00745,-1.246705,0.677065
 \C,0,-0.0196,-1.239571,-0.730804\H,0,0.0106,2.486521,2.443647\H,0,0.03
 445,4.647503,1.211689\H,0,-0.0055,4.607112,-1.272349\H,0,-0.0149,2.485
 1,-2.490059\H,0,-0.045,-0.0001,-2.510266\H,0,-0.0143,-2.4854,-2.490059
 \H,0,-0.0061,-4.609612,-1.272349\H,0,0.03215,-4.649003,1.211689\H,0,0.
 0062,-2.487821,2.443647\H,0,-0.795585,0.001,2.144687\H,0,0.923585,0.00
 1,2.146887\\Version=ES64L-G16RevC.01\State=1-A\HF=-539.7549049\RMSD=4.
 853e-09\PG=C01 [X(C14H11)]\\@
 The archive entry for this job was punched.


 THE TRULY SUCCESSFUL PERFORMANCE OF RESEARCHES IN
 INORGANIC CHEMISTRY IS POSSIBLE ONLY TO ONE WHO IS NOT
 ONLY A THEORETICAL CHEMIST, BUT ALSO AN ACCOMPLISHED
 ANALYST AND, MOREOVER, NOT MERELY A PRACTICALLY TRAINED,
 MECHANICAL WORKER, BUT A THINKING CREATIVE ARTIST.
   --  CLEMENS WINKLER, BER. 33, 1697(1900)
 Job cpu time:       0 days  1 hours 20 minutes 18.0 seconds.
 Elapsed time:       0 days  0 hours  1 minutes 40.8 seconds.
 File lengths (MBytes):  RWF=    460 Int=      0 D2E=      0 Chk=     15 Scr=      1
 Normal termination of Gaussian 16 at Thu Jul 28 14:35:37 2022.
