 Entering Gaussian System, Link 0=g16
 Initial command:
 /apps/gaussian/g16c01/g16/l1.exe "/jobfs/53002009.gadi-pbs/Gau-711580.inp" -scrdir="/jobfs/53002009.gadi-pbs/"
 Entering Link 1 = /apps/gaussian/g16c01/g16/l1.exe PID=    711581.
  
 Copyright (c) 1988-2019, Gaussian, Inc.  All Rights Reserved.
  
 This is part of the Gaussian(R) 16 program.  It is based on
 the Gaussian(R) 09 system (copyright 2009, Gaussian, Inc.),
 the Gaussian(R) 03 system (copyright 2003, Gaussian, Inc.),
 the Gaussian(R) 98 system (copyright 1998, Gaussian, Inc.),
 the Gaussian(R) 94 system (copyright 1995, Gaussian, Inc.),
 the Gaussian 92(TM) system (copyright 1992, Gaussian, Inc.),
 the Gaussian 90(TM) system (copyright 1990, Gaussian, Inc.),
 the Gaussian 88(TM) system (copyright 1988, Gaussian, Inc.),
 the Gaussian 86(TM) system (copyright 1986, Carnegie Mellon
 University), and the Gaussian 82(TM) system (copyright 1983,
 Carnegie Mellon University). Gaussian is a federally registered
 trademark of Gaussian, Inc.
  
 This software contains proprietary and confidential information,
 including trade secrets, belonging to Gaussian, Inc.
  
 This software is provided under written license and may be
 used, copied, transmitted, or stored only in accord with that
 written license.
  
 The following legend is applicable only to US Government
 contracts under FAR:
  
                    RESTRICTED RIGHTS LEGEND
  
 Use, reproduction and disclosure by the US Government is
 subject to restrictions as set forth in subparagraphs (a)
 and (c) of the Commercial Computer Software - Restricted
 Rights clause in FAR 52.227-19.
  
 Gaussian, Inc.
 340 Quinnipiac St., Bldg. 40, Wallingford CT 06492
  
  
 ---------------------------------------------------------------
 Warning -- This program may not be used in any manner that
 competes with the business of Gaussian, Inc. or will provide
 assistance to any competitor of Gaussian, Inc.  The licensee
 of this program is prohibited from giving any competitor of
 Gaussian, Inc. access to this program.  By using this program,
 the user acknowledges that Gaussian, Inc. is engaged in the
 business of creating and licensing software in the field of
 computational chemistry and represents and warrants to the
 licensee that it is not a competitor of Gaussian, Inc. and that
 it will not use this program in any manner prohibited above.
 ---------------------------------------------------------------
  

 Cite this work as:
 Gaussian 16, Revision C.01,
 M. J. Frisch, G. W. Trucks, H. B. Schlegel, G. E. Scuseria, 
 M. A. Robb, J. R. Cheeseman, G. Scalmani, V. Barone, 
 G. A. Petersson, H. Nakatsuji, X. Li, M. Caricato, A. V. Marenich, 
 J. Bloino, B. G. Janesko, R. Gomperts, B. Mennucci, H. P. Hratchian, 
 J. V. Ortiz, A. F. Izmaylov, J. L. Sonnenberg, D. Williams-Young, 
 F. Ding, F. Lipparini, F. Egidi, J. Goings, B. Peng, A. Petrone, 
 T. Henderson, D. Ranasinghe, V. G. Zakrzewski, J. Gao, N. Rega, 
 G. Zheng, W. Liang, M. Hada, M. Ehara, K. Toyota, R. Fukuda, 
 J. Hasegawa, M. Ishida, T. Nakajima, Y. Honda, O. Kitao, H. Nakai, 
 T. Vreven, K. Throssell, J. A. Montgomery, Jr., J. E. Peralta, 
 F. Ogliaro, M. J. Bearpark, J. J. Heyd, E. N. Brothers, K. N. Kudin, 
 V. N. Staroverov, T. A. Keith, R. Kobayashi, J. Normand, 
 K. Raghavachari, A. P. Rendell, J. C. Burant, S. S. Iyengar, 
 J. Tomasi, M. Cossi, J. M. Millam, M. Klene, C. Adamo, R. Cammi, 
 J. W. Ochterski, R. L. Martin, K. Morokuma, O. Farkas, 
 J. B. Foresman, and D. J. Fox, Gaussian, Inc., Wallingford CT, 2019.
 
 ******************************************
 Gaussian 16:  ES64L-G16RevC.01  3-Jul-2019
                28-Jul-2022 
 ******************************************
 %NProcShared=48
 Will use up to   48 processors via shared memory.
 %mem = 190GB
 ---------------------------------------------------------------
 #n M062X/6-311++G(d,p) TD(NStates=1) EmpiricalDispersion=GD3 SP
 ---------------------------------------------------------------
 1/38=1,172=1/1;
 2/12=2,17=6,18=5,40=1/2;
 3/5=4,6=6,7=1111,11=9,25=1,30=1,74=-55,124=31/1,2,3,8;
 4//1;
 5/5=2,38=5/2;
 8/6=1,10=2,108=1/1;
 9/41=1,42=1,70=2/14;
 6/7=2,8=2,9=2,10=2/1;
 99/5=1,9=1/99;
 -------
 SP_-150
 -------
 Symbolic Z-matrix:
 Charge =  1 Multiplicity = 1
 C                     0.0099    2.49325   1.36043 
 C                     0.01455   3.70926   0.67199 
 C                     0.0034    3.69826  -0.71383 
 C                    -0.0158    2.47266  -1.40754 
 C                    -0.0154   -2.47186  -1.40754 
 C                     0.0058   -3.69426  -0.71383 
 C                     0.01835  -3.70786   0.67199 
 C                     0.0175   -2.49086   1.36043 
 C                     0.00885  -0.0088    1.45337 
 C                    -0.0244    0.0004   -1.42919 
 C                    -0.00395   1.25431   0.67707 
 C                    -0.0092    1.23807  -0.7308 
 C                    -0.00335  -1.2545    0.67707 
 C                    -0.0108   -1.23927  -0.7308 
 H                    -0.0002    2.48892   2.44365 
 H                     0.01435   4.644     1.21169 
 H                    -0.0035    4.61131  -1.27235 
 H                    -0.0067    2.4767   -2.49006 
 H                    -0.0225    0.0002   -2.51027 
 H                    -0.0079   -2.4761   -2.49006 
 H                    -0.0023   -4.60631  -1.27235 
 H                     0.01895  -4.641     1.21169 
 H                     0.0086   -2.48632   2.44365 
 H                    -0.82759  -0.002     2.14799 
 H                     0.89159  -0.002     2.14359 
 
                          Input orientation:                          
 ---------------------------------------------------------------------
 Center     Atomic      Atomic             Coordinates (Angstroms)
 Number     Number       Type             X           Y           Z
 ---------------------------------------------------------------------
      1          6           0        0.009900    2.493255    1.360431
      2          6           0        0.014550    3.709258    0.671989
      3          6           0        0.003400    3.698261   -0.713830
      4          6           0       -0.015800    2.472656   -1.407538
      5          6           0       -0.015400   -2.471856   -1.407538
      6          6           0        0.005800   -3.694261   -0.713830
      7          6           0        0.018350   -3.707858    0.671989
      8          6           0        0.017500   -2.490855    1.360431
      9          6           0        0.008850   -0.008800    1.453369
     10          6           0       -0.024400    0.000400   -1.429189
     11          6           0       -0.003950    1.254305    0.677065
     12          6           0       -0.009200    1.238071   -0.730804
     13          6           0       -0.003350   -1.254505    0.677065
     14          6           0       -0.010800   -1.239271   -0.730804
     15          1           0       -0.000200    2.488921    2.443647
     16          1           0        0.014350    4.644003    1.211689
     17          1           0       -0.003500    4.611312   -1.272349
     18          1           0       -0.006700    2.476700   -2.490059
     19          1           0       -0.022500    0.000200   -2.510266
     20          1           0       -0.007900   -2.476100   -2.490059
     21          1           0       -0.002300   -4.606312   -1.272349
     22          1           0        0.018950   -4.641003    1.211689
     23          1           0        0.008600   -2.486321    2.443647
     24          1           0       -0.827585   -0.002000    2.147987
     25          1           0        0.891585   -0.002000    2.143587
 ---------------------------------------------------------------------
                    Distance matrix (angstroms):
                    1          2          3          4          5
     1  C    0.000000
     2  C    1.397368   0.000000
     3  C    2.398883   1.385907   0.000000
     4  C    2.768165   2.419615   1.408441   0.000000
     5  C    5.684595   6.521618   6.209020   4.944512   0.000000
     6  C    6.525943   7.532109   7.392522   6.205849   1.405686
     7  C    6.239217   7.417117   7.534674   6.521070   2.419354
     8  C    4.984116   6.238218   6.527474   5.683239   2.768230
     9  C    2.503781   3.799282   4.294075   3.787218   3.775185
    10  C    3.741321   4.262874   3.766522   2.472366   2.472367
    11  C    1.414983   2.455028   2.812039   2.414558   4.269658
    12  C    2.439081   2.841682   2.460281   1.407911   3.771149
    13  C    3.809576   4.963798   5.144368   4.270533   2.414054
    14  C    4.278486   5.143580   4.937582   3.773115   1.406149
    15  H    1.083272   2.151328   3.381150   3.851251   6.280220
    16  H    2.155890   1.079363   2.145267   3.402353   7.582657
    17  H    3.379035   2.143473   1.070352   2.142960   7.084468
    18  H    3.850561   3.393847   2.155760   1.082567   5.065583
    19  H    4.604201   4.887252   4.111388   2.707230   2.706865
    20  H    6.286579   6.946777   6.424784   5.065777   1.082555
    21  H    7.572023   8.539873   8.323335   7.080272   2.138773
    22  H    7.135814   8.367685   8.558691   7.580614   3.400989
    23  H    5.096031   6.443912   6.943972   6.278827   3.851287
    24  H    2.747348   4.081813   4.751049   4.407343   4.404724
    25  H    2.759891   4.087570   4.758743   4.422415   4.419649
                    6          7          8          9         10
     6  C    0.000000
     7  C    1.385943   0.000000
     8  C    2.398100   1.398231   0.000000
     9  C    4.275440   3.780698   2.483809   0.000000
    10  C    3.763399   4.262388   3.740332   2.882764   0.000000
    11  C    5.140330   4.962216   3.807056   1.482648   2.451327
    12  C    4.932384   5.141089   4.275379   2.515079   1.421197
    13  C    2.808395   2.453454   1.412793   1.467848   2.451843
    14  C    2.455105   2.839472   2.437320   2.507002   1.422923
    15  H    6.942725   6.445090   5.096257   2.686883   4.603497
    16  H    8.557707   8.369282   7.136409   4.659079   5.342171
    17  H    8.324336   8.543390   7.574480   5.364245   4.613626
    18  H    6.421519   6.946073   6.285178   4.661392   2.694034
    19  H    4.108166   4.886523   4.603178   3.963769   1.081079
    20  H    2.153855   3.393592   3.850602   4.651717   2.694210
    21  H    1.069507   2.141984   3.377437   5.344790   4.609434
    22  H    2.145721   1.077978   2.155287   4.638514   5.340294
    23  H    3.380649   2.151980   1.083262   2.668101   4.602579
    24  H    4.745242   4.077690   2.743868   1.087274   3.666238
    25  H    4.752077   4.081853   2.751683   1.120566   3.688328
                   11         12         13         14         15
    11  C    0.000000
    12  C    1.407972   0.000000
    13  C    2.508810   2.862702   0.000000
    14  C    2.863575   2.477343   1.407971   0.000000
    15  H    2.155250   3.412015   4.139331   4.896598   0.000000
    16  H    3.431648   3.920996   5.922713   6.195710   2.482400
    17  H    3.881973   3.416439   6.181264   5.875597   4.279390
    18  H    3.394839   2.151554   4.894137   4.111379   4.933725
    19  H    3.425230   2.167715   3.425453   2.168619   5.543959
    20  H    4.893528   4.109750   3.394553   2.150519   6.999496
    21  H    6.176330   5.869423   3.877477   3.410324   8.009430
    22  H    5.919544   6.191735   3.428511   3.917390   7.235600
    23  H    4.136817   4.893726   2.153677   3.410667   4.975250
    24  H    2.102448   3.239594   2.100415   3.238119   2.641338
    25  H    2.128608   3.257501   2.126115   3.256879   2.662706
                   16         17         18         19         20
    16  H    0.000000
    17  H    2.484317   0.000000
    18  H    4.289590   2.457518   0.000000
    19  H    5.951404   4.774427   2.476633   0.000000
    20  H    8.024917   7.191262   4.952800   2.476425   0.000000
    21  H    9.578050   9.217624   7.186925   4.769989   2.453702
    22  H    9.285007   9.579994   8.022798   5.949406   4.288410
    23  H    7.235971   8.011565   6.998090   5.543014   4.933744
    24  H    4.813611   5.801764   5.322525   4.727313   5.320200
    25  H    4.819058   5.809685   5.331186   4.742774   5.329251
                   21         22         23         24         25
    21  H    0.000000
    22  H    2.484371   0.000000
    23  H    4.278213   2.482032   0.000000
    24  H    5.794781   4.807663   2.637891   0.000000
    25  H    5.802356   4.811473   2.653592   1.719176   0.000000
 Stoichiometry    C14H11(1+)
 Framework group  C1[X(C14H11)]
 Deg. of freedom    69
 Full point group                 C1      NOp   1
 Largest Abelian subgroup         C1      NOp   1
 Largest concise Abelian subgroup C1      NOp   1
                         Standard orientation:                         
 ---------------------------------------------------------------------
 Center     Atomic      Atomic             Coordinates (Angstroms)
 Number     Number       Type             X           Y           Z
 ---------------------------------------------------------------------
      1          6           0       -2.493018   -1.360894   -0.001236
      2          6           0       -3.709135   -0.672731    0.010034
      3          6           0       -3.698378    0.713135    0.011046
      4          6           0       -2.472899    1.407197   -0.002644
      5          6           0        2.471612    1.408051   -0.004588
      6          6           0        3.694144    0.714395    0.009942
      7          6           0        3.707982   -0.671478    0.010319
      8          6           0        2.491095   -1.360097    0.004002
      9          6           0        0.009052   -1.453386   -0.004287
     10          6           0       -0.000652    1.429351   -0.012226
     11          6           0       -1.254190   -0.677218   -0.009673
     12          6           0       -1.238197    0.730645   -0.002571
     13          6           0        1.254620   -0.676789   -0.010262
     14          6           0        1.239144    0.731089   -0.005345
     15          1           0       -2.488505   -2.443979   -0.020847
     16          1           0       -4.643789   -1.212570    0.005539
     17          1           0       -4.611526    1.271534    0.009482
     18          1           0       -2.477122    2.489596    0.015961
     19          1           0       -0.000634    2.510370   -0.000835
     20          1           0        2.475676    2.490465    0.012413
     21          1           0        4.606097    1.273122    0.006313
     22          1           0        4.641218   -1.211001    0.005739
     23          1           0        2.486740   -2.443194   -0.014405
     24          1           0        0.001972   -2.140635   -0.846785
     25          1           0        0.002789   -2.151328    0.872357
 ---------------------------------------------------------------------
 Rotational constants (GHZ):           2.1359407           0.4429659           0.3676813
 Standard basis: 6-311++G(d,p) (5D, 7F)
 There are   399 symmetry adapted cartesian basis functions of A   symmetry.
 There are   385 symmetry adapted basis functions of A   symmetry.
   385 basis functions,   603 primitive gaussians,   399 cartesian basis functions
    47 alpha electrons       47 beta electrons
       nuclear repulsion energy       780.2605405229 Hartrees.
 NAtoms=   25 NActive=   25 NUniq=   25 SFac= 1.00D+00 NAtFMM=   60 NAOKFM=F Big=F
 Integral buffers will be    131072 words long.
 Regular integral format.
 Two-electron integral symmetry is turned on.
 Nuclear repulsion after empirical dispersion term =      780.2595607019 Hartrees.
 One-electron integrals computed using PRISM.
 NBasis=   385 RedAO= T EigKep=  1.20D-06  NBF=   385
 NBsUse=   379 1.00D-06 EigRej=  8.67D-07 NBFU=   379
 ExpMin= 3.60D-02 ExpMax= 4.56D+03 ExpMxC= 6.82D+02 IAcc=3 IRadAn=         5 AccDes= 0.00D+00
 Harris functional with IExCor= 1009 and IRadAn=       5 diagonalized for initial guess.
 HarFok:  IExCor= 1009 AccDes= 0.00D+00 IRadAn=         5 IDoV= 1 UseB2=F ITyADJ=14
 ICtDFT=  3500011 ScaDFX=  1.000000  1.000000  1.000000  1.000000
 FoFCou: FMM=F IPFlag=           0 FMFlag=      100000 FMFlg1=           0
         NFxFlg=           0 DoJE=T BraDBF=F KetDBF=T FulRan=T
         wScrn=  0.000000 ICntrl=       500 IOpCl=  0 I1Cent=   200000004 NGrid=           0
         NMat0=    1 NMatS0=      1 NMatT0=    0 NMatD0=    1 NMtDS0=    0 NMtDT0=    0
 Petite list used in FoFCou.
 Requested convergence on RMS density matrix=1.00D-08 within 128 cycles.
 Requested convergence on MAX density matrix=1.00D-06.
 Requested convergence on             energy=1.00D-06.
 No special actions if energy rises.
 SCF Done:  E(RM062X) =  -539.758691207     A.U. after   15 cycles
            NFock= 15  Conv=0.45D-08     -V/T= 2.0043
 DoSCS=F DFT=T ScalE2(SS,OS)=  1.000000  1.000000
 ExpMin= 3.60D-02 ExpMax= 4.56D+03 ExpMxC= 6.82D+02 IAcc=3 IRadAn=         5 AccDes= 0.00D+00
 HarFok:  IExCor=  205 AccDes= 0.00D+00 IRadAn=         5 IDoV=-2 UseB2=F ITyADJ=14
 ICtDFT= 12500011 ScaDFX=  1.000000  1.000000  1.000000  1.000000
 Range of M.O.s used for correlation:    15   379
 NBasis=   385 NAE=    47 NBE=    47 NFC=    14 NFV=     0
 NROrb=    365 NOA=    33 NOB=    33 NVA=   332 NVB=   332

 **** Warning!!: The largest alpha MO coefficient is  0.15024154D+03

 Orbital symmetries:
       Occupied  (A) (A) (A) (A) (A) (A) (A) (A) (A) (A) (A) (A)
                 (A) (A) (A) (A) (A) (A) (A) (A) (A) (A) (A) (A)
                 (A) (A) (A) (A) (A) (A) (A) (A) (A) (A) (A) (A)
                 (A) (A) (A) (A) (A) (A) (A) (A) (A) (A) (A)
       Virtual   (A) (A) (A) (A) (A) (A) (A) (A) (A) (A) (A) (A)
                 (A) (A) (A) (A) (A) (A) (A) (A) (A) (A) (A) (A)
                 (A) (A) (A) (A) (A) (A) (A) (A) (A) (A) (A) (A)
                 (A) (A) (A) (A) (A) (A) (A) (A) (A) (A) (A) (A)
                 (A) (A) (A) (A) (A) (A) (A) (A) (A) (A) (A) (A)
                 (A) (A) (A) (A) (A) (A) (A) (A) (A) (A) (A) (A)
                 (A) (A) (A) (A) (A) (A) (A) (A) (A) (A) (A) (A)
                 (A) (A) (A) (A) (A) (A) (A) (A) (A) (A) (A) (A)
                 (A) (A) (A) (A) (A) (A) (A) (A) (A) (A) (A) (A)
                 (A) (A) (A) (A) (A) (A) (A) (A) (A) (A) (A) (A)
                 (A) (A) (A) (A) (A) (A) (A) (A) (A) (A) (A) (A)
                 (A) (A) (A) (A) (A) (A) (A) (A) (A) (A) (A) (A)
                 (A) (A) (A) (A) (A) (A) (A) (A) (A) (A) (A) (A)
                 (A) (A) (A) (A) (A) (A) (A) (A) (A) (A) (A) (A)
                 (A) (A) (A) (A) (A) (A) (A) (A) (A) (A) (A) (A)
                 (A) (A) (A) (A) (A) (A) (A) (A) (A) (A) (A) (A)
                 (A) (A) (A) (A) (A) (A) (A) (A) (A) (A) (A) (A)
                 (A) (A) (A) (A) (A) (A) (A) (A) (A) (A) (A) (A)
                 (A) (A) (A) (A) (A) (A) (A) (A) (A) (A) (A) (A)
                 (A) (A) (A) (A) (A) (A) (A) (A) (A) (A) (A) (A)
                 (A) (A) (A) (A) (A) (A) (A) (A) (A) (A) (A) (A)
                 (A) (A) (A) (A) (A) (A) (A) (A) (A) (A) (A) (A)
                 (A) (A) (A) (A) (A) (A) (A) (A) (A) (A) (A) (A)
                 (A) (A) (A) (A) (A) (A) (A) (A) (A) (A) (A) (A)
                 (A) (A) (A) (A) (A) (A) (A) (A) (A) (A) (A) (A)
                 (A) (A) (A) (A) (A) (A) (A) (A) (A) (A) (A) (A)
                 (A) (A) (A) (A) (A) (A) (A) (A) (A) (A) (A) (A)
                 (A) (A) (A) (A) (A) (A) (A) (A)
     4 initial guesses have been made.
 Convergence on wavefunction:    0.001000000000000
 Iteration     1 Dimension     4 NMult     0 NNew      4
 CISAX will form     4 AO SS matrices at one time.
 Iteration     2 Dimension     6 NMult     4 NNew      2
 Iteration     3 Dimension     8 NMult     6 NNew      2
 Iteration     4 Dimension    10 NMult     8 NNew      2
 Iteration     5 Dimension    12 NMult    10 NNew      2
 Iteration     6 Dimension    14 NMult    12 NNew      2
 ***********************************************************************
 Excited states from <AA,BB:AA,BB> singles matrix:
 ***********************************************************************
 
 Ground to excited state transition densities written to RWF  633
 Ground to excited state transition electric dipole moments (Au):
       state          X           Y           Z        Dip. S.      Osc.
         1         0.0118     -0.6374      0.0037      0.4065      0.0279
 Ground to excited state transition velocity dipole moments (Au):
       state          X           Y           Z        Dip. S.      Osc.
         1        -0.0013      0.0734     -0.0005      0.0054      0.0349
 Ground to excited state transition magnetic dipole moments (Au):
       state          X           Y           Z
         1        -0.0054      0.0009     -0.0002
 Ground to excited state transition velocity quadrupole moments (Au):
       state          XX          YY          ZZ          XY          XZ          YZ
         1         0.3081      0.0325     -0.0096     -0.0017     -0.0001      0.0006
 <0|del|b> * <b|rxdel|0> + <0|del|b> * <b|delr+rdel|0>
 Rotatory Strengths (R) in cgs (10**-40 erg-esu-cm/Gauss)
       state          XX          YY          ZZ    R(velocity)    E-M Angle
         1         0.2538      0.0181      0.2085      0.1602       90.00
 1/2[<0|r|b>*<b|rxdel|0> + (<0|rxdel|b>*<b|r|0>)*]
 Rotatory Strengths (R) in cgs (10**-40 erg-esu-cm/Gauss)
       state          XX          YY          ZZ     R(length)
         1         0.0448      0.3882      0.0005      0.1445
  1/2[<0|del|b>*<b|r|0> + (<0|r|b>*<b|del|0>)*] (Au)
       state          X           Y           Z        Dip. S.   Osc.(frdel)
         1        -0.0000     -0.0468     -0.0000      0.0468      0.0312

 Excitation energies and oscillator strengths:
 
 Excited State   1:      Singlet-A      2.8051 eV  442.00 nm  f=0.0279  <S**2>=0.000
      47 -> 48         0.70427
 This state for optimization and/or second-order correction.
 Total Energy, E(TD-HF/TD-DFT) =  -539.655605970    
 Copying the excited state density for this state as the 1-particle RhoCI density.
 SavETr:  write IOETrn=   770 NScale= 10 NData=  16 NLR=1 NState=    1 LETran=      28.

 **********************************************************************

            Population analysis using the SCF Density.

 **********************************************************************

 Orbital symmetries:
       Occupied  (A) (A) (A) (A) (A) (A) (A) (A) (A) (A) (A) (A)
                 (A) (A) (A) (A) (A) (A) (A) (A) (A) (A) (A) (A)
                 (A) (A) (A) (A) (A) (A) (A) (A) (A) (A) (A) (A)
                 (A) (A) (A) (A) (A) (A) (A) (A) (A) (A) (A)
       Virtual   (A) (A) (A) (A) (A) (A) (A) (A) (A) (A) (A) (A)
                 (A) (A) (A) (A) (A) (A) (A) (A) (A) (A) (A) (A)
                 (A) (A) (A) (A) (A) (A) (A) (A) (A) (A) (A) (A)
                 (A) (A) (A) (A) (A) (A) (A) (A) (A) (A) (A) (A)
                 (A) (A) (A) (A) (A) (A) (A) (A) (A) (A) (A) (A)
                 (A) (A) (A) (A) (A) (A) (A) (A) (A) (A) (A) (A)
                 (A) (A) (A) (A) (A) (A) (A) (A) (A) (A) (A) (A)
                 (A) (A) (A) (A) (A) (A) (A) (A) (A) (A) (A) (A)
                 (A) (A) (A) (A) (A) (A) (A) (A) (A) (A) (A) (A)
                 (A) (A) (A) (A) (A) (A) (A) (A) (A) (A) (A) (A)
                 (A) (A) (A) (A) (A) (A) (A) (A) (A) (A) (A) (A)
                 (A) (A) (A) (A) (A) (A) (A) (A) (A) (A) (A) (A)
                 (A) (A) (A) (A) (A) (A) (A) (A) (A) (A) (A) (A)
                 (A) (A) (A) (A) (A) (A) (A) (A) (A) (A) (A) (A)
                 (A) (A) (A) (A) (A) (A) (A) (A) (A) (A) (A) (A)
                 (A) (A) (A) (A) (A) (A) (A) (A) (A) (A) (A) (A)
                 (A) (A) (A) (A) (A) (A) (A) (A) (A) (A) (A) (A)
                 (A) (A) (A) (A) (A) (A) (A) (A) (A) (A) (A) (A)
                 (A) (A) (A) (A) (A) (A) (A) (A) (A) (A) (A) (A)
                 (A) (A) (A) (A) (A) (A) (A) (A) (A) (A) (A) (A)
                 (A) (A) (A) (A) (A) (A) (A) (A) (A) (A) (A) (A)
                 (A) (A) (A) (A) (A) (A) (A) (A) (A) (A) (A) (A)
                 (A) (A) (A) (A) (A) (A) (A) (A) (A) (A) (A) (A)
                 (A) (A) (A) (A) (A) (A) (A) (A) (A) (A) (A) (A)
                 (A) (A) (A) (A) (A) (A) (A) (A) (A) (A) (A) (A)
                 (A) (A) (A) (A) (A) (A) (A) (A) (A) (A) (A) (A)
                 (A) (A) (A) (A) (A) (A) (A) (A) (A) (A) (A) (A)
                 (A) (A) (A) (A) (A) (A) (A) (A)
 The electronic state is 1-A.
 Alpha  occ. eigenvalues --  -10.77658 -10.73328 -10.73218 -10.72523 -10.72518
 Alpha  occ. eigenvalues --  -10.71503 -10.71444 -10.71077 -10.71058 -10.70983
 Alpha  occ. eigenvalues --  -10.70106 -10.70064 -10.69624 -10.69570  -1.16379
 Alpha  occ. eigenvalues --   -1.12253  -1.06837  -1.05798  -1.01120  -1.00196
 Alpha  occ. eigenvalues --   -0.95704  -0.91074  -0.86410  -0.85865  -0.83806
 Alpha  occ. eigenvalues --   -0.78390  -0.76010  -0.74375  -0.69577  -0.69306
 Alpha  occ. eigenvalues --   -0.68590  -0.68246  -0.68139  -0.64583  -0.64152
 Alpha  occ. eigenvalues --   -0.63171  -0.61996  -0.59922  -0.59521  -0.59145
 Alpha  occ. eigenvalues --   -0.56924  -0.55271  -0.54890  -0.52356  -0.46492
 Alpha  occ. eigenvalues --   -0.46046  -0.44406
 Alpha virt. eigenvalues --   -0.26071  -0.14788  -0.14127  -0.12902  -0.11177
 Alpha virt. eigenvalues --   -0.10081  -0.09214  -0.08004  -0.07933  -0.07469
 Alpha virt. eigenvalues --   -0.07219  -0.07145  -0.05646  -0.05582  -0.05353
 Alpha virt. eigenvalues --   -0.03794  -0.03644  -0.03283  -0.03133  -0.02158
 Alpha virt. eigenvalues --   -0.01359  -0.00912   0.00191   0.00638   0.00700
 Alpha virt. eigenvalues --    0.01044   0.01513   0.01900   0.02204   0.02294
 Alpha virt. eigenvalues --    0.02428   0.02630   0.02719   0.03287   0.03393
 Alpha virt. eigenvalues --    0.04249   0.04500   0.04687   0.04975   0.05356
 Alpha virt. eigenvalues --    0.06021   0.06287   0.06597   0.07037   0.07224
 Alpha virt. eigenvalues --    0.07864   0.08066   0.08356   0.08491   0.08934
 Alpha virt. eigenvalues --    0.09558   0.09574   0.10027   0.10779   0.11029
 Alpha virt. eigenvalues --    0.11120   0.12209   0.12277   0.12883   0.13025
 Alpha virt. eigenvalues --    0.13408   0.13534   0.14027   0.14274   0.16065
 Alpha virt. eigenvalues --    0.16334   0.16554   0.17386   0.17554   0.17693
 Alpha virt. eigenvalues --    0.18098   0.18957   0.19177   0.19594   0.19715
 Alpha virt. eigenvalues --    0.21467   0.21511   0.22709   0.23127   0.23548
 Alpha virt. eigenvalues --    0.23579   0.24549   0.25010   0.26857   0.27497
 Alpha virt. eigenvalues --    0.28833   0.29282   0.29830   0.31236   0.35799
 Alpha virt. eigenvalues --    0.36267   0.38022   0.39169   0.41162   0.41470
 Alpha virt. eigenvalues --    0.41943   0.42326   0.43024   0.43575   0.44272
 Alpha virt. eigenvalues --    0.44753   0.44852   0.45608   0.46067   0.47928
 Alpha virt. eigenvalues --    0.48592   0.48902   0.49064   0.50456   0.51165
 Alpha virt. eigenvalues --    0.51436   0.51461   0.52120   0.52619   0.53999
 Alpha virt. eigenvalues --    0.54117   0.54523   0.55734   0.55761   0.57451
 Alpha virt. eigenvalues --    0.58197   0.58775   0.61394   0.62087   0.62321
 Alpha virt. eigenvalues --    0.63011   0.63594   0.64636   0.65133   0.67106
 Alpha virt. eigenvalues --    0.70400   0.70607   0.70970   0.72231   0.72771
 Alpha virt. eigenvalues --    0.75661   0.75743   0.76182   0.76695   0.76985
 Alpha virt. eigenvalues --    0.77568   0.77727   0.78142   0.80342   0.80407
 Alpha virt. eigenvalues --    0.81179   0.81556   0.82066   0.82886   0.84953
 Alpha virt. eigenvalues --    0.86908   0.87624   0.88079   0.89509   0.90441
 Alpha virt. eigenvalues --    0.90781   0.91412   0.93081   0.94682   0.96404
 Alpha virt. eigenvalues --    0.96676   1.00469   1.01278   1.01565   1.02624
 Alpha virt. eigenvalues --    1.03047   1.03878   1.04523   1.05764   1.08769
 Alpha virt. eigenvalues --    1.19754   1.23332   1.24073   1.25332   1.27963
 Alpha virt. eigenvalues --    1.29349   1.32031   1.33845   1.35486   1.35929
 Alpha virt. eigenvalues --    1.39137   1.40199   1.40633   1.42823   1.43199
 Alpha virt. eigenvalues --    1.43398   1.45007   1.45151   1.46458   1.46758
 Alpha virt. eigenvalues --    1.47571   1.47674   1.51623   1.53593   1.55588
 Alpha virt. eigenvalues --    1.56036   1.56050   1.56415   1.57633   1.61274
 Alpha virt. eigenvalues --    1.63411   1.63892   1.64012   1.65995   1.68055
 Alpha virt. eigenvalues --    1.68480   1.68611   1.69704   1.74060   1.75935
 Alpha virt. eigenvalues --    1.77055   1.77916   1.79678   1.79969   1.80281
 Alpha virt. eigenvalues --    1.83116   1.83151   1.83447   1.83606   1.84072
 Alpha virt. eigenvalues --    1.84304   1.85791   1.85838   1.88118   1.91483
 Alpha virt. eigenvalues --    1.91809   1.94126   1.95240   1.97464   1.97770
 Alpha virt. eigenvalues --    1.99376   2.02403   2.04127   2.07517   2.11624
 Alpha virt. eigenvalues --    2.11956   2.13741   2.15127   2.18615   2.21057
 Alpha virt. eigenvalues --    2.22322   2.28419   2.29761   2.34442   2.35211
 Alpha virt. eigenvalues --    2.36043   2.39085   2.40181   2.42043   2.43005
 Alpha virt. eigenvalues --    2.46112   2.47777   2.48828   2.52633   2.53757
 Alpha virt. eigenvalues --    2.54177   2.56884   2.57782   2.58262   2.59632
 Alpha virt. eigenvalues --    2.59675   2.61656   2.61781   2.63328   2.63778
 Alpha virt. eigenvalues --    2.64490   2.64697   2.65009   2.65213   2.67825
 Alpha virt. eigenvalues --    2.68774   2.70872   2.71359   2.73348   2.74814
 Alpha virt. eigenvalues --    2.76248   2.78376   2.79574   2.82448   2.82923
 Alpha virt. eigenvalues --    2.84415   2.86271   2.92052   2.96700   2.99363
 Alpha virt. eigenvalues --    2.99747   3.05547   3.10355   3.10814   3.12061
 Alpha virt. eigenvalues --    3.20863   3.23755   3.26127   3.27833   3.30358
 Alpha virt. eigenvalues --    3.31837   3.33082   3.43332   3.45231   3.45802
 Alpha virt. eigenvalues --    3.47730   3.49524   3.56276   3.65466   3.67097
 Alpha virt. eigenvalues --    3.67580   3.94443   3.95258   3.95771   3.96697
 Alpha virt. eigenvalues --    4.04445   4.06948   4.07137   4.12471   4.35625
 Alpha virt. eigenvalues --    4.61494   4.69125   4.70864  23.45530  23.61248
 Alpha virt. eigenvalues --   23.81708  23.85821  23.87517  23.89093  23.90463
 Alpha virt. eigenvalues --   23.92226  23.96983  23.97910  23.98299  23.99383
 Alpha virt. eigenvalues --   24.09558  24.09833
          Condensed to atoms (all electrons):
               1          2          3          4          5          6
     1  C    8.422080   0.433229  -0.571024   1.811732  -0.010151  -0.089879
     2  C    0.433229   6.979798   0.354499  -0.930659  -0.030377  -0.014204
     3  C   -0.571024   0.354499   6.569733   0.658722  -0.116688   0.016433
     4  C    1.811732  -0.930659   0.658722  10.644799  -0.204166  -0.118664
     5  C   -0.010151  -0.030377  -0.116688  -0.204166  10.659565   0.684008
     6  C   -0.089879  -0.014204   0.016433  -0.118664   0.684008   6.575637
     7  C   -0.024196   0.004048  -0.014008  -0.028870  -0.959375   0.360855
     8  C    0.392825  -0.027464  -0.089641   0.001895   1.785364  -0.557078
     9  C   -1.243052  -0.712522   0.291211  -0.303151  -0.313033   0.287730
    10  C   -1.189765   0.207693  -0.337109  -2.450878  -2.453712  -0.347809
    11  C    0.213019  -0.926212   1.064368  -0.494588  -1.561285  -0.155371
    12  C   -1.741820   1.186445  -1.343988  -1.173872  -0.236528  -0.208196
    13  C    0.142563  -0.210683  -0.149588  -1.552254  -0.473013   1.058820
    14  C   -1.024949  -0.200128  -0.207955  -0.235207  -1.145934  -1.367619
    15  H    0.363190  -0.102715  -0.000664   0.025946   0.005608   0.001111
    16  H   -0.019876   0.379349  -0.018235   0.013758  -0.001509  -0.000319
    17  H   -0.021539  -0.019908   0.379251  -0.063880   0.000096   0.000387
    18  H    0.046863   0.006308  -0.090019   0.448356   0.009000  -0.004880
    19  H   -0.046082  -0.008316   0.052000  -0.075454  -0.074676   0.051954
    20  H    0.007186   0.001828  -0.004843   0.009217   0.450413  -0.088915
    21  H   -0.001269  -0.000377   0.000383   0.000067  -0.064087   0.379442
    22  H    0.000605   0.000346  -0.000315  -0.001473   0.013257  -0.017734
    23  H    0.005608  -0.002573   0.001105   0.005568   0.026290  -0.000547
    24  H    0.023906   0.015922  -0.001441  -0.013769  -0.012060  -0.001985
    25  H    0.039355   0.012242  -0.001361  -0.011635  -0.013248  -0.000651
               7          8          9         10         11         12
     1  C   -0.024196   0.392825  -1.243052  -1.189765   0.213019  -1.741820
     2  C    0.004048  -0.027464  -0.712522   0.207693  -0.926212   1.186445
     3  C   -0.014008  -0.089641   0.291211  -0.337109   1.064368  -1.343988
     4  C   -0.028870   0.001895  -0.303151  -2.450878  -0.494588  -1.173872
     5  C   -0.959375   1.785364  -0.313033  -2.453712  -1.561285  -0.236528
     6  C    0.360855  -0.557078   0.287730  -0.347809  -0.155371  -0.208196
     7  C    7.027492   0.425933  -0.732574   0.216941  -0.226946  -0.203935
     8  C    0.425933   8.439669  -1.271948  -1.190873   0.126548  -1.053775
     9  C   -0.732574  -1.271948   9.300739   0.294819   1.632817  -1.750406
    10  C    0.216941  -1.190873   0.294819   9.093112  -0.413827   2.204320
    11  C   -0.226946   0.126548   1.632817  -0.413827  14.512591  -3.645542
    12  C   -0.203935  -1.053775  -1.750406   2.204320  -3.645542  15.483054
    13  C   -0.938350   0.266863   1.649135  -0.400213   1.239189  -4.749230
    14  C    1.214186  -1.722154  -1.740071   2.198198  -4.789818   2.795768
    15  H   -0.002702   0.005722   0.089168  -0.009565  -0.026067  -0.023493
    16  H    0.000358   0.000724   0.004037  -0.009874   0.026890  -0.032747
    17  H   -0.000382  -0.001305  -0.004735   0.019605  -0.025000   0.083603
    18  H    0.001836   0.007384  -0.025821   0.020443  -0.016869  -0.044240
    19  H   -0.008139  -0.046194   0.074033   0.422800   0.084081  -0.067018
    20  H    0.005232   0.046957  -0.025937   0.019363  -0.012656  -0.010463
    21  H   -0.019327  -0.022306  -0.004765   0.019689  -0.006003   0.004799
    22  H    0.380060  -0.021519   0.003296  -0.009494   0.002739  -0.008676
    23  H   -0.104386   0.361818   0.088995  -0.009677   0.000948   0.006525
    24  H    0.014228   0.019708   0.367369   0.006379   0.006256  -0.045185
    25  H    0.014425   0.045019   0.348011   0.005167   0.019745  -0.074503
              13         14         15         16         17         18
     1  C    0.142563  -1.024949   0.363190  -0.019876  -0.021539   0.046863
     2  C   -0.210683  -0.200128  -0.102715   0.379349  -0.019908   0.006308
     3  C   -0.149588  -0.207955  -0.000664  -0.018235   0.379251  -0.090019
     4  C   -1.552254  -0.235207   0.025946   0.013758  -0.063880   0.448356
     5  C   -0.473013  -1.145934   0.005608  -0.001509   0.000096   0.009000
     6  C    1.058820  -1.367619   0.001111  -0.000319   0.000387  -0.004880
     7  C   -0.938350   1.214186  -0.002702   0.000358  -0.000382   0.001836
     8  C    0.266863  -1.722154   0.005722   0.000724  -0.001305   0.007384
     9  C    1.649135  -1.740071   0.089168   0.004037  -0.004735  -0.025821
    10  C   -0.400213   2.198198  -0.009565  -0.009874   0.019605   0.020443
    11  C    1.239189  -4.789818  -0.026067   0.026890  -0.025000  -0.016869
    12  C   -4.749230   2.795768  -0.023493  -0.032747   0.083603  -0.044240
    13  C   14.363635  -3.669408   0.000613   0.002852  -0.005864  -0.012051
    14  C   -3.669408  15.446360   0.006335  -0.008873   0.004757  -0.009584
    15  H    0.000613   0.006335   0.439553  -0.009024   0.001538   0.000124
    16  H    0.002852  -0.008873  -0.009024   0.419907  -0.006843   0.001969
    17  H   -0.005864   0.004757   0.001538  -0.006843   0.423865  -0.010370
    18  H   -0.012051  -0.009584   0.000124   0.001969  -0.010370   0.453971
    19  H    0.084191  -0.068135   0.000330  -0.000561   0.001457  -0.006412
    20  H   -0.016429  -0.043913  -0.000120   0.000015  -0.000146   0.001307
    21  H   -0.025639   0.084801   0.000016  -0.000007   0.000011  -0.000148
    22  H    0.025908  -0.030224  -0.000127   0.000007  -0.000007   0.000016
    23  H   -0.024874  -0.022900   0.000578  -0.000127   0.000017  -0.000124
    24  H    0.007111  -0.047769  -0.001250   0.000691  -0.000174   0.000136
    25  H    0.020284  -0.071512  -0.000598   0.000548  -0.000117   0.000233
              19         20         21         22         23         24
     1  C   -0.046082   0.007186  -0.001269   0.000605   0.005608   0.023906
     2  C   -0.008316   0.001828  -0.000377   0.000346  -0.002573   0.015922
     3  C    0.052000  -0.004843   0.000383  -0.000315   0.001105  -0.001441
     4  C   -0.075454   0.009217   0.000067  -0.001473   0.005568  -0.013769
     5  C   -0.074676   0.450413  -0.064087   0.013257   0.026290  -0.012060
     6  C    0.051954  -0.088915   0.379442  -0.017734  -0.000547  -0.001985
     7  C   -0.008139   0.005232  -0.019327   0.380060  -0.104386   0.014228
     8  C   -0.046194   0.046957  -0.022306  -0.021519   0.361818   0.019708
     9  C    0.074033  -0.025937  -0.004765   0.003296   0.088995   0.367369
    10  C    0.422800   0.019363   0.019689  -0.009494  -0.009677   0.006379
    11  C    0.084081  -0.012656  -0.006003   0.002739   0.000948   0.006256
    12  C   -0.067018  -0.010463   0.004799  -0.008676   0.006525  -0.045185
    13  C    0.084191  -0.016429  -0.025639   0.025908  -0.024874   0.007111
    14  C   -0.068135  -0.043913   0.084801  -0.030224  -0.022900  -0.047769
    15  H    0.000330  -0.000120   0.000016  -0.000127   0.000578  -0.001250
    16  H   -0.000561   0.000015  -0.000007   0.000007  -0.000127   0.000691
    17  H    0.001457  -0.000146   0.000011  -0.000007   0.000017  -0.000174
    18  H   -0.006412   0.001307  -0.000148   0.000016  -0.000124   0.000136
    19  H    0.445307  -0.006392   0.001476  -0.000567   0.000317   0.000631
    20  H   -0.006392   0.453824  -0.010523   0.001938   0.000147   0.000171
    21  H    0.001476  -0.010523   0.424394  -0.006886   0.001541  -0.000189
    22  H   -0.000567   0.001938  -0.006886   0.419914  -0.009001   0.000758
    23  H    0.000317   0.000147   0.001541  -0.009001   0.440092  -0.001491
    24  H    0.000631   0.000171  -0.000189   0.000758  -0.001491   0.492432
    25  H    0.000589   0.000187  -0.000099   0.000484  -0.000358  -0.078920
              25
     1  C    0.039355
     2  C    0.012242
     3  C   -0.001361
     4  C   -0.011635
     5  C   -0.013248
     6  C   -0.000651
     7  C    0.014425
     8  C    0.045019
     9  C    0.348011
    10  C    0.005167
    11  C    0.019745
    12  C   -0.074503
    13  C    0.020284
    14  C   -0.071512
    15  H   -0.000598
    16  H    0.000548
    17  H   -0.000117
    18  H    0.000233
    19  H    0.000589
    20  H    0.000187
    21  H   -0.000099
    22  H    0.000484
    23  H   -0.000358
    24  H   -0.078920
    25  H    0.492291
 Mulliken charges:
               1
     1  C    0.081442
     2  C   -0.395568
     3  C   -0.440824
     4  C    0.038461
     5  C    0.036245
     6  C   -0.442524
     7  C   -0.402404
     8  C    0.077830
     9  C   -0.303342
    10  C    0.094267
    11  C   -0.629007
    12  C    0.649105
    13  C   -0.633567
    14  C    0.655744
    15  H    0.236494
    16  H    0.256890
    17  H    0.245682
    18  H    0.222573
    19  H    0.188779
    20  H    0.222554
    21  H    0.245006
    22  H    0.256696
    23  H    0.236509
    24  H    0.248534
    25  H    0.254424
 Sum of Mulliken charges =   1.00000
 Mulliken charges with hydrogens summed into heavy atoms:
               1
     1  C    0.317936
     2  C   -0.138678
     3  C   -0.195141
     4  C    0.261034
     5  C    0.258799
     6  C   -0.197518
     7  C   -0.145708
     8  C    0.314339
     9  C    0.199616
    10  C    0.283046
    11  C   -0.629007
    12  C    0.649105
    13  C   -0.633567
    14  C    0.655744
 Electronic spatial extent (au):  <R**2>=           2863.8067
 Charge=              1.0000 electrons
 Dipole moment (field-independent basis, Debye):
    X=             -0.0108    Y=              0.1908    Z=              0.0014  Tot=              0.1911
 Quadrupole moment (field-independent basis, Debye-Ang):
   XX=            -30.9427   YY=            -56.2606   ZZ=            -84.2067
   XY=             -0.0061   XZ=             -0.0098   YZ=              0.0978
 Traceless Quadrupole moment (field-independent basis, Debye-Ang):
   XX=             26.1940   YY=              0.8761   ZZ=            -27.0700
   XY=             -0.0061   XZ=             -0.0098   YZ=              0.0978
 Octapole moment (field-independent basis, Debye-Ang**2):
  XXX=             -0.4423  YYY=              5.2052  ZZZ=             -0.0184  XYY=              0.0051
  XXY=             -4.5352  XXZ=              0.1782  XZZ=              0.0519  YZZ=             -3.0866
  YYZ=              0.1017  XYZ=             -0.0496
 Hexadecapole moment (field-independent basis, Debye-Ang**3):
 XXXX=          -2125.6226 YYYY=           -609.3324 ZZZZ=            -99.5740 XXXY=             -0.2485
 XXXZ=             -0.2814 YYYX=              0.1021 YYYZ=              1.1001 ZZZX=             -0.0135
 ZZZY=              0.0325 XXYY=           -509.1042 XXZZ=           -592.9518 YYZZ=           -145.7900
 XXYZ=              1.0381 YYXZ=             -0.0000 ZZXY=             -0.0052
 N-N= 7.802595607019D+02 E-N=-2.796807739128D+03  KE= 5.374477710001D+02
 Unable to Open any file for archive entry.
 1\1\GINC-GADI-CPU-CLX-0113\SP\RM062X TD-FC\6-311++G(d,p)\C14H11(1+)\TS
 1578\28-Jul-2022\0\\#n M062X/6-311++G(d,p) TD(NStates=1) EmpiricalDisp
 ersion=GD3 SP\\SP_-150\\1,1\C,0,0.0099,2.493255,1.360431\C,0,0.01455,3
 .709258,0.671989\C,0,0.0034,3.698261,-0.71383\C,0,-0.0158,2.472656,-1.
 407538\C,0,-0.0154,-2.471856,-1.407538\C,0,0.0058,-3.694261,-0.71383\C
 ,0,0.01835,-3.707858,0.671989\C,0,0.0175,-2.490855,1.360431\C,0,0.0088
 5,-0.0088,1.453369\C,0,-0.0244,0.0004,-1.429189\C,0,-0.00395,1.254305,
 0.677065\C,0,-0.0092,1.238071,-0.730804\C,0,-0.00335,-1.254505,0.67706
 5\C,0,-0.0108,-1.239271,-0.730804\H,0,-0.0002,2.488921,2.443647\H,0,0.
 01435,4.644003,1.211689\H,0,-0.0035,4.611312,-1.272349\H,0,-0.0067,2.4
 767,-2.490059\H,0,-0.0225,0.0002,-2.510266\H,0,-0.0079,-2.4761,-2.4900
 59\H,0,-0.0023,-4.606312,-1.272349\H,0,0.01895,-4.641003,1.211689\H,0,
 0.0086,-2.486321,2.443647\H,0,-0.827585,-0.002,2.147987\H,0,0.891585,-
 0.002,2.143587\\Version=ES64L-G16RevC.01\State=1-A\HF=-539.7586912\RMS
 D=4.546e-09\PG=C01 [X(C14H11)]\\@
 The archive entry for this job was punched.


 ADAM SMITH SAID, "THE REAL PRICE OF ANYTHING IS THE TOIL AND TROUBLE
 OF ACQUIRING IT."  BUT IN ALL UNDERTAKINGS WITH NATURE WE SHOULD FIRST
 READ CAREFULLY THE SMALL PRINT IN THE CONTRACT. THIS MIGHT DISCLOSE
 THAT THE REAL PRICE IS TO BE PAID BY THOSE WHO INHERIT THE DEPLETION
 AND DESPOILATION THAT FOLLOWS.
                               -- E. R. HARRISON IN "COSMOLOGY" (1980)
 Job cpu time:       0 days  1 hours 19 minutes 37.8 seconds.
 Elapsed time:       0 days  0 hours  1 minutes 39.7 seconds.
 File lengths (MBytes):  RWF=    460 Int=      0 D2E=      0 Chk=     15 Scr=      1
 Normal termination of Gaussian 16 at Thu Jul 28 12:58:39 2022.
