 Entering Gaussian System, Link 0=g16
 Initial command:
 /apps/gaussian/g16c01/g16/l1.exe "/jobfs/53002009.gadi-pbs/Gau-768768.inp" -scrdir="/jobfs/53002009.gadi-pbs/"
 Entering Link 1 = /apps/gaussian/g16c01/g16/l1.exe PID=    768769.
  
 Copyright (c) 1988-2019, Gaussian, Inc.  All Rights Reserved.
  
 This is part of the Gaussian(R) 16 program.  It is based on
 the Gaussian(R) 09 system (copyright 2009, Gaussian, Inc.),
 the Gaussian(R) 03 system (copyright 2003, Gaussian, Inc.),
 the Gaussian(R) 98 system (copyright 1998, Gaussian, Inc.),
 the Gaussian(R) 94 system (copyright 1995, Gaussian, Inc.),
 the Gaussian 92(TM) system (copyright 1992, Gaussian, Inc.),
 the Gaussian 90(TM) system (copyright 1990, Gaussian, Inc.),
 the Gaussian 88(TM) system (copyright 1988, Gaussian, Inc.),
 the Gaussian 86(TM) system (copyright 1986, Carnegie Mellon
 University), and the Gaussian 82(TM) system (copyright 1983,
 Carnegie Mellon University). Gaussian is a federally registered
 trademark of Gaussian, Inc.
  
 This software contains proprietary and confidential information,
 including trade secrets, belonging to Gaussian, Inc.
  
 This software is provided under written license and may be
 used, copied, transmitted, or stored only in accord with that
 written license.
  
 The following legend is applicable only to US Government
 contracts under FAR:
  
                    RESTRICTED RIGHTS LEGEND
  
 Use, reproduction and disclosure by the US Government is
 subject to restrictions as set forth in subparagraphs (a)
 and (c) of the Commercial Computer Software - Restricted
 Rights clause in FAR 52.227-19.
  
 Gaussian, Inc.
 340 Quinnipiac St., Bldg. 40, Wallingford CT 06492
  
  
 ---------------------------------------------------------------
 Warning -- This program may not be used in any manner that
 competes with the business of Gaussian, Inc. or will provide
 assistance to any competitor of Gaussian, Inc.  The licensee
 of this program is prohibited from giving any competitor of
 Gaussian, Inc. access to this program.  By using this program,
 the user acknowledges that Gaussian, Inc. is engaged in the
 business of creating and licensing software in the field of
 computational chemistry and represents and warrants to the
 licensee that it is not a competitor of Gaussian, Inc. and that
 it will not use this program in any manner prohibited above.
 ---------------------------------------------------------------
  

 Cite this work as:
 Gaussian 16, Revision C.01,
 M. J. Frisch, G. W. Trucks, H. B. Schlegel, G. E. Scuseria, 
 M. A. Robb, J. R. Cheeseman, G. Scalmani, V. Barone, 
 G. A. Petersson, H. Nakatsuji, X. Li, M. Caricato, A. V. Marenich, 
 J. Bloino, B. G. Janesko, R. Gomperts, B. Mennucci, H. P. Hratchian, 
 J. V. Ortiz, A. F. Izmaylov, J. L. Sonnenberg, D. Williams-Young, 
 F. Ding, F. Lipparini, F. Egidi, J. Goings, B. Peng, A. Petrone, 
 T. Henderson, D. Ranasinghe, V. G. Zakrzewski, J. Gao, N. Rega, 
 G. Zheng, W. Liang, M. Hada, M. Ehara, K. Toyota, R. Fukuda, 
 J. Hasegawa, M. Ishida, T. Nakajima, Y. Honda, O. Kitao, H. Nakai, 
 T. Vreven, K. Throssell, J. A. Montgomery, Jr., J. E. Peralta, 
 F. Ogliaro, M. J. Bearpark, J. J. Heyd, E. N. Brothers, K. N. Kudin, 
 V. N. Staroverov, T. A. Keith, R. Kobayashi, J. Normand, 
 K. Raghavachari, A. P. Rendell, J. C. Burant, S. S. Iyengar, 
 J. Tomasi, M. Cossi, J. M. Millam, M. Klene, C. Adamo, R. Cammi, 
 J. W. Ochterski, R. L. Martin, K. Morokuma, O. Farkas, 
 J. B. Foresman, and D. J. Fox, Gaussian, Inc., Wallingford CT, 2019.
 
 ******************************************
 Gaussian 16:  ES64L-G16RevC.01  3-Jul-2019
                28-Jul-2022 
 ******************************************
 %NProcShared=48
 Will use up to   48 processors via shared memory.
 %mem = 190GB
 ---------------------------------------------------------------
 #n M062X/6-311++G(d,p) TD(NStates=1) EmpiricalDispersion=GD3 SP
 ---------------------------------------------------------------
 1/38=1,172=1/1;
 2/12=2,17=6,18=5,40=1/2;
 3/5=4,6=6,7=1111,11=9,25=1,30=1,74=-55,124=31/1,2,3,8;
 4//1;
 5/5=2,38=5/2;
 8/6=1,10=2,108=1/1;
 9/41=1,42=1,70=2/14;
 6/7=2,8=2,9=2,10=2/1;
 99/5=1,9=1/99;
 -----
 SP_25
 -----
 Symbolic Z-matrix:
 Charge =  1 Multiplicity = 1
 C                    -0.00685   2.49296   1.36043 
 C                    -0.00823   3.69798   0.67199 
 C                    -0.0023    3.67766  -0.71383 
 C                     0.0078    2.45861  -1.40754 
 C                     0.0078   -2.45861  -1.40754 
 C                    -0.0023   -3.67766  -0.71383 
 C                    -0.00823  -3.69798   0.67199 
 C                    -0.00685  -2.49296   1.36043 
 C                    -0.00438   0.        1.45337 
 C                     0.0122    0.       -1.42919 
 C                     0.00183   1.26588   0.67707 
 C                     0.005     1.23687  -0.7308 
 C                     0.00183  -1.26588   0.67707 
 C                     0.005    -1.23687  -0.7308 
 H                    -0.0021    2.4883    2.44365 
 H                    -0.00833   4.63388   1.21169 
 H                     0.00145   4.60949  -1.27235 
 H                     0.00365   2.46313  -2.49006 
 H                     0.01125   0.       -2.51027 
 H                     0.00365  -2.46313  -2.49006 
 H                     0.00145  -4.60949  -1.27235 
 H                    -0.00833  -4.63388   1.21169 
 H                    -0.0021   -2.4883    2.44365 
 H                    -0.87559   0.        2.14579 
 H                     0.84359   0.        2.14579 
 
                          Input orientation:                          
 ---------------------------------------------------------------------
 Center     Atomic      Atomic             Coordinates (Angstroms)
 Number     Number       Type             X           Y           Z
 ---------------------------------------------------------------------
      1          6           0       -0.006850    2.492955    1.360431
      2          6           0       -0.008225    3.697983    0.671989
      3          6           0       -0.002300    3.677661   -0.713830
      4          6           0        0.007800    2.458606   -1.407538
      5          6           0        0.007800   -2.458606   -1.407538
      6          6           0       -0.002300   -3.677661   -0.713830
      7          6           0       -0.008225   -3.697983    0.671989
      8          6           0       -0.006850   -2.492955    1.360431
      9          6           0       -0.004375    0.000000    1.453369
     10          6           0        0.012200    0.000000   -1.429189
     11          6           0        0.001825    1.265880    0.677065
     12          6           0        0.005000    1.236871   -0.730804
     13          6           0        0.001825   -1.265880    0.677065
     14          6           0        0.005000   -1.236871   -0.730804
     15          1           0       -0.002100    2.488296    2.443647
     16          1           0       -0.008325    4.633878    1.211689
     17          1           0        0.001450    4.609487   -1.272349
     18          1           0        0.003650    2.463125   -2.490059
     19          1           0        0.011250    0.000000   -2.510266
     20          1           0        0.003650   -2.463125   -2.490059
     21          1           0        0.001450   -4.609487   -1.272349
     22          1           0       -0.008325   -4.633878    1.211689
     23          1           0       -0.002100   -2.488296    2.443647
     24          1           0       -0.875585    0.000000    2.145787
     25          1           0        0.843585    0.000000    2.145787
 ---------------------------------------------------------------------
                    Distance matrix (angstroms):
                    1          2          3          4          5
     1  C    0.000000
     2  C    1.387821   0.000000
     3  C    2.388746   1.385981   0.000000
     4  C    2.768221   2.420897   1.402650   0.000000
     5  C    5.672726   6.498329   6.175363   4.917212   0.000000
     6  C    6.509922   7.504709   7.355322   6.175363   1.402650
     7  C    6.229098   7.395966   7.504709   6.498329   2.420897
     8  C    4.985910   6.229098   6.509922   5.672726   2.768221
     9  C    2.494688   3.779636   4.268717   3.772225   3.772225
    10  C    3.741279   4.253286   3.746617   2.458705   2.458705
    11  C    1.404556   2.432129   2.784114   2.401708   4.268185
    12  C    2.439498   2.832856   2.440860   1.396644   3.756931
    13  C    3.820459   4.963876   5.135485   4.268185   2.401708
    14  C    4.276097   5.130379   4.914567   3.756931   1.396644
    15  H    1.083236   2.145263   3.374055   3.851312   6.269255
    16  H    2.146084   1.080359   2.149886   3.404764   7.560684
    17  H    3.378063   2.147413   1.086396   2.155135   7.069389
    18  H    3.850620   3.394637   2.151772   1.082538   5.039375
    19  H    4.604069   4.878750   4.092989   2.694581   2.694581
    20  H    6.276075   6.925167   6.392517   5.039375   1.082538
    21  H    7.574713   8.531975   8.305948   7.069389   2.155135
    22  H    7.128385   8.349322   8.531667   7.560684   3.404764
    23  H    5.097670   6.434971   6.927387   6.269255   3.851312
    24  H    2.754326   4.074245   4.739750   4.410355   4.410355
    25  H    2.748608   4.070963   4.734778   4.401068   4.401068
                    6          7          8          9         10
     6  C    0.000000
     7  C    1.385981   0.000000
     8  C    2.388746   1.387821   0.000000
     9  C    4.268717   3.779636   2.494688   0.000000
    10  C    3.746617   4.253286   3.741279   2.882606   0.000000
    11  C    5.135485   4.963876   3.820459   1.484971   2.457410
    12  C    4.914567   5.130379   4.276097   2.510090   1.420438
    13  C    2.784114   2.432129   1.404556   1.484971   2.457410
    14  C    2.440860   2.832856   2.439498   2.510090   1.420438
    15  H    6.927387   6.434971   5.097670   2.678110   4.603334
    16  H    8.531667   8.349322   7.128385   4.640178   5.333618
    17  H    8.305948   8.531975   7.574713   5.355086   4.612167
    18  H    6.392517   6.925167   6.276075   4.649481   2.681884
    19  H    4.092989   4.878750   4.604069   3.963666   1.081077
    20  H    2.151772   3.394637   3.850620   4.649481   2.681884
    21  H    1.086396   2.147413   3.378063   5.355086   4.612167
    22  H    2.149886   1.080359   2.146084   4.640178   5.333618
    23  H    3.374055   2.145263   1.083236   2.678110   4.603334
    24  H    4.739750   4.074245   2.754326   1.112856   3.683560
    25  H    4.734778   4.070963   2.748608   1.094751   3.670375
                   11         12         13         14         15
    11  C    0.000000
    12  C    1.408171   0.000000
    13  C    2.531760   2.871562   0.000000
    14  C    2.871562   2.473742   1.408171   0.000000
    15  H    2.148285   3.412221   4.149056   4.894288   0.000000
    16  H    3.410181   3.913197   5.923940   6.183781   2.474122
    17  H    3.870391   3.415819   6.190327   5.871387   4.278795
    18  H    3.385864   2.144453   4.892459   4.096944   4.933774
    19  H    3.429522   2.167112   3.429522   2.167112   5.543740
    20  H    4.892459   4.096944   3.385864   2.144453   6.989854
    21  H    6.190327   5.871387   3.870391   3.415819   8.011689
    22  H    5.923940   6.183781   3.410181   3.913197   7.227940
    23  H    4.149056   4.894288   2.148285   3.412221   4.976592
    24  H    2.128249   3.252700   2.128249   3.252700   2.653924
    25  H    2.113801   3.241581   2.113801   3.241581   2.644905
                   16         17         18         19         20
    16  H    0.000000
    17  H    2.484177   0.000000
    18  H    4.291299   2.467730   0.000000
    19  H    5.943581   4.772830   2.463220   0.000000
    20  H    8.004407   7.176675   4.926250   2.463220   0.000000
    21  H    9.571329   9.218974   7.176675   4.772830   2.467730
    22  H    9.267756   9.571329   8.004407   5.943581   4.291299
    23  H    7.227940   8.011689   6.989854   5.543740   4.933774
    24  H    4.805986   5.805189   5.322697   4.739758   5.322697
    25  H    4.803240   5.800019   5.316347   4.729864   5.316347
                   21         22         23         24         25
    21  H    0.000000
    22  H    2.484177   0.000000
    23  H    4.278795   2.474122   0.000000
    24  H    5.805189   4.805986   2.653924   0.000000
    25  H    5.800019   4.803240   2.644905   1.719170   0.000000
 Stoichiometry    C14H11(1+)
 Framework group  CS[SG(C2H3),X(C12H8)]
 Deg. of freedom    37
 Full point group                 CS      NOp   2
 Largest Abelian subgroup         CS      NOp   2
 Largest concise Abelian subgroup CS      NOp   2
                         Standard orientation:                         
 ---------------------------------------------------------------------
 Center     Atomic      Atomic             Coordinates (Angstroms)
 Number     Number       Type             X           Y           Z
 ---------------------------------------------------------------------
      1          6           0       -1.360447    0.000680    2.492955
      2          6           0       -0.672018    0.005084    3.697983
      3          6           0        0.713814    0.005257    3.677661
      4          6           0        1.407560   -0.001790    2.458606
      5          6           0        1.407560   -0.001790   -2.458606
      6          6           0        0.713814    0.005257   -3.677661
      7          6           0       -0.672018    0.005084   -3.697983
      8          6           0       -1.360447    0.000680   -2.492955
      9          6           0       -1.453373   -0.002204   -0.000000
     10          6           0        1.429230   -0.006095    0.000000
     11          6           0       -0.677050   -0.004988    1.265880
     12          6           0        0.730820   -0.001968    1.236871
     13          6           0       -0.677050   -0.004988   -1.265880
     14          6           0        0.730820   -0.001968   -1.236871
     15          1           0       -2.443632   -0.008836    2.488296
     16          1           0       -1.211713    0.002810    4.633878
     17          1           0        1.272344    0.003965    4.609487
     18          1           0        2.490052    0.007123    2.463125
     19          1           0        2.510292   -0.000388    0.000000
     20          1           0        2.490052    0.007123   -2.463125
     21          1           0        1.272344    0.003965   -4.609487
     22          1           0       -1.211713    0.002810   -4.633878
     23          1           0       -2.443632   -0.008836   -2.488296
     24          1           0       -2.149618    0.865951   -0.000000
     25          1           0       -2.142054   -0.853202   -0.000000
 ---------------------------------------------------------------------
 Rotational constants (GHZ):           2.1361560           0.4454556           0.3693966
 Standard basis: 6-311++G(d,p) (5D, 7F)
 There are   218 symmetry adapted cartesian basis functions of A'  symmetry.
 There are   181 symmetry adapted cartesian basis functions of A"  symmetry.
 There are   210 symmetry adapted basis functions of A'  symmetry.
 There are   175 symmetry adapted basis functions of A"  symmetry.
   385 basis functions,   603 primitive gaussians,   399 cartesian basis functions
    47 alpha electrons       47 beta electrons
       nuclear repulsion energy       781.6550949429 Hartrees.
 NAtoms=   25 NActive=   25 NUniq=   15 SFac= 2.78D+00 NAtFMM=   60 NAOKFM=F Big=F
 Integral buffers will be    131072 words long.
 Regular integral format.
 Two-electron integral symmetry is turned on.
 Nuclear repulsion after empirical dispersion term =      781.6541155996 Hartrees.
 One-electron integrals computed using PRISM.
 NBasis=   385 RedAO= T EigKep=  1.13D-06  NBF=   210   175
 NBsUse=   379 1.00D-06 EigRej=  8.32D-07 NBFU=   207   172
 ExpMin= 3.60D-02 ExpMax= 4.56D+03 ExpMxC= 6.82D+02 IAcc=3 IRadAn=         5 AccDes= 0.00D+00
 Harris functional with IExCor= 1009 and IRadAn=       5 diagonalized for initial guess.
 HarFok:  IExCor= 1009 AccDes= 0.00D+00 IRadAn=         5 IDoV= 1 UseB2=F ITyADJ=14
 ICtDFT=  3500011 ScaDFX=  1.000000  1.000000  1.000000  1.000000
 FoFCou: FMM=F IPFlag=           0 FMFlag=      100000 FMFlg1=           0
         NFxFlg=           0 DoJE=T BraDBF=F KetDBF=T FulRan=T
         wScrn=  0.000000 ICntrl=       500 IOpCl=  0 I1Cent=   200000004 NGrid=           0
         NMat0=    1 NMatS0=      1 NMatT0=    0 NMatD0=    1 NMtDS0=    0 NMtDT0=    0
 Petite list used in FoFCou.
 Initial guess orbital symmetries:
       Occupied  (A') (A") (A') (A") (A') (A") (A') (A") (A') (A')
                 (A") (A') (A") (A') (A') (A") (A') (A') (A") (A")
                 (A') (A') (A") (A') (A") (A') (A") (A') (A') (A")
                 (A") (A') (A') (A") (A") (A') (A') (A') (A") (A")
                 (A') (A") (A') (A') (A") (A") (A')
       Virtual   (A') (A') (A") (A") (A') (A') (A") (A') (A') (A")
                 (A') (A") (A') (A") (A') (A') (A") (A') (A") (A")
                 (A') (A') (A') (A") (A') (A') (A") (A") (A') (A')
                 (A') (A") (A") (A') (A") (A') (A") (A') (A') (A')
                 (A') (A") (A") (A') (A') (A") (A') (A") (A") (A")
                 (A") (A") (A') (A') (A') (A') (A') (A') (A') (A")
                 (A") (A') (A") (A') (A') (A') (A") (A") (A') (A")
                 (A") (A') (A') (A") (A") (A') (A') (A") (A') (A')
                 (A") (A') (A") (A") (A') (A") (A') (A') (A') (A")
                 (A") (A') (A") (A') (A') (A") (A") (A') (A') (A")
                 (A") (A') (A') (A') (A') (A') (A") (A") (A') (A")
                 (A') (A") (A") (A') (A') (A') (A") (A") (A') (A')
                 (A") (A') (A') (A") (A') (A") (A") (A") (A') (A')
                 (A') (A") (A') (A') (A') (A") (A") (A") (A') (A")
                 (A') (A") (A") (A') (A') (A") (A") (A') (A") (A')
                 (A') (A") (A') (A") (A") (A") (A') (A') (A") (A')
                 (A') (A') (A") (A") (A') (A') (A") (A') (A") (A")
                 (A') (A') (A") (A') (A") (A') (A") (A") (A') (A')
                 (A') (A") (A") (A') (A") (A') (A") (A') (A") (A')
                 (A') (A") (A') (A') (A') (A") (A") (A') (A') (A")
                 (A") (A') (A') (A') (A") (A") (A") (A') (A') (A')
                 (A") (A') (A") (A') (A") (A") (A') (A") (A') (A")
                 (A') (A') (A") (A") (A') (A') (A") (A") (A") (A')
                 (A') (A") (A') (A") (A") (A') (A') (A") (A") (A')
                 (A') (A') (A") (A') (A") (A') (A") (A") (A') (A')
                 (A") (A') (A') (A") (A") (A') (A") (A') (A') (A')
                 (A') (A') (A") (A") (A') (A") (A') (A') (A") (A')
                 (A") (A") (A") (A') (A') (A') (A') (A") (A") (A')
                 (A") (A") (A') (A') (A") (A') (A") (A") (A') (A')
                 (A") (A') (A") (A') (A') (A") (A') (A') (A") (A")
                 (A') (A") (A') (A") (A') (A') (A') (A") (A') (A")
                 (A') (A') (A") (A') (A") (A") (A") (A') (A') (A")
                 (A') (A') (A") (A") (A') (A') (A") (A') (A") (A')
                 (A') (A")
 The electronic state of the initial guess is 1-A'.
 Requested convergence on RMS density matrix=1.00D-08 within 128 cycles.
 Requested convergence on MAX density matrix=1.00D-06.
 Requested convergence on             energy=1.00D-06.
 No special actions if energy rises.
 SCF Done:  E(RM062X) =  -539.760163968     A.U. after   15 cycles
            NFock= 15  Conv=0.46D-08     -V/T= 2.0041
 DoSCS=F DFT=T ScalE2(SS,OS)=  1.000000  1.000000
 ExpMin= 3.60D-02 ExpMax= 4.56D+03 ExpMxC= 6.82D+02 IAcc=3 IRadAn=         5 AccDes= 0.00D+00
 HarFok:  IExCor=  205 AccDes= 0.00D+00 IRadAn=         5 IDoV=-2 UseB2=F ITyADJ=14
 ICtDFT= 12500011 ScaDFX=  1.000000  1.000000  1.000000  1.000000
 Range of M.O.s used for correlation:    15   379
 NBasis=   385 NAE=    47 NBE=    47 NFC=    14 NFV=     0
 NROrb=    365 NOA=    33 NOB=    33 NVA=   332 NVB=   332

 **** Warning!!: The largest alpha MO coefficient is  0.14603909D+03

 Orbital symmetries:
       Occupied  (A') (A") (A') (A") (A') (A") (A') (A') (A") (A')
                 (A") (A') (A") (A') (A') (A") (A') (A') (A") (A")
                 (A') (A') (A') (A") (A") (A') (A") (A') (A') (A")
                 (A') (A") (A') (A") (A') (A") (A') (A') (A") (A')
                 (A") (A') (A") (A') (A") (A") (A')
       Virtual   (A') (A') (A") (A") (A') (A') (A") (A') (A') (A")
                 (A') (A') (A") (A') (A') (A") (A") (A') (A") (A')
                 (A') (A") (A') (A') (A") (A') (A') (A') (A") (A')
                 (A") (A") (A") (A") (A') (A") (A") (A') (A') (A')
                 (A") (A') (A") (A') (A') (A') (A") (A') (A') (A")
                 (A") (A') (A') (A') (A") (A') (A") (A') (A') (A")
                 (A') (A") (A") (A') (A') (A") (A') (A') (A") (A")
                 (A') (A") (A') (A') (A") (A') (A") (A") (A') (A')
                 (A") (A') (A") (A") (A') (A') (A") (A') (A") (A')
                 (A") (A') (A") (A') (A') (A') (A') (A") (A") (A')
                 (A") (A') (A") (A') (A') (A") (A') (A") (A') (A")
                 (A') (A") (A') (A") (A') (A") (A') (A") (A") (A')
                 (A') (A') (A") (A") (A') (A') (A') (A") (A') (A")
                 (A') (A") (A') (A') (A') (A') (A") (A") (A') (A")
                 (A') (A") (A") (A") (A') (A") (A") (A') (A") (A')
                 (A") (A") (A') (A') (A") (A') (A') (A") (A') (A')
                 (A") (A") (A') (A') (A") (A") (A") (A') (A') (A")
                 (A') (A') (A") (A') (A") (A') (A") (A") (A') (A')
                 (A') (A") (A') (A') (A") (A") (A") (A') (A") (A')
                 (A") (A') (A') (A') (A') (A') (A") (A") (A') (A")
                 (A') (A") (A') (A') (A") (A") (A") (A') (A') (A')
                 (A') (A") (A") (A") (A') (A") (A") (A') (A') (A')
                 (A") (A') (A") (A") (A') (A") (A') (A") (A") (A')
                 (A') (A') (A") (A") (A') (A") (A") (A') (A") (A')
                 (A') (A') (A") (A") (A") (A') (A') (A") (A') (A')
                 (A") (A') (A") (A') (A") (A') (A') (A") (A') (A')
                 (A") (A') (A') (A") (A') (A") (A') (A') (A") (A')
                 (A") (A") (A') (A') (A") (A') (A") (A') (A') (A")
                 (A") (A") (A') (A') (A') (A") (A") (A') (A') (A")
                 (A") (A') (A") (A') (A') (A") (A') (A') (A") (A")
                 (A') (A") (A') (A') (A') (A") (A') (A") (A') (A")
                 (A') (A') (A") (A') (A") (A") (A") (A') (A') (A")
                 (A') (A') (A") (A") (A') (A') (A") (A') (A') (A")
                 (A') (A")
     4 initial guesses have been made.
 Convergence on wavefunction:    0.001000000000000
 Iteration     1 Dimension     4 NMult     0 NNew      4
 CISAX will form     4 AO SS matrices at one time.
 Iteration     2 Dimension     6 NMult     4 NNew      2
 Iteration     3 Dimension     8 NMult     6 NNew      2
 Iteration     4 Dimension    10 NMult     8 NNew      2
 Iteration     5 Dimension    12 NMult    10 NNew      2
 Iteration     6 Dimension    14 NMult    12 NNew      2
 ***********************************************************************
 Excited states from <AA,BB:AA,BB> singles matrix:
 ***********************************************************************
 
 Ground to excited state transition densities written to RWF  633
 Ground to excited state transition electric dipole moments (Au):
       state          X           Y           Z        Dip. S.      Osc.
         1        -0.6476      0.0020      0.0000      0.4194      0.0291
 Ground to excited state transition velocity dipole moments (Au):
       state          X           Y           Z        Dip. S.      Osc.
         1         0.0750     -0.0002     -0.0000      0.0056      0.0361
 Ground to excited state transition magnetic dipole moments (Au):
       state          X           Y           Z
         1        -0.0000      0.0000     -0.0027
 Ground to excited state transition velocity quadrupole moments (Au):
       state          XX          YY          ZZ          XY          XZ          YZ
         1         0.0363     -0.0099      0.2917      0.0004      0.0000      0.0000
 <0|del|b> * <b|rxdel|0> + <0|del|b> * <b|delr+rdel|0>
 Rotatory Strengths (R) in cgs (10**-40 erg-esu-cm/Gauss)
       state          XX          YY          ZZ    R(velocity)    E-M Angle
         1         0.0000     -0.0000     -0.0000     -0.0000       90.00
 1/2[<0|r|b>*<b|rxdel|0> + (<0|rxdel|b>*<b|r|0>)*]
 Rotatory Strengths (R) in cgs (10**-40 erg-esu-cm/Gauss)
       state          XX          YY          ZZ     R(length)
         1        -0.0000     -0.0000      0.0000     -0.0000
  1/2[<0|del|b>*<b|r|0> + (<0|r|b>*<b|del|0>)*] (Au)
       state          X           Y           Z        Dip. S.   Osc.(frdel)
         1        -0.0486     -0.0000     -0.0000      0.0486      0.0324

 Excitation energies and oscillator strengths:
 
 Excited State   1:      Singlet-A'     2.8303 eV  438.06 nm  f=0.0291  <S**2>=0.000
      47 -> 48         0.70425
 This state for optimization and/or second-order correction.
 Total Energy, E(TD-HF/TD-DFT) =  -539.656153421    
 Copying the excited state density for this state as the 1-particle RhoCI density.
 SavETr:  write IOETrn=   770 NScale= 10 NData=  16 NLR=1 NState=    1 LETran=      28.

 **********************************************************************

            Population analysis using the SCF Density.

 **********************************************************************

 Orbital symmetries:
       Occupied  (A') (A") (A') (A") (A') (A") (A') (A') (A") (A')
                 (A") (A') (A") (A') (A') (A") (A') (A') (A") (A")
                 (A') (A') (A') (A") (A") (A') (A") (A') (A') (A")
                 (A') (A") (A') (A") (A') (A") (A') (A') (A") (A')
                 (A") (A') (A") (A') (A") (A") (A')
       Virtual   (A') (A') (A") (A") (A') (A') (A") (A') (A') (A")
                 (A') (A') (A") (A') (A') (A") (A") (A') (A") (A')
                 (A') (A") (A') (A') (A") (A') (A') (A') (A") (A')
                 (A") (A") (A") (A") (A') (A") (A") (A') (A') (A')
                 (A") (A') (A") (A') (A') (A') (A") (A') (A') (A")
                 (A") (A') (A') (A') (A") (A') (A") (A') (A') (A")
                 (A') (A") (A") (A') (A') (A") (A') (A') (A") (A")
                 (A') (A") (A') (A') (A") (A') (A") (A") (A') (A')
                 (A") (A') (A") (A") (A') (A') (A") (A') (A") (A')
                 (A") (A') (A") (A') (A') (A') (A') (A") (A") (A')
                 (A") (A') (A") (A') (A') (A") (A') (A") (A') (A")
                 (A') (A") (A') (A") (A') (A") (A') (A") (A") (A')
                 (A') (A') (A") (A") (A') (A') (A') (A") (A') (A")
                 (A') (A") (A') (A') (A') (A') (A") (A") (A') (A")
                 (A') (A") (A") (A") (A') (A") (A") (A') (A") (A')
                 (A") (A") (A') (A') (A") (A') (A') (A") (A') (A')
                 (A") (A") (A') (A') (A") (A") (A") (A') (A') (A")
                 (A') (A') (A") (A') (A") (A') (A") (A") (A') (A')
                 (A') (A") (A') (A') (A") (A") (A") (A') (A") (A')
                 (A") (A') (A') (A') (A') (A') (A") (A") (A') (A")
                 (A') (A") (A') (A') (A") (A") (A") (A') (A') (A')
                 (A') (A") (A") (A") (A') (A") (A") (A') (A') (A')
                 (A") (A') (A") (A") (A') (A") (A') (A") (A") (A')
                 (A') (A') (A") (A") (A') (A") (A") (A') (A") (A')
                 (A') (A') (A") (A") (A") (A') (A') (A") (A') (A')
                 (A") (A') (A") (A') (A") (A') (A') (A") (A') (A')
                 (A") (A') (A') (A") (A') (A") (A') (A') (A") (A')
                 (A") (A") (A') (A') (A") (A') (A") (A') (A') (A")
                 (A") (A") (A') (A') (A') (A") (A") (A') (A') (A")
                 (A") (A') (A") (A') (A') (A") (A') (A') (A") (A")
                 (A') (A") (A') (A') (A') (A") (A') (A") (A') (A")
                 (A') (A') (A") (A') (A") (A") (A") (A') (A') (A")
                 (A') (A') (A") (A") (A') (A') (A") (A') (A') (A")
                 (A') (A")
 The electronic state is 1-A'.
 Alpha  occ. eigenvalues --  -10.77670 -10.73226 -10.73225 -10.72395 -10.72394
 Alpha  occ. eigenvalues --  -10.71317 -10.71317 -10.70977 -10.70974 -10.70974
 Alpha  occ. eigenvalues --  -10.69917 -10.69917 -10.69648 -10.69647  -1.16476
 Alpha  occ. eigenvalues --   -1.12571  -1.07001  -1.05696  -1.01418  -1.00169
 Alpha  occ. eigenvalues --   -0.95821  -0.91045  -0.86424  -0.85921  -0.83820
 Alpha  occ. eigenvalues --   -0.78409  -0.76034  -0.74439  -0.69559  -0.69230
 Alpha  occ. eigenvalues --   -0.68494  -0.68158  -0.68047  -0.64818  -0.64352
 Alpha  occ. eigenvalues --   -0.63000  -0.61798  -0.60037  -0.59756  -0.59064
 Alpha  occ. eigenvalues --   -0.56886  -0.55188  -0.54802  -0.52479  -0.46702
 Alpha  occ. eigenvalues --   -0.46050  -0.44546
 Alpha virt. eigenvalues --   -0.26099  -0.14617  -0.14085  -0.12713  -0.11180
 Alpha virt. eigenvalues --   -0.10089  -0.09238  -0.08003  -0.07961  -0.07479
 Alpha virt. eigenvalues --   -0.07205  -0.07137  -0.05641  -0.05581  -0.05323
 Alpha virt. eigenvalues --   -0.03841  -0.03663  -0.03278  -0.03132  -0.02167
 Alpha virt. eigenvalues --   -0.01374  -0.00942   0.00193   0.00569   0.00664
 Alpha virt. eigenvalues --    0.01060   0.01513   0.01953   0.02223   0.02283
 Alpha virt. eigenvalues --    0.02456   0.02663   0.02799   0.03277   0.03354
 Alpha virt. eigenvalues --    0.04236   0.04507   0.04699   0.05061   0.05371
 Alpha virt. eigenvalues --    0.06018   0.06301   0.06602   0.07044   0.07263
 Alpha virt. eigenvalues --    0.07902   0.08210   0.08356   0.08562   0.08926
 Alpha virt. eigenvalues --    0.09542   0.09555   0.10040   0.10882   0.11037
 Alpha virt. eigenvalues --    0.11123   0.12176   0.12228   0.12936   0.12950
 Alpha virt. eigenvalues --    0.13413   0.13507   0.14014   0.14434   0.16194
 Alpha virt. eigenvalues --    0.16228   0.16430   0.17331   0.17624   0.17780
 Alpha virt. eigenvalues --    0.18129   0.19112   0.19266   0.19658   0.19756
 Alpha virt. eigenvalues --    0.21604   0.21609   0.22703   0.23093   0.23559
 Alpha virt. eigenvalues --    0.23820   0.24584   0.25272   0.26911   0.27651
 Alpha virt. eigenvalues --    0.28847   0.29290   0.29857   0.31386   0.35818
 Alpha virt. eigenvalues --    0.36504   0.38198   0.39320   0.41146   0.41374
 Alpha virt. eigenvalues --    0.41974   0.42147   0.42968   0.43741   0.44271
 Alpha virt. eigenvalues --    0.45032   0.45075   0.46123   0.46144   0.47935
 Alpha virt. eigenvalues --    0.48506   0.48860   0.49007   0.50406   0.51227
 Alpha virt. eigenvalues --    0.51631   0.51729   0.52126   0.53026   0.53948
 Alpha virt. eigenvalues --    0.54066   0.54709   0.55698   0.55763   0.57438
 Alpha virt. eigenvalues --    0.58254   0.58818   0.61456   0.62210   0.62335
 Alpha virt. eigenvalues --    0.63236   0.63487   0.64918   0.65168   0.67174
 Alpha virt. eigenvalues --    0.70452   0.70560   0.71032   0.72445   0.72873
 Alpha virt. eigenvalues --    0.75774   0.75984   0.76318   0.76861   0.77072
 Alpha virt. eigenvalues --    0.77847   0.77868   0.78246   0.79995   0.80374
 Alpha virt. eigenvalues --    0.81297   0.81635   0.82155   0.83045   0.85162
 Alpha virt. eigenvalues --    0.87173   0.88145   0.88384   0.89383   0.90418
 Alpha virt. eigenvalues --    0.91005   0.91365   0.93299   0.94675   0.96421
 Alpha virt. eigenvalues --    0.96658   1.00324   1.01302   1.01754   1.02823
 Alpha virt. eigenvalues --    1.03201   1.03923   1.04743   1.05385   1.08851
 Alpha virt. eigenvalues --    1.19439   1.23244   1.24059   1.25313   1.28040
 Alpha virt. eigenvalues --    1.29870   1.31597   1.34418   1.35846   1.36076
 Alpha virt. eigenvalues --    1.39418   1.40138   1.41010   1.43159   1.43540
 Alpha virt. eigenvalues --    1.43591   1.45258   1.45390   1.46370   1.46653
 Alpha virt. eigenvalues --    1.47696   1.48188   1.51757   1.53661   1.55756
 Alpha virt. eigenvalues --    1.55940   1.56467   1.56621   1.57852   1.61536
 Alpha virt. eigenvalues --    1.63147   1.63395   1.63605   1.66162   1.68270
 Alpha virt. eigenvalues --    1.68432   1.68712   1.69736   1.74535   1.75999
 Alpha virt. eigenvalues --    1.77201   1.78080   1.80003   1.80333   1.80917
 Alpha virt. eigenvalues --    1.83140   1.83276   1.83570   1.83941   1.84112
 Alpha virt. eigenvalues --    1.84361   1.85965   1.86130   1.88278   1.91335
 Alpha virt. eigenvalues --    1.92144   1.94114   1.95178   1.97814   1.98348
 Alpha virt. eigenvalues --    1.99927   2.02396   2.04542   2.07086   2.11892
 Alpha virt. eigenvalues --    2.12088   2.14123   2.15262   2.19379   2.21253
 Alpha virt. eigenvalues --    2.22994   2.28738   2.30308   2.34563   2.35058
 Alpha virt. eigenvalues --    2.36267   2.38436   2.39232   2.42414   2.44001
 Alpha virt. eigenvalues --    2.46676   2.46884   2.49525   2.53013   2.53805
 Alpha virt. eigenvalues --    2.54216   2.56703   2.57896   2.58370   2.59684
 Alpha virt. eigenvalues --    2.59897   2.61558   2.62210   2.63577   2.63883
 Alpha virt. eigenvalues --    2.64799   2.65093   2.65332   2.65385   2.67975
 Alpha virt. eigenvalues --    2.68421   2.71024   2.71410   2.73382   2.74830
 Alpha virt. eigenvalues --    2.76356   2.78952   2.79812   2.83094   2.83120
 Alpha virt. eigenvalues --    2.85120   2.86340   2.92147   2.96953   2.99630
 Alpha virt. eigenvalues --    3.00219   3.04852   3.11415   3.11727   3.13441
 Alpha virt. eigenvalues --    3.20948   3.23624   3.26995   3.28371   3.30963
 Alpha virt. eigenvalues --    3.33225   3.33658   3.43451   3.46025   3.47109
 Alpha virt. eigenvalues --    3.48878   3.50461   3.56569   3.65606   3.67015
 Alpha virt. eigenvalues --    3.67497   3.93642   3.94606   3.94649   3.96179
 Alpha virt. eigenvalues --    4.03731   4.06903   4.07617   4.12555   4.35435
 Alpha virt. eigenvalues --    4.61223   4.70107   4.71949  23.45245  23.60165
 Alpha virt. eigenvalues --   23.82464  23.85374  23.88041  23.89503  23.90553
 Alpha virt. eigenvalues --   23.92348  23.98107  24.00354  24.00575  24.00655
 Alpha virt. eigenvalues --   24.11019  24.11109
          Condensed to atoms (all electrons):
               1          2          3          4          5          6
     1  C    8.558738   0.374589  -0.558938   1.896947  -0.018264  -0.096007
     2  C    0.374589   7.116425   0.362555  -1.031879  -0.027111  -0.015375
     3  C   -0.558938   0.362555   6.606174   0.761391  -0.122501   0.017282
     4  C    1.896947  -1.031879   0.761391  10.848554  -0.336001  -0.122501
     5  C   -0.018264  -0.027111  -0.122501  -0.336001  10.848554   0.761391
     6  C   -0.096007  -0.015375   0.017282  -0.122501   0.761391   6.606174
     7  C   -0.021014   0.003508  -0.015375  -0.027111  -1.031879   0.362555
     8  C    0.409912  -0.021014  -0.096007  -0.018264   1.896947  -0.558938
     9  C   -1.248352  -0.761096   0.289250  -0.271178  -0.271178   0.289250
    10  C   -1.249564   0.230764  -0.363923  -2.545354  -2.545354  -0.363923
    11  C    0.302312  -0.948274   1.013212  -0.203343  -1.517703  -0.185017
    12  C   -1.976453   1.272988  -1.383306  -1.474551  -0.328497  -0.198018
    13  C    0.202477  -0.220355  -0.185017  -1.517703  -0.203343   1.013212
    14  C   -1.076820  -0.205246  -0.198018  -0.328497  -1.474551  -1.383306
    15  H    0.365621  -0.104258  -0.001958   0.026039   0.005871   0.001138
    16  H   -0.019170   0.378596  -0.015793   0.013870  -0.001597  -0.000339
    17  H   -0.023434  -0.017178   0.373159  -0.066270   0.000367   0.000404
    18  H    0.049353   0.003097  -0.084970   0.454721   0.006953  -0.005061
    19  H   -0.046542  -0.007664   0.050888  -0.066919  -0.066919   0.050888
    20  H    0.007471   0.001971  -0.005061   0.006953   0.454721  -0.084970
    21  H   -0.001328  -0.000401   0.000404   0.000367  -0.066270   0.373159
    22  H    0.000745   0.000373  -0.000339  -0.001597   0.013870  -0.015793
    23  H    0.005824  -0.002689   0.001138   0.005871   0.026039  -0.001958
    24  H    0.038123   0.013985  -0.001341  -0.011998  -0.011998  -0.001341
    25  H    0.028692   0.014971  -0.001889  -0.011912  -0.011912  -0.001889
               7          8          9         10         11         12
     1  C   -0.021014   0.409912  -1.248352  -1.249564   0.302312  -1.976453
     2  C    0.003508  -0.021014  -0.761096   0.230764  -0.948274   1.272988
     3  C   -0.015375  -0.096007   0.289250  -0.363923   1.013212  -1.383306
     4  C   -0.027111  -0.018264  -0.271178  -2.545354  -0.203343  -1.474551
     5  C   -1.031879   1.896947  -0.271178  -2.545354  -1.517703  -0.328497
     6  C    0.362555  -0.558938   0.289250  -0.363923  -0.185017  -0.198018
     7  C    7.116425   0.374589  -0.761096   0.230764  -0.220355  -0.205246
     8  C    0.374589   8.558738  -1.248352  -1.249564   0.202477  -1.076820
     9  C   -0.761096  -1.248352   9.514059   0.300087   1.617078  -1.820276
    10  C    0.230764  -1.249564   0.300087   9.203351  -0.505752   2.401615
    11  C   -0.220355   0.202477   1.617078  -0.505752  14.420035  -3.808090
    12  C   -0.205246  -1.076820  -1.820276   2.401615  -3.808090  15.889806
    13  C   -0.948274   0.302312   1.617078  -0.505752   1.154003  -4.749825
    14  C    1.272988  -1.976453  -1.820276   2.401615  -4.749825   3.002893
    15  H   -0.002689   0.005824   0.089586  -0.009316  -0.027607  -0.023141
    16  H    0.000373   0.000745   0.003942  -0.009888   0.028687  -0.035757
    17  H   -0.000401  -0.001328  -0.005410   0.020307  -0.027253   0.090043
    18  H    0.001971   0.007471  -0.025823   0.014675  -0.006878  -0.053235
    19  H   -0.007664  -0.046542   0.075728   0.421884   0.073227  -0.063843
    20  H    0.003097   0.049353  -0.025823   0.014675  -0.011270  -0.013589
    21  H   -0.017178  -0.023434  -0.005410   0.020307  -0.006302   0.005227
    22  H    0.378596  -0.019170   0.003942  -0.009888   0.003213  -0.009287
    23  H   -0.104258   0.365621   0.089586  -0.009316   0.000895   0.006723
    24  H    0.013985   0.038123   0.351292   0.005057   0.016596  -0.066396
    25  H    0.014971   0.028692   0.359624   0.005073   0.009679  -0.053032
              13         14         15         16         17         18
     1  C    0.202477  -1.076820   0.365621  -0.019170  -0.023434   0.049353
     2  C   -0.220355  -0.205246  -0.104258   0.378596  -0.017178   0.003097
     3  C   -0.185017  -0.198018  -0.001958  -0.015793   0.373159  -0.084970
     4  C   -1.517703  -0.328497   0.026039   0.013870  -0.066270   0.454721
     5  C   -0.203343  -1.474551   0.005871  -0.001597   0.000367   0.006953
     6  C    1.013212  -1.383306   0.001138  -0.000339   0.000404  -0.005061
     7  C   -0.948274   1.272988  -0.002689   0.000373  -0.000401   0.001971
     8  C    0.302312  -1.976453   0.005824   0.000745  -0.001328   0.007471
     9  C    1.617078  -1.820276   0.089586   0.003942  -0.005410  -0.025823
    10  C   -0.505752   2.401615  -0.009316  -0.009888   0.020307   0.014675
    11  C    1.154003  -4.749825  -0.027607   0.028687  -0.027253  -0.006878
    12  C   -4.749825   3.002893  -0.023141  -0.035757   0.090043  -0.053235
    13  C   14.420035  -3.808090   0.000895   0.003213  -0.006302  -0.011270
    14  C   -3.808090  15.889806   0.006723  -0.009287   0.005227  -0.013589
    15  H    0.000895   0.006723   0.438670  -0.009011   0.001439   0.000194
    16  H    0.003213  -0.009287  -0.009011   0.419367  -0.006595   0.001921
    17  H   -0.006302   0.005227   0.001439  -0.006595   0.421839  -0.010159
    18  H   -0.011270  -0.013589   0.000194   0.001921  -0.010159   0.453718
    19  H    0.073227  -0.063843   0.000315  -0.000532   0.001385  -0.006026
    20  H   -0.006878  -0.053235  -0.000113   0.000015  -0.000142   0.001274
    21  H   -0.027253   0.090043   0.000013  -0.000007   0.000010  -0.000142
    22  H    0.028687  -0.035757  -0.000126   0.000008  -0.000007   0.000015
    23  H   -0.027607  -0.023141   0.000597  -0.000126   0.000013  -0.000113
    24  H    0.016596  -0.066396  -0.000698   0.000578  -0.000121   0.000189
    25  H    0.009679  -0.053032  -0.001103   0.000693  -0.000162   0.000179
              19         20         21         22         23         24
     1  C   -0.046542   0.007471  -0.001328   0.000745   0.005824   0.038123
     2  C   -0.007664   0.001971  -0.000401   0.000373  -0.002689   0.013985
     3  C    0.050888  -0.005061   0.000404  -0.000339   0.001138  -0.001341
     4  C   -0.066919   0.006953   0.000367  -0.001597   0.005871  -0.011998
     5  C   -0.066919   0.454721  -0.066270   0.013870   0.026039  -0.011998
     6  C    0.050888  -0.084970   0.373159  -0.015793  -0.001958  -0.001341
     7  C   -0.007664   0.003097  -0.017178   0.378596  -0.104258   0.013985
     8  C   -0.046542   0.049353  -0.023434  -0.019170   0.365621   0.038123
     9  C    0.075728  -0.025823  -0.005410   0.003942   0.089586   0.351292
    10  C    0.421884   0.014675   0.020307  -0.009888  -0.009316   0.005057
    11  C    0.073227  -0.011270  -0.006302   0.003213   0.000895   0.016596
    12  C   -0.063843  -0.013589   0.005227  -0.009287   0.006723  -0.066396
    13  C    0.073227  -0.006878  -0.027253   0.028687  -0.027607   0.016596
    14  C   -0.063843  -0.053235   0.090043  -0.035757  -0.023141  -0.066396
    15  H    0.000315  -0.000113   0.000013  -0.000126   0.000597  -0.000698
    16  H   -0.000532   0.000015  -0.000007   0.000008  -0.000126   0.000578
    17  H    0.001385  -0.000142   0.000010  -0.000007   0.000013  -0.000121
    18  H   -0.006026   0.001274  -0.000142   0.000015  -0.000113   0.000189
    19  H    0.441879  -0.006026   0.001385  -0.000532   0.000315   0.000585
    20  H   -0.006026   0.453718  -0.010159   0.001921   0.000194   0.000189
    21  H    0.001385  -0.010159   0.421839  -0.006595   0.001439  -0.000121
    22  H   -0.000532   0.001921  -0.006595   0.419367  -0.009011   0.000578
    23  H    0.000315   0.000194   0.001439  -0.009011   0.438670  -0.000698
    24  H    0.000585   0.000189  -0.000121   0.000578  -0.000698   0.494488
    25  H    0.000562   0.000179  -0.000162   0.000693  -0.001103  -0.079787
              25
     1  C    0.028692
     2  C    0.014971
     3  C   -0.001889
     4  C   -0.011912
     5  C   -0.011912
     6  C   -0.001889
     7  C    0.014971
     8  C    0.028692
     9  C    0.359624
    10  C    0.005073
    11  C    0.009679
    12  C   -0.053032
    13  C    0.009679
    14  C   -0.053032
    15  H   -0.001103
    16  H    0.000693
    17  H   -0.000162
    18  H    0.000179
    19  H    0.000562
    20  H    0.000179
    21  H   -0.000162
    22  H    0.000693
    23  H   -0.001103
    24  H   -0.079787
    25  H    0.494353
 Mulliken charges:
               1
     1  C    0.095085
     2  C   -0.411282
     3  C   -0.441014
     4  C    0.020366
     5  C    0.020366
     6  C   -0.441014
     7  C   -0.411282
     8  C    0.095085
     9  C   -0.336229
    10  C    0.097422
    11  C   -0.623745
    12  C    0.670068
    13  C   -0.623745
    14  C    0.670068
    15  H    0.237092
    16  H    0.256095
    17  H    0.250573
    18  H    0.221537
    19  H    0.190784
    20  H    0.221537
    21  H    0.250573
    22  H    0.256095
    23  H    0.237092
    24  H    0.250530
    25  H    0.247945
 Sum of Mulliken charges =   1.00000
 Mulliken charges with hydrogens summed into heavy atoms:
               1
     1  C    0.332177
     2  C   -0.155187
     3  C   -0.190441
     4  C    0.241902
     5  C    0.241902
     6  C   -0.190441
     7  C   -0.155187
     8  C    0.332177
     9  C    0.162247
    10  C    0.288205
    11  C   -0.623745
    12  C    0.670068
    13  C   -0.623745
    14  C    0.670068
 Electronic spatial extent (au):  <R**2>=           2852.0315
 Charge=              1.0000 electrons
 Dipole moment (field-independent basis, Debye):
    X=              0.1855    Y=             -0.0000    Z=              0.0000  Tot=              0.1855
 Quadrupole moment (field-independent basis, Debye-Ang):
   XX=            -56.2631   YY=            -84.1096   ZZ=            -31.2029
   XY=              0.0481   XZ=              0.0000   YZ=             -0.0000
 Traceless Quadrupole moment (field-independent basis, Debye-Ang):
   XX=              0.9288   YY=            -26.9177   ZZ=             25.9890
   XY=              0.0481   XZ=              0.0000   YZ=             -0.0000
 Octapole moment (field-independent basis, Debye-Ang**2):
  XXX=              5.2075  YYY=             -0.0137  ZZZ=              0.0000  XYY=             -3.0907
  XXY=              0.0552  XXZ=             -0.0000  XZZ=             -5.4996  YZZ=              0.0815
  YYZ=             -0.0000  XYZ=              0.0000
 Hexadecapole moment (field-independent basis, Debye-Ang**3):
 XXXX=           -609.2545 YYYY=            -99.2395 ZZZZ=          -2120.8533 XXXY=              0.5310
 XXXZ=              0.0000 YYYX=              0.0194 YYYZ=              0.0000 ZZZX=              0.0000
 ZZZY=              0.0000 XXYY=           -145.6621 XXZZ=           -507.0433 YYZZ=           -589.6608
 XXYZ=              0.0000 YYXZ=             -0.0000 ZZXY=              0.5145
 N-N= 7.816541155996D+02 E-N=-2.799675408339D+03  KE= 5.375348737709D+02
 Symmetry A'   KE= 3.038003391628D+02
 Symmetry A"   KE= 2.337345346082D+02
 Unable to Open any file for archive entry.
 1\1\GINC-GADI-CPU-CLX-0113\SP\RM062X TD-FC\6-311++G(d,p)\C14H11(1+)\TS
 1578\28-Jul-2022\0\\#n M062X/6-311++G(d,p) TD(NStates=1) EmpiricalDisp
 ersion=GD3 SP\\SP_25\\1,1\C,0,-0.00685,2.492955,1.360431\C,0,-0.008225
 ,3.697983,0.671989\C,0,-0.0023,3.677661,-0.71383\C,0,0.0078,2.458606,-
 1.407538\C,0,0.0078,-2.458606,-1.407538\C,0,-0.0023,-3.677661,-0.71383
 \C,0,-0.008225,-3.697983,0.671989\C,0,-0.00685,-2.492955,1.360431\C,0,
 -0.004375,0.,1.453369\C,0,0.0122,0.,-1.429189\C,0,0.001825,1.26588,0.6
 77065\C,0,0.005,1.236871,-0.730804\C,0,0.001825,-1.26588,0.677065\C,0,
 0.005,-1.236871,-0.730804\H,0,-0.0021,2.488296,2.443647\H,0,-0.008325,
 4.633878,1.211689\H,0,0.00145,4.609487,-1.272349\H,0,0.00365,2.463125,
 -2.490059\H,0,0.01125,0.,-2.510266\H,0,0.00365,-2.463125,-2.490059\H,0
 ,0.00145,-4.609487,-1.272349\H,0,-0.008325,-4.633878,1.211689\H,0,-0.0
 021,-2.488296,2.443647\H,0,-0.875585,0.,2.145787\H,0,0.843585,0.,2.145
 787\\Version=ES64L-G16RevC.01\State=1-A'\HF=-539.760164\RMSD=4.551e-09
 \PG=CS [SG(C2H3),X(C12H8)]\\@
 The archive entry for this job was punched.


 NOTHING PUZZLES ME MORE THAN TIME AND SPACE; AND YET NOTHING TROUBLES ME LESS
                                                          -- CHARLES LAMB (1810)
 Job cpu time:       0 days  0 hours 42 minutes 16.5 seconds.
 Elapsed time:       0 days  0 hours  0 minutes 52.9 seconds.
 File lengths (MBytes):  RWF=    460 Int=      0 D2E=      0 Chk=     15 Scr=      1
 Normal termination of Gaussian 16 at Thu Jul 28 15:27:00 2022.
