 Entering Gaussian System, Link 0=g16
 Initial command:
 /apps/gaussian/g16c01/g16/l1.exe "/jobfs/53002009.gadi-pbs/Gau-748254.inp" -scrdir="/jobfs/53002009.gadi-pbs/"
 Entering Link 1 = /apps/gaussian/g16c01/g16/l1.exe PID=    748255.
  
 Copyright (c) 1988-2019, Gaussian, Inc.  All Rights Reserved.
  
 This is part of the Gaussian(R) 16 program.  It is based on
 the Gaussian(R) 09 system (copyright 2009, Gaussian, Inc.),
 the Gaussian(R) 03 system (copyright 2003, Gaussian, Inc.),
 the Gaussian(R) 98 system (copyright 1998, Gaussian, Inc.),
 the Gaussian(R) 94 system (copyright 1995, Gaussian, Inc.),
 the Gaussian 92(TM) system (copyright 1992, Gaussian, Inc.),
 the Gaussian 90(TM) system (copyright 1990, Gaussian, Inc.),
 the Gaussian 88(TM) system (copyright 1988, Gaussian, Inc.),
 the Gaussian 86(TM) system (copyright 1986, Carnegie Mellon
 University), and the Gaussian 82(TM) system (copyright 1983,
 Carnegie Mellon University). Gaussian is a federally registered
 trademark of Gaussian, Inc.
  
 This software contains proprietary and confidential information,
 including trade secrets, belonging to Gaussian, Inc.
  
 This software is provided under written license and may be
 used, copied, transmitted, or stored only in accord with that
 written license.
  
 The following legend is applicable only to US Government
 contracts under FAR:
  
                    RESTRICTED RIGHTS LEGEND
  
 Use, reproduction and disclosure by the US Government is
 subject to restrictions as set forth in subparagraphs (a)
 and (c) of the Commercial Computer Software - Restricted
 Rights clause in FAR 52.227-19.
  
 Gaussian, Inc.
 340 Quinnipiac St., Bldg. 40, Wallingford CT 06492
  
  
 ---------------------------------------------------------------
 Warning -- This program may not be used in any manner that
 competes with the business of Gaussian, Inc. or will provide
 assistance to any competitor of Gaussian, Inc.  The licensee
 of this program is prohibited from giving any competitor of
 Gaussian, Inc. access to this program.  By using this program,
 the user acknowledges that Gaussian, Inc. is engaged in the
 business of creating and licensing software in the field of
 computational chemistry and represents and warrants to the
 licensee that it is not a competitor of Gaussian, Inc. and that
 it will not use this program in any manner prohibited above.
 ---------------------------------------------------------------
  

 Cite this work as:
 Gaussian 16, Revision C.01,
 M. J. Frisch, G. W. Trucks, H. B. Schlegel, G. E. Scuseria, 
 M. A. Robb, J. R. Cheeseman, G. Scalmani, V. Barone, 
 G. A. Petersson, H. Nakatsuji, X. Li, M. Caricato, A. V. Marenich, 
 J. Bloino, B. G. Janesko, R. Gomperts, B. Mennucci, H. P. Hratchian, 
 J. V. Ortiz, A. F. Izmaylov, J. L. Sonnenberg, D. Williams-Young, 
 F. Ding, F. Lipparini, F. Egidi, J. Goings, B. Peng, A. Petrone, 
 T. Henderson, D. Ranasinghe, V. G. Zakrzewski, J. Gao, N. Rega, 
 G. Zheng, W. Liang, M. Hada, M. Ehara, K. Toyota, R. Fukuda, 
 J. Hasegawa, M. Ishida, T. Nakajima, Y. Honda, O. Kitao, H. Nakai, 
 T. Vreven, K. Throssell, J. A. Montgomery, Jr., J. E. Peralta, 
 F. Ogliaro, M. J. Bearpark, J. J. Heyd, E. N. Brothers, K. N. Kudin, 
 V. N. Staroverov, T. A. Keith, R. Kobayashi, J. Normand, 
 K. Raghavachari, A. P. Rendell, J. C. Burant, S. S. Iyengar, 
 J. Tomasi, M. Cossi, J. M. Millam, M. Klene, C. Adamo, R. Cammi, 
 J. W. Ochterski, R. L. Martin, K. Morokuma, O. Farkas, 
 J. B. Foresman, and D. J. Fox, Gaussian, Inc., Wallingford CT, 2019.
 
 ******************************************
 Gaussian 16:  ES64L-G16RevC.01  3-Jul-2019
                28-Jul-2022 
 ******************************************
 %NProcShared=48
 Will use up to   48 processors via shared memory.
 %mem = 190GB
 ---------------------------------------------------------------
 #n M062X/6-311++G(d,p) TD(NStates=1) EmpiricalDispersion=GD3 SP
 ---------------------------------------------------------------
 1/38=1,172=1/1;
 2/12=2,17=6,18=5,40=1/2;
 3/5=4,6=6,7=1111,11=9,25=1,30=1,74=-55,124=31/1,2,3,8;
 4//1;
 5/5=2,38=5/2;
 8/6=1,10=2,108=1/1;
 9/41=1,42=1,70=2/14;
 6/7=2,8=2,9=2,10=2/1;
 99/5=1,9=1/99;
 ------
 SP_-50
 ------
 Symbolic Z-matrix:
 Charge =  1 Multiplicity = 1
 C                     0.0254    2.49116   1.36043 
 C                     0.0295    3.71358   0.67199 
 C                     0.0085    3.70481  -0.71383 
 C                    -0.02722   2.47893  -1.40754 
 C                    -0.02737  -2.47923  -1.40754 
 C                     0.0076   -3.70631  -0.71383 
 C                     0.02807  -3.71411   0.67199 
 C                     0.02255  -2.49206   1.36043 
 C                     0.01528   0.0033    1.45337 
 C                    -0.0427   -0.00015  -1.42919 
 C                    -0.00628   1.24871   0.67707 
 C                    -0.0178    1.2398   -0.7308 
 C                    -0.0065   -1.24863   0.67707 
 C                    -0.0172   -1.23935  -0.7308 
 H                     0.009     2.4868    2.44365 
 H                     0.03      4.64625   1.21169 
 H                    -0.00485   4.60754  -1.27235 
 H                    -0.013     2.48293  -2.49006 
 H                    -0.03938  -0.00008  -2.51027 
 H                    -0.01255  -2.48315  -2.49006 
 H                    -0.0053   -4.60941  -1.27235 
 H                     0.02828  -4.64738   1.21169 
 H                     0.0057   -2.48777   2.44365 
 H                    -0.80359   0.00075   2.14496 
 H                     0.91559   0.00075   2.14661 
 
                          Input orientation:                          
 ---------------------------------------------------------------------
 Center     Atomic      Atomic             Coordinates (Angstroms)
 Number     Number       Type             X           Y           Z
 ---------------------------------------------------------------------
      1          6           0        0.025400    2.491155    1.360431
      2          6           0        0.029500    3.713583    0.671989
      3          6           0        0.008500    3.704811   -0.713830
      4          6           0       -0.027225    2.478931   -1.407538
      5          6           0       -0.027375   -2.479231   -1.407538
      6          6           0        0.007600   -3.706311   -0.713830
      7          6           0        0.028075   -3.714108    0.671989
      8          6           0        0.022550   -2.492055    1.360431
      9          6           0        0.015275    0.003300    1.453369
     10          6           0       -0.042700   -0.000150   -1.429189
     11          6           0       -0.006275    1.248705    0.677065
     12          6           0       -0.017800    1.239796   -0.730804
     13          6           0       -0.006500   -1.248630    0.677065
     14          6           0       -0.017200   -1.239346   -0.730804
     15          1           0        0.009000    2.486796    2.443647
     16          1           0        0.030000    4.646253    1.211689
     17          1           0       -0.004850    4.607537   -1.272349
     18          1           0       -0.013000    2.482925   -2.490059
     19          1           0       -0.039375   -0.000075   -2.510266
     20          1           0       -0.012550   -2.483150   -2.490059
     21          1           0       -0.005300   -4.609412   -1.272349
     22          1           0        0.028275   -4.647378    1.211689
     23          1           0        0.005700   -2.487771    2.443647
     24          1           0       -0.803585    0.000750    2.144962
     25          1           0        0.915585    0.000750    2.146612
 ---------------------------------------------------------------------
                    Distance matrix (angstroms):
                    1          2          3          4          5
     1  C    0.000000
     2  C    1.402961   0.000000
     3  C    2.403290   1.386006   0.000000
     4  C    2.768496   2.419094   1.409003   0.000000
     5  C    5.689391   6.532887   6.222933   4.958162   0.000000
     6  C    6.535401   7.548232   7.411122   6.224119   1.410028
     7  C    6.243336   7.427691   7.547267   6.533087   2.419179
     8  C    4.983211   6.243712   6.534822   5.689889   2.768449
     9  C    2.489611   3.791696   4.289287   3.783562   3.788082
    10  C    3.740751   4.267549   3.773738   2.479224   2.479223
    11  C    1.418335   2.465143   2.822634   2.420633   4.271244
    12  C    2.437423   2.844238   2.465214   1.411918   3.780109
    13  C    3.801841   4.962346   5.145036   4.270914   2.420823
    14  C    4.276882   5.147962   4.944253   3.779372   1.412582
    15  H    1.083349   2.155040   3.384261   3.851363   6.284455
    16  H    2.160230   1.077567   2.143455   3.400134   7.591849
    17  H    3.378094   2.140277   1.061619   2.133012   7.088093
    18  H    3.850690   3.393357   2.156028   1.082622   5.078883
    19  H    4.603555   4.891088   4.117724   2.713232   2.713368
    20  H    6.290582   6.956998   6.437880   5.078810   1.082630
    21  H    7.573013   8.547158   8.332973   7.089666   2.134581
    22  H    7.140083   8.378362   8.571294   7.592609   3.400634
    23  H    5.095434   6.449506   6.951096   6.284969   3.851336
    24  H    2.739493   4.080295   4.748920   4.400497   4.401484
    25  H    2.759099   4.092040   4.767075   4.434214   4.435252
                    6          7          8          9         10
     6  C    0.000000
     7  C    1.385992   0.000000
     8  C    2.403581   1.402639   0.000000
     9  C    4.296280   3.798663   2.497096   0.000000
    10  C    3.774904   4.267721   3.741100   2.883143   0.000000
    11  C    5.146549   4.962934   3.802776   1.467701   2.448933
    12  C    4.946201   5.148893   4.278037   2.510105   1.423316
    13  C    2.824001   2.465726   1.419133   1.473245   2.448738
    14  C    2.467148   2.845053   2.438057   2.513133   1.422673
    15  H    6.951564   6.449058   5.095341   2.673657   4.602872
    16  H    8.571666   8.377763   7.139861   4.649262   5.344959
    17  H    8.332597   8.545836   7.572086   5.350602   4.610511
    18  H    6.439104   6.957259   6.291102   4.658322   2.700368
    19  H    4.118929   4.891353   4.603922   3.964013   1.081082
    20  H    2.156738   3.393443   3.850660   4.661956   2.700304
    21  H    1.061933   2.140825   3.378684   5.357898   4.612081
    22  H    2.143282   1.078086   2.160457   4.656972   5.345653
    23  H    3.384450   2.154803   1.083356   2.680705   4.603201
    24  H    4.751107   4.081847   2.740815   1.071839   3.654244
    25  H    4.769577   4.094186   2.762186   1.136288   3.701981
                   11         12         13         14         15
    11  C    0.000000
    12  C    1.407944   0.000000
    13  C    2.497335   2.859106   0.000000
    14  C    2.858778   2.479142   1.407940   0.000000
    15  H    2.157293   3.410699   4.132125   4.895095   0.000000
    16  H    3.439545   3.921672   5.919189   6.198047   2.486245
    17  H    3.883551   3.411029   6.172107   5.871922   4.278593
    18  H    3.399120   2.154152   4.894407   4.117074   4.933757
    19  H    3.423394   2.168924   3.423310   2.168587   5.543295
    20  H    4.894635   4.117685   3.399228   2.154541   7.003020
    21  H    6.173957   5.874237   3.885238   3.413321   8.010306
    22  H    5.920373   6.199534   3.440715   3.923013   7.239788
    23  H    4.133063   4.896167   2.157877   3.411192   4.974568
    24  H    2.085142   3.228424   2.085909   3.228973   2.632476
    25  H    2.137004   3.268939   2.137933   3.269166   2.662809
                   16         17         18         19         20
    16  H    0.000000
    17  H    2.484584   0.000000
    18  H    4.287747   2.448849   0.000000
    19  H    5.953665   4.771134   2.483222   0.000000
    20  H    8.033252   7.194492   4.966075   2.483302   0.000000
    21  H    9.583268   9.216949   7.196118   4.772797   2.450278
    22  H    9.293631   9.582536   8.034044   5.954406   4.288180
    23  H    7.239655   8.009503   7.003544   5.543638   4.933742
    24  H    4.811087   5.791242   5.316920   4.717538   5.317792
    25  H    4.820689   5.810248   5.340616   4.753784   5.341340
                   21         22         23         24         25
    21  H    0.000000
    22  H    2.484555   0.000000
    23  H    4.279031   2.486389   0.000000
    24  H    5.793865   4.813324   2.633798   0.000000
    25  H    5.812996   4.823535   2.666244   1.719171   0.000000
 Stoichiometry    C14H11(1+)
 Framework group  C1[X(C14H11)]
 Deg. of freedom    69
 Full point group                 C1      NOp   1
 Largest Abelian subgroup         C1      NOp   1
 Largest concise Abelian subgroup C1      NOp   1
                         Standard orientation:                         
 ---------------------------------------------------------------------
 Center     Atomic      Atomic             Coordinates (Angstroms)
 Number     Number       Type             X           Y           Z
 ---------------------------------------------------------------------
      1          6           0       -2.491247   -1.360486    0.003353
      2          6           0       -3.713632   -0.672108    0.017844
      3          6           0       -3.704768    0.713870    0.018201
      4          6           0       -2.478837    1.407965   -0.006613
      5          6           0        2.479325    1.407638   -0.005885
      6          6           0        3.706354    0.713392    0.018614
      7          6           0        3.714060   -0.672578    0.017735
      8          6           0        2.491964   -1.360772    0.001386
      9          6           0       -0.003396   -1.453422   -0.007762
     10          6           0        0.000248    1.429687   -0.021314
     11          6           0       -1.248748   -0.676795   -0.017568
     12          6           0       -1.239747    0.731084   -0.007397
     13          6           0        1.248587   -0.676957   -0.017351
     14          6           0        1.239395    0.730910   -0.006358
     15          1           0       -2.486954   -2.443321   -0.029735
     16          1           0       -4.646336   -1.211689    0.009863
     17          1           0       -4.607456    1.272588    0.013299
     18          1           0       -2.482765    2.490138    0.024289
     19          1           0        0.000241    2.510585   -0.001331
     20          1           0        2.483310    2.489802    0.025619
     21          1           0        4.609493    1.271984    0.014482
     22          1           0        4.647295   -1.212279    0.009784
     23          1           0        2.487614   -2.443600   -0.032153
     24          1           0       -0.000744   -2.132315   -0.837181
     25          1           0       -0.001050   -2.160455    0.881760
 ---------------------------------------------------------------------
 Rotational constants (GHZ):           2.1353581           0.4417192           0.3668174
 Standard basis: 6-311++G(d,p) (5D, 7F)
 There are   399 symmetry adapted cartesian basis functions of A   symmetry.
 There are   385 symmetry adapted basis functions of A   symmetry.
   385 basis functions,   603 primitive gaussians,   399 cartesian basis functions
    47 alpha electrons       47 beta electrons
       nuclear repulsion energy       779.5392864027 Hartrees.
 NAtoms=   25 NActive=   25 NUniq=   25 SFac= 1.00D+00 NAtFMM=   60 NAOKFM=F Big=F
 Integral buffers will be    131072 words long.
 Regular integral format.
 Two-electron integral symmetry is turned on.
 Nuclear repulsion after empirical dispersion term =      779.5383063013 Hartrees.
 One-electron integrals computed using PRISM.
 NBasis=   385 RedAO= T EigKep=  1.35D-06  NBF=   385
 NBsUse=   379 1.00D-06 EigRej=  8.95D-07 NBFU=   379
 ExpMin= 3.60D-02 ExpMax= 4.56D+03 ExpMxC= 6.82D+02 IAcc=3 IRadAn=         5 AccDes= 0.00D+00
 Harris functional with IExCor= 1009 and IRadAn=       5 diagonalized for initial guess.
 HarFok:  IExCor= 1009 AccDes= 0.00D+00 IRadAn=         5 IDoV= 1 UseB2=F ITyADJ=14
 ICtDFT=  3500011 ScaDFX=  1.000000  1.000000  1.000000  1.000000
 FoFCou: FMM=F IPFlag=           0 FMFlag=      100000 FMFlg1=           0
         NFxFlg=           0 DoJE=T BraDBF=F KetDBF=T FulRan=T
         wScrn=  0.000000 ICntrl=       500 IOpCl=  0 I1Cent=   200000004 NGrid=           0
         NMat0=    1 NMatS0=      1 NMatT0=    0 NMatD0=    1 NMtDS0=    0 NMtDT0=    0
 Petite list used in FoFCou.
 Requested convergence on RMS density matrix=1.00D-08 within 128 cycles.
 Requested convergence on MAX density matrix=1.00D-06.
 Requested convergence on             energy=1.00D-06.
 No special actions if energy rises.
 SCF Done:  E(RM062X) =  -539.756077080     A.U. after   15 cycles
            NFock= 15  Conv=0.49D-08     -V/T= 2.0044
 DoSCS=F DFT=T ScalE2(SS,OS)=  1.000000  1.000000
 ExpMin= 3.60D-02 ExpMax= 4.56D+03 ExpMxC= 6.82D+02 IAcc=3 IRadAn=         5 AccDes= 0.00D+00
 HarFok:  IExCor=  205 AccDes= 0.00D+00 IRadAn=         5 IDoV=-2 UseB2=F ITyADJ=14
 ICtDFT= 12500011 ScaDFX=  1.000000  1.000000  1.000000  1.000000
 Range of M.O.s used for correlation:    15   379
 NBasis=   385 NAE=    47 NBE=    47 NFC=    14 NFV=     0
 NROrb=    365 NOA=    33 NOB=    33 NVA=   332 NVB=   332

 **** Warning!!: The largest alpha MO coefficient is  0.14940084D+03

 Orbital symmetries:
       Occupied  (A) (A) (A) (A) (A) (A) (A) (A) (A) (A) (A) (A)
                 (A) (A) (A) (A) (A) (A) (A) (A) (A) (A) (A) (A)
                 (A) (A) (A) (A) (A) (A) (A) (A) (A) (A) (A) (A)
                 (A) (A) (A) (A) (A) (A) (A) (A) (A) (A) (A)
       Virtual   (A) (A) (A) (A) (A) (A) (A) (A) (A) (A) (A) (A)
                 (A) (A) (A) (A) (A) (A) (A) (A) (A) (A) (A) (A)
                 (A) (A) (A) (A) (A) (A) (A) (A) (A) (A) (A) (A)
                 (A) (A) (A) (A) (A) (A) (A) (A) (A) (A) (A) (A)
                 (A) (A) (A) (A) (A) (A) (A) (A) (A) (A) (A) (A)
                 (A) (A) (A) (A) (A) (A) (A) (A) (A) (A) (A) (A)
                 (A) (A) (A) (A) (A) (A) (A) (A) (A) (A) (A) (A)
                 (A) (A) (A) (A) (A) (A) (A) (A) (A) (A) (A) (A)
                 (A) (A) (A) (A) (A) (A) (A) (A) (A) (A) (A) (A)
                 (A) (A) (A) (A) (A) (A) (A) (A) (A) (A) (A) (A)
                 (A) (A) (A) (A) (A) (A) (A) (A) (A) (A) (A) (A)
                 (A) (A) (A) (A) (A) (A) (A) (A) (A) (A) (A) (A)
                 (A) (A) (A) (A) (A) (A) (A) (A) (A) (A) (A) (A)
                 (A) (A) (A) (A) (A) (A) (A) (A) (A) (A) (A) (A)
                 (A) (A) (A) (A) (A) (A) (A) (A) (A) (A) (A) (A)
                 (A) (A) (A) (A) (A) (A) (A) (A) (A) (A) (A) (A)
                 (A) (A) (A) (A) (A) (A) (A) (A) (A) (A) (A) (A)
                 (A) (A) (A) (A) (A) (A) (A) (A) (A) (A) (A) (A)
                 (A) (A) (A) (A) (A) (A) (A) (A) (A) (A) (A) (A)
                 (A) (A) (A) (A) (A) (A) (A) (A) (A) (A) (A) (A)
                 (A) (A) (A) (A) (A) (A) (A) (A) (A) (A) (A) (A)
                 (A) (A) (A) (A) (A) (A) (A) (A) (A) (A) (A) (A)
                 (A) (A) (A) (A) (A) (A) (A) (A) (A) (A) (A) (A)
                 (A) (A) (A) (A) (A) (A) (A) (A) (A) (A) (A) (A)
                 (A) (A) (A) (A) (A) (A) (A) (A) (A) (A) (A) (A)
                 (A) (A) (A) (A) (A) (A) (A) (A) (A) (A) (A) (A)
                 (A) (A) (A) (A) (A) (A) (A) (A) (A) (A) (A) (A)
                 (A) (A) (A) (A) (A) (A) (A) (A)
     4 initial guesses have been made.
 Convergence on wavefunction:    0.001000000000000
 Iteration     1 Dimension     4 NMult     0 NNew      4
 CISAX will form     4 AO SS matrices at one time.
 Iteration     2 Dimension     6 NMult     4 NNew      2
 Iteration     3 Dimension     8 NMult     6 NNew      2
 Iteration     4 Dimension    10 NMult     8 NNew      2
 Iteration     5 Dimension    12 NMult    10 NNew      2
 Iteration     6 Dimension    14 NMult    12 NNew      2
 ***********************************************************************
 Excited states from <AA,BB:AA,BB> singles matrix:
 ***********************************************************************
 
 Ground to excited state transition densities written to RWF  633
 Ground to excited state transition electric dipole moments (Au):
       state          X           Y           Z        Dip. S.      Osc.
         1        -0.0045     -0.6321      0.0069      0.3996      0.0273
 Ground to excited state transition velocity dipole moments (Au):
       state          X           Y           Z        Dip. S.      Osc.
         1         0.0005      0.0724     -0.0009      0.0052      0.0341
 Ground to excited state transition magnetic dipole moments (Au):
       state          X           Y           Z
         1        -0.0090     -0.0003     -0.0000
 Ground to excited state transition velocity quadrupole moments (Au):
       state          XX          YY          ZZ          XY          XZ          YZ
         1         0.3152      0.0302     -0.0094      0.0006      0.0001      0.0015
 <0|del|b> * <b|rxdel|0> + <0|del|b> * <b|delr+rdel|0>
 Rotatory Strengths (R) in cgs (10**-40 erg-esu-cm/Gauss)
       state          XX          YY          ZZ    R(velocity)    E-M Angle
         1        -0.0924     -0.0101     -0.0813     -0.0613       90.00
 1/2[<0|r|b>*<b|rxdel|0> + (<0|rxdel|b>*<b|r|0>)*]
 Rotatory Strengths (R) in cgs (10**-40 erg-esu-cm/Gauss)
       state          XX          YY          ZZ     R(length)
         1        -0.0285     -0.1391      0.0001     -0.0558
  1/2[<0|del|b>*<b|r|0> + (<0|r|b>*<b|del|0>)*] (Au)
       state          X           Y           Z        Dip. S.   Osc.(frdel)
         1        -0.0000     -0.0457     -0.0000      0.0457      0.0305

 Excitation energies and oscillator strengths:
 
 Excited State   1:      Singlet-A      2.7894 eV  444.48 nm  f=0.0273  <S**2>=0.000
      47 -> 48         0.70427
 This state for optimization and/or second-order correction.
 Total Energy, E(TD-HF/TD-DFT) =  -539.653567475    
 Copying the excited state density for this state as the 1-particle RhoCI density.
 SavETr:  write IOETrn=   770 NScale= 10 NData=  16 NLR=1 NState=    1 LETran=      28.

 **********************************************************************

            Population analysis using the SCF Density.

 **********************************************************************

 Orbital symmetries:
       Occupied  (A) (A) (A) (A) (A) (A) (A) (A) (A) (A) (A) (A)
                 (A) (A) (A) (A) (A) (A) (A) (A) (A) (A) (A) (A)
                 (A) (A) (A) (A) (A) (A) (A) (A) (A) (A) (A) (A)
                 (A) (A) (A) (A) (A) (A) (A) (A) (A) (A) (A)
       Virtual   (A) (A) (A) (A) (A) (A) (A) (A) (A) (A) (A) (A)
                 (A) (A) (A) (A) (A) (A) (A) (A) (A) (A) (A) (A)
                 (A) (A) (A) (A) (A) (A) (A) (A) (A) (A) (A) (A)
                 (A) (A) (A) (A) (A) (A) (A) (A) (A) (A) (A) (A)
                 (A) (A) (A) (A) (A) (A) (A) (A) (A) (A) (A) (A)
                 (A) (A) (A) (A) (A) (A) (A) (A) (A) (A) (A) (A)
                 (A) (A) (A) (A) (A) (A) (A) (A) (A) (A) (A) (A)
                 (A) (A) (A) (A) (A) (A) (A) (A) (A) (A) (A) (A)
                 (A) (A) (A) (A) (A) (A) (A) (A) (A) (A) (A) (A)
                 (A) (A) (A) (A) (A) (A) (A) (A) (A) (A) (A) (A)
                 (A) (A) (A) (A) (A) (A) (A) (A) (A) (A) (A) (A)
                 (A) (A) (A) (A) (A) (A) (A) (A) (A) (A) (A) (A)
                 (A) (A) (A) (A) (A) (A) (A) (A) (A) (A) (A) (A)
                 (A) (A) (A) (A) (A) (A) (A) (A) (A) (A) (A) (A)
                 (A) (A) (A) (A) (A) (A) (A) (A) (A) (A) (A) (A)
                 (A) (A) (A) (A) (A) (A) (A) (A) (A) (A) (A) (A)
                 (A) (A) (A) (A) (A) (A) (A) (A) (A) (A) (A) (A)
                 (A) (A) (A) (A) (A) (A) (A) (A) (A) (A) (A) (A)
                 (A) (A) (A) (A) (A) (A) (A) (A) (A) (A) (A) (A)
                 (A) (A) (A) (A) (A) (A) (A) (A) (A) (A) (A) (A)
                 (A) (A) (A) (A) (A) (A) (A) (A) (A) (A) (A) (A)
                 (A) (A) (A) (A) (A) (A) (A) (A) (A) (A) (A) (A)
                 (A) (A) (A) (A) (A) (A) (A) (A) (A) (A) (A) (A)
                 (A) (A) (A) (A) (A) (A) (A) (A) (A) (A) (A) (A)
                 (A) (A) (A) (A) (A) (A) (A) (A) (A) (A) (A) (A)
                 (A) (A) (A) (A) (A) (A) (A) (A) (A) (A) (A) (A)
                 (A) (A) (A) (A) (A) (A) (A) (A) (A) (A) (A) (A)
                 (A) (A) (A) (A) (A) (A) (A) (A)
 The electronic state is 1-A.
 Alpha  occ. eigenvalues --  -10.77655 -10.73322 -10.73280 -10.72588 -10.72585
 Alpha  occ. eigenvalues --  -10.71564 -10.71542 -10.71120 -10.71112 -10.70980
 Alpha  occ. eigenvalues --  -10.70180 -10.70165 -10.69586 -10.69566  -1.16333
 Alpha  occ. eigenvalues --   -1.12093  -1.06762  -1.05841  -1.00996  -1.00183
 Alpha  occ. eigenvalues --   -0.95648  -0.91086  -0.86406  -0.85841  -0.83798
 Alpha  occ. eigenvalues --   -0.78391  -0.75991  -0.74343  -0.69600  -0.69379
 Alpha  occ. eigenvalues --   -0.68706  -0.68269  -0.68100  -0.64471  -0.64053
 Alpha  occ. eigenvalues --   -0.63219  -0.62096  -0.59848  -0.59401  -0.59179
 Alpha  occ. eigenvalues --   -0.56951  -0.55296  -0.54932  -0.52295  -0.46421
 Alpha  occ. eigenvalues --   -0.46008  -0.44329
 Alpha virt. eigenvalues --   -0.26063  -0.14892  -0.14151  -0.13005  -0.11177
 Alpha virt. eigenvalues --   -0.10078  -0.09203  -0.08030  -0.07899  -0.07463
 Alpha virt. eigenvalues --   -0.07237  -0.07138  -0.05648  -0.05583  -0.05370
 Alpha virt. eigenvalues --   -0.03770  -0.03668  -0.03287  -0.03132  -0.02148
 Alpha virt. eigenvalues --   -0.01355  -0.00905   0.00192   0.00674   0.00741
 Alpha virt. eigenvalues --    0.01033   0.01510   0.01856   0.02195   0.02302
 Alpha virt. eigenvalues --    0.02405   0.02544   0.02777   0.03230   0.03406
 Alpha virt. eigenvalues --    0.04256   0.04497   0.04678   0.04938   0.05353
 Alpha virt. eigenvalues --    0.05976   0.06281   0.06607   0.07025   0.07187
 Alpha virt. eigenvalues --    0.07838   0.07988   0.08326   0.08473   0.08939
 Alpha virt. eigenvalues --    0.09567   0.09593   0.10017   0.10729   0.10993
 Alpha virt. eigenvalues --    0.11128   0.12259   0.12290   0.12860   0.13070
 Alpha virt. eigenvalues --    0.13406   0.13522   0.14037   0.14178   0.15862
 Alpha virt. eigenvalues --    0.16425   0.16686   0.17292   0.17422   0.17650
 Alpha virt. eigenvalues --    0.18066   0.18831   0.19142   0.19560   0.19712
 Alpha virt. eigenvalues --    0.21399   0.21436   0.22595   0.23134   0.23281
 Alpha virt. eigenvalues --    0.23582   0.24528   0.24640   0.26774   0.27408
 Alpha virt. eigenvalues --    0.28817   0.29261   0.29774   0.31129   0.35783
 Alpha virt. eigenvalues --    0.36121   0.37789   0.39083   0.41153   0.41512
 Alpha virt. eigenvalues --    0.41916   0.42437   0.43051   0.43500   0.44144
 Alpha virt. eigenvalues --    0.44545   0.44677   0.44906   0.46036   0.47871
 Alpha virt. eigenvalues --    0.48643   0.48939   0.49040   0.50477   0.51125
 Alpha virt. eigenvalues --    0.51286   0.51303   0.52137   0.52369   0.54002
 Alpha virt. eigenvalues --    0.54119   0.54431   0.55766   0.55821   0.57337
 Alpha virt. eigenvalues --    0.58148   0.58728   0.61333   0.62009   0.62275
 Alpha virt. eigenvalues --    0.62817   0.63667   0.63936   0.65125   0.66896
 Alpha virt. eigenvalues --    0.70478   0.70557   0.70908   0.71950   0.72675
 Alpha virt. eigenvalues --    0.75157   0.75577   0.76100   0.76313   0.76833
 Alpha virt. eigenvalues --    0.77284   0.77600   0.78056   0.80395   0.80659
 Alpha virt. eigenvalues --    0.81092   0.81589   0.81997   0.82745   0.84571
 Alpha virt. eigenvalues --    0.86564   0.86682   0.87867   0.89521   0.90497
 Alpha virt. eigenvalues --    0.90746   0.91471   0.93083   0.94762   0.96283
 Alpha virt. eigenvalues --    0.96768   1.00426   1.01236   1.01547   1.02643
 Alpha virt. eigenvalues --    1.02930   1.04009   1.04283   1.06266   1.08892
 Alpha virt. eigenvalues --    1.19860   1.23325   1.24098   1.25517   1.27978
 Alpha virt. eigenvalues --    1.29046   1.32189   1.33457   1.35211   1.35894
 Alpha virt. eigenvalues --    1.38881   1.40204   1.40305   1.42769   1.42968
 Alpha virt. eigenvalues --    1.43271   1.44896   1.44943   1.46605   1.46828
 Alpha virt. eigenvalues --    1.47413   1.47552   1.51515   1.53598   1.55426
 Alpha virt. eigenvalues --    1.55814   1.56214   1.56358   1.57540   1.61160
 Alpha virt. eigenvalues --    1.63539   1.64177   1.64198   1.65909   1.67846
 Alpha virt. eigenvalues --    1.68462   1.68633   1.69649   1.73793   1.75850
 Alpha virt. eigenvalues --    1.76945   1.77740   1.79302   1.79831   1.79971
 Alpha virt. eigenvalues --    1.83015   1.83112   1.83181   1.83423   1.83920
 Alpha virt. eigenvalues --    1.84348   1.85711   1.85818   1.88053   1.91536
 Alpha virt. eigenvalues --    1.91560   1.94103   1.95280   1.97321   1.97491
 Alpha virt. eigenvalues --    1.99133   2.02310   2.03892   2.07573   2.11539
 Alpha virt. eigenvalues --    2.11787   2.13356   2.15047   2.18304   2.20677
 Alpha virt. eigenvalues --    2.21938   2.28290   2.29365   2.34222   2.35589
 Alpha virt. eigenvalues --    2.35846   2.39156   2.40489   2.40981   2.41957
 Alpha virt. eigenvalues --    2.45777   2.48251   2.49352   2.52639   2.53687
 Alpha virt. eigenvalues --    2.54034   2.56839   2.57761   2.58352   2.59584
 Alpha virt. eigenvalues --    2.59705   2.61328   2.61749   2.63077   2.63650
 Alpha virt. eigenvalues --    2.63971   2.64350   2.64806   2.65293   2.67688
 Alpha virt. eigenvalues --    2.68949   2.70827   2.71285   2.73403   2.74789
 Alpha virt. eigenvalues --    2.76248   2.78112   2.79485   2.82173   2.82772
 Alpha virt. eigenvalues --    2.84105   2.86309   2.92012   2.96164   2.99314
 Alpha virt. eigenvalues --    2.99511   3.05878   3.09755   3.10300   3.11206
 Alpha virt. eigenvalues --    3.20778   3.23366   3.25669   3.27488   3.30056
 Alpha virt. eigenvalues --    3.30995   3.32492   3.43291   3.44290   3.45470
 Alpha virt. eigenvalues --    3.47047   3.49078   3.56082   3.64741   3.67127
 Alpha virt. eigenvalues --    3.68312   3.94315   3.95776   3.96021   3.97410
 Alpha virt. eigenvalues --    4.04618   4.06614   4.07346   4.12390   4.35652
 Alpha virt. eigenvalues --    4.61491   4.68504   4.70165  23.45680  23.61793
 Alpha virt. eigenvalues --   23.81241  23.86127  23.86873  23.89025  23.90390
 Alpha virt. eigenvalues --   23.92319  23.96250  23.96824  23.97000  23.98781
 Alpha virt. eigenvalues --   24.08988  24.09162
          Condensed to atoms (all electrons):
               1          2          3          4          5          6
     1  C    8.294307   0.556445  -0.586350   1.581352   0.016560  -0.083292
     2  C    0.556445   6.848146   0.365202  -0.772533  -0.045660  -0.014338
     3  C   -0.586350   0.365202   6.568043   0.557786  -0.109434   0.016239
     4  C    1.581352  -0.772533   0.557786  10.213069  -0.015965  -0.109138
     5  C    0.016560  -0.045660  -0.109434  -0.015965  10.196415   0.547448
     6  C   -0.083292  -0.014338   0.016239  -0.109138   0.547448   6.566167
     7  C   -0.032934   0.007814  -0.014428  -0.046085  -0.759830   0.362983
     8  C    0.375470  -0.032414  -0.083343   0.014053   1.588073  -0.591894
     9  C   -1.382869  -0.593091   0.272076  -0.444542  -0.448720   0.273007
    10  C   -1.068518   0.150004  -0.324271  -2.274228  -2.269835  -0.321697
    11  C    0.170540  -0.946080   1.098403  -0.750870  -1.611455  -0.130704
    12  C   -1.357880   0.971068  -1.287701  -0.625874  -0.099098  -0.212076
    13  C    0.073324  -0.176732  -0.133375  -1.619382  -0.766703   1.102819
    14  C   -1.007270  -0.209739  -0.212455  -0.106961  -0.621516  -1.279486
    15  H    0.356390  -0.099963  -0.000012   0.023918   0.005275   0.001153
    16  H   -0.023437   0.381185  -0.018681   0.013050  -0.001425  -0.000311
    17  H   -0.018020  -0.024005   0.383811  -0.058269  -0.000154   0.000365
    18  H    0.043735   0.008874  -0.094851   0.440496   0.012083  -0.004562
    19  H   -0.044613  -0.008915   0.052365  -0.078137  -0.078028   0.052449
    20  H    0.007252   0.001572  -0.004566   0.011979   0.439384  -0.095176
    21  H   -0.001243  -0.000357   0.000367  -0.000139  -0.058098   0.383745
    22  H    0.000638   0.000342  -0.000313  -0.001446   0.013192  -0.018797
    23  H    0.005649  -0.002577   0.001153   0.005311   0.023707  -0.000033
    24  H    0.014000   0.014944  -0.001713  -0.013431  -0.013981  -0.001524
    25  H    0.049695   0.012879  -0.000734  -0.012496  -0.011916  -0.000984
               7          8          9         10         11         12
     1  C   -0.032934   0.375470  -1.382869  -1.068518   0.170540  -1.357880
     2  C    0.007814  -0.032414  -0.593091   0.150004  -0.946080   0.971068
     3  C   -0.014428  -0.083343   0.272076  -0.324271   1.098403  -1.287701
     4  C   -0.046085   0.014053  -0.444542  -2.274228  -0.750870  -0.625874
     5  C   -0.759830   1.588073  -0.448720  -2.269835  -1.611455  -0.099098
     6  C    0.362983  -0.591894   0.273007  -0.321697  -0.130704  -0.212076
     7  C    6.830156   0.559778  -0.583309   0.145959  -0.171504  -0.209319
     8  C    0.559778   8.284200  -1.375608  -1.067134   0.075932  -0.995651
     9  C   -0.583309  -1.375608   8.812916   0.412150   1.569412  -1.353410
    10  C    0.145959  -1.067134   0.412150   8.934124  -0.290185   1.849746
    11  C   -0.171504   0.075932   1.569412  -0.290185  14.084219  -3.402493
    12  C   -0.209319  -0.995651  -1.353410   1.849746  -3.402493  14.498939
    13  C   -0.939873   0.151654   1.567279  -0.299954   1.415197  -4.580988
    14  C    0.955165  -1.356123  -1.351115   1.845685  -4.562848   2.406820
    15  H   -0.002524   0.005606   0.083875  -0.009437  -0.017554  -0.020441
    16  H    0.000336   0.000592   0.003491  -0.009950   0.025974  -0.028814
    17  H   -0.000354  -0.001228  -0.003051   0.017608  -0.020827   0.072548
    18  H    0.001564   0.007198  -0.027402   0.027557  -0.026398  -0.034433
    19  H   -0.008998  -0.044582   0.071326   0.424155   0.086340  -0.068329
    20  H    0.009311   0.043616  -0.027376   0.028134  -0.011677  -0.005662
    21  H   -0.024189  -0.017672  -0.003057   0.017583  -0.005444   0.003889
    22  H    0.381034  -0.023005   0.003749  -0.010135   0.002437  -0.008427
    23  H   -0.099179   0.356822   0.083673  -0.009365  -0.000631   0.006098
    24  H    0.015543   0.015694   0.374462   0.007319   0.002655  -0.038403
    25  H    0.012085   0.047423   0.342383   0.004737   0.022316  -0.078624
              13         14         15         16         17         18
     1  C    0.073324  -1.007270   0.356390  -0.023437  -0.018020   0.043735
     2  C   -0.176732  -0.209739  -0.099963   0.381185  -0.024005   0.008874
     3  C   -0.133375  -0.212455  -0.000012  -0.018681   0.383811  -0.094851
     4  C   -1.619382  -0.106961   0.023918   0.013050  -0.058269   0.440496
     5  C   -0.766703  -0.621516   0.005275  -0.001425  -0.000154   0.012083
     6  C    1.102819  -1.279486   0.001153  -0.000311   0.000365  -0.004562
     7  C   -0.939873   0.955165  -0.002524   0.000336  -0.000354   0.001564
     8  C    0.151654  -1.356123   0.005606   0.000592  -0.001228   0.007198
     9  C    1.567279  -1.351115   0.083875   0.003491  -0.003051  -0.027402
    10  C   -0.299954   1.845685  -0.009437  -0.009950   0.017608   0.027557
    11  C    1.415197  -4.562848  -0.017554   0.025974  -0.020827  -0.026398
    12  C   -4.580988   2.406820  -0.020441  -0.028814   0.072548  -0.034433
    13  C   14.148601  -3.393973  -0.000478   0.002369  -0.005471  -0.012031
    14  C   -3.393973  14.500196   0.006180  -0.008332   0.003902  -0.006084
    15  H   -0.000478   0.006180   0.441111  -0.008974   0.001582   0.000100
    16  H    0.002369  -0.008332  -0.008974   0.420398  -0.007097   0.001969
    17  H   -0.005471   0.003902   0.001582  -0.007097   0.425850  -0.010676
    18  H   -0.012031  -0.006084   0.000100   0.001969  -0.010676   0.455192
    19  H    0.086845  -0.067590   0.000362  -0.000588   0.001480  -0.006337
    20  H   -0.026594  -0.034605  -0.000138   0.000017  -0.000149   0.001292
    21  H   -0.020705   0.072059   0.000021  -0.000007   0.000011  -0.000148
    22  H    0.026415  -0.029718  -0.000128   0.000007  -0.000007   0.000016
    23  H   -0.018030  -0.020381   0.000574  -0.000127   0.000021  -0.000136
    24  H    0.002634  -0.037336  -0.001711   0.000791  -0.000207   0.000134
    25  H    0.021948  -0.079972  -0.000183   0.000434  -0.000089   0.000241
              19         20         21         22         23         24
     1  C   -0.044613   0.007252  -0.001243   0.000638   0.005649   0.014000
     2  C   -0.008915   0.001572  -0.000357   0.000342  -0.002577   0.014944
     3  C    0.052365  -0.004566   0.000367  -0.000313   0.001153  -0.001713
     4  C   -0.078137   0.011979  -0.000139  -0.001446   0.005311  -0.013431
     5  C   -0.078028   0.439384  -0.058098   0.013192   0.023707  -0.013981
     6  C    0.052449  -0.095176   0.383745  -0.018797  -0.000033  -0.001524
     7  C   -0.008998   0.009311  -0.024189   0.381034  -0.099179   0.015543
     8  C   -0.044582   0.043616  -0.017672  -0.023005   0.356822   0.015694
     9  C    0.071326  -0.027376  -0.003057   0.003749   0.083673   0.374462
    10  C    0.424155   0.028134   0.017583  -0.010135  -0.009365   0.007319
    11  C    0.086340  -0.011677  -0.005444   0.002437  -0.000631   0.002655
    12  C   -0.068329  -0.005662   0.003889  -0.008427   0.006098  -0.038403
    13  C    0.086845  -0.026594  -0.020705   0.026415  -0.018030   0.002634
    14  C   -0.067590  -0.034605   0.072059  -0.029718  -0.020381  -0.037336
    15  H    0.000362  -0.000138   0.000021  -0.000128   0.000574  -0.001711
    16  H   -0.000588   0.000017  -0.000007   0.000007  -0.000127   0.000791
    17  H    0.001480  -0.000149   0.000011  -0.000007   0.000021  -0.000207
    18  H   -0.006337   0.001292  -0.000148   0.000016  -0.000136   0.000134
    19  H    0.447652  -0.006318   0.001470  -0.000585   0.000366   0.000681
    20  H   -0.006318   0.455272  -0.010611   0.001977   0.000088   0.000123
    21  H    0.001470  -0.010611   0.425618  -0.007082   0.001585  -0.000204
    22  H   -0.000585   0.001977  -0.007082   0.420418  -0.008978   0.000768
    23  H    0.000366   0.000088   0.001585  -0.008978   0.440818  -0.001592
    24  H    0.000681   0.000123  -0.000204   0.000768  -0.001592   0.490997
    25  H    0.000505   0.000259  -0.000096   0.000458  -0.000288  -0.078099
              25
     1  C    0.049695
     2  C    0.012879
     3  C   -0.000734
     4  C   -0.012496
     5  C   -0.011916
     6  C   -0.000984
     7  C    0.012085
     8  C    0.047423
     9  C    0.342383
    10  C    0.004737
    11  C    0.022316
    12  C   -0.078624
    13  C    0.021948
    14  C   -0.079972
    15  H   -0.000183
    16  H    0.000434
    17  H   -0.000089
    18  H    0.000241
    19  H    0.000505
    20  H    0.000259
    21  H   -0.000096
    22  H    0.000458
    23  H   -0.000288
    24  H   -0.078099
    25  H    0.491175
 Mulliken charges:
               1
     1  C    0.061069
     2  C   -0.392070
     3  C   -0.443220
     4  C    0.068483
     5  C    0.069681
     6  C   -0.442363
     7  C   -0.389201
     8  C    0.062544
     9  C   -0.276247
    10  C    0.089948
    11  C   -0.604752
    12  C    0.598519
    13  C   -0.604795
    14  C    0.595496
    15  H    0.235399
    16  H    0.257131
    17  H    0.242427
    18  H    0.222607
    19  H    0.187022
    20  H    0.222598
    21  H    0.242705
    22  H    0.257168
    23  H    0.235453
    24  H    0.247454
    25  H    0.256943
 Sum of Mulliken charges =   1.00000
 Mulliken charges with hydrogens summed into heavy atoms:
               1
     1  C    0.296468
     2  C   -0.134939
     3  C   -0.200793
     4  C    0.291089
     5  C    0.292279
     6  C   -0.199658
     7  C   -0.132033
     8  C    0.297998
     9  C    0.228150
    10  C    0.276970
    11  C   -0.604752
    12  C    0.598519
    13  C   -0.604795
    14  C    0.595496
 Electronic spatial extent (au):  <R**2>=           2869.8196
 Charge=              1.0000 electrons
 Dipole moment (field-independent basis, Debye):
    X=              0.0041    Y=              0.1924    Z=              0.0024  Tot=              0.1925
 Quadrupole moment (field-independent basis, Debye-Ang):
   XX=            -30.8126   YY=            -56.2577   ZZ=            -84.2551
   XY=              0.0023   XZ=              0.0037   YZ=              0.1678
 Traceless Quadrupole moment (field-independent basis, Debye-Ang):
   XX=             26.2959   YY=              0.8508   ZZ=            -27.1467
   XY=              0.0023   XZ=              0.0037   YZ=              0.1678
 Octapole moment (field-independent basis, Debye-Ang**2):
  XXX=              0.1673  YYY=              5.1907  ZZZ=             -0.0426  XYY=             -0.0023
  XXY=             -4.0691  XXZ=              0.3266  XZZ=             -0.0190  YZZ=             -3.0887
  YYZ=              0.2091  XYZ=              0.0187
 Hexadecapole moment (field-independent basis, Debye-Ang**3):
 XXXX=          -2128.0434 YYYY=           -609.4826 ZZZZ=            -99.8097 XXXY=              0.0930
 XXXZ=              0.1072 YYYX=             -0.0377 YYYZ=              1.8395 ZZZX=              0.0053
 ZZZY=              0.0754 XXYY=           -510.1895 XXZZ=           -594.6146 YYZZ=           -145.8566
 XXYZ=              1.8455 YYXZ=             -0.0002 ZZXY=              0.0021
 N-N= 7.795383063013D+02 E-N=-2.795323797911D+03  KE= 5.374052138552D+02
 Unable to Open any file for archive entry.
 1\1\GINC-GADI-CPU-CLX-0113\SP\RM062X TD-FC\6-311++G(d,p)\C14H11(1+)\TS
 1578\28-Jul-2022\0\\#n M062X/6-311++G(d,p) TD(NStates=1) EmpiricalDisp
 ersion=GD3 SP\\SP_-50\\1,1\C,0,0.0254,2.491155,1.360431\C,0,0.0295,3.7
 13583,0.671989\C,0,0.0085,3.704811,-0.71383\C,0,-0.027225,2.478931,-1.
 407538\C,0,-0.027375,-2.479231,-1.407538\C,0,0.0076,-3.706311,-0.71383
 \C,0,0.028075,-3.714108,0.671989\C,0,0.02255,-2.492055,1.360431\C,0,0.
 015275,0.0033,1.453369\C,0,-0.0427,-0.00015,-1.429189\C,0,-0.006275,1.
 248705,0.677065\C,0,-0.0178,1.239796,-0.730804\C,0,-0.0065,-1.24863,0.
 677065\C,0,-0.0172,-1.239346,-0.730804\H,0,0.009,2.486796,2.443647\H,0
 ,0.03,4.646253,1.211689\H,0,-0.00485,4.607537,-1.272349\H,0,-0.013,2.4
 82925,-2.490059\H,0,-0.039375,-0.000075,-2.510266\H,0,-0.01255,-2.4831
 5,-2.490059\H,0,-0.0053,-4.609412,-1.272349\H,0,0.028275,-4.647378,1.2
 11689\H,0,0.0057,-2.487771,2.443647\H,0,-0.803585,0.00075,2.144962\H,0
 ,0.915585,0.00075,2.146612\\Version=ES64L-G16RevC.01\State=1-A\HF=-539
 .7560771\RMSD=4.937e-09\PG=C01 [X(C14H11)]\\@
 The archive entry for this job was punched.


 THE SECRET OF SUCCESS IN LIFE IS TO EAT WHAT YOU LIKE, AND LET THE FOOD
 FIGHT IT OUT INSIDE YOU. -- FROM A FORTUNE COOKIE
 Job cpu time:       0 days  1 hours 19 minutes 42.1 seconds.
 Elapsed time:       0 days  0 hours  1 minutes 39.8 seconds.
 File lengths (MBytes):  RWF=    460 Int=      0 D2E=      0 Chk=     15 Scr=      1
 Normal termination of Gaussian 16 at Thu Jul 28 14:33:56 2022.
