 Entering Gaussian System, Link 0=g16
 Initial command:
 /apps/gaussian/g16c01/g16/l1.exe "/jobfs/53002009.gadi-pbs/Gau-710957.inp" -scrdir="/jobfs/53002009.gadi-pbs/"
 Entering Link 1 = /apps/gaussian/g16c01/g16/l1.exe PID=    710958.
  
 Copyright (c) 1988-2019, Gaussian, Inc.  All Rights Reserved.
  
 This is part of the Gaussian(R) 16 program.  It is based on
 the Gaussian(R) 09 system (copyright 2009, Gaussian, Inc.),
 the Gaussian(R) 03 system (copyright 2003, Gaussian, Inc.),
 the Gaussian(R) 98 system (copyright 1998, Gaussian, Inc.),
 the Gaussian(R) 94 system (copyright 1995, Gaussian, Inc.),
 the Gaussian 92(TM) system (copyright 1992, Gaussian, Inc.),
 the Gaussian 90(TM) system (copyright 1990, Gaussian, Inc.),
 the Gaussian 88(TM) system (copyright 1988, Gaussian, Inc.),
 the Gaussian 86(TM) system (copyright 1986, Carnegie Mellon
 University), and the Gaussian 82(TM) system (copyright 1983,
 Carnegie Mellon University). Gaussian is a federally registered
 trademark of Gaussian, Inc.
  
 This software contains proprietary and confidential information,
 including trade secrets, belonging to Gaussian, Inc.
  
 This software is provided under written license and may be
 used, copied, transmitted, or stored only in accord with that
 written license.
  
 The following legend is applicable only to US Government
 contracts under FAR:
  
                    RESTRICTED RIGHTS LEGEND
  
 Use, reproduction and disclosure by the US Government is
 subject to restrictions as set forth in subparagraphs (a)
 and (c) of the Commercial Computer Software - Restricted
 Rights clause in FAR 52.227-19.
  
 Gaussian, Inc.
 340 Quinnipiac St., Bldg. 40, Wallingford CT 06492
  
  
 ---------------------------------------------------------------
 Warning -- This program may not be used in any manner that
 competes with the business of Gaussian, Inc. or will provide
 assistance to any competitor of Gaussian, Inc.  The licensee
 of this program is prohibited from giving any competitor of
 Gaussian, Inc. access to this program.  By using this program,
 the user acknowledges that Gaussian, Inc. is engaged in the
 business of creating and licensing software in the field of
 computational chemistry and represents and warrants to the
 licensee that it is not a competitor of Gaussian, Inc. and that
 it will not use this program in any manner prohibited above.
 ---------------------------------------------------------------
  

 Cite this work as:
 Gaussian 16, Revision C.01,
 M. J. Frisch, G. W. Trucks, H. B. Schlegel, G. E. Scuseria, 
 M. A. Robb, J. R. Cheeseman, G. Scalmani, V. Barone, 
 G. A. Petersson, H. Nakatsuji, X. Li, M. Caricato, A. V. Marenich, 
 J. Bloino, B. G. Janesko, R. Gomperts, B. Mennucci, H. P. Hratchian, 
 J. V. Ortiz, A. F. Izmaylov, J. L. Sonnenberg, D. Williams-Young, 
 F. Ding, F. Lipparini, F. Egidi, J. Goings, B. Peng, A. Petrone, 
 T. Henderson, D. Ranasinghe, V. G. Zakrzewski, J. Gao, N. Rega, 
 G. Zheng, W. Liang, M. Hada, M. Ehara, K. Toyota, R. Fukuda, 
 J. Hasegawa, M. Ishida, T. Nakajima, Y. Honda, O. Kitao, H. Nakai, 
 T. Vreven, K. Throssell, J. A. Montgomery, Jr., J. E. Peralta, 
 F. Ogliaro, M. J. Bearpark, J. J. Heyd, E. N. Brothers, K. N. Kudin, 
 V. N. Staroverov, T. A. Keith, R. Kobayashi, J. Normand, 
 K. Raghavachari, A. P. Rendell, J. C. Burant, S. S. Iyengar, 
 J. Tomasi, M. Cossi, J. M. Millam, M. Klene, C. Adamo, R. Cammi, 
 J. W. Ochterski, R. L. Martin, K. Morokuma, O. Farkas, 
 J. B. Foresman, and D. J. Fox, Gaussian, Inc., Wallingford CT, 2019.
 
 ******************************************
 Gaussian 16:  ES64L-G16RevC.01  3-Jul-2019
                28-Jul-2022 
 ******************************************
 %NProcShared=48
 Will use up to   48 processors via shared memory.
 %mem = 190GB
 ---------------------------------------------------------------
 #n M062X/6-311++G(d,p) TD(NStates=1) EmpiricalDispersion=GD3 SP
 ---------------------------------------------------------------
 1/38=1,172=1/1;
 2/12=2,17=6,18=5,40=1/2;
 3/5=4,6=6,7=1111,11=9,25=1,30=1,74=-55,124=31/1,2,3,8;
 4//1;
 5/5=2,38=5/2;
 8/6=1,10=2,108=1/1;
 9/41=1,42=1,70=2/14;
 6/7=2,8=2,9=2,10=2/1;
 99/5=1,9=1/99;
 -------
 SP_-150
 -------
 Symbolic Z-matrix:
 Charge =  1 Multiplicity = 1
 C                     0.006     2.49356   1.36043 
 C                     0.0102    3.70758   0.67199 
 C                     0.0021    3.69541  -0.71383 
 C                    -0.01192   2.47043  -1.40754 
 C                    -0.01147  -2.46953  -1.40754 
 C                     0.0048   -3.69091  -0.71383 
 C                     0.01448  -3.70601   0.67199 
 C                     0.01455  -2.49086   1.36043 
 C                     0.00668  -0.0099    1.45337 
 C                    -0.0183    0.00045  -1.42919 
 C                    -0.00307   1.25621   0.67707 
 C                    -0.0066    1.2377   -0.7308 
 C                    -0.0024   -1.25643   0.67707 
 C                    -0.0084   -1.23905  -0.7308 
 H                    -0.0018    2.4892    2.44365 
 H                     0.0099    4.64275   1.21169 
 H                    -0.00285   4.61174  -1.27235 
 H                    -0.0048    2.47453  -2.49006 
 H                    -0.01688   0.00023  -2.51027 
 H                    -0.00615  -2.47385  -2.49006 
 H                    -0.0015   -4.60611  -1.27235 
 H                     0.01508  -4.63938   1.21169 
 H                     0.0081   -2.48627   2.44365 
 H                    -0.83559  -0.00225   2.14826 
 H                     0.88359  -0.00225   2.14331 
 
                          Input orientation:                          
 ---------------------------------------------------------------------
 Center     Atomic      Atomic             Coordinates (Angstroms)
 Number     Number       Type             X           Y           Z
 ---------------------------------------------------------------------
      1          6           0        0.006000    2.493555    1.360431
      2          6           0        0.010200    3.707583    0.671989
      3          6           0        0.002100    3.695411   -0.713830
      4          6           0       -0.011925    2.470431   -1.407538
      5          6           0       -0.011475   -2.469531   -1.407538
      6          6           0        0.004800   -3.690911   -0.713830
      7          6           0        0.014475   -3.706008    0.671989
      8          6           0        0.014550   -2.490855    1.360431
      9          6           0        0.006675   -0.009900    1.453369
     10          6           0       -0.018300    0.000450   -1.429189
     11          6           0       -0.003075    1.256205    0.677065
     12          6           0       -0.006600    1.237696   -0.730804
     13          6           0       -0.002400   -1.256430    0.677065
     14          6           0       -0.008400   -1.239046   -0.730804
     15          1           0       -0.001800    2.489196    2.443647
     16          1           0        0.009900    4.642753    1.211689
     17          1           0       -0.002850    4.611737   -1.272349
     18          1           0       -0.004800    2.474525   -2.490059
     19          1           0       -0.016875    0.000225   -2.510266
     20          1           0       -0.006150   -2.473850   -2.490059
     21          1           0       -0.001500   -4.606112   -1.272349
     22          1           0        0.015075   -4.639378    1.211689
     23          1           0        0.008100   -2.486271    2.443647
     24          1           0       -0.835585   -0.002250    2.148262
     25          1           0        0.883585   -0.002250    2.143312
 ---------------------------------------------------------------------
                    Distance matrix (angstroms):
                    1          2          3          4          5
     1  C    0.000000
     2  C    1.395648   0.000000
     3  C    2.397297   1.385896   0.000000
     4  C    2.768124   2.419807   1.407836   0.000000
     5  C    5.682797   6.517794   6.203864   4.939962   0.000000
     6  C    6.523050   7.527167   7.386322   6.200294   1.404729
     7  C    6.237676   7.413592   7.530050   6.517172   2.419500
     8  C    4.984417   6.236554   6.524768   5.681260   2.768173
     9  C    2.505180   3.798716   4.292564   3.786446   3.772917
    10  C    3.741409   4.261290   3.763627   2.470084   2.470085
    11  C    1.413544   2.451419   2.807907   2.412466   4.269280
    12  C    2.439386   2.840502   2.457789   1.406283   3.768491
    13  C    3.811751   4.964032   5.143475   4.270264   2.411901
    14  C    4.278526   5.141723   4.934497   3.770703   1.404305
    15  H    1.083253   2.150205   3.380034   3.851244   6.278590
    16  H    2.154342   1.079731   2.145959   3.402912   7.579274
    17  H    3.379098   2.144322   1.073136   2.145588   7.082564
    18  H    3.850552   3.393995   2.155365   1.082552   5.061184
    19  H    4.604293   4.885896   4.108764   2.705171   2.704761
    20  H    6.285025   6.943265   6.419878   5.061403   1.082543
    21  H    7.572111   8.538039   8.320291   7.077842   2.140877
    22  H    7.134489   8.364392   8.554326   7.576969   3.401366
    23  H    5.096276   6.442251   6.941390   6.277015   3.851271
    24  H    2.749179   4.081372   4.750367   4.408660   4.405717
    25  H    2.759004   4.085395   4.755310   4.418668   4.415557
                    6          7          8          9         10
     6  C    0.000000
     7  C    1.385935   0.000000
     8  C    2.396412   1.396621   0.000000
     9  C    4.271604   3.777808   2.482708   0.000000
    10  C    3.760109   4.260734   3.740275   2.882685   0.000000
    11  C    5.138931   4.962247   3.808905   1.485182   2.452235
    12  C    4.928649   5.138918   4.275021   2.515409   1.420794
    13  C    2.803808   2.449641   1.411057   1.468526   2.452816
    14  C    2.451959   2.838002   2.437379   2.506320   1.422740
    15  H    6.939988   6.443570   5.096522   2.688160   4.603584
    16  H    8.553222   8.366188   7.135160   4.658927   5.340975
    17  H    8.321416   8.541992   7.574869   5.365553   4.613979
    18  H    6.416205   6.942471   6.283442   4.660807   2.691965
    19  H    4.105135   4.885068   4.603125   3.963718   1.081078
    20  H    2.153218   3.393698   3.850583   4.649929   2.692165
    21  H    1.072183   2.142637   3.377292   5.343666   4.609262
    22  H    2.146467   1.078173   2.153666   4.635790   5.338853
    23  H    3.379472   2.150947   1.083245   2.667033   4.602536
    24  H    4.743842   4.076740   2.745280   1.091942   3.669621
    25  H    4.747815   4.078966   2.749778   1.115819   3.684585
                   11         12         13         14         15
    11  C    0.000000
    12  C    1.407995   0.000000
    13  C    2.512635   2.864049   0.000000
    14  C    2.865031   2.476743   1.407989   0.000000
    15  H    2.154317   3.412245   4.141319   4.896629   0.000000
    16  H    3.428513   3.920200   5.923372   6.194286   2.481061
    17  H    3.880697   3.417227   6.183494   5.875795   4.279463
    18  H    3.393373   2.150518   4.893946   4.109209   4.933729
    19  H    3.425895   2.167470   3.426145   2.168490   5.544047
    20  H    4.893260   4.107378   3.393052   2.149354   6.998093
    21  H    6.177943   5.868849   3.875640   3.410345   8.009496
    22  H    5.919802   6.189810   3.424977   3.916132   7.234264
    23  H    4.138486   4.893392   2.152541   3.410716   4.975477
    24  H    2.107416   3.242484   2.105133   3.240821   2.643814
    25  H    2.125972   3.254295   2.123162   3.253589   2.661092
                   16         17         18         19         20
    16  H    0.000000
    17  H    2.484264   0.000000
    18  H    4.290031   2.459776   0.000000
    19  H    5.950356   4.774796   2.474412   0.000000
    20  H    8.021797   7.189463   4.948375   2.474181   0.000000
    21  H    9.576642   9.217849   7.184584   4.769802   2.455480
    22  H    9.282132   9.578825   8.019411   5.948099   4.288694
    23  H    7.234688   8.011895   6.996508   5.542972   4.933742
    24  H    4.813322   5.803697   5.323405   4.729923   5.320789
    25  H    4.817396   5.808733   5.328393   4.739897   5.326215
                   21         22         23         24         25
    21  H    0.000000
    22  H    2.484316   0.000000
    23  H    4.278136   2.480653   0.000000
    24  H    5.795845   4.806636   2.639965   0.000000
    25  H    5.800488   4.808865   2.650856   1.719177   0.000000
 Stoichiometry    C14H11(1+)
 Framework group  C1[X(C14H11)]
 Deg. of freedom    69
 Full point group                 C1      NOp   1
 Largest Abelian subgroup         C1      NOp   1
 Largest concise Abelian subgroup C1      NOp   1
                         Standard orientation:                         
 ---------------------------------------------------------------------
 Center     Atomic      Atomic             Coordinates (Angstroms)
 Number     Number       Type             X           Y           Z
 ---------------------------------------------------------------------
      1          6           0       -2.493290   -1.360922   -0.001898
      2          6           0       -3.707447   -0.672758    0.007477
      3          6           0       -3.695543    0.713087    0.008484
      4          6           0       -2.470703    1.407109   -0.001632
      5          6           0        2.469259    1.408063   -0.003819
      6          6           0        3.690779    0.714500    0.007241
      7          6           0        3.706145   -0.671350    0.007795
      8          6           0        2.491123   -1.360013    0.003991
      9          6           0        0.010182   -1.453378   -0.003171
     10          6           0       -0.000729    1.429280   -0.009183
     11          6           0       -1.256075   -0.677272   -0.007140
     12          6           0       -1.237836    0.730594   -0.001416
     13          6           0        1.256560   -0.676789   -0.007806
     14          6           0        1.238904    0.731085   -0.004538
     15          1           0       -2.488729   -2.444063   -0.016824
     16          1           0       -4.642514   -1.212626    0.004127
     17          1           0       -4.611978    1.271448    0.007696
     18          1           0       -2.474999    2.489559    0.012614
     19          1           0       -0.000709    2.510324   -0.000649
     20          1           0        2.473375    2.490527    0.008622
     21          1           0        4.605871    1.273226    0.004126
     22          1           0        4.639618   -1.210861    0.004347
     23          1           0        2.486742   -2.443164   -0.009580
     24          1           0        0.002214   -2.142718   -0.849978
     25          1           0        0.003133   -2.149074    0.869187
 ---------------------------------------------------------------------
 Rotational constants (GHZ):           2.1360642           0.4433811           0.3679683
 Standard basis: 6-311++G(d,p) (5D, 7F)
 There are   399 symmetry adapted cartesian basis functions of A   symmetry.
 There are   385 symmetry adapted basis functions of A   symmetry.
   385 basis functions,   603 primitive gaussians,   399 cartesian basis functions
    47 alpha electrons       47 beta electrons
       nuclear repulsion energy       780.4977272612 Hartrees.
 NAtoms=   25 NActive=   25 NUniq=   25 SFac= 1.00D+00 NAtFMM=   60 NAOKFM=F Big=F
 Integral buffers will be    131072 words long.
 Regular integral format.
 Two-electron integral symmetry is turned on.
 Nuclear repulsion after empirical dispersion term =      780.4967475277 Hartrees.
 One-electron integrals computed using PRISM.
 NBasis=   385 RedAO= T EigKep=  1.17D-06  NBF=   385
 NBsUse=   379 1.00D-06 EigRej=  8.59D-07 NBFU=   379
 ExpMin= 3.60D-02 ExpMax= 4.56D+03 ExpMxC= 6.82D+02 IAcc=3 IRadAn=         5 AccDes= 0.00D+00
 Harris functional with IExCor= 1009 and IRadAn=       5 diagonalized for initial guess.
 HarFok:  IExCor= 1009 AccDes= 0.00D+00 IRadAn=         5 IDoV= 1 UseB2=F ITyADJ=14
 ICtDFT=  3500011 ScaDFX=  1.000000  1.000000  1.000000  1.000000
 FoFCou: FMM=F IPFlag=           0 FMFlag=      100000 FMFlg1=           0
         NFxFlg=           0 DoJE=T BraDBF=F KetDBF=T FulRan=T
         wScrn=  0.000000 ICntrl=       500 IOpCl=  0 I1Cent=   200000004 NGrid=           0
         NMat0=    1 NMatS0=      1 NMatT0=    0 NMatD0=    1 NMtDS0=    0 NMtDT0=    0
 Petite list used in FoFCou.
 Requested convergence on RMS density matrix=1.00D-08 within 128 cycles.
 Requested convergence on MAX density matrix=1.00D-06.
 Requested convergence on             energy=1.00D-06.
 No special actions if energy rises.
 SCF Done:  E(RM062X) =  -539.759243320     A.U. after   15 cycles
            NFock= 15  Conv=0.47D-08     -V/T= 2.0043
 DoSCS=F DFT=T ScalE2(SS,OS)=  1.000000  1.000000
 ExpMin= 3.60D-02 ExpMax= 4.56D+03 ExpMxC= 6.82D+02 IAcc=3 IRadAn=         5 AccDes= 0.00D+00
 HarFok:  IExCor=  205 AccDes= 0.00D+00 IRadAn=         5 IDoV=-2 UseB2=F ITyADJ=14
 ICtDFT= 12500011 ScaDFX=  1.000000  1.000000  1.000000  1.000000
 Range of M.O.s used for correlation:    15   379
 NBasis=   385 NAE=    47 NBE=    47 NFC=    14 NFV=     0
 NROrb=    365 NOA=    33 NOB=    33 NVA=   332 NVB=   332

 **** Warning!!: The largest alpha MO coefficient is  0.15037105D+03

 Orbital symmetries:
       Occupied  (A) (A) (A) (A) (A) (A) (A) (A) (A) (A) (A) (A)
                 (A) (A) (A) (A) (A) (A) (A) (A) (A) (A) (A) (A)
                 (A) (A) (A) (A) (A) (A) (A) (A) (A) (A) (A) (A)
                 (A) (A) (A) (A) (A) (A) (A) (A) (A) (A) (A)
       Virtual   (A) (A) (A) (A) (A) (A) (A) (A) (A) (A) (A) (A)
                 (A) (A) (A) (A) (A) (A) (A) (A) (A) (A) (A) (A)
                 (A) (A) (A) (A) (A) (A) (A) (A) (A) (A) (A) (A)
                 (A) (A) (A) (A) (A) (A) (A) (A) (A) (A) (A) (A)
                 (A) (A) (A) (A) (A) (A) (A) (A) (A) (A) (A) (A)
                 (A) (A) (A) (A) (A) (A) (A) (A) (A) (A) (A) (A)
                 (A) (A) (A) (A) (A) (A) (A) (A) (A) (A) (A) (A)
                 (A) (A) (A) (A) (A) (A) (A) (A) (A) (A) (A) (A)
                 (A) (A) (A) (A) (A) (A) (A) (A) (A) (A) (A) (A)
                 (A) (A) (A) (A) (A) (A) (A) (A) (A) (A) (A) (A)
                 (A) (A) (A) (A) (A) (A) (A) (A) (A) (A) (A) (A)
                 (A) (A) (A) (A) (A) (A) (A) (A) (A) (A) (A) (A)
                 (A) (A) (A) (A) (A) (A) (A) (A) (A) (A) (A) (A)
                 (A) (A) (A) (A) (A) (A) (A) (A) (A) (A) (A) (A)
                 (A) (A) (A) (A) (A) (A) (A) (A) (A) (A) (A) (A)
                 (A) (A) (A) (A) (A) (A) (A) (A) (A) (A) (A) (A)
                 (A) (A) (A) (A) (A) (A) (A) (A) (A) (A) (A) (A)
                 (A) (A) (A) (A) (A) (A) (A) (A) (A) (A) (A) (A)
                 (A) (A) (A) (A) (A) (A) (A) (A) (A) (A) (A) (A)
                 (A) (A) (A) (A) (A) (A) (A) (A) (A) (A) (A) (A)
                 (A) (A) (A) (A) (A) (A) (A) (A) (A) (A) (A) (A)
                 (A) (A) (A) (A) (A) (A) (A) (A) (A) (A) (A) (A)
                 (A) (A) (A) (A) (A) (A) (A) (A) (A) (A) (A) (A)
                 (A) (A) (A) (A) (A) (A) (A) (A) (A) (A) (A) (A)
                 (A) (A) (A) (A) (A) (A) (A) (A) (A) (A) (A) (A)
                 (A) (A) (A) (A) (A) (A) (A) (A) (A) (A) (A) (A)
                 (A) (A) (A) (A) (A) (A) (A) (A) (A) (A) (A) (A)
                 (A) (A) (A) (A) (A) (A) (A) (A)
     4 initial guesses have been made.
 Convergence on wavefunction:    0.001000000000000
 Iteration     1 Dimension     4 NMult     0 NNew      4
 CISAX will form     4 AO SS matrices at one time.
 Iteration     2 Dimension     6 NMult     4 NNew      2
 Iteration     3 Dimension     8 NMult     6 NNew      2
 Iteration     4 Dimension    10 NMult     8 NNew      2
 Iteration     5 Dimension    12 NMult    10 NNew      2
 Iteration     6 Dimension    14 NMult    12 NNew      2
 ***********************************************************************
 Excited states from <AA,BB:AA,BB> singles matrix:
 ***********************************************************************
 
 Ground to excited state transition densities written to RWF  633
 Ground to excited state transition electric dipole moments (Au):
       state          X           Y           Z        Dip. S.      Osc.
         1         0.0132     -0.6392      0.0027      0.4087      0.0281
 Ground to excited state transition velocity dipole moments (Au):
       state          X           Y           Z        Dip. S.      Osc.
         1        -0.0014      0.0737     -0.0003      0.0054      0.0351
 Ground to excited state transition magnetic dipole moments (Au):
       state          X           Y           Z
         1        -0.0041      0.0010     -0.0003
 Ground to excited state transition velocity quadrupole moments (Au):
       state          XX          YY          ZZ          XY          XZ          YZ
         1         0.3056      0.0332     -0.0097     -0.0019     -0.0001      0.0004
 <0|del|b> * <b|rxdel|0> + <0|del|b> * <b|delr+rdel|0>
 Rotatory Strengths (R) in cgs (10**-40 erg-esu-cm/Gauss)
       state          XX          YY          ZZ    R(velocity)    E-M Angle
         1         0.2770      0.0161      0.2297      0.1742       90.00
 1/2[<0|r|b>*<b|rxdel|0> + (<0|rxdel|b>*<b|r|0>)*]
 Rotatory Strengths (R) in cgs (10**-40 erg-esu-cm/Gauss)
       state          XX          YY          ZZ     R(length)
         1         0.0383      0.4320      0.0006      0.1570
  1/2[<0|del|b>*<b|r|0> + (<0|r|b>*<b|del|0>)*] (Au)
       state          X           Y           Z        Dip. S.   Osc.(frdel)
         1        -0.0000     -0.0471     -0.0000      0.0471      0.0314

 Excitation energies and oscillator strengths:
 
 Excited State   1:      Singlet-A      2.8098 eV  441.25 nm  f=0.0281  <S**2>=0.000
      47 -> 48         0.70426
 This state for optimization and/or second-order correction.
 Total Energy, E(TD-HF/TD-DFT) =  -539.655983300    
 Copying the excited state density for this state as the 1-particle RhoCI density.
 SavETr:  write IOETrn=   770 NScale= 10 NData=  16 NLR=1 NState=    1 LETran=      28.

 **********************************************************************

            Population analysis using the SCF Density.

 **********************************************************************

 Orbital symmetries:
       Occupied  (A) (A) (A) (A) (A) (A) (A) (A) (A) (A) (A) (A)
                 (A) (A) (A) (A) (A) (A) (A) (A) (A) (A) (A) (A)
                 (A) (A) (A) (A) (A) (A) (A) (A) (A) (A) (A) (A)
                 (A) (A) (A) (A) (A) (A) (A) (A) (A) (A) (A)
       Virtual   (A) (A) (A) (A) (A) (A) (A) (A) (A) (A) (A) (A)
                 (A) (A) (A) (A) (A) (A) (A) (A) (A) (A) (A) (A)
                 (A) (A) (A) (A) (A) (A) (A) (A) (A) (A) (A) (A)
                 (A) (A) (A) (A) (A) (A) (A) (A) (A) (A) (A) (A)
                 (A) (A) (A) (A) (A) (A) (A) (A) (A) (A) (A) (A)
                 (A) (A) (A) (A) (A) (A) (A) (A) (A) (A) (A) (A)
                 (A) (A) (A) (A) (A) (A) (A) (A) (A) (A) (A) (A)
                 (A) (A) (A) (A) (A) (A) (A) (A) (A) (A) (A) (A)
                 (A) (A) (A) (A) (A) (A) (A) (A) (A) (A) (A) (A)
                 (A) (A) (A) (A) (A) (A) (A) (A) (A) (A) (A) (A)
                 (A) (A) (A) (A) (A) (A) (A) (A) (A) (A) (A) (A)
                 (A) (A) (A) (A) (A) (A) (A) (A) (A) (A) (A) (A)
                 (A) (A) (A) (A) (A) (A) (A) (A) (A) (A) (A) (A)
                 (A) (A) (A) (A) (A) (A) (A) (A) (A) (A) (A) (A)
                 (A) (A) (A) (A) (A) (A) (A) (A) (A) (A) (A) (A)
                 (A) (A) (A) (A) (A) (A) (A) (A) (A) (A) (A) (A)
                 (A) (A) (A) (A) (A) (A) (A) (A) (A) (A) (A) (A)
                 (A) (A) (A) (A) (A) (A) (A) (A) (A) (A) (A) (A)
                 (A) (A) (A) (A) (A) (A) (A) (A) (A) (A) (A) (A)
                 (A) (A) (A) (A) (A) (A) (A) (A) (A) (A) (A) (A)
                 (A) (A) (A) (A) (A) (A) (A) (A) (A) (A) (A) (A)
                 (A) (A) (A) (A) (A) (A) (A) (A) (A) (A) (A) (A)
                 (A) (A) (A) (A) (A) (A) (A) (A) (A) (A) (A) (A)
                 (A) (A) (A) (A) (A) (A) (A) (A) (A) (A) (A) (A)
                 (A) (A) (A) (A) (A) (A) (A) (A) (A) (A) (A) (A)
                 (A) (A) (A) (A) (A) (A) (A) (A) (A) (A) (A) (A)
                 (A) (A) (A) (A) (A) (A) (A) (A) (A) (A) (A) (A)
                 (A) (A) (A) (A) (A) (A) (A) (A)
 The electronic state is 1-A.
 Alpha  occ. eigenvalues --  -10.77659 -10.73327 -10.73202 -10.72502 -10.72496
 Alpha  occ. eigenvalues --  -10.71480 -10.71414 -10.71063 -10.71041 -10.70982
 Alpha  occ. eigenvalues --  -10.70080 -10.70033 -10.69635 -10.69574  -1.16395
 Alpha  occ. eigenvalues --   -1.12307  -1.06863  -1.05783  -1.01166  -1.00196
 Alpha  occ. eigenvalues --   -0.95723  -0.91070  -0.86412  -0.85873  -0.83809
 Alpha  occ. eigenvalues --   -0.78391  -0.76016  -0.74386  -0.69572  -0.69287
 Alpha  occ. eigenvalues --   -0.68560  -0.68236  -0.68140  -0.64622  -0.64185
 Alpha  occ. eigenvalues --   -0.63150  -0.61962  -0.59945  -0.59561  -0.59133
 Alpha  occ. eigenvalues --   -0.56917  -0.55261  -0.54873  -0.52376  -0.46522
 Alpha  occ. eigenvalues --   -0.46052  -0.44430
 Alpha virt. eigenvalues --   -0.26075  -0.14757  -0.14119  -0.12869  -0.11178
 Alpha virt. eigenvalues --   -0.10082  -0.09218  -0.07996  -0.07944  -0.07471
 Alpha virt. eigenvalues --   -0.07213  -0.07146  -0.05645  -0.05582  -0.05348
 Alpha virt. eigenvalues --   -0.03802  -0.03640  -0.03282  -0.03134  -0.02161
 Alpha virt. eigenvalues --   -0.01361  -0.00916   0.00191   0.00626   0.00687
 Alpha virt. eigenvalues --    0.01047   0.01513   0.01912   0.02208   0.02291
 Alpha virt. eigenvalues --    0.02434   0.02657   0.02705   0.03306   0.03389
 Alpha virt. eigenvalues --    0.04247   0.04501   0.04689   0.04988   0.05358
 Alpha virt. eigenvalues --    0.06030   0.06289   0.06595   0.07039   0.07233
 Alpha virt. eigenvalues --    0.07871   0.08091   0.08361   0.08500   0.08933
 Alpha virt. eigenvalues --    0.09555   0.09569   0.10030   0.10789   0.11043
 Alpha virt. eigenvalues --    0.11119   0.12194   0.12271   0.12891   0.13011
 Alpha virt. eigenvalues --    0.13409   0.13534   0.14025   0.14303   0.16127
 Alpha virt. eigenvalues --    0.16300   0.16506   0.17375   0.17591   0.17726
 Alpha virt. eigenvalues --    0.18105   0.18993   0.19191   0.19605   0.19715
 Alpha virt. eigenvalues --    0.21489   0.21535   0.22724   0.23124   0.23560
 Alpha virt. eigenvalues --    0.23650   0.24556   0.25131   0.26880   0.27525
 Alpha virt. eigenvalues --    0.28837   0.29286   0.29843   0.31272   0.35803
 Alpha virt. eigenvalues --    0.36312   0.38078   0.39197   0.41163   0.41454
 Alpha virt. eigenvalues --    0.41950   0.42293   0.43013   0.43599   0.44290
 Alpha virt. eigenvalues --    0.44799   0.44906   0.45809   0.46079   0.47938
 Alpha virt. eigenvalues --    0.48575   0.48891   0.49058   0.50448   0.51151
 Alpha virt. eigenvalues --    0.51481   0.51524   0.52116   0.52699   0.53993
 Alpha virt. eigenvalues --    0.54112   0.54555   0.55712   0.55760   0.57468
 Alpha virt. eigenvalues --    0.58210   0.58787   0.61408   0.62117   0.62332
 Alpha virt. eigenvalues --    0.63071   0.63566   0.64781   0.65136   0.67171
 Alpha virt. eigenvalues --    0.70392   0.70618   0.70985   0.72293   0.72801
 Alpha virt. eigenvalues --    0.75726   0.75839   0.76206   0.76783   0.77024
 Alpha virt. eigenvalues --    0.77662   0.77763   0.78170   0.80188   0.80404
 Alpha virt. eigenvalues --    0.81191   0.81592   0.82086   0.82926   0.85043
 Alpha virt. eigenvalues --    0.86998   0.87929   0.88124   0.89417   0.90424
 Alpha virt. eigenvalues --    0.90858   0.91371   0.93097   0.94659   0.96430
 Alpha virt. eigenvalues --    0.96653   1.00464   1.01277   1.01591   1.02624
 Alpha virt. eigenvalues --    1.03099   1.03856   1.04594   1.05636   1.08750
 Alpha virt. eigenvalues --    1.19709   1.23323   1.24063   1.25298   1.27965
 Alpha virt. eigenvalues --    1.29442   1.31968   1.33981   1.35567   1.35943
 Alpha virt. eigenvalues --    1.39202   1.40194   1.40731   1.42860   1.43270
 Alpha virt. eigenvalues --    1.43435   1.45046   1.45213   1.46422   1.46736
 Alpha virt. eigenvalues --    1.47583   1.47761   1.51653   1.53597   1.55641
 Alpha virt. eigenvalues --    1.55951   1.56126   1.56469   1.57667   1.61314
 Alpha virt. eigenvalues --    1.63366   1.63800   1.63947   1.66024   1.68121
 Alpha virt. eigenvalues --    1.68456   1.68631   1.69715   1.74145   1.75953
 Alpha virt. eigenvalues --    1.77087   1.77959   1.79796   1.79991   1.80384
 Alpha virt. eigenvalues --    1.83141   1.83158   1.83516   1.83658   1.84120
 Alpha virt. eigenvalues --    1.84278   1.85802   1.85895   1.88141   1.91460
 Alpha virt. eigenvalues --    1.91883   1.94130   1.95228   1.97516   1.97865
 Alpha virt. eigenvalues --    1.99465   2.02418   2.04200   2.07468   2.11656
 Alpha virt. eigenvalues --    2.12006   2.13862   2.15151   2.18727   2.21135
 Alpha virt. eigenvalues --    2.22446   2.28466   2.29873   2.34512   2.35109
 Alpha virt. eigenvalues --    2.36097   2.39002   2.40054   2.42168   2.43556
 Alpha virt. eigenvalues --    2.46216   2.47225   2.48986   2.52697   2.53774
 Alpha virt. eigenvalues --    2.54208   2.56875   2.57794   2.58256   2.59627
 Alpha virt. eigenvalues --    2.59705   2.61652   2.61882   2.63390   2.63768
 Alpha virt. eigenvalues --    2.64606   2.64851   2.65086   2.65199   2.67864
 Alpha virt. eigenvalues --    2.68720   2.70888   2.71378   2.73338   2.74816
 Alpha virt. eigenvalues --    2.76256   2.78466   2.79608   2.82553   2.82960
 Alpha virt. eigenvalues --    2.84530   2.86269   2.92066   2.96824   2.99387
 Alpha virt. eigenvalues --    2.99826   3.05428   3.10546   3.10974   3.12336
 Alpha virt. eigenvalues --    3.20869   3.23839   3.26275   3.27937   3.30460
 Alpha virt. eigenvalues --    3.32104   3.33245   3.43348   3.45479   3.45935
 Alpha virt. eigenvalues --    3.47942   3.49672   3.56335   3.65657   3.66972
 Alpha virt. eigenvalues --    3.67512   3.94479   3.94998   3.95710   3.96502
 Alpha virt. eigenvalues --    4.04351   4.06927   4.07223   4.12496   4.35606
 Alpha virt. eigenvalues --    4.61473   4.69312   4.71075  23.45483  23.61065
 Alpha virt. eigenvalues --   23.81851  23.85721  23.87696  23.89121  23.90481
 Alpha virt. eigenvalues --   23.92236  23.97198  23.98287  23.98733  23.99577
 Alpha virt. eigenvalues --   24.09763  24.10065
          Condensed to atoms (all electrons):
               1          2          3          4          5          6
     1  C    8.480939   0.385663  -0.562851   1.890846  -0.021301  -0.091901
     2  C    0.385663   7.027578   0.351885  -0.984861  -0.025181  -0.014186
     3  C   -0.562851   0.351885   6.571211   0.690402  -0.118812   0.016542
     4  C    1.890846  -0.984861   0.690402  10.801763  -0.264253  -0.121518
     5  C   -0.021301  -0.025181  -0.118812  -0.264253  10.799600   0.718007
     6  C   -0.091901  -0.014186   0.016542  -0.121518   0.718007   6.578063
     7  C   -0.020828   0.002874  -0.013989  -0.023302  -1.013269   0.358859
     8  C    0.397102  -0.025140  -0.091597  -0.006053   1.855599  -0.547200
     9  C   -1.194179  -0.750185   0.294574  -0.256235  -0.277648   0.290438
    10  C   -1.228384   0.224037  -0.338201  -2.501695  -2.503210  -0.351949
    11  C    0.229600  -0.914474   1.046037  -0.425333  -1.537410  -0.161247
    12  C   -1.884149   1.256219  -1.359639  -1.359397  -0.268577  -0.205470
    13  C    0.170067  -0.222152  -0.155493  -1.533583  -0.404922   1.042394
    14  C   -1.037486  -0.196052  -0.205686  -0.275246  -1.307655  -1.387280
    15  H    0.365264  -0.103942  -0.000863   0.026657   0.005638   0.001103
    16  H   -0.019149   0.379015  -0.018029   0.013817  -0.001517  -0.000321
    17  H   -0.022822  -0.018684   0.377986  -0.065626   0.000169   0.000392
    18  H    0.048117   0.005340  -0.088453   0.451784   0.007965  -0.004970
    19  H   -0.046407  -0.008121   0.051778  -0.074571  -0.073107   0.051808
    20  H    0.007125   0.001914  -0.004917   0.008193   0.453537  -0.087142
    21  H   -0.001277  -0.000384   0.000387   0.000141  -0.065737   0.378212
    22  H    0.000611   0.000349  -0.000317  -0.001486   0.013236  -0.017390
    23  H    0.005615  -0.002578   0.001095   0.005628   0.026907  -0.000707
    24  H    0.026641   0.015938  -0.001384  -0.013721  -0.011697  -0.002010
    25  H    0.036856   0.012400  -0.001519  -0.011531  -0.013325  -0.000706
               7          8          9         10         11         12
     1  C   -0.020828   0.397102  -1.194179  -1.228384   0.229600  -1.884149
     2  C    0.002874  -0.025140  -0.750185   0.224037  -0.914474   1.256219
     3  C   -0.013989  -0.091597   0.294574  -0.338201   1.046037  -1.359639
     4  C   -0.023302  -0.006053  -0.256235  -2.501695  -0.425333  -1.359397
     5  C   -1.013269   1.855599  -0.277648  -2.503210  -1.537410  -0.268577
     6  C    0.358859  -0.547200   0.290438  -0.351949  -0.161247  -0.205470
     7  C    7.079319   0.379444  -0.768885   0.233944  -0.241362  -0.201230
     8  C    0.379444   8.495283  -1.231545  -1.228667   0.149855  -1.068919
     9  C   -0.768885  -1.231545   9.426798   0.271314   1.626515  -1.851869
    10  C    0.233944  -1.228667   0.271314   9.116277  -0.424375   2.298616
    11  C   -0.241362   0.149855   1.626515  -0.424375  14.562403  -3.685353
    12  C   -0.201230  -1.068919  -1.851869   2.298616  -3.685353  15.744706
    13  C   -0.928041   0.292762   1.650820  -0.416023   1.176576  -4.777238
    14  C    1.280442  -1.851223  -1.832666   2.284919  -4.821725   2.912403
    15  H   -0.002713   0.005737   0.090636  -0.009622  -0.028397  -0.024435
    16  H    0.000362   0.000744   0.003977  -0.009705   0.026766  -0.033212
    17  H   -0.000389  -0.001315  -0.005164   0.019999  -0.025806   0.086796
    18  H    0.001919   0.007365  -0.025264   0.017678  -0.013555  -0.047917
    19  H   -0.007964  -0.046502   0.074655   0.422472   0.082397  -0.066643
    20  H    0.004200   0.048089  -0.025458   0.016673  -0.012581  -0.011851
    21  H   -0.018001  -0.023600  -0.005201   0.020095  -0.006157   0.005019
    22  H    0.379925  -0.021173   0.003135  -0.009331   0.002825  -0.008761
    23  H   -0.105582   0.363575   0.090123  -0.009703   0.001329   0.006565
    24  H    0.013998   0.022059   0.364798   0.006106   0.007591  -0.048223
    25  H    0.014844   0.043106   0.349970   0.005232   0.018627  -0.071813
              13         14         15         16         17         18
     1  C    0.170067  -1.037486   0.365264  -0.019149  -0.022822   0.048117
     2  C   -0.222152  -0.196052  -0.103942   0.379015  -0.018684   0.005340
     3  C   -0.155493  -0.205686  -0.000863  -0.018029   0.377986  -0.088453
     4  C   -1.533583  -0.275246   0.026657   0.013817  -0.065626   0.451784
     5  C   -0.404922  -1.307655   0.005638  -0.001517   0.000169   0.007965
     6  C    1.042394  -1.387280   0.001103  -0.000321   0.000392  -0.004970
     7  C   -0.928041   1.280442  -0.002713   0.000362  -0.000389   0.001919
     8  C    0.292762  -1.851223   0.005737   0.000744  -0.001315   0.007365
     9  C    1.650820  -1.832666   0.090636   0.003977  -0.005164  -0.025264
    10  C   -0.416023   2.284919  -0.009622  -0.009705   0.019999   0.017678
    11  C    1.176576  -4.821725  -0.028397   0.026766  -0.025806  -0.013555
    12  C   -4.777238   2.912403  -0.024435  -0.033212   0.086796  -0.047917
    13  C   14.403058  -3.714114   0.001010   0.002923  -0.005974  -0.012073
    14  C   -3.714114  15.689288   0.006368  -0.008958   0.004975  -0.011007
    15  H    0.001010   0.006368   0.439339  -0.009033   0.001517   0.000135
    16  H    0.002923  -0.008958  -0.009033   0.419754  -0.006768   0.001963
    17  H   -0.005974   0.004975   0.001517  -0.006768   0.423381  -0.010320
    18  H   -0.012073  -0.011007   0.000135   0.001963  -0.010320   0.453793
    19  H    0.083100  -0.067649   0.000323  -0.000554   0.001449  -0.006406
    20  H   -0.013106  -0.047428  -0.000117   0.000015  -0.000145   0.001295
    21  H   -0.026643   0.088051   0.000015  -0.000007   0.000011  -0.000147
    22  H    0.025740  -0.030370  -0.000127   0.000007  -0.000007   0.000016
    23  H   -0.027036  -0.023423   0.000576  -0.000127   0.000016  -0.000120
    24  H    0.008874  -0.051053  -0.001145   0.000665  -0.000163   0.000139
    25  H    0.018885  -0.068720  -0.000701   0.000578  -0.000126   0.000226
              19         20         21         22         23         24
     1  C   -0.046407   0.007125  -0.001277   0.000611   0.005615   0.026641
     2  C   -0.008121   0.001914  -0.000384   0.000349  -0.002578   0.015938
     3  C    0.051778  -0.004917   0.000387  -0.000317   0.001095  -0.001384
     4  C   -0.074571   0.008193   0.000141  -0.001486   0.005628  -0.013721
     5  C   -0.073107   0.453537  -0.065737   0.013236   0.026907  -0.011697
     6  C    0.051808  -0.087142   0.378212  -0.017390  -0.000707  -0.002010
     7  C   -0.007964   0.004200  -0.018001   0.379925  -0.105582   0.013998
     8  C   -0.046502   0.048089  -0.023600  -0.021173   0.363575   0.022059
     9  C    0.074655  -0.025458  -0.005201   0.003135   0.090123   0.364798
    10  C    0.422472   0.016673   0.020095  -0.009331  -0.009703   0.006106
    11  C    0.082397  -0.012581  -0.006157   0.002825   0.001329   0.007591
    12  C   -0.066643  -0.011851   0.005019  -0.008761   0.006565  -0.048223
    13  C    0.083100  -0.013106  -0.026643   0.025740  -0.027036   0.008874
    14  C   -0.067649  -0.047428   0.088051  -0.030370  -0.023423  -0.051053
    15  H    0.000323  -0.000117   0.000015  -0.000127   0.000576  -0.001145
    16  H   -0.000554   0.000015  -0.000007   0.000007  -0.000127   0.000665
    17  H    0.001449  -0.000145   0.000011  -0.000007   0.000016  -0.000163
    18  H   -0.006406   0.001295  -0.000147   0.000016  -0.000120   0.000139
    19  H    0.444578  -0.006351   0.001466  -0.000560   0.000308   0.000620
    20  H   -0.006351   0.453645  -0.010482   0.001925   0.000157   0.000181
    21  H    0.001466  -0.010482   0.423939  -0.006818   0.001525  -0.000181
    22  H   -0.000560   0.001925  -0.006818   0.419785  -0.009001   0.000741
    23  H    0.000308   0.000157   0.001525  -0.009001   0.439841  -0.001387
    24  H    0.000620   0.000181  -0.000181   0.000741  -0.001387   0.492881
    25  H    0.000600   0.000175  -0.000105   0.000507  -0.000446  -0.079151
              25
     1  C    0.036856
     2  C    0.012400
     3  C   -0.001519
     4  C   -0.011531
     5  C   -0.013325
     6  C   -0.000706
     7  C    0.014844
     8  C    0.043106
     9  C    0.349970
    10  C    0.005232
    11  C    0.018627
    12  C   -0.071813
    13  C    0.018885
    14  C   -0.068720
    15  H   -0.000701
    16  H    0.000578
    17  H   -0.000126
    18  H    0.000226
    19  H    0.000600
    20  H    0.000175
    21  H   -0.000105
    22  H    0.000507
    23  H   -0.000446
    24  H   -0.079151
    25  H    0.492687
 Mulliken charges:
               1
     1  C    0.086287
     2  C   -0.397272
     3  C   -0.440144
     4  C    0.029180
     5  C    0.026963
     6  C   -0.441823
     7  C   -0.404574
     8  C    0.082215
     9  C   -0.313456
    10  C    0.093501
    11  C   -0.632747
    12  C    0.664369
    13  C   -0.639811
    14  C    0.671295
    15  H    0.236775
    16  H    0.256794
    17  H    0.246617
    18  H    0.222494
    19  H    0.189284
    20  H    0.222453
    21  H    0.245881
    22  H    0.256539
    23  H    0.236852
    24  H    0.248881
    25  H    0.253448
 Sum of Mulliken charges =   1.00000
 Mulliken charges with hydrogens summed into heavy atoms:
               1
     1  C    0.323062
     2  C   -0.140478
     3  C   -0.193527
     4  C    0.251674
     5  C    0.249416
     6  C   -0.195942
     7  C   -0.148035
     8  C    0.319067
     9  C    0.188873
    10  C    0.282785
    11  C   -0.632747
    12  C    0.664369
    13  C   -0.639811
    14  C    0.671295
 Electronic spatial extent (au):  <R**2>=           2861.8215
 Charge=              1.0000 electrons
 Dipole moment (field-independent basis, Debye):
    X=             -0.0121    Y=              0.1901    Z=              0.0011  Tot=              0.1905
 Quadrupole moment (field-independent basis, Debye-Ang):
   XX=            -30.9860   YY=            -56.2612   ZZ=            -84.1904
   XY=             -0.0068   XZ=             -0.0111   YZ=              0.0739
 Traceless Quadrupole moment (field-independent basis, Debye-Ang):
   XX=             26.1599   YY=              0.8847   ZZ=            -27.0445
   XY=             -0.0068   XZ=             -0.0111   YZ=              0.0739
 Octapole moment (field-independent basis, Debye-Ang**2):
  XXX=             -0.4962  YYY=              5.2077  ZZZ=             -0.0119  XYY=              0.0053
  XXY=             -4.6932  XXZ=              0.1317  XZZ=              0.0588  YZZ=             -3.0866
  YYZ=              0.0709  XYZ=             -0.0557
 Hexadecapole moment (field-independent basis, Debye-Ang**3):
 XXXX=          -2124.8248 YYYY=           -609.2978 ZZZZ=            -99.5056 XXXY=             -0.2797
 XXXZ=             -0.3150 YYYX=              0.1153 YYYZ=              0.8397 ZZZX=             -0.0149
 ZZZY=              0.0211 XXYY=           -508.7504 XXZZ=           -592.4001 YYZZ=           -145.7681
 XXYZ=              0.7738 YYXZ=             -0.0003 ZZXY=             -0.0058
 N-N= 7.804967475277D+02 E-N=-2.797295654032D+03  KE= 5.374622634467D+02
 Unable to Open any file for archive entry.
 1\1\GINC-GADI-CPU-CLX-0113\SP\RM062X TD-FC\6-311++G(d,p)\C14H11(1+)\TS
 1578\28-Jul-2022\0\\#n M062X/6-311++G(d,p) TD(NStates=1) EmpiricalDisp
 ersion=GD3 SP\\SP_-150\\1,1\C,0,0.006,2.493555,1.360431\C,0,0.0102,3.7
 07583,0.671989\C,0,0.0021,3.695411,-0.71383\C,0,-0.011925,2.470431,-1.
 407538\C,0,-0.011475,-2.469531,-1.407538\C,0,0.0048,-3.690911,-0.71383
 \C,0,0.014475,-3.706008,0.671989\C,0,0.01455,-2.490855,1.360431\C,0,0.
 006675,-0.0099,1.453369\C,0,-0.0183,0.00045,-1.429189\C,0,-0.003075,1.
 256205,0.677065\C,0,-0.0066,1.237696,-0.730804\C,0,-0.0024,-1.25643,0.
 677065\C,0,-0.0084,-1.239046,-0.730804\H,0,-0.0018,2.489196,2.443647\H
 ,0,0.0099,4.642753,1.211689\H,0,-0.00285,4.611737,-1.272349\H,0,-0.004
 8,2.474525,-2.490059\H,0,-0.016875,0.000225,-2.510266\H,0,-0.00615,-2.
 47385,-2.490059\H,0,-0.0015,-4.606112,-1.272349\H,0,0.015075,-4.639378
 ,1.211689\H,0,0.0081,-2.486271,2.443647\H,0,-0.835585,-0.00225,2.14826
 2\H,0,0.883585,-0.00225,2.143312\\Version=ES64L-G16RevC.01\State=1-A\H
 F=-539.7592433\RMSD=4.654e-09\PG=C01 [X(C14H11)]\\@
 The archive entry for this job was punched.


 THE VALUE OF PHILOSOPHY IS, IN FACT, TO BE SOUGHT LARGELY IN ITS
 VERY UNCERTAINTY.  THE MAN WHO HAS NO TINCTURE OF PHILOSOPHY GOES
 THROUGH LIFE IMPRISONED IN THE PREJUDICES DERIVED FROM COMMON SENSE,
 FROM THE HABITUAL BELIEFS OF HIS AGE OR HIS NATION, AND FROM
 CONVICTIONS WHICH HAVE GROWN UP IN HIS MIND WITHOUT THE CO-OPERATION
 OR CONSENT OF HIS DELIBERATE REASON.  TO SUCH A MAN THE WORLD TENDS
 TO BE DEFINITE, FINITE, OBVIOUS; COMMON OBJECTS ROUSE NO QUESTIONS,
 AND UNFAMILIAR POSSIBILITIES ARE CONTEMPTUOUSLY REJECTED.

                             -- BERTRAND RUSSELL
 Job cpu time:       0 days  1 hours 20 minutes 26.1 seconds.
 Elapsed time:       0 days  0 hours  1 minutes 41.5 seconds.
 File lengths (MBytes):  RWF=    460 Int=      0 D2E=      0 Chk=     15 Scr=      1
 Normal termination of Gaussian 16 at Thu Jul 28 12:56:59 2022.
