 Entering Gaussian System, Link 0=g16
 Initial command:
 /apps/gaussian/g16c01/g16/l1.exe "/jobfs/53002009.gadi-pbs/Gau-740793.inp" -scrdir="/jobfs/53002009.gadi-pbs/"
 Entering Link 1 = /apps/gaussian/g16c01/g16/l1.exe PID=    740794.
  
 Copyright (c) 1988-2019, Gaussian, Inc.  All Rights Reserved.
  
 This is part of the Gaussian(R) 16 program.  It is based on
 the Gaussian(R) 09 system (copyright 2009, Gaussian, Inc.),
 the Gaussian(R) 03 system (copyright 2003, Gaussian, Inc.),
 the Gaussian(R) 98 system (copyright 1998, Gaussian, Inc.),
 the Gaussian(R) 94 system (copyright 1995, Gaussian, Inc.),
 the Gaussian 92(TM) system (copyright 1992, Gaussian, Inc.),
 the Gaussian 90(TM) system (copyright 1990, Gaussian, Inc.),
 the Gaussian 88(TM) system (copyright 1988, Gaussian, Inc.),
 the Gaussian 86(TM) system (copyright 1986, Carnegie Mellon
 University), and the Gaussian 82(TM) system (copyright 1983,
 Carnegie Mellon University). Gaussian is a federally registered
 trademark of Gaussian, Inc.
  
 This software contains proprietary and confidential information,
 including trade secrets, belonging to Gaussian, Inc.
  
 This software is provided under written license and may be
 used, copied, transmitted, or stored only in accord with that
 written license.
  
 The following legend is applicable only to US Government
 contracts under FAR:
  
                    RESTRICTED RIGHTS LEGEND
  
 Use, reproduction and disclosure by the US Government is
 subject to restrictions as set forth in subparagraphs (a)
 and (c) of the Commercial Computer Software - Restricted
 Rights clause in FAR 52.227-19.
  
 Gaussian, Inc.
 340 Quinnipiac St., Bldg. 40, Wallingford CT 06492
  
  
 ---------------------------------------------------------------
 Warning -- This program may not be used in any manner that
 competes with the business of Gaussian, Inc. or will provide
 assistance to any competitor of Gaussian, Inc.  The licensee
 of this program is prohibited from giving any competitor of
 Gaussian, Inc. access to this program.  By using this program,
 the user acknowledges that Gaussian, Inc. is engaged in the
 business of creating and licensing software in the field of
 computational chemistry and represents and warrants to the
 licensee that it is not a competitor of Gaussian, Inc. and that
 it will not use this program in any manner prohibited above.
 ---------------------------------------------------------------
  

 Cite this work as:
 Gaussian 16, Revision C.01,
 M. J. Frisch, G. W. Trucks, H. B. Schlegel, G. E. Scuseria, 
 M. A. Robb, J. R. Cheeseman, G. Scalmani, V. Barone, 
 G. A. Petersson, H. Nakatsuji, X. Li, M. Caricato, A. V. Marenich, 
 J. Bloino, B. G. Janesko, R. Gomperts, B. Mennucci, H. P. Hratchian, 
 J. V. Ortiz, A. F. Izmaylov, J. L. Sonnenberg, D. Williams-Young, 
 F. Ding, F. Lipparini, F. Egidi, J. Goings, B. Peng, A. Petrone, 
 T. Henderson, D. Ranasinghe, V. G. Zakrzewski, J. Gao, N. Rega, 
 G. Zheng, W. Liang, M. Hada, M. Ehara, K. Toyota, R. Fukuda, 
 J. Hasegawa, M. Ishida, T. Nakajima, Y. Honda, O. Kitao, H. Nakai, 
 T. Vreven, K. Throssell, J. A. Montgomery, Jr., J. E. Peralta, 
 F. Ogliaro, M. J. Bearpark, J. J. Heyd, E. N. Brothers, K. N. Kudin, 
 V. N. Staroverov, T. A. Keith, R. Kobayashi, J. Normand, 
 K. Raghavachari, A. P. Rendell, J. C. Burant, S. S. Iyengar, 
 J. Tomasi, M. Cossi, J. M. Millam, M. Klene, C. Adamo, R. Cammi, 
 J. W. Ochterski, R. L. Martin, K. Morokuma, O. Farkas, 
 J. B. Foresman, and D. J. Fox, Gaussian, Inc., Wallingford CT, 2019.
 
 ******************************************
 Gaussian 16:  ES64L-G16RevC.01  3-Jul-2019
                28-Jul-2022 
 ******************************************
 %NProcShared=48
 Will use up to   48 processors via shared memory.
 %mem = 190GB
 ---------------------------------------------------------------
 #n M062X/6-311++G(d,p) TD(NStates=1) EmpiricalDispersion=GD3 SP
 ---------------------------------------------------------------
 1/38=1,172=1/1;
 2/12=2,17=6,18=5,40=1/2;
 3/5=4,6=6,7=1111,11=9,25=1,30=1,74=-55,124=31/1,2,3,8;
 4//1;
 5/5=2,38=5/2;
 8/6=1,10=2,108=1/1;
 9/41=1,42=1,70=2/14;
 6/7=2,8=2,9=2,10=2/1;
 99/5=1,9=1/99;
 ------
 SP_-75
 ------
 Symbolic Z-matrix:
 Charge =  1 Multiplicity = 1
 C                     0.03225   2.49086   1.36043 
 C                     0.03773   3.71711   0.67199 
 C                     0.0108    3.71101  -0.71383 
 C                    -0.03502   2.48348  -1.40754 
 C                    -0.03517  -2.48378  -1.40754 
 C                     0.0099   -3.71251  -0.71383 
 C                     0.0363   -3.71763   0.67199 
 C                     0.0294   -2.49176   1.36043 
 C                     0.01965   0.0033    1.45337 
 C                    -0.0549   -0.00015  -1.42919 
 C                    -0.0081    1.24488   0.67707 
 C                    -0.0228    1.2404   -0.7308 
 C                    -0.00833  -1.24481   0.67707 
 C                    -0.0222   -1.23995  -0.7308 
 H                     0.0111    2.48657   2.44365 
 H                     0.03833   4.64913   1.21169 
 H                    -0.0063    4.60731  -1.27235 
 H                    -0.01665   2.48735  -2.49006 
 H                    -0.05063  -0.00008  -2.51027 
 H                    -0.0162   -2.48758  -2.49006 
 H                    -0.00675  -4.60919  -1.27235 
 H                     0.0366   -4.65025   1.21169 
 H                     0.0078   -2.48755   2.44365 
 H                    -0.78759   0.00075   2.14496 
 H                     0.93159   0.00075   2.14661 
 
                          Input orientation:                          
 ---------------------------------------------------------------------
 Center     Atomic      Atomic             Coordinates (Angstroms)
 Number     Number       Type             X           Y           Z
 ---------------------------------------------------------------------
      1          6           0        0.032250    2.490855    1.360431
      2          6           0        0.037725    3.717108    0.671989
      3          6           0        0.010800    3.711011   -0.713830
      4          6           0       -0.035025    2.483481   -1.407538
      5          6           0       -0.035175   -2.483781   -1.407538
      6          6           0        0.009900   -3.712511   -0.713830
      7          6           0        0.036300   -3.717633    0.671989
      8          6           0        0.029400   -2.491755    1.360431
      9          6           0        0.019650    0.003300    1.453369
     10          6           0       -0.054900   -0.000150   -1.429189
     11          6           0       -0.008100    1.244880    0.677065
     12          6           0       -0.022800    1.240396   -0.730804
     13          6           0       -0.008325   -1.244805    0.677065
     14          6           0       -0.022200   -1.239946   -0.730804
     15          1           0        0.011100    2.486571    2.443647
     16          1           0        0.038325    4.649128    1.211689
     17          1           0       -0.006300    4.607312   -1.272349
     18          1           0       -0.016650    2.487350   -2.490059
     19          1           0       -0.050625   -0.000075   -2.510266
     20          1           0       -0.016200   -2.487575   -2.490059
     21          1           0       -0.006750   -4.609187   -1.272349
     22          1           0        0.036600   -4.650253    1.211689
     23          1           0        0.007800   -2.487546    2.443647
     24          1           0       -0.787585    0.000750    2.144962
     25          1           0        0.931585    0.000750    2.146612
 ---------------------------------------------------------------------
                    Distance matrix (angstroms):
                    1          2          3          4          5
     1  C    0.000000
     2  C    1.406300   0.000000
     3  C    2.406616   1.386094   0.000000
     4  C    2.768796   2.419000   1.410731   0.000000
     5  C    5.693259   6.540701   6.233682   4.967262   0.000000
     6  C    6.541010   7.557811   7.423522   6.234867   1.411751
     7  C    6.246542   7.434741   7.556844   6.540897   2.419077
     8  C    4.982611   6.246919   6.540429   5.693749   2.768734
     9  C    2.489322   3.795162   4.294642   3.786697   3.791222
    10  C    3.740947   4.271011   3.780049   2.483805   2.483804
    11  C    1.421644   2.472658   2.831386   2.424959   4.271910
    12  C    2.437200   2.847032   2.470902   1.415408   3.785184
    13  C    3.797867   4.962129   5.147336   4.271580   2.425150
    14  C    4.277278   5.152068   4.951096   3.784447   1.416073
    15  H    1.083431   2.157244   3.386579   3.851462   6.287938
    16  H    2.163401   1.077004   2.142065   3.399376   7.598957
    17  H    3.378225   2.138890   1.056216   2.128323   7.092440
    18  H    3.850802   3.393200   2.157102   1.082684   5.087665
    19  H    4.603683   4.894078   4.123483   2.717407   2.717544
    20  H    6.293917   6.964162   6.448115   5.087593   1.082694
    21  H    7.572559   8.550416   8.338942   7.094013   2.129891
    22  H    7.142658   8.384749   8.580153   7.599713   3.399868
    23  H    5.094942   6.452705   6.956420   6.288447   3.851427
    24  H    2.736465   4.081924   4.751436   4.398927   4.399917
    25  H    2.761794   4.096928   4.774517   4.441877   4.442916
                    6          7          8          9         10
     6  C    0.000000
     7  C    1.386080   0.000000
     8  C    2.406903   1.405979   0.000000
     9  C    4.301639   3.802128   2.496804   0.000000
    10  C    3.781212   4.271176   3.741281   2.883524   0.000000
    11  C    5.148848   4.962714   3.798794   1.464561   2.447161
    12  C    4.953044   5.152996   4.278427   2.510542   1.423983
    13  C    2.832754   2.473236   1.422426   1.470101   2.446966
    14  C    2.472832   2.847838   2.437817   2.513568   1.423343
    15  H    6.956887   6.452252   5.094843   2.673454   4.602933
    16  H    8.580527   8.384150   7.142438   4.652147   5.347776
    17  H    8.338565   8.549092   7.571628   5.350433   4.610387
    18  H    6.449339   6.964421   6.294432   4.660735   2.704545
    19  H    4.124685   4.894338   4.604038   3.964259   1.081085
    20  H    2.157809   3.393280   3.850762   4.664372   2.704483
    21  H    1.056527   2.139433   3.378810   5.357730   4.611956
    22  H    2.141891   1.077523   2.163629   4.659855   5.348464
    23  H    3.386769   2.157011   1.083440   2.680505   4.603252
    24  H    4.753628   4.083480   2.737797   1.062984   3.648477
    25  H    4.777022   4.099076   2.764887   1.145521   3.709381
                   11         12         13         14         15
    11  C    0.000000
    12  C    1.407953   0.000000
    13  C    2.489685   2.856314   0.000000
    14  C    2.855986   2.480342   1.407946   0.000000
    15  H    2.159393   3.410460   4.128481   4.895424   0.000000
    16  H    3.446285   3.923833   5.918314   6.201462   2.488999
    17  H    3.886665   3.410230   6.168265   5.872304   4.278606
    18  H    3.402129   2.156365   4.894867   4.121619   4.933784
    19  H    3.422105   2.169338   3.422020   2.169003   5.543327
    20  H    4.895096   4.122231   3.402237   2.156755   7.006021
    21  H    6.170115   5.874619   3.888352   3.412520   8.009914
    22  H    5.919494   6.202947   3.447451   3.925166   7.242419
    23  H    4.129415   4.896491   2.159972   3.410945   4.974118
    24  H    2.076097   3.223608   2.076867   3.224154   2.628006
    25  H    2.142530   3.275225   2.143457   3.275447   2.667364
                   16         17         18         19         20
    16  H    0.000000
    17  H    2.484791   0.000000
    18  H    4.287102   2.444824   0.000000
    19  H    5.956169   4.770998   2.487739   0.000000
    20  H    8.039804   7.198634   4.974925   2.487820   0.000000
    21  H    9.585868   9.216499   7.200261   4.772659   2.446251
    22  H    9.299381   9.585134   8.040594   5.956905   4.287529
    23  H    7.242290   8.009110   7.006543   5.543661   4.933764
    24  H    4.812540   5.788682   5.316102   4.713200   5.316974
    25  H    4.824874   5.812860   5.346124   4.759333   5.346847
                   21         22         23         24         25
    21  H    0.000000
    22  H    2.484756   0.000000
    23  H    4.279042   2.489147   0.000000
    24  H    5.791307   4.814780   2.629347   0.000000
    25  H    5.815607   4.827723   2.670810   1.719171   0.000000
 Stoichiometry    C14H11(1+)
 Framework group  C1[X(C14H11)]
 Deg. of freedom    69
 Full point group                 C1      NOp   1
 Largest Abelian subgroup         C1      NOp   1
 Largest concise Abelian subgroup C1      NOp   1
                         Standard orientation:                         
 ---------------------------------------------------------------------
 Center     Atomic      Atomic             Coordinates (Angstroms)
 Number     Number       Type             X           Y           Z
 ---------------------------------------------------------------------
      1          6           0       -2.490948   -1.360619    0.004031
      2          6           0       -3.717158   -0.672338    0.022925
      3          6           0       -3.710968    0.713742    0.023458
      4          6           0       -2.483386    1.408139   -0.008399
      5          6           0        2.483876    1.407808   -0.007671
      6          6           0        3.712554    0.713261    0.023870
      7          6           0        3.717583   -0.672810    0.022814
      8          6           0        2.491662   -1.360897    0.002062
      9          6           0       -0.003397   -1.453457   -0.009968
     10          6           0        0.000250    1.430012   -0.027402
     11          6           0       -1.244922   -0.676672   -0.022554
     12          6           0       -1.240346    0.731212   -0.009362
     13          6           0        1.244763   -0.676835   -0.022339
     14          6           0        1.239996    0.731033   -0.008324
     15          1           0       -2.486729   -2.443204   -0.038572
     16          1           0       -4.649213   -1.211882    0.012669
     17          1           0       -4.607230    1.272550    0.017267
     18          1           0       -2.487189    2.490084    0.031415
     19          1           0        0.000243    2.510793   -0.001713
     20          1           0        2.487736    2.489741    0.032744
     21          1           0        4.609268    1.271940    0.018446
     22          1           0        4.650169   -1.212472    0.012588
     23          1           0        2.487388   -2.443473   -0.040992
     24          1           0       -0.000747   -2.128924   -0.830744
     25          1           0       -0.001053   -2.164628    0.888056
 ---------------------------------------------------------------------
 Rotational constants (GHZ):           2.1347913           0.4408867           0.3662388
 Standard basis: 6-311++G(d,p) (5D, 7F)
 There are   399 symmetry adapted cartesian basis functions of A   symmetry.
 There are   385 symmetry adapted basis functions of A   symmetry.
   385 basis functions,   603 primitive gaussians,   399 cartesian basis functions
    47 alpha electrons       47 beta electrons
       nuclear repulsion energy       779.0493443604 Hartrees.
 NAtoms=   25 NActive=   25 NUniq=   25 SFac= 1.00D+00 NAtFMM=   60 NAOKFM=F Big=F
 Integral buffers will be    131072 words long.
 Regular integral format.
 Two-electron integral symmetry is turned on.
 Nuclear repulsion after empirical dispersion term =      779.0483640586 Hartrees.
 One-electron integrals computed using PRISM.
 NBasis=   385 RedAO= T EigKep=  1.49D-06  NBF=   385
 NBsUse=   379 1.00D-06 EigRej=  9.14D-07 NBFU=   379
 ExpMin= 3.60D-02 ExpMax= 4.56D+03 ExpMxC= 6.82D+02 IAcc=3 IRadAn=         5 AccDes= 0.00D+00
 Harris functional with IExCor= 1009 and IRadAn=       5 diagonalized for initial guess.
 HarFok:  IExCor= 1009 AccDes= 0.00D+00 IRadAn=         5 IDoV= 1 UseB2=F ITyADJ=14
 ICtDFT=  3500011 ScaDFX=  1.000000  1.000000  1.000000  1.000000
 FoFCou: FMM=F IPFlag=           0 FMFlag=      100000 FMFlg1=           0
         NFxFlg=           0 DoJE=T BraDBF=F KetDBF=T FulRan=T
         wScrn=  0.000000 ICntrl=       500 IOpCl=  0 I1Cent=   200000004 NGrid=           0
         NMat0=    1 NMatS0=      1 NMatT0=    0 NMatD0=    1 NMtDS0=    0 NMtDT0=    0
 Petite list used in FoFCou.
 Requested convergence on RMS density matrix=1.00D-08 within 128 cycles.
 Requested convergence on MAX density matrix=1.00D-06.
 Requested convergence on             energy=1.00D-06.
 No special actions if energy rises.
 SCF Done:  E(RM062X) =  -539.753645857     A.U. after   15 cycles
            NFock= 15  Conv=0.50D-08     -V/T= 2.0044
 DoSCS=F DFT=T ScalE2(SS,OS)=  1.000000  1.000000
 ExpMin= 3.60D-02 ExpMax= 4.56D+03 ExpMxC= 6.82D+02 IAcc=3 IRadAn=         5 AccDes= 0.00D+00
 HarFok:  IExCor=  205 AccDes= 0.00D+00 IRadAn=         5 IDoV=-2 UseB2=F ITyADJ=14
 ICtDFT= 12500011 ScaDFX=  1.000000  1.000000  1.000000  1.000000
 Range of M.O.s used for correlation:    15   379
 NBasis=   385 NAE=    47 NBE=    47 NFC=    14 NFV=     0
 NROrb=    365 NOA=    33 NOB=    33 NVA=   332 NVB=   332

 **** Warning!!: The largest alpha MO coefficient is  0.14898334D+03

 Orbital symmetries:
       Occupied  (A) (A) (A) (A) (A) (A) (A) (A) (A) (A) (A) (A)
                 (A) (A) (A) (A) (A) (A) (A) (A) (A) (A) (A) (A)
                 (A) (A) (A) (A) (A) (A) (A) (A) (A) (A) (A) (A)
                 (A) (A) (A) (A) (A) (A) (A) (A) (A) (A) (A)
       Virtual   (A) (A) (A) (A) (A) (A) (A) (A) (A) (A) (A) (A)
                 (A) (A) (A) (A) (A) (A) (A) (A) (A) (A) (A) (A)
                 (A) (A) (A) (A) (A) (A) (A) (A) (A) (A) (A) (A)
                 (A) (A) (A) (A) (A) (A) (A) (A) (A) (A) (A) (A)
                 (A) (A) (A) (A) (A) (A) (A) (A) (A) (A) (A) (A)
                 (A) (A) (A) (A) (A) (A) (A) (A) (A) (A) (A) (A)
                 (A) (A) (A) (A) (A) (A) (A) (A) (A) (A) (A) (A)
                 (A) (A) (A) (A) (A) (A) (A) (A) (A) (A) (A) (A)
                 (A) (A) (A) (A) (A) (A) (A) (A) (A) (A) (A) (A)
                 (A) (A) (A) (A) (A) (A) (A) (A) (A) (A) (A) (A)
                 (A) (A) (A) (A) (A) (A) (A) (A) (A) (A) (A) (A)
                 (A) (A) (A) (A) (A) (A) (A) (A) (A) (A) (A) (A)
                 (A) (A) (A) (A) (A) (A) (A) (A) (A) (A) (A) (A)
                 (A) (A) (A) (A) (A) (A) (A) (A) (A) (A) (A) (A)
                 (A) (A) (A) (A) (A) (A) (A) (A) (A) (A) (A) (A)
                 (A) (A) (A) (A) (A) (A) (A) (A) (A) (A) (A) (A)
                 (A) (A) (A) (A) (A) (A) (A) (A) (A) (A) (A) (A)
                 (A) (A) (A) (A) (A) (A) (A) (A) (A) (A) (A) (A)
                 (A) (A) (A) (A) (A) (A) (A) (A) (A) (A) (A) (A)
                 (A) (A) (A) (A) (A) (A) (A) (A) (A) (A) (A) (A)
                 (A) (A) (A) (A) (A) (A) (A) (A) (A) (A) (A) (A)
                 (A) (A) (A) (A) (A) (A) (A) (A) (A) (A) (A) (A)
                 (A) (A) (A) (A) (A) (A) (A) (A) (A) (A) (A) (A)
                 (A) (A) (A) (A) (A) (A) (A) (A) (A) (A) (A) (A)
                 (A) (A) (A) (A) (A) (A) (A) (A) (A) (A) (A) (A)
                 (A) (A) (A) (A) (A) (A) (A) (A) (A) (A) (A) (A)
                 (A) (A) (A) (A) (A) (A) (A) (A) (A) (A) (A) (A)
                 (A) (A) (A) (A) (A) (A) (A) (A)
     4 initial guesses have been made.
 Convergence on wavefunction:    0.001000000000000
 Iteration     1 Dimension     4 NMult     0 NNew      4
 CISAX will form     4 AO SS matrices at one time.
 Iteration     2 Dimension     6 NMult     4 NNew      2
 Iteration     3 Dimension     8 NMult     6 NNew      2
 Iteration     4 Dimension    10 NMult     8 NNew      2
 Iteration     5 Dimension    12 NMult    10 NNew      2
 Iteration     6 Dimension    14 NMult    12 NNew      2
 ***********************************************************************
 Excited states from <AA,BB:AA,BB> singles matrix:
 ***********************************************************************
 
 Ground to excited state transition densities written to RWF  633
 Ground to excited state transition electric dipole moments (Au):
       state          X           Y           Z        Dip. S.      Osc.
         1        -0.0045     -0.6285      0.0088      0.3951      0.0269
 Ground to excited state transition velocity dipole moments (Au):
       state          X           Y           Z        Dip. S.      Osc.
         1         0.0005      0.0716     -0.0011      0.0051      0.0335
 Ground to excited state transition magnetic dipole moments (Au):
       state          X           Y           Z
         1        -0.0114     -0.0003     -0.0001
 Ground to excited state transition velocity quadrupole moments (Au):
       state          XX          YY          ZZ          XY          XZ          YZ
         1         0.3196      0.0286     -0.0093      0.0006      0.0000      0.0019
 <0|del|b> * <b|rxdel|0> + <0|del|b> * <b|delr+rdel|0>
 Rotatory Strengths (R) in cgs (10**-40 erg-esu-cm/Gauss)
       state          XX          YY          ZZ    R(velocity)    E-M Angle
         1        -0.0771     -0.0129     -0.0854     -0.0585       90.00
 1/2[<0|r|b>*<b|rxdel|0> + (<0|rxdel|b>*<b|r|0>)*]
 Rotatory Strengths (R) in cgs (10**-40 erg-esu-cm/Gauss)
       state          XX          YY          ZZ     R(length)
         1        -0.0365     -0.1246      0.0004     -0.0536
  1/2[<0|del|b>*<b|r|0> + (<0|r|b>*<b|del|0>)*] (Au)
       state          X           Y           Z        Dip. S.   Osc.(frdel)
         1        -0.0000     -0.0450     -0.0000      0.0450      0.0300

 Excitation energies and oscillator strengths:
 
 Excited State   1:      Singlet-A      2.7779 eV  446.33 nm  f=0.0269  <S**2>=0.000
      47 -> 48         0.70427
 This state for optimization and/or second-order correction.
 Total Energy, E(TD-HF/TD-DFT) =  -539.651560530    
 Copying the excited state density for this state as the 1-particle RhoCI density.
 SavETr:  write IOETrn=   770 NScale= 10 NData=  16 NLR=1 NState=    1 LETran=      28.

 **********************************************************************

            Population analysis using the SCF Density.

 **********************************************************************

 Orbital symmetries:
       Occupied  (A) (A) (A) (A) (A) (A) (A) (A) (A) (A) (A) (A)
                 (A) (A) (A) (A) (A) (A) (A) (A) (A) (A) (A) (A)
                 (A) (A) (A) (A) (A) (A) (A) (A) (A) (A) (A) (A)
                 (A) (A) (A) (A) (A) (A) (A) (A) (A) (A) (A)
       Virtual   (A) (A) (A) (A) (A) (A) (A) (A) (A) (A) (A) (A)
                 (A) (A) (A) (A) (A) (A) (A) (A) (A) (A) (A) (A)
                 (A) (A) (A) (A) (A) (A) (A) (A) (A) (A) (A) (A)
                 (A) (A) (A) (A) (A) (A) (A) (A) (A) (A) (A) (A)
                 (A) (A) (A) (A) (A) (A) (A) (A) (A) (A) (A) (A)
                 (A) (A) (A) (A) (A) (A) (A) (A) (A) (A) (A) (A)
                 (A) (A) (A) (A) (A) (A) (A) (A) (A) (A) (A) (A)
                 (A) (A) (A) (A) (A) (A) (A) (A) (A) (A) (A) (A)
                 (A) (A) (A) (A) (A) (A) (A) (A) (A) (A) (A) (A)
                 (A) (A) (A) (A) (A) (A) (A) (A) (A) (A) (A) (A)
                 (A) (A) (A) (A) (A) (A) (A) (A) (A) (A) (A) (A)
                 (A) (A) (A) (A) (A) (A) (A) (A) (A) (A) (A) (A)
                 (A) (A) (A) (A) (A) (A) (A) (A) (A) (A) (A) (A)
                 (A) (A) (A) (A) (A) (A) (A) (A) (A) (A) (A) (A)
                 (A) (A) (A) (A) (A) (A) (A) (A) (A) (A) (A) (A)
                 (A) (A) (A) (A) (A) (A) (A) (A) (A) (A) (A) (A)
                 (A) (A) (A) (A) (A) (A) (A) (A) (A) (A) (A) (A)
                 (A) (A) (A) (A) (A) (A) (A) (A) (A) (A) (A) (A)
                 (A) (A) (A) (A) (A) (A) (A) (A) (A) (A) (A) (A)
                 (A) (A) (A) (A) (A) (A) (A) (A) (A) (A) (A) (A)
                 (A) (A) (A) (A) (A) (A) (A) (A) (A) (A) (A) (A)
                 (A) (A) (A) (A) (A) (A) (A) (A) (A) (A) (A) (A)
                 (A) (A) (A) (A) (A) (A) (A) (A) (A) (A) (A) (A)
                 (A) (A) (A) (A) (A) (A) (A) (A) (A) (A) (A) (A)
                 (A) (A) (A) (A) (A) (A) (A) (A) (A) (A) (A) (A)
                 (A) (A) (A) (A) (A) (A) (A) (A) (A) (A) (A) (A)
                 (A) (A) (A) (A) (A) (A) (A) (A) (A) (A) (A) (A)
                 (A) (A) (A) (A) (A) (A) (A) (A)
 The electronic state is 1-A.
 Alpha  occ. eigenvalues --  -10.77654 -10.73341 -10.73300 -10.72633 -10.72631
 Alpha  occ. eigenvalues --  -10.71618 -10.71596 -10.71153 -10.71145 -10.70979
 Alpha  occ. eigenvalues --  -10.70240 -10.70224 -10.69574 -10.69553  -1.16305
 Alpha  occ. eigenvalues --   -1.11986  -1.06716  -1.05868  -1.00927  -1.00159
 Alpha  occ. eigenvalues --   -0.95611  -0.91093  -0.86405  -0.85824  -0.83792
 Alpha  occ. eigenvalues --   -0.78394  -0.75976  -0.74321  -0.69623  -0.69439
 Alpha  occ. eigenvalues --   -0.68787  -0.68278  -0.68064  -0.64399  -0.63988
 Alpha  occ. eigenvalues --   -0.63240  -0.62157  -0.59794  -0.59318  -0.59199
 Alpha  occ. eigenvalues --   -0.56972  -0.55316  -0.54947  -0.52255  -0.46389
 Alpha  occ. eigenvalues --   -0.45964  -0.44275
 Alpha virt. eigenvalues --   -0.26059  -0.14967  -0.14168  -0.13076  -0.11177
 Alpha virt. eigenvalues --   -0.10077  -0.09196  -0.08048  -0.07879  -0.07459
 Alpha virt. eigenvalues --   -0.07253  -0.07131  -0.05650  -0.05584  -0.05383
 Alpha virt. eigenvalues --   -0.03757  -0.03692  -0.03291  -0.03131  -0.02138
 Alpha virt. eigenvalues --   -0.01354  -0.00903   0.00192   0.00696   0.00764
 Alpha virt. eigenvalues --    0.01025   0.01507   0.01821   0.02192   0.02308
 Alpha virt. eigenvalues --    0.02383   0.02491   0.02824   0.03210   0.03414
 Alpha virt. eigenvalues --    0.04261   0.04496   0.04667   0.04920   0.05351
 Alpha virt. eigenvalues --    0.05932   0.06277   0.06614   0.07015   0.07157
 Alpha virt. eigenvalues --    0.07818   0.07935   0.08293   0.08470   0.08941
 Alpha virt. eigenvalues --    0.09571   0.09606   0.10005   0.10667   0.10981
 Alpha virt. eigenvalues --    0.11135   0.12283   0.12301   0.12844   0.13095
 Alpha virt. eigenvalues --    0.13412   0.13507   0.14042   0.14107   0.15731
 Alpha virt. eigenvalues --    0.16443   0.16752   0.17047   0.17444   0.17641
 Alpha virt. eigenvalues --    0.18041   0.18737   0.19122   0.19535   0.19700
 Alpha virt. eigenvalues --    0.21349   0.21387   0.22459   0.23132   0.23145
 Alpha virt. eigenvalues --    0.23591   0.24439   0.24511   0.26711   0.27340
 Alpha virt. eigenvalues --    0.28803   0.29239   0.29724   0.31066   0.35762
 Alpha virt. eigenvalues --    0.36022   0.37586   0.39024   0.41143   0.41534
 Alpha virt. eigenvalues --    0.41897   0.42508   0.43048   0.43444   0.44000
 Alpha virt. eigenvalues --    0.44006   0.44654   0.44673   0.46017   0.47821
 Alpha virt. eigenvalues --    0.48675   0.48966   0.48982   0.50488   0.50995
 Alpha virt. eigenvalues --    0.51203   0.51252   0.52138   0.52214   0.53985
 Alpha virt. eigenvalues --    0.54111   0.54379   0.55768   0.55878   0.57231
 Alpha virt. eigenvalues --    0.58109   0.58680   0.61279   0.61978   0.62226
 Alpha virt. eigenvalues --    0.62678   0.63314   0.63711   0.65112   0.66796
 Alpha virt. eigenvalues --    0.70508   0.70535   0.70830   0.71670   0.72622
 Alpha virt. eigenvalues --    0.74779   0.75377   0.76021   0.76042   0.76700
 Alpha virt. eigenvalues --    0.77093   0.77510   0.77991   0.80381   0.80645
 Alpha virt. eigenvalues --    0.80944   0.81766   0.81940   0.82643   0.84248
 Alpha virt. eigenvalues --    0.86089   0.86303   0.87682   0.89350   0.90517
 Alpha virt. eigenvalues --    0.90853   0.91460   0.93112   0.94795   0.96174
 Alpha virt. eigenvalues --    0.96838   1.00354   1.01153   1.01605   1.02519
 Alpha virt. eigenvalues --    1.03036   1.04110   1.04169   1.06680   1.09023
 Alpha virt. eigenvalues --    1.19887   1.23284   1.24112   1.25697   1.27999
 Alpha virt. eigenvalues --    1.28838   1.32249   1.33264   1.34997   1.35878
 Alpha virt. eigenvalues --    1.38665   1.40097   1.40203   1.42745   1.42802
 Alpha virt. eigenvalues --    1.43175   1.44792   1.44832   1.46727   1.46876
 Alpha virt. eigenvalues --    1.47245   1.47547   1.51436   1.53609   1.55316
 Alpha virt. eigenvalues --    1.55651   1.56067   1.56622   1.57481   1.61085
 Alpha virt. eigenvalues --    1.63617   1.64314   1.64359   1.65853   1.67691
 Alpha virt. eigenvalues --    1.68412   1.68688   1.69605   1.73605   1.75755
 Alpha virt. eigenvalues --    1.76867   1.77579   1.79040   1.79685   1.79773
 Alpha virt. eigenvalues --    1.82930   1.82966   1.83057   1.83285   1.83824
 Alpha virt. eigenvalues --    1.84350   1.85676   1.85881   1.88015   1.91364
 Alpha virt. eigenvalues --    1.91575   1.94069   1.95308   1.97230   1.97313
 Alpha virt. eigenvalues --    1.98981   2.02220   2.03728   2.07534   2.11459
 Alpha virt. eigenvalues --    2.11697   2.13124   2.14988   2.18099   2.20327
 Alpha virt. eigenvalues --    2.21704   2.28198   2.29070   2.34067   2.35680
 Alpha virt. eigenvalues --    2.35860   2.38855   2.40319   2.40634   2.41637
 Alpha virt. eigenvalues --    2.45532   2.47783   2.49791   2.52902   2.53623
 Alpha virt. eigenvalues --    2.53992   2.56795   2.57761   2.58409   2.59539
 Alpha virt. eigenvalues --    2.59779   2.61022   2.61767   2.62832   2.63251
 Alpha virt. eigenvalues --    2.63568   2.64412   2.64683   2.65366   2.67593
 Alpha virt. eigenvalues --    2.69082   2.70793   2.71232   2.73441   2.74747
 Alpha virt. eigenvalues --    2.76265   2.77938   2.79438   2.82030   2.82619
 Alpha virt. eigenvalues --    2.83950   2.86354   2.91986   2.95696   2.99284
 Alpha virt. eigenvalues --    2.99365   3.06056   3.09326   3.09931   3.10648
 Alpha virt. eigenvalues --    3.20596   3.23082   3.25352   3.27233   3.29837
 Alpha virt. eigenvalues --    3.30454   3.32065   3.43264   3.43569   3.45236
 Alpha virt. eigenvalues --    3.46565   3.48774   3.55947   3.64269   3.67043
 Alpha virt. eigenvalues --    3.68876   3.94211   3.95732   3.96499   3.97901
 Alpha virt. eigenvalues --    4.04641   4.06300   4.07627   4.12343   4.35635
 Alpha virt. eigenvalues --    4.61418   4.68035   4.69650  23.45778  23.62145
 Alpha virt. eigenvalues --   23.80899  23.86151  23.86524  23.88966  23.90282
 Alpha virt. eigenvalues --   23.92520  23.95686  23.96063  23.96238  23.98369
 Alpha virt. eigenvalues --   24.08595  24.08795
          Condensed to atoms (all electrons):
               1          2          3          4          5          6
     1  C    8.236279   0.605189  -0.591357   1.480561   0.016922  -0.079264
     2  C    0.605189   6.749786   0.364093  -0.666490  -0.052784  -0.014531
     3  C   -0.591357   0.364093   6.563830   0.477535  -0.104737   0.016166
     4  C    1.480561  -0.666490   0.477535   9.998388   0.087320  -0.104640
     5  C    0.016922  -0.052784  -0.104737   0.087320   9.980428   0.466602
     6  C   -0.079264  -0.014531   0.016166  -0.104640   0.466602   6.562245
     7  C   -0.034917   0.009745  -0.014619  -0.053183  -0.653839   0.362262
     8  C    0.363908  -0.034790  -0.079295   0.015639   1.486773  -0.597272
     9  C   -1.419642  -0.507491   0.256832  -0.519084  -0.525923   0.257411
    10  C   -1.004800   0.106554  -0.302185  -2.163710  -2.156767  -0.300206
    11  C    0.138904  -0.931357   1.106359  -0.950251  -1.635102  -0.114790
    12  C   -1.213726   0.830624  -1.236140  -0.348803  -0.011910  -0.212766
    13  C    0.058809  -0.152067  -0.117518  -1.644448  -0.972424   1.111813
    14  C   -0.991675  -0.207406  -0.213207  -0.023318  -0.339764  -1.227878
    15  H    0.353336  -0.097915   0.000446   0.022452   0.004948   0.001195
    16  H   -0.025507   0.382629  -0.019209   0.012561  -0.001362  -0.000307
    17  H   -0.015923  -0.026987   0.387186  -0.054659  -0.000280   0.000349
    18  H    0.042277   0.011100  -0.098278   0.435712   0.013287  -0.004360
    19  H   -0.043141  -0.009487   0.052435  -0.079254  -0.079027   0.052547
    20  H    0.007013   0.001433  -0.004361   0.013166   0.434520  -0.098546
    21  H   -0.001190  -0.000342   0.000350  -0.000264  -0.054452   0.387120
    22  H    0.000590   0.000332  -0.000309  -0.001386   0.012664  -0.019291
    23  H    0.005667  -0.002472   0.001195   0.004989   0.022220   0.000439
    24  H    0.008973   0.014923  -0.001473  -0.014153  -0.014656  -0.001298
    25  H    0.054461   0.012272  -0.000841  -0.011979  -0.011439  -0.001078
               7          8          9         10         11         12
     1  C   -0.034917   0.363908  -1.419642  -1.004800   0.138904  -1.213726
     2  C    0.009745  -0.034790  -0.507491   0.106554  -0.931357   0.830624
     3  C   -0.014619  -0.079295   0.256832  -0.302185   1.106359  -1.236140
     4  C   -0.053183   0.015639  -0.519084  -2.163710  -0.950251  -0.348803
     5  C   -0.653839   1.486773  -0.525923  -2.156767  -1.635102  -0.011910
     6  C    0.362262  -0.597272   0.257411  -0.300206  -0.114790  -0.212766
     7  C    6.732603   0.608362  -0.497405   0.102168  -0.147190  -0.207648
     8  C    0.608362   8.225275  -1.413758  -1.003037   0.058989  -0.979864
     9  C   -0.497405  -1.413758   8.465253   0.506436   1.452006  -1.068763
    10  C    0.102168  -1.003037   0.506436   8.763775  -0.154075   1.601864
    11  C   -0.147190   0.058989   1.452006  -0.154075  13.709133  -3.128300
    12  C   -0.207648  -0.979864  -1.068763   1.601864  -3.128300  13.810111
    13  C   -0.923433   0.120102   1.450850  -0.164656   1.477624  -4.378905
    14  C    0.812404  -1.207731  -1.064288   1.594807  -4.357838   2.175778
    15  H   -0.002421   0.005623   0.079977  -0.009217  -0.012925  -0.018549
    16  H    0.000326   0.000544   0.003034  -0.009883   0.024628  -0.025870
    17  H   -0.000338  -0.001175  -0.001828   0.015735  -0.016694   0.064356
    18  H    0.001422   0.006970  -0.027923   0.030727  -0.030665  -0.030123
    19  H   -0.009561  -0.043131   0.068855   0.425216   0.085955  -0.067734
    20  H    0.011533   0.042129  -0.027872   0.031365  -0.010842  -0.003927
    21  H   -0.027150  -0.015544  -0.001855   0.015716  -0.005133   0.003247
    22  H    0.382536  -0.025167   0.003277  -0.010084   0.002040  -0.008041
    23  H   -0.097084   0.353746   0.079663  -0.009136  -0.001395   0.005666
    24  H    0.015498   0.010706   0.379642   0.008307  -0.000162  -0.032450
    25  H    0.011520   0.052120   0.337826   0.003976   0.022910  -0.081912
              13         14         15         16         17         18
     1  C    0.058809  -0.991675   0.353336  -0.025507  -0.015923   0.042277
     2  C   -0.152067  -0.207406  -0.097915   0.382629  -0.026987   0.011100
     3  C   -0.117518  -0.213207   0.000446  -0.019209   0.387186  -0.098278
     4  C   -1.644448  -0.023318   0.022452   0.012561  -0.054659   0.435712
     5  C   -0.972424  -0.339764   0.004948  -0.001362  -0.000280   0.013287
     6  C    1.111813  -1.227878   0.001195  -0.000307   0.000349  -0.004360
     7  C   -0.923433   0.812404  -0.002421   0.000326  -0.000338   0.001422
     8  C    0.120102  -1.207731   0.005623   0.000544  -0.001175   0.006970
     9  C    1.450850  -1.064288   0.079977   0.003034  -0.001828  -0.027923
    10  C   -0.164656   1.594807  -0.009217  -0.009883   0.015735   0.030727
    11  C    1.477624  -4.357838  -0.012925   0.024628  -0.016694  -0.030665
    12  C   -4.378905   2.175778  -0.018549  -0.025870   0.064356  -0.030123
    13  C   13.778406  -3.119185  -0.001246   0.001959  -0.005147  -0.011241
    14  C   -3.119185  13.805162   0.005757  -0.007935   0.003256  -0.004366
    15  H   -0.001246   0.005757   0.442363  -0.008934   0.001598   0.000061
    16  H    0.001959  -0.007935  -0.008934   0.420754  -0.007238   0.001976
    17  H   -0.005147   0.003256   0.001598  -0.007238   0.427087  -0.010889
    18  H   -0.011241  -0.004366   0.000061   0.001976  -0.010889   0.456758
    19  H    0.086745  -0.066769   0.000402  -0.000603   0.001465  -0.006149
    20  H   -0.030846  -0.030406  -0.000151   0.000018  -0.000148   0.001224
    21  H   -0.016642   0.063873   0.000025  -0.000007   0.000011  -0.000148
    22  H    0.025103  -0.026728  -0.000129   0.000007  -0.000007   0.000017
    23  H   -0.013436  -0.018375   0.000556  -0.000129   0.000025  -0.000149
    24  H   -0.000016  -0.031320  -0.001921   0.000819  -0.000216   0.000103
    25  H    0.022550  -0.083349  -0.000010   0.000397  -0.000088   0.000290
              19         20         21         22         23         24
     1  C   -0.043141   0.007013  -0.001190   0.000590   0.005667   0.008973
     2  C   -0.009487   0.001433  -0.000342   0.000332  -0.002472   0.014923
     3  C    0.052435  -0.004361   0.000350  -0.000309   0.001195  -0.001473
     4  C   -0.079254   0.013166  -0.000264  -0.001386   0.004989  -0.014153
     5  C   -0.079027   0.434520  -0.054452   0.012664   0.022220  -0.014656
     6  C    0.052547  -0.098546   0.387120  -0.019291   0.000439  -0.001298
     7  C   -0.009561   0.011533  -0.027150   0.382536  -0.097084   0.015498
     8  C   -0.043131   0.042129  -0.015544  -0.025167   0.353746   0.010706
     9  C    0.068855  -0.027872  -0.001855   0.003277   0.079663   0.379642
    10  C    0.425216   0.031365   0.015716  -0.010084  -0.009136   0.008307
    11  C    0.085955  -0.010842  -0.005133   0.002040  -0.001395  -0.000162
    12  C   -0.067734  -0.003927   0.003247  -0.008041   0.005666  -0.032450
    13  C    0.086745  -0.030846  -0.016642   0.025103  -0.013436  -0.000016
    14  C   -0.066769  -0.030406   0.063873  -0.026728  -0.018375  -0.031320
    15  H    0.000402  -0.000151   0.000025  -0.000129   0.000556  -0.001921
    16  H   -0.000603   0.000018  -0.000007   0.000007  -0.000129   0.000819
    17  H    0.001465  -0.000148   0.000011  -0.000007   0.000025  -0.000216
    18  H   -0.006149   0.001224  -0.000148   0.000017  -0.000149   0.000103
    19  H    0.449211  -0.006117   0.001454  -0.000599   0.000405   0.000742
    20  H   -0.006117   0.456856  -0.010821   0.001982   0.000048   0.000093
    21  H    0.001454  -0.010821   0.426836  -0.007224   0.001603  -0.000214
    22  H   -0.000599   0.001982  -0.007224   0.420788  -0.008935   0.000796
    23  H    0.000405   0.000048   0.001603  -0.008935   0.442024  -0.001786
    24  H    0.000742   0.000093  -0.000214   0.000796  -0.001786   0.490116
    25  H    0.000394   0.000306  -0.000094   0.000421  -0.000122  -0.077460
              25
     1  C    0.054461
     2  C    0.012272
     3  C   -0.000841
     4  C   -0.011979
     5  C   -0.011439
     6  C   -0.001078
     7  C    0.011520
     8  C    0.052120
     9  C    0.337826
    10  C    0.003976
    11  C    0.022910
    12  C   -0.081912
    13  C    0.022550
    14  C   -0.083349
    15  H   -0.000010
    16  H    0.000397
    17  H   -0.000088
    18  H    0.000290
    19  H    0.000394
    20  H    0.000306
    21  H   -0.000094
    22  H    0.000421
    23  H   -0.000122
    24  H   -0.077460
    25  H    0.490159
 Mulliken charges:
               1
     1  C    0.048253
     2  C   -0.384559
     3  C   -0.442897
     4  C    0.087300
     5  C    0.088785
     6  C   -0.441922
     7  C   -0.381592
     8  C    0.049878
     9  C   -0.265231
    10  C    0.081111
    11  C   -0.581830
    12  C    0.563786
    13  C   -0.582750
    14  C    0.560502
    15  H    0.234677
    16  H    0.257333
    17  H    0.240549
    18  H    0.222367
    19  H    0.185748
    20  H    0.222352
    21  H    0.240842
    22  H    0.257348
    23  H    0.234771
    24  H    0.246408
    25  H    0.258772
 Sum of Mulliken charges =   1.00000
 Mulliken charges with hydrogens summed into heavy atoms:
               1
     1  C    0.282930
     2  C   -0.127225
     3  C   -0.202349
     4  C    0.309667
     5  C    0.311137
     6  C   -0.201080
     7  C   -0.124244
     8  C    0.284649
     9  C    0.239949
    10  C    0.266859
    11  C   -0.581830
    12  C    0.563786
    13  C   -0.582750
    14  C    0.560502
 Electronic spatial extent (au):  <R**2>=           2873.8792
 Charge=              1.0000 electrons
 Dipole moment (field-independent basis, Debye):
    X=              0.0042    Y=              0.1930    Z=              0.0039  Tot=              0.1930
 Quadrupole moment (field-independent basis, Debye-Ang):
   XX=            -30.7276   YY=            -56.2553   ZZ=            -84.2873
   XY=              0.0024   XZ=              0.0037   YZ=              0.2156
 Traceless Quadrupole moment (field-independent basis, Debye-Ang):
   XX=             26.3625   YY=              0.8348   ZZ=            -27.1972
   XY=              0.0024   XZ=              0.0037   YZ=              0.2156
 Octapole moment (field-independent basis, Debye-Ang**2):
  XXX=              0.1683  YYY=              5.1759  ZZZ=             -0.0518  XYY=             -0.0025
  XXY=             -3.7648  XXZ=              0.4333  XZZ=             -0.0187  YZZ=             -3.0918
  YYZ=              0.2706  XYZ=              0.0188
 Hexadecapole moment (field-independent basis, Debye-Ang**3):
 XXXX=          -2129.7147 YYYY=           -609.6252 ZZZZ=            -99.9928 XXXY=              0.0928
 XXXZ=              0.1084 YYYX=             -0.0374 YYYZ=              2.3648 ZZZX=              0.0055
 ZZZY=              0.0972 XXYY=           -510.9362 XXZZ=           -595.7312 YYZZ=           -145.9031
 XXYZ=              2.3816 YYXZ=             -0.0004 ZZXY=              0.0021
 N-N= 7.790483640586D+02 E-N=-2.794315511958D+03  KE= 5.373771324206D+02
 Unable to Open any file for archive entry.
 1\1\GINC-GADI-CPU-CLX-0113\SP\RM062X TD-FC\6-311++G(d,p)\C14H11(1+)\TS
 1578\28-Jul-2022\0\\#n M062X/6-311++G(d,p) TD(NStates=1) EmpiricalDisp
 ersion=GD3 SP\\SP_-75\\1,1\C,0,0.03225,2.490855,1.360431\C,0,0.037725,
 3.717108,0.671989\C,0,0.0108,3.711011,-0.71383\C,0,-0.035025,2.483481,
 -1.407538\C,0,-0.035175,-2.483781,-1.407538\C,0,0.0099,-3.712511,-0.71
 383\C,0,0.0363,-3.717633,0.671989\C,0,0.0294,-2.491755,1.360431\C,0,0.
 01965,0.0033,1.453369\C,0,-0.0549,-0.00015,-1.429189\C,0,-0.0081,1.244
 88,0.677065\C,0,-0.0228,1.240396,-0.730804\C,0,-0.008325,-1.244805,0.6
 77065\C,0,-0.0222,-1.239946,-0.730804\H,0,0.0111,2.486571,2.443647\H,0
 ,0.038325,4.649128,1.211689\H,0,-0.0063,4.607312,-1.272349\H,0,-0.0166
 5,2.48735,-2.490059\H,0,-0.050625,-0.000075,-2.510266\H,0,-0.0162,-2.4
 87575,-2.490059\H,0,-0.00675,-4.609187,-1.272349\H,0,0.0366,-4.650253,
 1.211689\H,0,0.0078,-2.487546,2.443647\H,0,-0.787585,0.00075,2.144962\
 H,0,0.931585,0.00075,2.146612\\Version=ES64L-G16RevC.01\State=1-A\HF=-
 539.7536459\RMSD=5.021e-09\PG=C01 [X(C14H11)]\\@
 The archive entry for this job was punched.


 I LOVE MANKIND - IT'S PEOPLE I CAN'T STAND.
     -- LINUS OF PEANUTS
 Job cpu time:       0 days  1 hours 20 minutes 30.5 seconds.
 Elapsed time:       0 days  0 hours  1 minutes 41.5 seconds.
 File lengths (MBytes):  RWF=    460 Int=      0 D2E=      0 Chk=     15 Scr=      1
 Normal termination of Gaussian 16 at Thu Jul 28 14:14:37 2022.
