 Entering Gaussian System, Link 0=g16
 Initial command:
 /apps/gaussian/g16c01/g16/l1.exe "/jobfs/53002009.gadi-pbs/Gau-775598.inp" -scrdir="/jobfs/53002009.gadi-pbs/"
 Entering Link 1 = /apps/gaussian/g16c01/g16/l1.exe PID=    775599.
  
 Copyright (c) 1988-2019, Gaussian, Inc.  All Rights Reserved.
  
 This is part of the Gaussian(R) 16 program.  It is based on
 the Gaussian(R) 09 system (copyright 2009, Gaussian, Inc.),
 the Gaussian(R) 03 system (copyright 2003, Gaussian, Inc.),
 the Gaussian(R) 98 system (copyright 1998, Gaussian, Inc.),
 the Gaussian(R) 94 system (copyright 1995, Gaussian, Inc.),
 the Gaussian 92(TM) system (copyright 1992, Gaussian, Inc.),
 the Gaussian 90(TM) system (copyright 1990, Gaussian, Inc.),
 the Gaussian 88(TM) system (copyright 1988, Gaussian, Inc.),
 the Gaussian 86(TM) system (copyright 1986, Carnegie Mellon
 University), and the Gaussian 82(TM) system (copyright 1983,
 Carnegie Mellon University). Gaussian is a federally registered
 trademark of Gaussian, Inc.
  
 This software contains proprietary and confidential information,
 including trade secrets, belonging to Gaussian, Inc.
  
 This software is provided under written license and may be
 used, copied, transmitted, or stored only in accord with that
 written license.
  
 The following legend is applicable only to US Government
 contracts under FAR:
  
                    RESTRICTED RIGHTS LEGEND
  
 Use, reproduction and disclosure by the US Government is
 subject to restrictions as set forth in subparagraphs (a)
 and (c) of the Commercial Computer Software - Restricted
 Rights clause in FAR 52.227-19.
  
 Gaussian, Inc.
 340 Quinnipiac St., Bldg. 40, Wallingford CT 06492
  
  
 ---------------------------------------------------------------
 Warning -- This program may not be used in any manner that
 competes with the business of Gaussian, Inc. or will provide
 assistance to any competitor of Gaussian, Inc.  The licensee
 of this program is prohibited from giving any competitor of
 Gaussian, Inc. access to this program.  By using this program,
 the user acknowledges that Gaussian, Inc. is engaged in the
 business of creating and licensing software in the field of
 computational chemistry and represents and warrants to the
 licensee that it is not a competitor of Gaussian, Inc. and that
 it will not use this program in any manner prohibited above.
 ---------------------------------------------------------------
  

 Cite this work as:
 Gaussian 16, Revision C.01,
 M. J. Frisch, G. W. Trucks, H. B. Schlegel, G. E. Scuseria, 
 M. A. Robb, J. R. Cheeseman, G. Scalmani, V. Barone, 
 G. A. Petersson, H. Nakatsuji, X. Li, M. Caricato, A. V. Marenich, 
 J. Bloino, B. G. Janesko, R. Gomperts, B. Mennucci, H. P. Hratchian, 
 J. V. Ortiz, A. F. Izmaylov, J. L. Sonnenberg, D. Williams-Young, 
 F. Ding, F. Lipparini, F. Egidi, J. Goings, B. Peng, A. Petrone, 
 T. Henderson, D. Ranasinghe, V. G. Zakrzewski, J. Gao, N. Rega, 
 G. Zheng, W. Liang, M. Hada, M. Ehara, K. Toyota, R. Fukuda, 
 J. Hasegawa, M. Ishida, T. Nakajima, Y. Honda, O. Kitao, H. Nakai, 
 T. Vreven, K. Throssell, J. A. Montgomery, Jr., J. E. Peralta, 
 F. Ogliaro, M. J. Bearpark, J. J. Heyd, E. N. Brothers, K. N. Kudin, 
 V. N. Staroverov, T. A. Keith, R. Kobayashi, J. Normand, 
 K. Raghavachari, A. P. Rendell, J. C. Burant, S. S. Iyengar, 
 J. Tomasi, M. Cossi, J. M. Millam, M. Klene, C. Adamo, R. Cammi, 
 J. W. Ochterski, R. L. Martin, K. Morokuma, O. Farkas, 
 J. B. Foresman, and D. J. Fox, Gaussian, Inc., Wallingford CT, 2019.
 
 ******************************************
 Gaussian 16:  ES64L-G16RevC.01  3-Jul-2019
                28-Jul-2022 
 ******************************************
 %NProcShared=48
 Will use up to   48 processors via shared memory.
 %mem = 190GB
 ---------------------------------------------------------------
 #n M062X/6-311++G(d,p) TD(NStates=1) EmpiricalDispersion=GD3 SP
 ---------------------------------------------------------------
 1/38=1,172=1/1;
 2/12=2,17=6,18=5,40=1/2;
 3/5=4,6=6,7=1111,11=9,25=1,30=1,74=-55,124=31/1,2,3,8;
 4//1;
 5/5=2,38=5/2;
 8/6=1,10=2,108=1/1;
 9/41=1,42=1,70=2/14;
 6/7=2,8=2,9=2,10=2/1;
 99/5=1,9=1/99;
 -----
 SP_50
 -----
 Symbolic Z-matrix:
 Charge =  1 Multiplicity = 1
 C                    -0.0176    2.49356   1.36043 
 C                    -0.0208    3.69278   0.67199 
 C                    -0.0059    3.66861  -0.71383 
 C                     0.01947   2.45183  -1.40754 
 C                     0.01952  -2.45173  -1.40754 
 C                    -0.0056   -3.66811  -0.71383 
 C                    -0.02033  -3.69261   0.67199 
 C                    -0.01665  -2.49325   1.36043 
 C                    -0.01093  -0.0011    1.45337 
 C                     0.0305    0.00005  -1.42919 
 C                     0.00453   1.27161   0.67707 
 C                     0.0126    1.2359   -0.7308 
 C                     0.0046   -1.27163   0.67707 
 C                     0.0124   -1.23605  -0.7308 
 H                    -0.0058    2.4888    2.44365 
 H                    -0.0211    4.62975   1.21169 
 H                     0.00355   4.61014  -1.27235 
 H                     0.0092    2.45653  -2.49006 
 H                     0.02813   0.00003  -2.51027 
 H                     0.00905  -2.45645  -2.49006 
 H                     0.0037   -4.60951  -1.27235 
 H                    -0.02053  -4.62938   1.21169 
 H                    -0.0047   -2.48847   2.44365 
 H                    -0.89959  -0.00025   2.14606 
 H                     0.81959  -0.00025   2.14551 
 
                          Input orientation:                          
 ---------------------------------------------------------------------
 Center     Atomic      Atomic             Coordinates (Angstroms)
 Number     Number       Type             X           Y           Z
 ---------------------------------------------------------------------
      1          6           0       -0.017600    2.493555    1.360431
      2          6           0       -0.020800    3.692783    0.671989
      3          6           0       -0.005900    3.668611   -0.713830
      4          6           0        0.019475    2.451831   -1.407538
      5          6           0        0.019525   -2.451731   -1.407538
      6          6           0       -0.005600   -3.668111   -0.713830
      7          6           0       -0.020325   -3.692608    0.671989
      8          6           0       -0.016650   -2.493255    1.360431
      9          6           0       -0.010925   -0.001100    1.453369
     10          6           0        0.030500    0.000050   -1.429189
     11          6           0        0.004525    1.271605    0.677065
     12          6           0        0.012600    1.235896   -0.730804
     13          6           0        0.004600   -1.271630    0.677065
     14          6           0        0.012400   -1.236046   -0.730804
     15          1           0       -0.005800    2.488796    2.443647
     16          1           0       -0.021100    4.629753    1.211689
     17          1           0        0.003550    4.610137   -1.272349
     18          1           0        0.009200    2.456525   -2.490059
     19          1           0        0.028125    0.000025   -2.510266
     20          1           0        0.009050   -2.456450   -2.490059
     21          1           0        0.003700   -4.609512   -1.272349
     22          1           0       -0.020525   -4.629378    1.211689
     23          1           0       -0.004700   -2.488471    2.443647
     24          1           0       -0.899585   -0.000250    2.146062
     25          1           0        0.819585   -0.000250    2.145512
 ---------------------------------------------------------------------
                    Distance matrix (angstroms):
                    1          2          3          4          5
     1  C    0.000000
     2  C    1.382791   0.000000
     3  C    2.383999   1.386110   0.000000
     4  C    2.768532   2.421986   1.400867   0.000000
     5  C    5.667352   6.486996   6.159583   4.903562   0.000000
     6  C    6.501448   7.490226   7.336722   6.159184   1.400515
     7  C    6.224353   7.385391   7.490544   6.486921   2.421941
     8  C    4.986810   6.224230   6.501636   5.667172   2.768517
     9  C    2.496395   3.775636   4.261872   3.768632   3.767135
    10  C    3.741906   4.248983   3.737834   2.451901   2.451901
    11  C    1.400229   2.421316   2.771342   2.395564   4.267203
    12  C    2.440468   2.829353   2.432845   1.391587   3.749215
    13  C    3.826761   4.964481   5.132317   4.267312   2.395502
    14  C    4.275990   5.124674   4.904721   3.749461   1.391370
    15  H    1.083291   2.142098   3.370701   3.851445   6.264270
    16  H    2.141373   1.081290   2.152126   3.406661   7.550458
    17  H    3.378150   2.150019   1.094762   2.162594   7.063180
    18  H    3.850761   3.395259   2.150435   1.082580   5.026225
    19  H    4.604571   4.874998   4.084956   2.688389   2.688343
    20  H    6.271326   6.914659   6.377428   5.026249   1.082582
    21  H    7.575325   8.526966   8.296949   7.062655   2.162070
    22  H    7.124486   8.339643   8.518477   7.550197   3.406479
    23  H    5.098442   6.430158   6.919489   6.264088   3.851436
    24  H    2.759380   4.072302   4.736897   4.414232   4.413909
    25  H    2.745231   4.063989   4.724172   4.390563   4.390219
                    6          7          8          9         10
     6  C    0.000000
     7  C    1.386114   0.000000
     8  C    2.383898   1.382900   0.000000
     9  C    4.259548   3.773311   2.493894   0.000000
    10  C    3.737439   4.248912   3.741761   2.882856   0.000000
    11  C    5.131811   4.964278   3.826435   1.490860   2.460454
    12  C    4.904070   5.124360   4.275592   2.510244   1.419640
    13  C    2.770887   2.421112   1.399932   1.489005   2.460518
    14  C    2.432191   2.829063   2.440222   2.509232   1.419860
    15  H    6.919333   6.430298   5.098461   2.679601   4.603698
    16  H    8.518357   8.339842   7.124562   4.637166   5.330202
    17  H    8.297073   8.527403   7.575626   5.356609   4.612833
    18  H    6.377019   6.914568   6.271145   4.646606   2.675849
    19  H    4.084549   4.874898   4.604427   3.963828   1.081080
    20  H    2.150192   3.395217   3.850752   4.645403   2.675873
    21  H    1.094653   2.149823   3.377941   5.354177   4.612307
    22  H    2.152180   1.081117   2.141299   4.634594   5.329957
    23  H    3.370640   2.142186   1.083292   2.677257   4.603568
    24  H    4.736179   4.071793   2.758961   1.126739   3.694249
    25  H    4.723343   4.063278   2.744215   1.081115   3.660757
                   11         12         13         14         15
    11  C    0.000000
    12  C    1.408345   0.000000
    13  C    2.543235   2.875734   0.000000
    14  C    2.875843   2.471942   1.408340   0.000000
    15  H    2.145337   3.412805   4.154723   4.894070   0.000000
    16  H    3.400535   3.910586   5.925606   6.179158   2.470152
    17  H    3.866007   3.417434   6.196402   5.871218   4.278879
    18  H    3.381528   2.141244   4.891813   4.090241   4.933834
    19  H    3.431698   2.166588   3.431725   2.166703   5.544041
    20  H    4.891737   4.090038   3.381493   2.141115   6.985495
    21  H    6.195785   5.870447   3.865446   3.416668   8.012159
    22  H    5.925205   6.178658   3.400136   3.910123   7.224011
    23  H    4.154404   4.893705   2.145134   3.412624   4.977267
    24  H    2.143124   3.261364   2.142874   3.261176   2.661345
    25  H    2.106721   3.233029   2.106406   3.232945   2.639222
                   16         17         18         19         20
    16  H    0.000000
    17  H    2.484238   0.000000
    18  H    4.292642   2.474044   0.000000
    19  H    5.940518   4.773487   2.456656   0.000000
    20  H    7.994881   7.170739   4.912975   2.456632   0.000000
    21  H    9.567397   9.219649   7.170197   4.772931   2.473565
    22  H    9.259131   9.567636   7.994613   5.940260   4.292485
    23  H    7.224064   8.012423   6.985316   5.543911   4.933829
    24  H    4.804344   5.810065   5.324965   4.747845   5.324674
    25  H    4.797469   5.796840   5.308577   4.722571   5.308333
                   21         22         23         24         25
    21  H    0.000000
    22  H    2.484236   0.000000
    23  H    4.278728   2.470112   0.000000
    24  H    5.809196   4.803605   2.660943   0.000000
    25  H    5.795924   4.796523   2.638100   1.719170   0.000000
 Stoichiometry    C14H11(1+)
 Framework group  C1[X(C14H11)]
 Deg. of freedom    69
 Full point group                 C1      NOp   1
 Largest Abelian subgroup         C1      NOp   1
 Largest concise Abelian subgroup C1      NOp   1
                         Standard orientation:                         
 ---------------------------------------------------------------------
 Center     Atomic      Atomic             Coordinates (Angstroms)
 Number     Number       Type             X           Y           Z
 ---------------------------------------------------------------------
      1          6           0        2.493527   -1.360588    0.002023
      2          6           0        3.692770   -0.672247    0.012726
      3          6           0        3.668626    0.713652    0.013076
      4          6           0        2.451859    1.407622   -0.004592
      5          6           0       -2.451703    1.407723   -0.004348
      6          6           0       -3.668096    0.713805    0.013215
      7          6           0       -3.692621   -0.672092    0.012692
      8          6           0       -2.493283   -1.360476    0.001371
      9          6           0       -0.001130   -1.453396   -0.005525
     10          6           0        0.000078    1.429443   -0.015231
     11          6           0        1.271590   -0.676995   -0.012509
     12          6           0        1.235910    0.730878   -0.005091
     13          6           0       -1.271645   -0.676942   -0.012432
     14          6           0       -1.236032    0.730926   -0.004743
     15          1           0        2.488745   -2.443609   -0.021695
     16          1           0        4.629728   -1.211937    0.007031
     17          1           0        4.610163    1.272222    0.009716
     18          1           0        2.456577    2.489964    0.017593
     19          1           0        0.000076    2.510429   -0.000961
     20          1           0       -2.456398    2.490063    0.018037
     21          1           0       -4.609486    1.272412    0.010117
     22          1           0       -4.629403   -1.211742    0.007010
     23          1           0       -2.488522   -2.443495   -0.022497
     24          1           0       -0.000242   -2.155825    0.875459
     25          1           0       -0.000344   -2.136359   -0.843601
 ---------------------------------------------------------------------
 Rotational constants (GHZ):           2.1357837           0.4466972           0.3702471
 Standard basis: 6-311++G(d,p) (5D, 7F)
 There are   399 symmetry adapted cartesian basis functions of A   symmetry.
 There are   385 symmetry adapted basis functions of A   symmetry.
   385 basis functions,   603 primitive gaussians,   399 cartesian basis functions
    47 alpha electrons       47 beta electrons
       nuclear repulsion energy       782.3278138551 Hartrees.
 NAtoms=   25 NActive=   25 NUniq=   25 SFac= 1.00D+00 NAtFMM=   60 NAOKFM=F Big=F
 Integral buffers will be    131072 words long.
 Regular integral format.
 Two-electron integral symmetry is turned on.
 Nuclear repulsion after empirical dispersion term =      782.3268347134 Hartrees.
 One-electron integrals computed using PRISM.
 NBasis=   385 RedAO= T EigKep=  1.21D-06  NBF=   385
 NBsUse=   379 1.00D-06 EigRej=  8.27D-07 NBFU=   379
 ExpMin= 3.60D-02 ExpMax= 4.56D+03 ExpMxC= 6.82D+02 IAcc=3 IRadAn=         5 AccDes= 0.00D+00
 Harris functional with IExCor= 1009 and IRadAn=       5 diagonalized for initial guess.
 HarFok:  IExCor= 1009 AccDes= 0.00D+00 IRadAn=         5 IDoV= 1 UseB2=F ITyADJ=14
 ICtDFT=  3500011 ScaDFX=  1.000000  1.000000  1.000000  1.000000
 FoFCou: FMM=F IPFlag=           0 FMFlag=      100000 FMFlg1=           0
         NFxFlg=           0 DoJE=T BraDBF=F KetDBF=T FulRan=T
         wScrn=  0.000000 ICntrl=       500 IOpCl=  0 I1Cent=   200000004 NGrid=           0
         NMat0=    1 NMatS0=      1 NMatT0=    0 NMatD0=    1 NMtDS0=    0 NMtDT0=    0
 Petite list used in FoFCou.
 Requested convergence on RMS density matrix=1.00D-08 within 128 cycles.
 Requested convergence on MAX density matrix=1.00D-06.
 Requested convergence on             energy=1.00D-06.
 No special actions if energy rises.
 SCF Done:  E(RM062X) =  -539.759018571     A.U. after   15 cycles
            NFock= 15  Conv=0.49D-08     -V/T= 2.0041
 DoSCS=F DFT=T ScalE2(SS,OS)=  1.000000  1.000000
 ExpMin= 3.60D-02 ExpMax= 4.56D+03 ExpMxC= 6.82D+02 IAcc=3 IRadAn=         5 AccDes= 0.00D+00
 HarFok:  IExCor=  205 AccDes= 0.00D+00 IRadAn=         5 IDoV=-2 UseB2=F ITyADJ=14
 ICtDFT= 12500011 ScaDFX=  1.000000  1.000000  1.000000  1.000000
 Range of M.O.s used for correlation:    15   379
 NBasis=   385 NAE=    47 NBE=    47 NFC=    14 NFV=     0
 NROrb=    365 NOA=    33 NOB=    33 NVA=   332 NVB=   332

 **** Warning!!: The largest alpha MO coefficient is  0.14550276D+03

 Orbital symmetries:
       Occupied  (A) (A) (A) (A) (A) (A) (A) (A) (A) (A) (A) (A)
                 (A) (A) (A) (A) (A) (A) (A) (A) (A) (A) (A) (A)
                 (A) (A) (A) (A) (A) (A) (A) (A) (A) (A) (A) (A)
                 (A) (A) (A) (A) (A) (A) (A) (A) (A) (A) (A)
       Virtual   (A) (A) (A) (A) (A) (A) (A) (A) (A) (A) (A) (A)
                 (A) (A) (A) (A) (A) (A) (A) (A) (A) (A) (A) (A)
                 (A) (A) (A) (A) (A) (A) (A) (A) (A) (A) (A) (A)
                 (A) (A) (A) (A) (A) (A) (A) (A) (A) (A) (A) (A)
                 (A) (A) (A) (A) (A) (A) (A) (A) (A) (A) (A) (A)
                 (A) (A) (A) (A) (A) (A) (A) (A) (A) (A) (A) (A)
                 (A) (A) (A) (A) (A) (A) (A) (A) (A) (A) (A) (A)
                 (A) (A) (A) (A) (A) (A) (A) (A) (A) (A) (A) (A)
                 (A) (A) (A) (A) (A) (A) (A) (A) (A) (A) (A) (A)
                 (A) (A) (A) (A) (A) (A) (A) (A) (A) (A) (A) (A)
                 (A) (A) (A) (A) (A) (A) (A) (A) (A) (A) (A) (A)
                 (A) (A) (A) (A) (A) (A) (A) (A) (A) (A) (A) (A)
                 (A) (A) (A) (A) (A) (A) (A) (A) (A) (A) (A) (A)
                 (A) (A) (A) (A) (A) (A) (A) (A) (A) (A) (A) (A)
                 (A) (A) (A) (A) (A) (A) (A) (A) (A) (A) (A) (A)
                 (A) (A) (A) (A) (A) (A) (A) (A) (A) (A) (A) (A)
                 (A) (A) (A) (A) (A) (A) (A) (A) (A) (A) (A) (A)
                 (A) (A) (A) (A) (A) (A) (A) (A) (A) (A) (A) (A)
                 (A) (A) (A) (A) (A) (A) (A) (A) (A) (A) (A) (A)
                 (A) (A) (A) (A) (A) (A) (A) (A) (A) (A) (A) (A)
                 (A) (A) (A) (A) (A) (A) (A) (A) (A) (A) (A) (A)
                 (A) (A) (A) (A) (A) (A) (A) (A) (A) (A) (A) (A)
                 (A) (A) (A) (A) (A) (A) (A) (A) (A) (A) (A) (A)
                 (A) (A) (A) (A) (A) (A) (A) (A) (A) (A) (A) (A)
                 (A) (A) (A) (A) (A) (A) (A) (A) (A) (A) (A) (A)
                 (A) (A) (A) (A) (A) (A) (A) (A) (A) (A) (A) (A)
                 (A) (A) (A) (A) (A) (A) (A) (A) (A) (A) (A) (A)
                 (A) (A) (A) (A) (A) (A) (A) (A)
     4 initial guesses have been made.
 Convergence on wavefunction:    0.001000000000000
 Iteration     1 Dimension     4 NMult     0 NNew      4
 CISAX will form     4 AO SS matrices at one time.
 Iteration     2 Dimension     6 NMult     4 NNew      2
 Iteration     3 Dimension     8 NMult     6 NNew      2
 Iteration     4 Dimension    10 NMult     8 NNew      2
 Iteration     5 Dimension    12 NMult    10 NNew      2
 Iteration     6 Dimension    14 NMult    12 NNew      2
 ***********************************************************************
 Excited states from <AA,BB:AA,BB> singles matrix:
 ***********************************************************************
 
 Ground to excited state transition densities written to RWF  633
 Ground to excited state transition electric dipole moments (Au):
       state          X           Y           Z        Dip. S.      Osc.
         1        -0.0014     -0.6523      0.0052      0.4255      0.0296
 Ground to excited state transition velocity dipole moments (Au):
       state          X           Y           Z        Dip. S.      Osc.
         1         0.0001      0.0756     -0.0006      0.0057      0.0365
 Ground to excited state transition magnetic dipole moments (Au):
       state          X           Y           Z
         1        -0.0069      0.0001      0.0001
 Ground to excited state transition velocity quadrupole moments (Au):
       state          XX          YY          ZZ          XY          XZ          YZ
         1         0.2822      0.0379     -0.0100      0.0002     -0.0000      0.0009
 <0|del|b> * <b|rxdel|0> + <0|del|b> * <b|delr+rdel|0>
 Rotatory Strengths (R) in cgs (10**-40 erg-esu-cm/Gauss)
       state          XX          YY          ZZ    R(velocity)    E-M Angle
         1         0.0379     -0.0027      0.0207      0.0187       90.00
 1/2[<0|r|b>*<b|rxdel|0> + (<0|rxdel|b>*<b|r|0>)*]
 Rotatory Strengths (R) in cgs (10**-40 erg-esu-cm/Gauss)
       state          XX          YY          ZZ     R(length)
         1        -0.0067      0.0568     -0.0004      0.0166
  1/2[<0|del|b>*<b|r|0> + (<0|r|b>*<b|del|0>)*] (Au)
       state          X           Y           Z        Dip. S.   Osc.(frdel)
         1        -0.0000     -0.0493     -0.0000      0.0493      0.0329

 Excitation energies and oscillator strengths:
 
 Excited State   1:      Singlet-A      2.8396 eV  436.62 nm  f=0.0296  <S**2>=0.000
      47 -> 48         0.70424
 This state for optimization and/or second-order correction.
 Total Energy, E(TD-HF/TD-DFT) =  -539.654664033    
 Copying the excited state density for this state as the 1-particle RhoCI density.
 SavETr:  write IOETrn=   770 NScale= 10 NData=  16 NLR=1 NState=    1 LETran=      28.

 **********************************************************************

            Population analysis using the SCF Density.

 **********************************************************************

 Orbital symmetries:
       Occupied  (A) (A) (A) (A) (A) (A) (A) (A) (A) (A) (A) (A)
                 (A) (A) (A) (A) (A) (A) (A) (A) (A) (A) (A) (A)
                 (A) (A) (A) (A) (A) (A) (A) (A) (A) (A) (A) (A)
                 (A) (A) (A) (A) (A) (A) (A) (A) (A) (A) (A)
       Virtual   (A) (A) (A) (A) (A) (A) (A) (A) (A) (A) (A) (A)
                 (A) (A) (A) (A) (A) (A) (A) (A) (A) (A) (A) (A)
                 (A) (A) (A) (A) (A) (A) (A) (A) (A) (A) (A) (A)
                 (A) (A) (A) (A) (A) (A) (A) (A) (A) (A) (A) (A)
                 (A) (A) (A) (A) (A) (A) (A) (A) (A) (A) (A) (A)
                 (A) (A) (A) (A) (A) (A) (A) (A) (A) (A) (A) (A)
                 (A) (A) (A) (A) (A) (A) (A) (A) (A) (A) (A) (A)
                 (A) (A) (A) (A) (A) (A) (A) (A) (A) (A) (A) (A)
                 (A) (A) (A) (A) (A) (A) (A) (A) (A) (A) (A) (A)
                 (A) (A) (A) (A) (A) (A) (A) (A) (A) (A) (A) (A)
                 (A) (A) (A) (A) (A) (A) (A) (A) (A) (A) (A) (A)
                 (A) (A) (A) (A) (A) (A) (A) (A) (A) (A) (A) (A)
                 (A) (A) (A) (A) (A) (A) (A) (A) (A) (A) (A) (A)
                 (A) (A) (A) (A) (A) (A) (A) (A) (A) (A) (A) (A)
                 (A) (A) (A) (A) (A) (A) (A) (A) (A) (A) (A) (A)
                 (A) (A) (A) (A) (A) (A) (A) (A) (A) (A) (A) (A)
                 (A) (A) (A) (A) (A) (A) (A) (A) (A) (A) (A) (A)
                 (A) (A) (A) (A) (A) (A) (A) (A) (A) (A) (A) (A)
                 (A) (A) (A) (A) (A) (A) (A) (A) (A) (A) (A) (A)
                 (A) (A) (A) (A) (A) (A) (A) (A) (A) (A) (A) (A)
                 (A) (A) (A) (A) (A) (A) (A) (A) (A) (A) (A) (A)
                 (A) (A) (A) (A) (A) (A) (A) (A) (A) (A) (A) (A)
                 (A) (A) (A) (A) (A) (A) (A) (A) (A) (A) (A) (A)
                 (A) (A) (A) (A) (A) (A) (A) (A) (A) (A) (A) (A)
                 (A) (A) (A) (A) (A) (A) (A) (A) (A) (A) (A) (A)
                 (A) (A) (A) (A) (A) (A) (A) (A) (A) (A) (A) (A)
                 (A) (A) (A) (A) (A) (A) (A) (A) (A) (A) (A) (A)
                 (A) (A) (A) (A) (A) (A) (A) (A)
 The electronic state is 1-A.
 Alpha  occ. eigenvalues --  -10.77678 -10.73212 -10.73198 -10.72336 -10.72334
 Alpha  occ. eigenvalues --  -10.71243 -10.71236 -10.70973 -10.70930 -10.70927
 Alpha  occ. eigenvalues --  -10.69839 -10.69834 -10.69680 -10.69673  -1.16530
 Alpha  occ. eigenvalues --   -1.12728  -1.07089  -1.05643  -1.01582  -1.00135
 Alpha  occ. eigenvalues --   -0.95881  -0.91029  -0.86435  -0.85950  -0.83826
 Alpha  occ. eigenvalues --   -0.78427  -0.76039  -0.74470  -0.69561  -0.69224
 Alpha  occ. eigenvalues --   -0.68505  -0.68095  -0.67933  -0.64937  -0.64453
 Alpha  occ. eigenvalues --   -0.62887  -0.61693  -0.60076  -0.59869  -0.59018
 Alpha  occ. eigenvalues --   -0.56872  -0.55147  -0.54737  -0.52541  -0.46823
 Alpha  occ. eigenvalues --   -0.46030  -0.44608
 Alpha virt. eigenvalues --   -0.26117  -0.14549  -0.14067  -0.12626  -0.11182
 Alpha virt. eigenvalues --   -0.10095  -0.09249  -0.08040  -0.07945  -0.07484
 Alpha virt. eigenvalues --   -0.07215  -0.07118  -0.05639  -0.05581  -0.05310
 Alpha virt. eigenvalues --   -0.03863  -0.03710  -0.03278  -0.03129  -0.02165
 Alpha virt. eigenvalues --   -0.01384  -0.00965   0.00196   0.00534   0.00677
 Alpha virt. eigenvalues --    0.01067   0.01512   0.01959   0.02226   0.02281
 Alpha virt. eigenvalues --    0.02459   0.02673   0.02875   0.03186   0.03331
 Alpha virt. eigenvalues --    0.04230   0.04510   0.04706   0.05104   0.05383
 Alpha virt. eigenvalues --    0.05966   0.06310   0.06616   0.07037   0.07268
 Alpha virt. eigenvalues --    0.07912   0.08271   0.08342   0.08596   0.08923
 Alpha virt. eigenvalues --    0.09532   0.09560   0.10035   0.10874   0.11049
 Alpha virt. eigenvalues --    0.11144   0.12189   0.12209   0.12919   0.12963
 Alpha virt. eigenvalues --    0.13425   0.13469   0.14014   0.14504   0.15978
 Alpha virt. eigenvalues --    0.16235   0.16585   0.17312   0.17501   0.17729
 Alpha virt. eigenvalues --    0.18129   0.19166   0.19312   0.19689   0.19758
 Alpha virt. eigenvalues --    0.21602   0.21662   0.22670   0.23061   0.23561
 Alpha virt. eigenvalues --    0.23791   0.24594   0.25020   0.26869   0.27715
 Alpha virt. eigenvalues --    0.28839   0.29271   0.29829   0.31404   0.35804
 Alpha virt. eigenvalues --    0.36605   0.38143   0.39382   0.41112   0.41335
 Alpha virt. eigenvalues --    0.41976   0.42081   0.42954   0.43842   0.44219
 Alpha virt. eigenvalues --    0.44890   0.45223   0.45839   0.46192   0.47893
 Alpha virt. eigenvalues --    0.48475   0.48861   0.48998   0.50380   0.51294
 Alpha virt. eigenvalues --    0.51646   0.51742   0.52167   0.53200   0.53912
 Alpha virt. eigenvalues --    0.54017   0.54784   0.55743   0.55791   0.57336
 Alpha virt. eigenvalues --    0.58265   0.58814   0.61468   0.62220   0.62278
 Alpha virt. eigenvalues --    0.63160   0.63572   0.64572   0.65198   0.66820
 Alpha virt. eigenvalues --    0.70444   0.70554   0.71027   0.72439   0.72807
 Alpha virt. eigenvalues --    0.75735   0.75784   0.76305   0.76606   0.76936
 Alpha virt. eigenvalues --    0.77673   0.77811   0.78265   0.80329   0.80472
 Alpha virt. eigenvalues --    0.81343   0.81606   0.82178   0.83061   0.84964
 Alpha virt. eigenvalues --    0.87034   0.87711   0.88009   0.89712   0.90447
 Alpha virt. eigenvalues --    0.90957   0.91515   0.93520   0.94821   0.96285
 Alpha virt. eigenvalues --    0.96736   1.00234   1.01332   1.01851   1.02947
 Alpha virt. eigenvalues --    1.03229   1.04121   1.04616   1.05587   1.09058
 Alpha virt. eigenvalues --    1.19281   1.23225   1.24079   1.25420   1.28136
 Alpha virt. eigenvalues --    1.30084   1.31351   1.34509   1.35883   1.36239
 Alpha virt. eigenvalues --    1.39469   1.40092   1.40990   1.43404   1.43587
 Alpha virt. eigenvalues --    1.43725   1.45248   1.45486   1.46447   1.46640
 Alpha virt. eigenvalues --    1.47829   1.48459   1.51767   1.53744   1.55810
 Alpha virt. eigenvalues --    1.56178   1.56432   1.56809   1.57972   1.61686
 Alpha virt. eigenvalues --    1.63015   1.63214   1.63387   1.66232   1.68139
 Alpha virt. eigenvalues --    1.68585   1.68738   1.69722   1.74728   1.76005
 Alpha virt. eigenvalues --    1.77225   1.78088   1.79913   1.80582   1.81226
 Alpha virt. eigenvalues --    1.83063   1.83360   1.83389   1.84038   1.84169
 Alpha virt. eigenvalues --    1.84483   1.86106   1.86247   1.88375   1.91267
 Alpha virt. eigenvalues --    1.92183   1.94077   1.95171   1.98019   1.98642
 Alpha virt. eigenvalues --    2.00219   2.02297   2.04717   2.06812   2.12004
 Alpha virt. eigenvalues --    2.12116   2.13965   2.15315   2.19832   2.21163
 Alpha virt. eigenvalues --    2.23210   2.28930   2.30467   2.34359   2.35365
 Alpha virt. eigenvalues --    2.36272   2.38024   2.38630   2.42018   2.42662
 Alpha virt. eigenvalues --    2.46881   2.48640   2.49638   2.53127   2.53772
 Alpha virt. eigenvalues --    2.54101   2.56583   2.58009   2.58521   2.59794
 Alpha virt. eigenvalues --    2.60028   2.61483   2.62230   2.63506   2.64050
 Alpha virt. eigenvalues --    2.64747   2.64990   2.65386   2.65394   2.67943
 Alpha virt. eigenvalues --    2.68230   2.71156   2.71353   2.73501   2.74852
 Alpha virt. eigenvalues --    2.76466   2.79161   2.79965   2.83224   2.83480
 Alpha virt. eigenvalues --    2.85464   2.86464   2.92211   2.96640   2.99860
 Alpha virt. eigenvalues --    3.00467   3.04429   3.11842   3.12139   3.13965
 Alpha virt. eigenvalues --    3.20782   3.23364   3.27403   3.28571   3.31236
 Alpha virt. eigenvalues --    3.33581   3.33733   3.43521   3.46118   3.47871
 Alpha virt. eigenvalues --    3.49341   3.50934   3.56661   3.64938   3.67523
 Alpha virt. eigenvalues --    3.67614   3.92778   3.93693   3.94693   3.96163
 Alpha virt. eigenvalues --    4.03284   4.06941   4.07695   4.12517   4.35242
 Alpha virt. eigenvalues --    4.60911   4.70446   4.72334  23.45094  23.59608
 Alpha virt. eigenvalues --   23.82683  23.85081  23.88112  23.89923  23.90671
 Alpha virt. eigenvalues --   23.92477  23.98531  24.00816  24.01804  24.01920
 Alpha virt. eigenvalues --   24.11767  24.11849
          Condensed to atoms (all electrons):
               1          2          3          4          5          6
     1  C    8.468120   0.511337  -0.593770   1.685208   0.005110  -0.094689
     2  C    0.511337   7.023417   0.379335  -0.884338  -0.050710  -0.017255
     3  C   -0.593770   0.379335   6.635343   0.709297  -0.114560   0.018050
     4  C    1.685208  -0.884338   0.709297  10.377961  -0.206481  -0.115158
     5  C    0.005110  -0.050710  -0.114560  -0.206481  10.362213   0.711302
     6  C   -0.094689  -0.017255   0.018050  -0.115158   0.711302   6.636706
     7  C   -0.026857   0.008466  -0.017236  -0.050474  -0.883943   0.379730
     8  C    0.412395  -0.027258  -0.094712   0.006812   1.679600  -0.591956
     9  C   -1.425277  -0.631251   0.270709  -0.420147  -0.427117   0.270550
    10  C   -1.146556   0.167220  -0.366915  -2.401236  -2.398254  -0.369938
    11  C    0.258327  -0.990723   1.017617  -0.226973  -1.554687  -0.198159
    12  C   -1.680082   1.033765  -1.321204  -1.054483  -0.249502  -0.191872
    13  C    0.184524  -0.162955  -0.197950  -1.558409  -0.230417   1.020103
    14  C   -1.054877  -0.227037  -0.192121  -0.254653  -1.036157  -1.325870
    15  H    0.361250  -0.099581  -0.002820   0.022987   0.005931   0.001221
    16  H   -0.020417   0.379122  -0.014411   0.013890  -0.001670  -0.000358
    17  H   -0.019436  -0.020360   0.371653  -0.061171   0.000356   0.000405
    18  H    0.046999   0.004585  -0.087537   0.446049   0.009314  -0.004901
    19  H   -0.045594  -0.007848   0.050342  -0.062600  -0.062014   0.050418
    20  H    0.007871   0.001728  -0.004887   0.009337   0.445752  -0.087386
    21  H   -0.001330  -0.000393   0.000405   0.000358  -0.061038   0.371661
    22  H    0.000780   0.000378  -0.000357  -0.001672   0.013817  -0.014302
    23  H    0.005914  -0.002676   0.001217   0.005960   0.022919  -0.002773
    24  H    0.046164   0.013181  -0.001003  -0.011818  -0.011592  -0.001080
    25  H    0.022536   0.015540  -0.002438  -0.011332  -0.011451  -0.002342
               7          8          9         10         11         12
     1  C   -0.026857   0.412395  -1.425277  -1.146556   0.258327  -1.680082
     2  C    0.008466  -0.027258  -0.631251   0.167220  -0.990723   1.033765
     3  C   -0.017236  -0.094712   0.270709  -0.366915   1.017617  -1.321204
     4  C   -0.050474   0.006812  -0.420147  -2.401236  -0.226973  -1.054483
     5  C   -0.883943   1.679600  -0.427117  -2.398254  -1.554687  -0.249502
     6  C    0.379730  -0.591956   0.270550  -0.369938  -0.198159  -0.191872
     7  C    7.025490   0.512687  -0.630483   0.167549  -0.164323  -0.227795
     8  C    0.512687   8.468512  -1.431103  -1.145985   0.182747  -1.057886
     9  C   -0.630483  -1.431103   9.171998   0.445049   1.551720  -1.430893
    10  C    0.167549  -1.145985   0.445049   9.167934  -0.517984   2.177833
    11  C   -0.164323   0.182747   1.551720  -0.517984  14.158481  -3.725909
    12  C   -0.227795  -1.057886  -1.430893   2.177833  -3.725909  15.156148
    13  C   -0.991675   0.261305   1.555174  -0.521695   1.290680  -4.543431
    14  C    1.031250  -1.671603  -1.426872   2.170990  -4.546556   2.707654
    15  H   -0.002682   0.005910   0.083718  -0.008712  -0.020724  -0.019215
    16  H    0.000379   0.000795   0.004418  -0.010803   0.031912  -0.038775
    17  H   -0.000392  -0.001331  -0.004005   0.018747  -0.024043   0.081238
    18  H    0.001724   0.007893  -0.028189   0.020699  -0.010372  -0.048247
    19  H   -0.007851  -0.045591   0.074898   0.422292   0.065802  -0.061379
    20  H    0.004528   0.046887  -0.028229   0.020811  -0.009723  -0.011291
    21  H   -0.020286  -0.019411  -0.004013   0.018734  -0.006141   0.004595
    22  H    0.379227  -0.020671   0.004343  -0.010787   0.003215  -0.009466
    23  H   -0.099543   0.361062   0.083519  -0.008689  -0.000799   0.007007
    24  H    0.012985   0.045656   0.344273   0.004758   0.020359  -0.074880
    25  H    0.015761   0.023233   0.363933   0.004536   0.003884  -0.042323
              13         14         15         16         17         18
     1  C    0.184524  -1.054877   0.361250  -0.020417  -0.019436   0.046999
     2  C   -0.162955  -0.227037  -0.099581   0.379122  -0.020360   0.004585
     3  C   -0.197950  -0.192121  -0.002820  -0.014411   0.371653  -0.087537
     4  C   -1.558409  -0.254653   0.022987   0.013890  -0.061171   0.446049
     5  C   -0.230417  -1.036157   0.005931  -0.001670   0.000356   0.009314
     6  C    1.020103  -1.325870   0.001221  -0.000358   0.000405  -0.004901
     7  C   -0.991675   1.031250  -0.002682   0.000379  -0.000392   0.001724
     8  C    0.261305  -1.671603   0.005910   0.000795  -0.001331   0.007893
     9  C    1.555174  -1.426872   0.083718   0.004418  -0.004005  -0.028189
    10  C   -0.521695   2.170990  -0.008712  -0.010803   0.018747   0.020699
    11  C    1.290680  -4.546556  -0.020724   0.031912  -0.024043  -0.010372
    12  C   -4.543431   2.707654  -0.019215  -0.038775   0.081238  -0.048247
    13  C   14.157280  -3.726742  -0.000790   0.003207  -0.006102  -0.009817
    14  C   -3.726742  15.144083   0.007016  -0.009470   0.004594  -0.011319
    15  H   -0.000790   0.007016   0.438614  -0.008999   0.001388   0.000214
    16  H    0.003207  -0.009470  -0.008999   0.419376  -0.006591   0.001925
    17  H   -0.006102   0.004594   0.001388  -0.006591   0.421166  -0.010010
    18  H   -0.009817  -0.011319   0.000214   0.001925  -0.010010   0.454616
    19  H    0.066391  -0.061244   0.000343  -0.000524   0.001329  -0.005686
    20  H   -0.010417  -0.048090  -0.000118   0.000015  -0.000143   0.001288
    21  H   -0.024198   0.081244   0.000015  -0.000007   0.000010  -0.000143
    22  H    0.031849  -0.038482  -0.000126   0.000007  -0.000007   0.000015
    23  H   -0.020701  -0.018942   0.000623  -0.000125   0.000015  -0.000118
    24  H    0.020813  -0.075131  -0.000412   0.000494  -0.000092   0.000201
    25  H    0.003539  -0.042173  -0.001383   0.000789  -0.000190   0.000180
              19         20         21         22         23         24
     1  C   -0.045594   0.007871  -0.001330   0.000780   0.005914   0.046164
     2  C   -0.007848   0.001728  -0.000393   0.000378  -0.002676   0.013181
     3  C    0.050342  -0.004887   0.000405  -0.000357   0.001217  -0.001003
     4  C   -0.062600   0.009337   0.000358  -0.001672   0.005960  -0.011818
     5  C   -0.062014   0.445752  -0.061038   0.013817   0.022919  -0.011592
     6  C    0.050418  -0.087386   0.371661  -0.014302  -0.002773  -0.001080
     7  C   -0.007851   0.004528  -0.020286   0.379227  -0.099543   0.012985
     8  C   -0.045591   0.046887  -0.019411  -0.020671   0.361062   0.045656
     9  C    0.074898  -0.028229  -0.004013   0.004343   0.083519   0.344273
    10  C    0.422292   0.020811   0.018734  -0.010787  -0.008689   0.004758
    11  C    0.065802  -0.009723  -0.006141   0.003215  -0.000799   0.020359
    12  C   -0.061379  -0.011291   0.004595  -0.009466   0.007007  -0.074880
    13  C    0.066391  -0.010417  -0.024198   0.031849  -0.020701   0.020813
    14  C   -0.061244  -0.048090   0.081244  -0.038482  -0.018942  -0.075131
    15  H    0.000343  -0.000118   0.000015  -0.000126   0.000623  -0.000412
    16  H   -0.000524   0.000015  -0.000007   0.000007  -0.000125   0.000494
    17  H    0.001329  -0.000143   0.000010  -0.000007   0.000015  -0.000092
    18  H   -0.005686   0.001288  -0.000143   0.000015  -0.000118   0.000201
    19  H    0.441194  -0.005658   0.001327  -0.000523   0.000340   0.000553
    20  H   -0.005658   0.454613  -0.010016   0.001918   0.000214   0.000207
    21  H    0.001327  -0.010016   0.421199  -0.006596   0.001392  -0.000095
    22  H   -0.000523   0.001918  -0.006596   0.419392  -0.008991   0.000502
    23  H    0.000340   0.000214   0.001392  -0.008991   0.438568  -0.000422
    24  H    0.000553   0.000207  -0.000095   0.000502  -0.000422   0.495095
    25  H    0.000504   0.000176  -0.000188   0.000782  -0.001363  -0.079684
              25
     1  C    0.022536
     2  C    0.015540
     3  C   -0.002438
     4  C   -0.011332
     5  C   -0.011451
     6  C   -0.002342
     7  C    0.015761
     8  C    0.023233
     9  C    0.363933
    10  C    0.004536
    11  C    0.003884
    12  C   -0.042323
    13  C    0.003539
    14  C   -0.042173
    15  H   -0.001383
    16  H    0.000789
    17  H   -0.000190
    18  H    0.000180
    19  H    0.000504
    20  H    0.000176
    21  H   -0.000188
    22  H    0.000782
    23  H   -0.001363
    24  H   -0.079684
    25  H    0.494714
 Mulliken charges:
               1
     1  C    0.092351
     2  C   -0.415689
     3  C   -0.442045
     4  C    0.043086
     5  C    0.043279
     6  C   -0.442106
     7  C   -0.416234
     8  C    0.092015
     9  C   -0.336723
    10  C    0.100402
    11  C   -0.587628
    12  C    0.620397
    13  C   -0.589567
    14  C    0.620508
    15  H    0.236332
    16  H    0.255820
    17  H    0.252974
    18  H    0.220637
    19  H    0.190779
    20  H    0.220615
    21  H    0.252917
    22  H    0.255758
    23  H    0.236393
    24  H    0.250970
    25  H    0.244761
 Sum of Mulliken charges =   1.00000
 Mulliken charges with hydrogens summed into heavy atoms:
               1
     1  C    0.328682
     2  C   -0.159869
     3  C   -0.189071
     4  C    0.263723
     5  C    0.263894
     6  C   -0.189189
     7  C   -0.160477
     8  C    0.328408
     9  C    0.159008
    10  C    0.291180
    11  C   -0.587628
    12  C    0.620397
    13  C   -0.589567
    14  C    0.620508
 Electronic spatial extent (au):  <R**2>=           2846.2754
 Charge=              1.0000 electrons
 Dipole moment (field-independent basis, Debye):
    X=              0.0013    Y=              0.1817    Z=             -0.0007  Tot=              0.1817
 Quadrupole moment (field-independent basis, Debye-Ang):
   XX=            -31.3331   YY=            -56.2627   ZZ=            -84.0614
   XY=              0.0007   XZ=             -0.0012   YZ=              0.1198
 Traceless Quadrupole moment (field-independent basis, Debye-Ang):
   XX=             25.8860   YY=              0.9563   ZZ=            -26.8423
   XY=              0.0007   XZ=             -0.0012   YZ=              0.1198
 Octapole moment (field-independent basis, Debye-Ang**2):
  XXX=              0.0542  YYY=              5.1964  ZZZ=             -0.0366  XYY=             -0.0003
  XXY=             -5.9949  XXZ=              0.1963  XZZ=             -0.0069  YZZ=             -3.0964
  YYZ=              0.1370  XYZ=             -0.0061
 Hexadecapole moment (field-independent basis, Debye-Ang**3):
 XXXX=          -2118.4900 YYYY=           -609.3302 ZZZZ=            -99.1442 XXXY=              0.0311
 XXXZ=             -0.0338 YYYX=             -0.0133 YYYZ=              1.3215 ZZZX=             -0.0014
 ZZZY=              0.0487 XXYY=           -506.0712 XXZZ=           -588.0356 YYZZ=           -145.6023
 XXYZ=              1.2754 YYXZ=             -0.0002 ZZXY=              0.0006
 N-N= 7.823268347134D+02 E-N=-2.801057933062D+03  KE= 5.375792487897D+02
 Unable to Open any file for archive entry.
 1\1\GINC-GADI-CPU-CLX-0113\SP\RM062X TD-FC\6-311++G(d,p)\C14H11(1+)\TS
 1578\28-Jul-2022\0\\#n M062X/6-311++G(d,p) TD(NStates=1) EmpiricalDisp
 ersion=GD3 SP\\SP_50\\1,1\C,0,-0.0176,2.493555,1.360431\C,0,-0.0208,3.
 692783,0.671989\C,0,-0.0059,3.668611,-0.71383\C,0,0.019475,2.451831,-1
 .407538\C,0,0.019525,-2.451731,-1.407538\C,0,-0.0056,-3.668111,-0.7138
 3\C,0,-0.020325,-3.692608,0.671989\C,0,-0.01665,-2.493255,1.360431\C,0
 ,-0.010925,-0.0011,1.453369\C,0,0.0305,0.00005,-1.429189\C,0,0.004525,
 1.271605,0.677065\C,0,0.0126,1.235896,-0.730804\C,0,0.0046,-1.27163,0.
 677065\C,0,0.0124,-1.236046,-0.730804\H,0,-0.0058,2.488796,2.443647\H,
 0,-0.0211,4.629753,1.211689\H,0,0.00355,4.610137,-1.272349\H,0,0.0092,
 2.456525,-2.490059\H,0,0.028125,0.000025,-2.510266\H,0,0.00905,-2.4564
 5,-2.490059\H,0,0.0037,-4.609512,-1.272349\H,0,-0.020525,-4.629378,1.2
 11689\H,0,-0.0047,-2.488471,2.443647\H,0,-0.899585,-0.00025,2.146062\H
 ,0,0.819585,-0.00025,2.145512\\Version=ES64L-G16RevC.01\State=1-A\HF=-
 539.7590186\RMSD=4.869e-09\PG=C01 [X(C14H11)]\\@
 The archive entry for this job was punched.


 A FOOL CAN ASK MORE QUESTIONS THAN
 A WISE MAN CAN ANSWER.
 Job cpu time:       0 days  1 hours 19 minutes 19.2 seconds.
 Elapsed time:       0 days  0 hours  1 minutes 39.3 seconds.
 File lengths (MBytes):  RWF=    460 Int=      0 D2E=      0 Chk=     15 Scr=      1
 Normal termination of Gaussian 16 at Thu Jul 28 15:45:25 2022.
