 Entering Gaussian System, Link 0=g16
 Initial command:
 /apps/gaussian/g16c01/g16/l1.exe "/jobfs/53002009.gadi-pbs/Gau-768145.inp" -scrdir="/jobfs/53002009.gadi-pbs/"
 Entering Link 1 = /apps/gaussian/g16c01/g16/l1.exe PID=    768146.
  
 Copyright (c) 1988-2019, Gaussian, Inc.  All Rights Reserved.
  
 This is part of the Gaussian(R) 16 program.  It is based on
 the Gaussian(R) 09 system (copyright 2009, Gaussian, Inc.),
 the Gaussian(R) 03 system (copyright 2003, Gaussian, Inc.),
 the Gaussian(R) 98 system (copyright 1998, Gaussian, Inc.),
 the Gaussian(R) 94 system (copyright 1995, Gaussian, Inc.),
 the Gaussian 92(TM) system (copyright 1992, Gaussian, Inc.),
 the Gaussian 90(TM) system (copyright 1990, Gaussian, Inc.),
 the Gaussian 88(TM) system (copyright 1988, Gaussian, Inc.),
 the Gaussian 86(TM) system (copyright 1986, Carnegie Mellon
 University), and the Gaussian 82(TM) system (copyright 1983,
 Carnegie Mellon University). Gaussian is a federally registered
 trademark of Gaussian, Inc.
  
 This software contains proprietary and confidential information,
 including trade secrets, belonging to Gaussian, Inc.
  
 This software is provided under written license and may be
 used, copied, transmitted, or stored only in accord with that
 written license.
  
 The following legend is applicable only to US Government
 contracts under FAR:
  
                    RESTRICTED RIGHTS LEGEND
  
 Use, reproduction and disclosure by the US Government is
 subject to restrictions as set forth in subparagraphs (a)
 and (c) of the Commercial Computer Software - Restricted
 Rights clause in FAR 52.227-19.
  
 Gaussian, Inc.
 340 Quinnipiac St., Bldg. 40, Wallingford CT 06492
  
  
 ---------------------------------------------------------------
 Warning -- This program may not be used in any manner that
 competes with the business of Gaussian, Inc. or will provide
 assistance to any competitor of Gaussian, Inc.  The licensee
 of this program is prohibited from giving any competitor of
 Gaussian, Inc. access to this program.  By using this program,
 the user acknowledges that Gaussian, Inc. is engaged in the
 business of creating and licensing software in the field of
 computational chemistry and represents and warrants to the
 licensee that it is not a competitor of Gaussian, Inc. and that
 it will not use this program in any manner prohibited above.
 ---------------------------------------------------------------
  

 Cite this work as:
 Gaussian 16, Revision C.01,
 M. J. Frisch, G. W. Trucks, H. B. Schlegel, G. E. Scuseria, 
 M. A. Robb, J. R. Cheeseman, G. Scalmani, V. Barone, 
 G. A. Petersson, H. Nakatsuji, X. Li, M. Caricato, A. V. Marenich, 
 J. Bloino, B. G. Janesko, R. Gomperts, B. Mennucci, H. P. Hratchian, 
 J. V. Ortiz, A. F. Izmaylov, J. L. Sonnenberg, D. Williams-Young, 
 F. Ding, F. Lipparini, F. Egidi, J. Goings, B. Peng, A. Petrone, 
 T. Henderson, D. Ranasinghe, V. G. Zakrzewski, J. Gao, N. Rega, 
 G. Zheng, W. Liang, M. Hada, M. Ehara, K. Toyota, R. Fukuda, 
 J. Hasegawa, M. Ishida, T. Nakajima, Y. Honda, O. Kitao, H. Nakai, 
 T. Vreven, K. Throssell, J. A. Montgomery, Jr., J. E. Peralta, 
 F. Ogliaro, M. J. Bearpark, J. J. Heyd, E. N. Brothers, K. N. Kudin, 
 V. N. Staroverov, T. A. Keith, R. Kobayashi, J. Normand, 
 K. Raghavachari, A. P. Rendell, J. C. Burant, S. S. Iyengar, 
 J. Tomasi, M. Cossi, J. M. Millam, M. Klene, C. Adamo, R. Cammi, 
 J. W. Ochterski, R. L. Martin, K. Morokuma, O. Farkas, 
 J. B. Foresman, and D. J. Fox, Gaussian, Inc., Wallingford CT, 2019.
 
 ******************************************
 Gaussian 16:  ES64L-G16RevC.01  3-Jul-2019
                28-Jul-2022 
 ******************************************
 %NProcShared=48
 Will use up to   48 processors via shared memory.
 %mem = 190GB
 ---------------------------------------------------------------
 #n M062X/6-311++G(d,p) TD(NStates=1) EmpiricalDispersion=GD3 SP
 ---------------------------------------------------------------
 1/38=1,172=1/1;
 2/12=2,17=6,18=5,40=1/2;
 3/5=4,6=6,7=1111,11=9,25=1,30=1,74=-55,124=31/1,2,3,8;
 4//1;
 5/5=2,38=5/2;
 8/6=1,10=2,108=1/1;
 9/41=1,42=1,70=2/14;
 6/7=2,8=2,9=2,10=2/1;
 99/5=1,9=1/99;
 -----
 SP_25
 -----
 Symbolic Z-matrix:
 Charge =  1 Multiplicity = 1
 C                    -0.01075   2.49325   1.36043 
 C                    -0.01258   3.69631   0.67199 
 C                    -0.0036    3.67481  -0.71383 
 C                     0.01167   2.45638  -1.40754 
 C                     0.01172  -2.45628  -1.40754 
 C                    -0.0033   -3.67431  -0.71383 
 C                    -0.0121   -3.69613   0.67199 
 C                    -0.0098   -2.49296   1.36043 
 C                    -0.00655  -0.0011    1.45337 
 C                     0.0183    0.00005  -1.42919 
 C                     0.0027    1.26778   0.67707 
 C                     0.0076    1.2365   -0.7308 
 C                     0.00278  -1.26781   0.67707 
 C                     0.0074   -1.23665  -0.7308 
 H                    -0.0037    2.48857   2.44365 
 H                    -0.01278   4.63263   1.21169 
 H                     0.0021    4.60991  -1.27235 
 H                     0.00555   2.46095  -2.49006 
 H                     0.01688   0.00003  -2.51027 
 H                     0.0054   -2.46088  -2.49006 
 H                     0.00225  -4.60929  -1.27235 
 H                    -0.0122   -4.63225   1.21169 
 H                    -0.0026   -2.48825   2.44365 
 H                    -0.88359  -0.00025   2.14606 
 H                     0.83559  -0.00025   2.14551 
 
                          Input orientation:                          
 ---------------------------------------------------------------------
 Center     Atomic      Atomic             Coordinates (Angstroms)
 Number     Number       Type             X           Y           Z
 ---------------------------------------------------------------------
      1          6           0       -0.010750    2.493255    1.360431
      2          6           0       -0.012575    3.696308    0.671989
      3          6           0       -0.003600    3.674811   -0.713830
      4          6           0        0.011675    2.456381   -1.407538
      5          6           0        0.011725   -2.456281   -1.407538
      6          6           0       -0.003300   -3.674311   -0.713830
      7          6           0       -0.012100   -3.696133    0.671989
      8          6           0       -0.009800   -2.492955    1.360431
      9          6           0       -0.006550   -0.001100    1.453369
     10          6           0        0.018300    0.000050   -1.429189
     11          6           0        0.002700    1.267780    0.677065
     12          6           0        0.007600    1.236496   -0.730804
     13          6           0        0.002775   -1.267805    0.677065
     14          6           0        0.007400   -1.236646   -0.730804
     15          1           0       -0.003700    2.488571    2.443647
     16          1           0       -0.012775    4.632628    1.211689
     17          1           0        0.002100    4.609912   -1.272349
     18          1           0        0.005550    2.460950   -2.490059
     19          1           0        0.016875    0.000025   -2.510266
     20          1           0        0.005400   -2.460875   -2.490059
     21          1           0        0.002250   -4.609287   -1.272349
     22          1           0       -0.012200   -4.632253    1.211689
     23          1           0       -0.002600   -2.488246    2.443647
     24          1           0       -0.883585   -0.000250    2.146062
     25          1           0        0.835585   -0.000250    2.145512
 ---------------------------------------------------------------------
                    Distance matrix (angstroms):
                    1          2          3          4          5
     1  C    0.000000
     2  C    1.386107   0.000000
     3  C    2.387192   1.386015   0.000000
     4  C    2.768305   2.421248   1.402154   0.000000
     5  C    5.670984   6.494565   6.170231   4.912662   0.000000
     6  C    6.507033   7.499774   7.349122   6.169833   1.401804
     7  C    6.227558   7.392441   7.500092   6.494492   2.421205
     8  C    4.986210   6.227434   6.507222   5.670806   2.768296
     9  C    2.496089   3.779076   4.267210   3.771516   3.770018
    10  C    3.741510   4.251850   3.743806   2.456435   2.456435
    11  C    1.403196   2.428581   2.780005   2.399671   4.267819
    12  C    2.439886   2.831768   2.438400   1.395029   3.754276
    13  C    3.822662   4.964139   5.134597   4.267928   2.399609
    14  C    4.276185   5.128573   4.911499   3.754522   1.394811
    15  H    1.083249   2.144173   3.372955   3.851350   6.267649
    16  H    2.144538   1.080727   2.150609   3.405437   7.557353
    17  H    3.378155   2.148334   1.089215   2.157791   7.067493
    18  H    3.850660   3.394847   2.151402   1.082548   5.034983
    19  H    4.604265   4.877512   4.090434   2.692531   2.692485
    20  H    6.274547   6.921689   6.387622   5.035007   1.082549
    21  H    7.574814   8.530157   8.302907   7.066967   2.157267
    22  H    7.127060   8.346029   8.527310   7.557093   3.405257
    23  H    5.097919   6.433318   6.924806   6.267469   3.851344
    24  H    2.756197   4.073830   4.739138   4.411870   4.411546
    25  H    2.747763   4.068807   4.731400   4.397502   4.397158
                    6          7          8          9         10
     6  C    0.000000
     7  C    1.386019   0.000000
     8  C    2.387091   1.386216   0.000000
     9  C    4.264885   3.776752   2.493590   0.000000
    10  C    3.743412   4.251781   3.741369   2.882665   0.000000
    11  C    5.134091   4.963938   3.822339   1.487545   2.458391
    12  C    4.910848   5.128259   4.275789   2.510469   1.420090
    13  C    2.779550   2.428379   1.402904   1.485691   2.458455
    14  C    2.437748   2.831481   2.439646   2.509458   1.420309
    15  H    6.924650   6.433460   5.097940   2.679388   4.603486
    16  H    8.527189   8.346229   7.127136   4.640031   5.332540
    17  H    8.303031   8.530594   7.575117   5.356402   4.612558
    18  H    6.387213   6.921599   6.274367   4.648920   2.679858
    19  H    4.090029   4.877414   4.604124   3.963704   1.081078
    20  H    2.151161   3.394807   3.850654   4.647716   2.679881
    21  H    1.089107   2.148140   3.377949   5.353971   4.612033
    22  H    2.150664   1.080554   2.144464   4.637458   5.332298
    23  H    3.372894   2.144261   1.083250   2.677043   4.603359
    24  H    4.738418   4.073319   2.755775   1.117593   3.687251
    25  H    4.730570   4.068094   2.746745   1.090071   3.666939
                   11         12         13         14         15
    11  C    0.000000
    12  C    1.408225   0.000000
    13  C    2.535585   2.872915   0.000000
    14  C    2.873024   2.473142   1.408221   0.000000
    15  H    2.147367   3.412471   4.151050   4.894334   0.000000
    16  H    3.407090   3.912468   5.924624   6.182399   2.472809
    17  H    3.869116   3.416612   6.192558   5.871587   4.278872
    18  H    3.384426   2.143425   4.892269   4.094777   4.933792
    19  H    3.430231   2.166894   3.430258   2.167009   5.543874
    20  H    4.892193   4.094574   3.384390   2.143296   6.988459
    21  H    6.191941   5.870816   3.868555   3.415846   8.011757
    22  H    5.924224   6.181900   3.406693   3.912008   7.226612
    23  H    4.150731   4.893970   2.147165   3.412293   4.976817
    24  H    2.133390   3.255781   2.133139   3.255593   2.656499
    25  H    2.111382   3.238564   2.111067   3.238481   2.643391
                   16         17         18         19         20
    16  H    0.000000
    17  H    2.484186   0.000000
    18  H    4.291790   2.469993   0.000000
    19  H    5.942629   4.773229   2.461034   0.000000
    20  H    8.001316   7.174877   4.921825   2.461010   0.000000
    21  H    9.569935   9.219199   7.174335   4.772673   2.469514
    22  H    9.264881   9.570176   8.001049   5.942373   4.291635
    23  H    7.226664   8.012022   6.988280   5.543747   4.933788
    24  H    4.805718   5.807199   5.323691   4.742596   5.323400
    25  H    4.801593   5.799143   5.313660   4.727214   5.313417
                   21         22         23         24         25
    21  H    0.000000
    22  H    2.484186   0.000000
    23  H    4.278722   2.472767   0.000000
    24  H    5.806329   4.804978   2.656090   0.000000
    25  H    5.798228   4.800648   2.642265   1.719170   0.000000
 Stoichiometry    C14H11(1+)
 Framework group  C1[X(C14H11)]
 Deg. of freedom    69
 Full point group                 C1      NOp   1
 Largest Abelian subgroup         C1      NOp   1
 Largest concise Abelian subgroup C1      NOp   1
                         Standard orientation:                         
 ---------------------------------------------------------------------
 Center     Atomic      Atomic             Coordinates (Angstroms)
 Number     Number       Type             X           Y           Z
 ---------------------------------------------------------------------
      1          6           0        2.493227   -1.360522    0.001344
      2          6           0        3.696294   -0.672132    0.007642
      3          6           0        3.674826    0.713717    0.007819
      4          6           0        2.456410    1.407535   -0.002802
      5          6           0       -2.456252    1.407637   -0.002559
      6          6           0       -3.674296    0.713870    0.007958
      7          6           0       -3.696147   -0.671976    0.007609
      8          6           0       -2.492983   -1.360413    0.000691
      9          6           0       -0.001130   -1.453379   -0.003321
     10          6           0        0.000079    1.429280   -0.009138
     11          6           0        1.267765   -0.677057   -0.007521
     12          6           0        1.236511    0.730815   -0.003123
     13          6           0       -1.267820   -0.677004   -0.007444
     14          6           0       -1.236631    0.730864   -0.002775
     15          1           0        2.488519   -2.443668   -0.012858
     16          1           0        4.632603   -1.211841    0.004223
     17          1           0        4.609938    1.272242    0.005751
     18          1           0        2.461002    2.489992    0.010470
     19          1           0        0.000077    2.510325   -0.000575
     20          1           0       -2.460823    2.490093    0.010914
     21          1           0       -4.609261    1.272433    0.006152
     22          1           0       -4.632278   -1.211646    0.004201
     23          1           0       -2.488298   -2.443558   -0.013661
     24          1           0       -0.000243   -2.151847    0.869121
     25          1           0       -0.000345   -2.139946   -0.850008
 ---------------------------------------------------------------------
 Rotational constants (GHZ):           2.1360673           0.4458697           0.3696806
 Standard basis: 6-311++G(d,p) (5D, 7F)
 There are   399 symmetry adapted cartesian basis functions of A   symmetry.
 There are   385 symmetry adapted basis functions of A   symmetry.
   385 basis functions,   603 primitive gaussians,   399 cartesian basis functions
    47 alpha electrons       47 beta electrons
       nuclear repulsion energy       781.8812001539 Hartrees.
 NAtoms=   25 NActive=   25 NUniq=   25 SFac= 1.00D+00 NAtFMM=   60 NAOKFM=F Big=F
 Integral buffers will be    131072 words long.
 Regular integral format.
 Two-electron integral symmetry is turned on.
 Nuclear repulsion after empirical dispersion term =      781.8802208807 Hartrees.
 One-electron integrals computed using PRISM.
 NBasis=   385 RedAO= T EigKep=  1.15D-06  NBF=   385
 NBsUse=   379 1.00D-06 EigRej=  8.30D-07 NBFU=   379
 ExpMin= 3.60D-02 ExpMax= 4.56D+03 ExpMxC= 6.82D+02 IAcc=3 IRadAn=         5 AccDes= 0.00D+00
 Harris functional with IExCor= 1009 and IRadAn=       5 diagonalized for initial guess.
 HarFok:  IExCor= 1009 AccDes= 0.00D+00 IRadAn=         5 IDoV= 1 UseB2=F ITyADJ=14
 ICtDFT=  3500011 ScaDFX=  1.000000  1.000000  1.000000  1.000000
 FoFCou: FMM=F IPFlag=           0 FMFlag=      100000 FMFlg1=           0
         NFxFlg=           0 DoJE=T BraDBF=F KetDBF=T FulRan=T
         wScrn=  0.000000 ICntrl=       500 IOpCl=  0 I1Cent=   200000004 NGrid=           0
         NMat0=    1 NMatS0=      1 NMatT0=    0 NMatD0=    1 NMtDS0=    0 NMtDT0=    0
 Petite list used in FoFCou.
 Requested convergence on RMS density matrix=1.00D-08 within 128 cycles.
 Requested convergence on MAX density matrix=1.00D-06.
 Requested convergence on             energy=1.00D-06.
 No special actions if energy rises.
 SCF Done:  E(RM062X) =  -539.759915774     A.U. after   15 cycles
            NFock= 15  Conv=0.45D-08     -V/T= 2.0041
 DoSCS=F DFT=T ScalE2(SS,OS)=  1.000000  1.000000
 ExpMin= 3.60D-02 ExpMax= 4.56D+03 ExpMxC= 6.82D+02 IAcc=3 IRadAn=         5 AccDes= 0.00D+00
 HarFok:  IExCor=  205 AccDes= 0.00D+00 IRadAn=         5 IDoV=-2 UseB2=F ITyADJ=14
 ICtDFT= 12500011 ScaDFX=  1.000000  1.000000  1.000000  1.000000
 Range of M.O.s used for correlation:    15   379
 NBasis=   385 NAE=    47 NBE=    47 NFC=    14 NFV=     0
 NROrb=    365 NOA=    33 NOB=    33 NVA=   332 NVB=   332

 **** Warning!!: The largest alpha MO coefficient is  0.14949515D+03

 Orbital symmetries:
       Occupied  (A) (A) (A) (A) (A) (A) (A) (A) (A) (A) (A) (A)
                 (A) (A) (A) (A) (A) (A) (A) (A) (A) (A) (A) (A)
                 (A) (A) (A) (A) (A) (A) (A) (A) (A) (A) (A) (A)
                 (A) (A) (A) (A) (A) (A) (A) (A) (A) (A) (A)
       Virtual   (A) (A) (A) (A) (A) (A) (A) (A) (A) (A) (A) (A)
                 (A) (A) (A) (A) (A) (A) (A) (A) (A) (A) (A) (A)
                 (A) (A) (A) (A) (A) (A) (A) (A) (A) (A) (A) (A)
                 (A) (A) (A) (A) (A) (A) (A) (A) (A) (A) (A) (A)
                 (A) (A) (A) (A) (A) (A) (A) (A) (A) (A) (A) (A)
                 (A) (A) (A) (A) (A) (A) (A) (A) (A) (A) (A) (A)
                 (A) (A) (A) (A) (A) (A) (A) (A) (A) (A) (A) (A)
                 (A) (A) (A) (A) (A) (A) (A) (A) (A) (A) (A) (A)
                 (A) (A) (A) (A) (A) (A) (A) (A) (A) (A) (A) (A)
                 (A) (A) (A) (A) (A) (A) (A) (A) (A) (A) (A) (A)
                 (A) (A) (A) (A) (A) (A) (A) (A) (A) (A) (A) (A)
                 (A) (A) (A) (A) (A) (A) (A) (A) (A) (A) (A) (A)
                 (A) (A) (A) (A) (A) (A) (A) (A) (A) (A) (A) (A)
                 (A) (A) (A) (A) (A) (A) (A) (A) (A) (A) (A) (A)
                 (A) (A) (A) (A) (A) (A) (A) (A) (A) (A) (A) (A)
                 (A) (A) (A) (A) (A) (A) (A) (A) (A) (A) (A) (A)
                 (A) (A) (A) (A) (A) (A) (A) (A) (A) (A) (A) (A)
                 (A) (A) (A) (A) (A) (A) (A) (A) (A) (A) (A) (A)
                 (A) (A) (A) (A) (A) (A) (A) (A) (A) (A) (A) (A)
                 (A) (A) (A) (A) (A) (A) (A) (A) (A) (A) (A) (A)
                 (A) (A) (A) (A) (A) (A) (A) (A) (A) (A) (A) (A)
                 (A) (A) (A) (A) (A) (A) (A) (A) (A) (A) (A) (A)
                 (A) (A) (A) (A) (A) (A) (A) (A) (A) (A) (A) (A)
                 (A) (A) (A) (A) (A) (A) (A) (A) (A) (A) (A) (A)
                 (A) (A) (A) (A) (A) (A) (A) (A) (A) (A) (A) (A)
                 (A) (A) (A) (A) (A) (A) (A) (A) (A) (A) (A) (A)
                 (A) (A) (A) (A) (A) (A) (A) (A) (A) (A) (A) (A)
                 (A) (A) (A) (A) (A) (A) (A) (A)
     4 initial guesses have been made.
 Convergence on wavefunction:    0.001000000000000
 Iteration     1 Dimension     4 NMult     0 NNew      4
 CISAX will form     4 AO SS matrices at one time.
 Iteration     2 Dimension     6 NMult     4 NNew      2
 Iteration     3 Dimension     8 NMult     6 NNew      2
 Iteration     4 Dimension    10 NMult     8 NNew      2
 Iteration     5 Dimension    12 NMult    10 NNew      2
 Iteration     6 Dimension    14 NMult    12 NNew      2
 ***********************************************************************
 Excited states from <AA,BB:AA,BB> singles matrix:
 ***********************************************************************
 
 Ground to excited state transition densities written to RWF  633
 Ground to excited state transition electric dipole moments (Au):
       state          X           Y           Z        Dip. S.      Osc.
         1        -0.0014     -0.6492      0.0031      0.4214      0.0293
 Ground to excited state transition velocity dipole moments (Au):
       state          X           Y           Z        Dip. S.      Osc.
         1         0.0001      0.0752     -0.0004      0.0057      0.0362
 Ground to excited state transition magnetic dipole moments (Au):
       state          X           Y           Z
         1        -0.0041      0.0001      0.0001
 Ground to excited state transition velocity quadrupole moments (Au):
       state          XX          YY          ZZ          XY          XZ          YZ
         1         0.2886      0.0369     -0.0100      0.0002     -0.0000      0.0006
 <0|del|b> * <b|rxdel|0> + <0|del|b> * <b|delr+rdel|0>
 Rotatory Strengths (R) in cgs (10**-40 erg-esu-cm/Gauss)
       state          XX          YY          ZZ    R(velocity)    E-M Angle
         1         0.0268     -0.0016      0.0210      0.0154       90.00
 1/2[<0|r|b>*<b|rxdel|0> + (<0|rxdel|b>*<b|r|0>)*]
 Rotatory Strengths (R) in cgs (10**-40 erg-esu-cm/Gauss)
       state          XX          YY          ZZ     R(length)
         1        -0.0040      0.0454     -0.0002      0.0137
  1/2[<0|del|b>*<b|r|0> + (<0|r|b>*<b|del|0>)*] (Au)
       state          X           Y           Z        Dip. S.   Osc.(frdel)
         1        -0.0000     -0.0488     -0.0000      0.0488      0.0326

 Excitation energies and oscillator strengths:
 
 Excited State   1:      Singlet-A      2.8336 eV  437.55 nm  f=0.0293  <S**2>=0.000
      47 -> 48         0.70425
 This state for optimization and/or second-order correction.
 Total Energy, E(TD-HF/TD-DFT) =  -539.655781759    
 Copying the excited state density for this state as the 1-particle RhoCI density.
 SavETr:  write IOETrn=   770 NScale= 10 NData=  16 NLR=1 NState=    1 LETran=      28.

 **********************************************************************

            Population analysis using the SCF Density.

 **********************************************************************

 Orbital symmetries:
       Occupied  (A) (A) (A) (A) (A) (A) (A) (A) (A) (A) (A) (A)
                 (A) (A) (A) (A) (A) (A) (A) (A) (A) (A) (A) (A)
                 (A) (A) (A) (A) (A) (A) (A) (A) (A) (A) (A) (A)
                 (A) (A) (A) (A) (A) (A) (A) (A) (A) (A) (A)
       Virtual   (A) (A) (A) (A) (A) (A) (A) (A) (A) (A) (A) (A)
                 (A) (A) (A) (A) (A) (A) (A) (A) (A) (A) (A) (A)
                 (A) (A) (A) (A) (A) (A) (A) (A) (A) (A) (A) (A)
                 (A) (A) (A) (A) (A) (A) (A) (A) (A) (A) (A) (A)
                 (A) (A) (A) (A) (A) (A) (A) (A) (A) (A) (A) (A)
                 (A) (A) (A) (A) (A) (A) (A) (A) (A) (A) (A) (A)
                 (A) (A) (A) (A) (A) (A) (A) (A) (A) (A) (A) (A)
                 (A) (A) (A) (A) (A) (A) (A) (A) (A) (A) (A) (A)
                 (A) (A) (A) (A) (A) (A) (A) (A) (A) (A) (A) (A)
                 (A) (A) (A) (A) (A) (A) (A) (A) (A) (A) (A) (A)
                 (A) (A) (A) (A) (A) (A) (A) (A) (A) (A) (A) (A)
                 (A) (A) (A) (A) (A) (A) (A) (A) (A) (A) (A) (A)
                 (A) (A) (A) (A) (A) (A) (A) (A) (A) (A) (A) (A)
                 (A) (A) (A) (A) (A) (A) (A) (A) (A) (A) (A) (A)
                 (A) (A) (A) (A) (A) (A) (A) (A) (A) (A) (A) (A)
                 (A) (A) (A) (A) (A) (A) (A) (A) (A) (A) (A) (A)
                 (A) (A) (A) (A) (A) (A) (A) (A) (A) (A) (A) (A)
                 (A) (A) (A) (A) (A) (A) (A) (A) (A) (A) (A) (A)
                 (A) (A) (A) (A) (A) (A) (A) (A) (A) (A) (A) (A)
                 (A) (A) (A) (A) (A) (A) (A) (A) (A) (A) (A) (A)
                 (A) (A) (A) (A) (A) (A) (A) (A) (A) (A) (A) (A)
                 (A) (A) (A) (A) (A) (A) (A) (A) (A) (A) (A) (A)
                 (A) (A) (A) (A) (A) (A) (A) (A) (A) (A) (A) (A)
                 (A) (A) (A) (A) (A) (A) (A) (A) (A) (A) (A) (A)
                 (A) (A) (A) (A) (A) (A) (A) (A) (A) (A) (A) (A)
                 (A) (A) (A) (A) (A) (A) (A) (A) (A) (A) (A) (A)
                 (A) (A) (A) (A) (A) (A) (A) (A) (A) (A) (A) (A)
                 (A) (A) (A) (A) (A) (A) (A) (A)
 The electronic state is 1-A.
 Alpha  occ. eigenvalues --  -10.77672 -10.73225 -10.73211 -10.72375 -10.72373
 Alpha  occ. eigenvalues --  -10.71295 -10.71287 -10.70976 -10.70960 -10.70958
 Alpha  occ. eigenvalues --  -10.69893 -10.69888 -10.69660 -10.69654  -1.16494
 Alpha  occ. eigenvalues --   -1.12623  -1.07030  -1.05679  -1.01472  -1.00158
 Alpha  occ. eigenvalues --   -0.95841  -0.91040  -0.86428  -0.85930  -0.83822
 Alpha  occ. eigenvalues --   -0.78414  -0.76036  -0.74449  -0.69559  -0.69226
 Alpha  occ. eigenvalues --   -0.68495  -0.68138  -0.68012  -0.64857  -0.64385
 Alpha  occ. eigenvalues --   -0.62965  -0.61763  -0.60051  -0.59794  -0.59049
 Alpha  occ. eigenvalues --   -0.56881  -0.55175  -0.54781  -0.52500  -0.46741
 Alpha  occ. eigenvalues --   -0.46044  -0.44567
 Alpha virt. eigenvalues --   -0.26105  -0.14593  -0.14079  -0.12683  -0.11181
 Alpha virt. eigenvalues --   -0.10091  -0.09242  -0.08015  -0.07956  -0.07481
 Alpha virt. eigenvalues --   -0.07208  -0.07131  -0.05641  -0.05581  -0.05318
 Alpha virt. eigenvalues --   -0.03848  -0.03676  -0.03278  -0.03131  -0.02166
 Alpha virt. eigenvalues --   -0.01377  -0.00949   0.00194   0.00557   0.00668
 Alpha virt. eigenvalues --    0.01063   0.01512   0.01956   0.02224   0.02282
 Alpha virt. eigenvalues --    0.02458   0.02663   0.02825   0.03247   0.03347
 Alpha virt. eigenvalues --    0.04234   0.04508   0.04701   0.05075   0.05375
 Alpha virt. eigenvalues --    0.06004   0.06304   0.06606   0.07042   0.07266
 Alpha virt. eigenvalues --    0.07906   0.08231   0.08352   0.08574   0.08925
 Alpha virt. eigenvalues --    0.09539   0.09556   0.10039   0.10881   0.11042
 Alpha virt. eigenvalues --    0.11129   0.12180   0.12222   0.12939   0.12945
 Alpha virt. eigenvalues --    0.13417   0.13496   0.14014   0.14458   0.16124
 Alpha virt. eigenvalues --    0.16232   0.16484   0.17324   0.17607   0.17757
 Alpha virt. eigenvalues --    0.18130   0.19130   0.19281   0.19669   0.19765
 Alpha virt. eigenvalues --    0.21612   0.21624   0.22689   0.23084   0.23559
 Alpha virt. eigenvalues --    0.23813   0.24588   0.25200   0.26899   0.27673
 Alpha virt. eigenvalues --    0.28846   0.29285   0.29850   0.31393   0.35815
 Alpha virt. eigenvalues --    0.36540   0.38190   0.39341   0.41137   0.41359
 Alpha virt. eigenvalues --    0.41976   0.42124   0.42962   0.43774   0.44256
 Alpha virt. eigenvalues --    0.45018   0.45127   0.46049   0.46159   0.47924
 Alpha virt. eigenvalues --    0.48496   0.48859   0.49002   0.50397   0.51265
 Alpha virt. eigenvalues --    0.51642   0.51739   0.52137   0.53083   0.53937
 Alpha virt. eigenvalues --    0.54052   0.54736   0.55712   0.55769   0.57410
 Alpha virt. eigenvalues --    0.58259   0.58818   0.61461   0.62213   0.62324
 Alpha virt. eigenvalues --    0.63220   0.63507   0.64841   0.65177   0.67084
 Alpha virt. eigenvalues --    0.70480   0.70527   0.71035   0.72451   0.72860
 Alpha virt. eigenvalues --    0.75765   0.75936   0.76320   0.76801   0.77041
 Alpha virt. eigenvalues --    0.77815   0.77840   0.78250   0.80140   0.80361
 Alpha virt. eigenvalues --    0.81326   0.81610   0.82164   0.83053   0.85117
 Alpha virt. eigenvalues --    0.87147   0.88111   0.88173   0.89540   0.90429
 Alpha virt. eigenvalues --    0.90958   0.91427   0.93365   0.94715   0.96386
 Alpha virt. eigenvalues --    0.96679   1.00289   1.01312   1.01785   1.02885
 Alpha virt. eigenvalues --    1.03195   1.03976   1.04719   1.05424   1.08911
 Alpha virt. eigenvalues --    1.19384   1.23233   1.24066   1.25343   1.28067
 Alpha virt. eigenvalues --    1.29945   1.31516   1.34452   1.35867   1.36125
 Alpha virt. eigenvalues --    1.39442   1.40122   1.41017   1.43238   1.43562
 Alpha virt. eigenvalues --    1.43633   1.45266   1.45425   1.46387   1.46646
 Alpha virt. eigenvalues --    1.47734   1.48277   1.51764   1.53685   1.55765
 Alpha virt. eigenvalues --    1.56010   1.56483   1.56668   1.57891   1.61586
 Alpha virt. eigenvalues --    1.63102   1.63330   1.63533   1.66187   1.68228
 Alpha virt. eigenvalues --    1.68488   1.68719   1.69733   1.74603   1.76002
 Alpha virt. eigenvalues --    1.77212   1.78088   1.79985   1.80423   1.81021
 Alpha virt. eigenvalues --    1.83119   1.83313   1.83517   1.83996   1.84103
 Alpha virt. eigenvalues --    1.84403   1.86011   1.86166   1.88309   1.91311
 Alpha virt. eigenvalues --    1.92167   1.94104   1.95173   1.97881   1.98446
 Alpha virt. eigenvalues --    2.00024   2.02370   2.04607   2.06995   2.11929
 Alpha virt. eigenvalues --    2.12100   2.14090   2.15280   2.19526   2.21234
 Alpha virt. eigenvalues --    2.23077   2.28799   2.30370   2.34498   2.35150
 Alpha virt. eigenvalues --    2.36279   2.38302   2.39038   2.42389   2.43466
 Alpha virt. eigenvalues --    2.46750   2.47470   2.49581   2.53057   2.53798
 Alpha virt. eigenvalues --    2.54188   2.56659   2.57930   2.58417   2.59714
 Alpha virt. eigenvalues --    2.59940   2.61534   2.62226   2.63573   2.63941
 Alpha virt. eigenvalues --    2.64791   2.65067   2.65359   2.65398   2.67973
 Alpha virt. eigenvalues --    2.68360   2.71065   2.71397   2.73414   2.74837
 Alpha virt. eigenvalues --    2.76389   2.79027   2.79860   2.83153   2.83220
 Alpha virt. eigenvalues --    2.85236   2.86374   2.92167   2.96879   2.99701
 Alpha virt. eigenvalues --    3.00301   3.04715   3.11565   3.11866   3.13620
 Alpha virt. eigenvalues --    3.20902   3.23557   3.27133   3.28443   3.31056
 Alpha virt. eigenvalues --    3.33410   3.33656   3.43474   3.46064   3.47374
 Alpha virt. eigenvalues --    3.49041   3.50623   3.56605   3.65392   3.67178
 Alpha virt. eigenvalues --    3.67536   3.93357   3.94310   3.94667   3.96172
 Alpha virt. eigenvalues --    4.03583   4.06911   4.07660   4.12549   4.35376
 Alpha virt. eigenvalues --    4.61131   4.70231   4.72089  23.45196  23.59979
 Alpha virt. eigenvalues --   23.82551  23.85270  23.88082  23.89633  23.90589
 Alpha virt. eigenvalues --   23.92389  23.98257  24.00529  24.00965  24.01079
 Alpha virt. eigenvalues --   24.11261  24.11353
          Condensed to atoms (all electrons):
               1          2          3          4          5          6
     1  C    8.526681   0.419587  -0.570919   1.830888  -0.010445  -0.095704
     2  C    0.419587   7.088905   0.367823  -0.988281  -0.034394  -0.015948
     3  C   -0.570919   0.367823   6.615790   0.748281  -0.120233   0.017499
     4  C    1.830888  -0.988281   0.748281  10.710997  -0.299500  -0.120780
     5  C   -0.010445  -0.034394  -0.120233  -0.299500  10.697326   0.750586
     6  C   -0.095704  -0.015948   0.017499  -0.120780   0.750586   6.616895
     7  C   -0.022921   0.005022  -0.015933  -0.034134  -0.988315   0.368290
     8  C    0.411439  -0.023417  -0.095695  -0.008575   1.824508  -0.569098
     9  C   -1.304721  -0.723710   0.284599  -0.312811  -0.319782   0.284319
    10  C   -1.218614   0.213081  -0.366489  -2.507785  -2.506399  -0.369217
    11  C    0.291672  -0.967102   1.016284  -0.192873  -1.529872  -0.189978
    12  C   -1.883000   1.203655  -1.365469  -1.354972  -0.308759  -0.196737
    13  C    0.195107  -0.201897  -0.189757  -1.533119  -0.193385   1.017986
    14  C   -1.069410  -0.211847  -0.197009  -0.313421  -1.337777  -1.369646
    15  H    0.364301  -0.102810  -0.002259   0.025105   0.005910   0.001164
    16  H   -0.019270   0.378537  -0.015371   0.013989  -0.001625  -0.000345
    17  H   -0.022200  -0.018091   0.372490  -0.064801   0.000372   0.000406
    18  H    0.048619   0.003516  -0.085678   0.452078   0.007635  -0.005026
    19  H   -0.046298  -0.007694   0.050691  -0.065688  -0.065145   0.050753
    20  H    0.007609   0.001901  -0.005014   0.007659   0.451852  -0.085523
    21  H   -0.001331  -0.000399   0.000405   0.000372  -0.064704   0.372507
    22  H    0.000753   0.000375  -0.000345  -0.001627   0.013923  -0.015267
    23  H    0.005860  -0.002693   0.001160   0.005934   0.025042  -0.002222
    24  H    0.040939   0.013815  -0.001197  -0.012028  -0.011783  -0.001272
    25  H    0.026407   0.015091  -0.002116  -0.011668  -0.011808  -0.002020
               7          8          9         10         11         12
     1  C   -0.022921   0.411439  -1.304721  -1.218614   0.291672  -1.883000
     2  C    0.005022  -0.023417  -0.723710   0.213081  -0.967102   1.203655
     3  C   -0.015933  -0.095695   0.284599  -0.366489   1.016284  -1.365469
     4  C   -0.034134  -0.008575  -0.312811  -2.507785  -0.192873  -1.354972
     5  C   -0.988315   1.824508  -0.319782  -2.506399  -1.529872  -0.308759
     6  C    0.368290  -0.569098   0.284319  -0.369217  -0.189978  -0.196737
     7  C    7.091798   0.420864  -0.723278   0.213699  -0.203718  -0.212640
     8  C    0.420864   8.526479  -1.310785  -1.218101   0.193024  -1.072516
     9  C   -0.723278  -1.310785   9.421972   0.337821   1.607398  -1.714040
    10  C    0.213699  -1.218101   0.337821   9.210057  -0.522498   2.350190
    11  C   -0.203718   0.193024   1.607398  -0.522498  14.360817  -3.804698
    12  C   -0.212640  -1.072516  -1.714040   2.350190  -3.804698  15.698871
    13  C   -0.968777   0.296788   1.611674  -0.525927   1.203060  -4.697326
    14  C    1.201983  -1.874514  -1.709511   2.344517  -4.701593   2.917647
    15  H   -0.002700   0.005859   0.088004  -0.009137  -0.025479  -0.022112
    16  H    0.000376   0.000768   0.004216  -0.010215   0.029869  -0.037133
    17  H   -0.000399  -0.001334  -0.005042   0.019972  -0.026564   0.087673
    18  H    0.001898   0.007634  -0.026537   0.016506  -0.007774  -0.051686
    19  H   -0.007701  -0.046286   0.075557   0.421957   0.070722  -0.063077
    20  H    0.003449   0.048517  -0.026588   0.016560  -0.010838  -0.012945
    21  H   -0.018013  -0.022201  -0.005047   0.019970  -0.006277   0.005082
    22  H    0.378652  -0.019532   0.004133  -0.010199   0.003255  -0.009370
    23  H   -0.102811   0.364076   0.087807  -0.009118   0.000379   0.006824
    24  H    0.013603   0.040449   0.348954   0.004968   0.017806  -0.069215
    25  H    0.015326   0.027100   0.361089   0.004893   0.007869  -0.049591
              13         14         15         16         17         18
     1  C    0.195107  -1.069410   0.364301  -0.019270  -0.022200   0.048619
     2  C   -0.201897  -0.211847  -0.102810   0.378537  -0.018091   0.003516
     3  C   -0.189757  -0.197009  -0.002259  -0.015371   0.372490  -0.085678
     4  C   -1.533119  -0.313421   0.025105   0.013989  -0.064801   0.452078
     5  C   -0.193385  -1.337777   0.005910  -0.001625   0.000372   0.007635
     6  C    1.017986  -1.369646   0.001164  -0.000345   0.000406  -0.005026
     7  C   -0.968777   1.201983  -0.002700   0.000376  -0.000399   0.001898
     8  C    0.296788  -1.874514   0.005859   0.000768  -0.001334   0.007634
     9  C    1.611674  -1.709511   0.088004   0.004216  -0.005042  -0.026537
    10  C   -0.525927   2.344517  -0.009137  -0.010215   0.019972   0.016506
    11  C    1.203060  -4.701593  -0.025479   0.029869  -0.026564  -0.007774
    12  C   -4.697326   2.917647  -0.022112  -0.037133   0.087673  -0.051686
    13  C   14.354049  -3.807155   0.000387   0.003249  -0.006241  -0.010902
    14  C   -3.807155  15.686875   0.006824  -0.009377   0.005081  -0.012954
    15  H    0.000387   0.006824   0.438571  -0.009012   0.001423   0.000203
    16  H    0.003249  -0.009377  -0.009012   0.419349  -0.006588   0.001925
    17  H   -0.006241   0.005081   0.001423  -0.006588   0.421566  -0.010100
    18  H   -0.010902  -0.012954   0.000203   0.001925  -0.010100   0.453894
    19  H    0.071192  -0.063017   0.000323  -0.000529   0.001367  -0.005931
    20  H   -0.007782  -0.051511  -0.000114   0.000015  -0.000142   0.001282
    21  H   -0.026716   0.087713   0.000014  -0.000007   0.000010  -0.000143
    22  H    0.029792  -0.036834  -0.000126   0.000007  -0.000007   0.000015
    23  H   -0.025386  -0.021840   0.000607  -0.000126   0.000014  -0.000114
    24  H    0.018176  -0.069491  -0.000596   0.000547  -0.000110   0.000190
    25  H    0.007595  -0.049403  -0.001206   0.000728  -0.000173   0.000182
              19         20         21         22         23         24
     1  C   -0.046298   0.007609  -0.001331   0.000753   0.005860   0.040939
     2  C   -0.007694   0.001901  -0.000399   0.000375  -0.002693   0.013815
     3  C    0.050691  -0.005014   0.000405  -0.000345   0.001160  -0.001197
     4  C   -0.065688   0.007659   0.000372  -0.001627   0.005934  -0.012028
     5  C   -0.065145   0.451852  -0.064704   0.013923   0.025042  -0.011783
     6  C    0.050753  -0.085523   0.372507  -0.015267  -0.002222  -0.001272
     7  C   -0.007701   0.003449  -0.018013   0.378652  -0.102811   0.013603
     8  C   -0.046286   0.048517  -0.022201  -0.019532   0.364076   0.040449
     9  C    0.075557  -0.026588  -0.005047   0.004133   0.087807   0.348954
    10  C    0.421957   0.016560   0.019970  -0.010199  -0.009118   0.004968
    11  C    0.070722  -0.010838  -0.006277   0.003255   0.000379   0.017806
    12  C   -0.063077  -0.012945   0.005082  -0.009370   0.006824  -0.069215
    13  C    0.071192  -0.007782  -0.026716   0.029792  -0.025386   0.018176
    14  C   -0.063017  -0.051511   0.087713  -0.036834  -0.021840  -0.069491
    15  H    0.000323  -0.000114   0.000014  -0.000126   0.000607  -0.000596
    16  H   -0.000529   0.000015  -0.000007   0.000007  -0.000126   0.000547
    17  H    0.001367  -0.000142   0.000010  -0.000007   0.000014  -0.000110
    18  H   -0.005931   0.001282  -0.000143   0.000015  -0.000114   0.000190
    19  H    0.441571  -0.005906   0.001366  -0.000528   0.000321   0.000578
    20  H   -0.005906   0.453886  -0.010109   0.001919   0.000203   0.000195
    21  H    0.001366  -0.010109   0.421605  -0.006593   0.001427  -0.000113
    22  H   -0.000528   0.001919  -0.006593   0.419363  -0.009005   0.000556
    23  H    0.000321   0.000203   0.001427  -0.009005   0.438549  -0.000608
    24  H    0.000578   0.000195  -0.000113   0.000556  -0.000608   0.494742
    25  H    0.000542   0.000177  -0.000171   0.000721  -0.001184  -0.079792
              25
     1  C    0.026407
     2  C    0.015091
     3  C   -0.002116
     4  C   -0.011668
     5  C   -0.011808
     6  C   -0.002020
     7  C    0.015326
     8  C    0.027100
     9  C    0.361089
    10  C    0.004893
    11  C    0.007869
    12  C   -0.049591
    13  C    0.007595
    14  C   -0.049403
    15  H   -0.001206
    16  H    0.000728
    17  H   -0.000173
    18  H    0.000182
    19  H    0.000542
    20  H    0.000177
    21  H   -0.000171
    22  H    0.000721
    23  H   -0.001184
    24  H   -0.079792
    25  H    0.494501
 Mulliken charges:
               1
     1  C    0.094970
     2  C   -0.413025
     3  C   -0.441538
     4  C    0.026759
     5  C    0.026771
     6  C   -0.441620
     7  C   -0.413620
     8  C    0.094550
     9  C   -0.335690
    10  C    0.099509
    11  C   -0.612890
    12  C    0.655342
    13  C   -0.614687
    14  C    0.655671
    15  H    0.236857
    16  H    0.256022
    17  H    0.251419
    18  H    0.221268
    19  H    0.190858
    20  H    0.221250
    21  H    0.251355
    22  H    0.255969
    23  H    0.236904
    24  H    0.250688
    25  H    0.246907
 Sum of Mulliken charges =   1.00000
 Mulliken charges with hydrogens summed into heavy atoms:
               1
     1  C    0.331827
     2  C   -0.157002
     3  C   -0.190119
     4  C    0.248027
     5  C    0.248021
     6  C   -0.190264
     7  C   -0.157652
     8  C    0.331454
     9  C    0.161905
    10  C    0.290367
    11  C   -0.612890
    12  C    0.655342
    13  C   -0.614687
    14  C    0.655671
 Electronic spatial extent (au):  <R**2>=           2850.1032
 Charge=              1.0000 electrons
 Dipole moment (field-independent basis, Debye):
    X=              0.0013    Y=              0.1843    Z=             -0.0002  Tot=              0.1843
 Quadrupole moment (field-independent basis, Debye-Ang):
   XX=            -31.2463   YY=            -56.2631   ZZ=            -84.0935
   XY=              0.0007   XZ=             -0.0012   YZ=              0.0719
 Traceless Quadrupole moment (field-independent basis, Debye-Ang):
   XX=             25.9547   YY=              0.9379   ZZ=            -26.8925
   XY=              0.0007   XZ=             -0.0012   YZ=              0.0719
 Octapole moment (field-independent basis, Debye-Ang**2):
  XXX=              0.0544  YYY=              5.2047  ZZZ=             -0.0216  XYY=             -0.0004
  XXY=             -5.6637  XXZ=              0.1207  XZZ=             -0.0068  YZZ=             -3.0924
  YYZ=              0.0839  XYZ=             -0.0061
 Hexadecapole moment (field-independent basis, Debye-Ang**3):
 XXXX=          -2120.0631 YYYY=           -609.2715 ZZZZ=            -99.2024 XXXY=              0.0311
 XXXZ=             -0.0341 YYYX=             -0.0132 YYYZ=              0.7916 ZZZX=             -0.0015
 ZZZY=              0.0300 XXYY=           -506.7152 XXZZ=           -589.1176 YYZZ=           -145.6418
 XXYZ=              0.7704 YYXZ=             -0.0001 ZZXY=              0.0006
 N-N= 7.818802208807D+02 E-N=-2.800140142874D+03  KE= 5.375496182898D+02
 Unable to Open any file for archive entry.
 1\1\GINC-GADI-CPU-CLX-0113\SP\RM062X TD-FC\6-311++G(d,p)\C14H11(1+)\TS
 1578\28-Jul-2022\0\\#n M062X/6-311++G(d,p) TD(NStates=1) EmpiricalDisp
 ersion=GD3 SP\\SP_25\\1,1\C,0,-0.01075,2.493255,1.360431\C,0,-0.012575
 ,3.696308,0.671989\C,0,-0.0036,3.674811,-0.71383\C,0,0.011675,2.456381
 ,-1.407538\C,0,0.011725,-2.456281,-1.407538\C,0,-0.0033,-3.674311,-0.7
 1383\C,0,-0.0121,-3.696133,0.671989\C,0,-0.0098,-2.492955,1.360431\C,0
 ,-0.00655,-0.0011,1.453369\C,0,0.0183,0.00005,-1.429189\C,0,0.0027,1.2
 6778,0.677065\C,0,0.0076,1.236496,-0.730804\C,0,0.002775,-1.267805,0.6
 77065\C,0,0.0074,-1.236646,-0.730804\H,0,-0.0037,2.488571,2.443647\H,0
 ,-0.012775,4.632628,1.211689\H,0,0.0021,4.609912,-1.272349\H,0,0.00555
 ,2.46095,-2.490059\H,0,0.016875,0.000025,-2.510266\H,0,0.0054,-2.46087
 5,-2.490059\H,0,0.00225,-4.609287,-1.272349\H,0,-0.0122,-4.632253,1.21
 1689\H,0,-0.0026,-2.488246,2.443647\H,0,-0.883585,-0.00025,2.146062\H,
 0,0.835585,-0.00025,2.145512\\Version=ES64L-G16RevC.01\State=1-A\HF=-5
 39.7599158\RMSD=4.461e-09\PG=C01 [X(C14H11)]\\@
 The archive entry for this job was punched.


 NO MATTER HOW THIN YOU SLICE IT, IT'S STILL BALONEY

                                   -- ALFRED E. SMITH
 Job cpu time:       0 days  1 hours 19 minutes 36.1 seconds.
 Elapsed time:       0 days  0 hours  1 minutes 39.6 seconds.
 File lengths (MBytes):  RWF=    460 Int=      0 D2E=      0 Chk=     15 Scr=      1
 Normal termination of Gaussian 16 at Thu Jul 28 15:26:07 2022.
