 Entering Gaussian System, Link 0=g16
 Initial command:
 /apps/gaussian/g16c01/g16/l1.exe "/jobfs/53002009.gadi-pbs/Gau-805608.inp" -scrdir="/jobfs/53002009.gadi-pbs/"
 Entering Link 1 = /apps/gaussian/g16c01/g16/l1.exe PID=    805609.
  
 Copyright (c) 1988-2019, Gaussian, Inc.  All Rights Reserved.
  
 This is part of the Gaussian(R) 16 program.  It is based on
 the Gaussian(R) 09 system (copyright 2009, Gaussian, Inc.),
 the Gaussian(R) 03 system (copyright 2003, Gaussian, Inc.),
 the Gaussian(R) 98 system (copyright 1998, Gaussian, Inc.),
 the Gaussian(R) 94 system (copyright 1995, Gaussian, Inc.),
 the Gaussian 92(TM) system (copyright 1992, Gaussian, Inc.),
 the Gaussian 90(TM) system (copyright 1990, Gaussian, Inc.),
 the Gaussian 88(TM) system (copyright 1988, Gaussian, Inc.),
 the Gaussian 86(TM) system (copyright 1986, Carnegie Mellon
 University), and the Gaussian 82(TM) system (copyright 1983,
 Carnegie Mellon University). Gaussian is a federally registered
 trademark of Gaussian, Inc.
  
 This software contains proprietary and confidential information,
 including trade secrets, belonging to Gaussian, Inc.
  
 This software is provided under written license and may be
 used, copied, transmitted, or stored only in accord with that
 written license.
  
 The following legend is applicable only to US Government
 contracts under FAR:
  
                    RESTRICTED RIGHTS LEGEND
  
 Use, reproduction and disclosure by the US Government is
 subject to restrictions as set forth in subparagraphs (a)
 and (c) of the Commercial Computer Software - Restricted
 Rights clause in FAR 52.227-19.
  
 Gaussian, Inc.
 340 Quinnipiac St., Bldg. 40, Wallingford CT 06492
  
  
 ---------------------------------------------------------------
 Warning -- This program may not be used in any manner that
 competes with the business of Gaussian, Inc. or will provide
 assistance to any competitor of Gaussian, Inc.  The licensee
 of this program is prohibited from giving any competitor of
 Gaussian, Inc. access to this program.  By using this program,
 the user acknowledges that Gaussian, Inc. is engaged in the
 business of creating and licensing software in the field of
 computational chemistry and represents and warrants to the
 licensee that it is not a competitor of Gaussian, Inc. and that
 it will not use this program in any manner prohibited above.
 ---------------------------------------------------------------
  

 Cite this work as:
 Gaussian 16, Revision C.01,
 M. J. Frisch, G. W. Trucks, H. B. Schlegel, G. E. Scuseria, 
 M. A. Robb, J. R. Cheeseman, G. Scalmani, V. Barone, 
 G. A. Petersson, H. Nakatsuji, X. Li, M. Caricato, A. V. Marenich, 
 J. Bloino, B. G. Janesko, R. Gomperts, B. Mennucci, H. P. Hratchian, 
 J. V. Ortiz, A. F. Izmaylov, J. L. Sonnenberg, D. Williams-Young, 
 F. Ding, F. Lipparini, F. Egidi, J. Goings, B. Peng, A. Petrone, 
 T. Henderson, D. Ranasinghe, V. G. Zakrzewski, J. Gao, N. Rega, 
 G. Zheng, W. Liang, M. Hada, M. Ehara, K. Toyota, R. Fukuda, 
 J. Hasegawa, M. Ishida, T. Nakajima, Y. Honda, O. Kitao, H. Nakai, 
 T. Vreven, K. Throssell, J. A. Montgomery, Jr., J. E. Peralta, 
 F. Ogliaro, M. J. Bearpark, J. J. Heyd, E. N. Brothers, K. N. Kudin, 
 V. N. Staroverov, T. A. Keith, R. Kobayashi, J. Normand, 
 K. Raghavachari, A. P. Rendell, J. C. Burant, S. S. Iyengar, 
 J. Tomasi, M. Cossi, J. M. Millam, M. Klene, C. Adamo, R. Cammi, 
 J. W. Ochterski, R. L. Martin, K. Morokuma, O. Farkas, 
 J. B. Foresman, and D. J. Fox, Gaussian, Inc., Wallingford CT, 2019.
 
 ******************************************
 Gaussian 16:  ES64L-G16RevC.01  3-Jul-2019
                28-Jul-2022 
 ******************************************
 %NProcShared=48
 Will use up to   48 processors via shared memory.
 %mem = 190GB
 ---------------------------------------------------------------
 #n M062X/6-311++G(d,p) TD(NStates=1) EmpiricalDispersion=GD3 SP
 ---------------------------------------------------------------
 1/38=1,172=1/1;
 2/12=2,17=6,18=5,40=1/2;
 3/5=4,6=6,7=1111,11=9,25=1,30=1,74=-55,124=31/1,2,3,8;
 4//1;
 5/5=2,38=5/2;
 8/6=1,10=2,108=1/1;
 9/41=1,42=1,70=2/14;
 6/7=2,8=2,9=2,10=2/1;
 99/5=1,9=1/99;
 ------
 SP_125
 ------
 Symbolic Z-matrix:
 Charge =  1 Multiplicity = 1
 C                     0.00865   2.49086   1.36043 
 C                     0.00673   3.70231   0.67199 
 C                     0.0028    3.68421  -0.71383 
 C                    -0.00362   2.46488  -1.40754 
 C                    -0.00417  -2.46598  -1.40754 
 C                    -0.0005   -3.68971  -0.71383 
 C                     0.0015   -3.70423   0.67199 
 C                    -0.0018   -2.49416   1.36043 
 C                     0.00205   0.0121    1.45337 
 C                    -0.0061   -0.00055  -1.42919 
 C                    -0.0005    1.26028   0.67707 
 C                    -0.0036    1.2386   -0.7308 
 C                    -0.00132  -1.26      0.67707 
 C                    -0.0014   -1.23695  -0.7308 
 H                     0.0071    2.48617   2.44365 
 H                     0.00733   4.63613   1.21169 
 H                     0.0001    4.60571  -1.27235 
 H                    -0.00265   2.46935  -2.49006 
 H                    -0.00563  -0.00028  -2.51027 
 H                    -0.001    -2.47018  -2.49006 
 H                    -0.00155  -4.61259  -1.27235 
 H                     0.001    -4.64025   1.21169 
 H                    -0.005    -2.48975   2.44365 
 H                    -0.85159   0.00275   2.14276 
 H                     0.86759   0.00275   2.14881 
 
                          Input orientation:                          
 ---------------------------------------------------------------------
 Center     Atomic      Atomic             Coordinates (Angstroms)
 Number     Number       Type             X           Y           Z
 ---------------------------------------------------------------------
      1          6           0        0.008650    2.490855    1.360431
      2          6           0        0.006725    3.702308    0.671989
      3          6           0        0.002800    3.684211   -0.713830
      4          6           0       -0.003625    2.464881   -1.407538
      5          6           0       -0.004175   -2.465981   -1.407538
      6          6           0       -0.000500   -3.689711   -0.713830
      7          6           0        0.001500   -3.704233    0.671989
      8          6           0       -0.001800   -2.494155    1.360431
      9          6           0        0.002050    0.012100    1.453369
     10          6           0       -0.006100   -0.000550   -1.429189
     11          6           0       -0.000500    1.260280    0.677065
     12          6           0       -0.003600    1.238596   -0.730804
     13          6           0       -0.001325   -1.260005    0.677065
     14          6           0       -0.001400   -1.236946   -0.730804
     15          1           0        0.007100    2.486171    2.443647
     16          1           0        0.007325    4.636128    1.211689
     17          1           0        0.000100    4.605712   -1.272349
     18          1           0       -0.002650    2.469350   -2.490059
     19          1           0       -0.005625   -0.000275   -2.510266
     20          1           0       -0.001000   -2.470175   -2.490059
     21          1           0       -0.001550   -4.612587   -1.272349
     22          1           0        0.001000   -4.640253    1.211689
     23          1           0       -0.005000   -2.489746    2.443647
     24          1           0       -0.851585    0.002750    2.142762
     25          1           0        0.867585    0.002750    2.148812
 ---------------------------------------------------------------------
                    Distance matrix (angstroms):
                    1          2          3          4          5
     1  C    0.000000
     2  C    1.393404   0.000000
     3  C    2.393051   1.385943   0.000000
     4  C    2.768118   2.419869   1.402868   0.000000
     5  C    5.677327   6.509404   6.189196   4.930862   0.000000
     6  C    6.519359   7.520804   7.373923   6.193565   1.406684
     7  C    6.233227   7.406543   7.517287   6.510179   2.420275
     8  C    4.985021   6.234595   6.517268   5.679234   2.768113
     9  C    2.480505   3.772030   4.263936   3.768416   3.784932
    10  C    3.740227   4.257496   3.753569   2.465527   2.465527
    11  C    1.407618   2.442044   2.794645   2.407622   4.269731
    12  C    2.437533   2.835103   2.445682   1.400623   3.765881
    13  C    3.812616   4.962322   5.136135   4.268530   2.408310
    14  C    4.274326   5.134601   4.921188   3.763176   1.403034
    15  H    1.083227   2.148898   3.377126   3.851259   6.273401
    16  H    2.150424   1.078562   2.147973   3.402173   7.569705
    17  H    3.377014   2.143976   1.077550   2.145098   7.072986
    18  H    3.850567   3.393939   2.151954   1.082531   5.052657
    19  H    4.603067   4.882215   4.099108   2.700557   2.701059
    20  H    6.279983   6.935283   6.405581   5.052389   1.082534
    21  H    7.575653   8.539204   8.315577   7.078759   2.150860
    22  H    7.132663   8.360002   8.544257   7.572536   3.404091
    23  H    5.097051   6.440531   6.934513   6.275345   3.851258
    24  H    2.746400   4.072665   4.737430   4.402926   4.406514
    25  H    2.747723   4.075391   4.742966   4.412337   4.416132
                    6          7          8          9         10
     6  C    0.000000
     7  C    1.385897   0.000000
     8  C    2.394142   1.392211   0.000000
     9  C    4.289541   3.797589   2.507981   0.000000
    10  C    3.757882   4.258201   3.741666   2.882597   0.000000
    11  C    5.141692   4.964516   3.816120   1.469901   2.454797
    12  C    4.928337   5.138036   4.278633   2.504982   1.422403
    13  C    2.799654   2.444235   1.410715   1.490272   2.454090
    14  C    2.452824   2.838193   2.440049   2.516096   1.420014
    15  H    6.936226   6.438937   5.096772   2.664902   4.602479
    16  H    8.545600   8.357807   7.131840   4.630343   5.336028
    17  H    8.314204   8.534380   7.572295   5.341424   4.608936
    18  H    6.410072   6.936259   6.281931   4.646367   2.688097
    19  H    4.103553   4.883247   4.604536   3.963662   1.081077
    20  H    2.154590   3.394327   3.850565   4.659648   2.687846
    21  H    1.078724   2.146058   3.379243   5.368173   4.614705
    22  H    2.147360   1.080467   2.151248   4.658626   5.338645
    23  H    3.377810   2.147974   1.083230   2.690712   4.603798
    24  H    4.745391   4.078315   2.751129   1.097289   3.670652
    25  H    4.752111   4.083238   2.758969   1.110351   3.683127
                   11         12         13         14         15
    11  C    0.000000
    12  C    1.408039   0.000000
    13  C    2.520285   2.867945   0.000000
    14  C    2.866746   2.475543   1.408058   0.000000
    15  H    2.150274   3.410821   4.141825   4.892730   0.000000
    16  H    3.417928   3.913646   5.920328   6.185980   2.477910
    17  H    3.871967   3.410389   6.181169   5.867702   4.277982
    18  H    3.390063   2.147029   4.892726   4.102634   4.933744
    19  H    3.427551   2.168246   3.427246   2.166993   5.542908
    20  H    4.893564   4.104871   3.390455   2.148449   6.993346
    21  H    6.187955   5.876191   3.878147   3.418804   8.012557
    22  H    5.924704   6.191459   3.422266   3.918646   7.232128
    23  H    4.145302   4.896700   2.152461   3.412720   4.975932
    24  H    2.110449   3.240953   2.113234   3.242999   2.644854
    25  H    2.121554   3.252456   2.124993   3.253332   2.644757
                   16         17         18         19         20
    16  H    0.000000
    17  H    2.484235   0.000000
    18  H    4.289285   2.459038   0.000000
    19  H    5.945532   4.769443   2.469709   0.000000
    20  H    8.012649   7.179902   4.939525   2.469987   0.000000
    21  H    9.576495   9.218299   7.185865   4.775550   2.464294
    22  H    9.276383   9.573835   8.015573   5.948310   4.290942
    23  H    7.231594   8.009630   6.995291   5.544251   4.933746
    24  H    4.803417   5.794446   5.316751   4.729305   5.319951
    25  H    4.804835   5.800356   5.325462   4.740202   5.328126
                   21         22         23         24         25
    21  H    0.000000
    22  H    2.484193   0.000000
    23  H    4.279614   2.478394   0.000000
    24  H    5.804040   4.811577   2.649486   0.000000
    25  H    5.810428   4.815251   2.657229   1.719181   0.000000
 Stoichiometry    C14H11(1+)
 Framework group  C1[X(C14H11)]
 Deg. of freedom    69
 Full point group                 C1      NOp   1
 Largest Abelian subgroup         C1      NOp   1
 Largest concise Abelian subgroup C1      NOp   1
                         Standard orientation:                         
 ---------------------------------------------------------------------
 Center     Atomic      Atomic             Coordinates (Angstroms)
 Number     Number       Type             X           Y           Z
 ---------------------------------------------------------------------
      1          6           0       -2.491179   -1.359865    0.003907
      2          6           0       -3.702470   -0.671137    0.002724
      3          6           0       -3.684049    0.714683    0.001899
      4          6           0       -2.464554    1.408119   -0.002183
      5          6           0        2.466307    1.406968    0.000491
      6          6           0        3.689873    0.712967    0.003420
      7          6           0        3.704072   -0.672856    0.002341
      8          6           0        2.493837   -1.361006   -0.003284
      9          6           0       -0.012442   -1.453367   -0.001280
     10          6           0        0.000883    1.429199   -0.002998
     11          6           0       -1.260439   -0.676767   -0.002916
     12          6           0       -1.238426    0.731100   -0.002865
     13          6           0        1.259845   -0.677355   -0.002093
     14          6           0        1.237114    0.730516    0.000954
     15          1           0       -2.486745   -2.443075   -0.000054
     16          1           0       -4.636416   -1.210619    0.001511
     17          1           0       -4.605418    1.273422   -0.000159
     18          1           0       -2.468772    2.490636    0.001201
     19          1           0        0.000859    2.510272   -0.000114
     20          1           0        2.470751    2.489478    0.006081
     21          1           0        4.612880    1.271271    0.004218
     22          1           0        4.639967   -1.212772    0.001251
     23          1           0        2.489178   -2.444211   -0.008901
     24          1           0       -0.002693   -2.140858   -0.856442
     25          1           0       -0.003820   -2.150739    0.862709
 ---------------------------------------------------------------------
 Rotational constants (GHZ):           2.1362049           0.4442108           0.3685407
 Standard basis: 6-311++G(d,p) (5D, 7F)
 There are   399 symmetry adapted cartesian basis functions of A   symmetry.
 There are   385 symmetry adapted basis functions of A   symmetry.
   385 basis functions,   603 primitive gaussians,   399 cartesian basis functions
    47 alpha electrons       47 beta electrons
       nuclear repulsion energy       780.9671889361 Hartrees.
 NAtoms=   25 NActive=   25 NUniq=   25 SFac= 1.00D+00 NAtFMM=   60 NAOKFM=F Big=F
 Integral buffers will be    131072 words long.
 Regular integral format.
 Two-electron integral symmetry is turned on.
 Nuclear repulsion after empirical dispersion term =      780.9662093693 Hartrees.
 One-electron integrals computed using PRISM.
 NBasis=   385 RedAO= T EigKep=  1.13D-06  NBF=   385
 NBsUse=   379 1.00D-06 EigRej=  8.45D-07 NBFU=   379
 ExpMin= 3.60D-02 ExpMax= 4.56D+03 ExpMxC= 6.82D+02 IAcc=3 IRadAn=         5 AccDes= 0.00D+00
 Harris functional with IExCor= 1009 and IRadAn=       5 diagonalized for initial guess.
 HarFok:  IExCor= 1009 AccDes= 0.00D+00 IRadAn=         5 IDoV= 1 UseB2=F ITyADJ=14
 ICtDFT=  3500011 ScaDFX=  1.000000  1.000000  1.000000  1.000000
 FoFCou: FMM=F IPFlag=           0 FMFlag=      100000 FMFlg1=           0
         NFxFlg=           0 DoJE=T BraDBF=F KetDBF=T FulRan=T
         wScrn=  0.000000 ICntrl=       500 IOpCl=  0 I1Cent=   200000004 NGrid=           0
         NMat0=    1 NMatS0=      1 NMatT0=    0 NMatD0=    1 NMtDS0=    0 NMtDT0=    0
 Petite list used in FoFCou.
 Requested convergence on RMS density matrix=1.00D-08 within 128 cycles.
 Requested convergence on MAX density matrix=1.00D-06.
 Requested convergence on             energy=1.00D-06.
 No special actions if energy rises.
 SCF Done:  E(RM062X) =  -539.759870541     A.U. after   15 cycles
            NFock= 15  Conv=0.48D-08     -V/T= 2.0042
 DoSCS=F DFT=T ScalE2(SS,OS)=  1.000000  1.000000
 ExpMin= 3.60D-02 ExpMax= 4.56D+03 ExpMxC= 6.82D+02 IAcc=3 IRadAn=         5 AccDes= 0.00D+00
 HarFok:  IExCor=  205 AccDes= 0.00D+00 IRadAn=         5 IDoV=-2 UseB2=F ITyADJ=14
 ICtDFT= 12500011 ScaDFX=  1.000000  1.000000  1.000000  1.000000
 Range of M.O.s used for correlation:    15   379
 NBasis=   385 NAE=    47 NBE=    47 NFC=    14 NFV=     0
 NROrb=    365 NOA=    33 NOB=    33 NVA=   332 NVB=   332

 **** Warning!!: The largest alpha MO coefficient is  0.15125878D+03

 Orbital symmetries:
       Occupied  (A) (A) (A) (A) (A) (A) (A) (A) (A) (A) (A) (A)
                 (A) (A) (A) (A) (A) (A) (A) (A) (A) (A) (A) (A)
                 (A) (A) (A) (A) (A) (A) (A) (A) (A) (A) (A) (A)
                 (A) (A) (A) (A) (A) (A) (A) (A) (A) (A) (A)
       Virtual   (A) (A) (A) (A) (A) (A) (A) (A) (A) (A) (A) (A)
                 (A) (A) (A) (A) (A) (A) (A) (A) (A) (A) (A) (A)
                 (A) (A) (A) (A) (A) (A) (A) (A) (A) (A) (A) (A)
                 (A) (A) (A) (A) (A) (A) (A) (A) (A) (A) (A) (A)
                 (A) (A) (A) (A) (A) (A) (A) (A) (A) (A) (A) (A)
                 (A) (A) (A) (A) (A) (A) (A) (A) (A) (A) (A) (A)
                 (A) (A) (A) (A) (A) (A) (A) (A) (A) (A) (A) (A)
                 (A) (A) (A) (A) (A) (A) (A) (A) (A) (A) (A) (A)
                 (A) (A) (A) (A) (A) (A) (A) (A) (A) (A) (A) (A)
                 (A) (A) (A) (A) (A) (A) (A) (A) (A) (A) (A) (A)
                 (A) (A) (A) (A) (A) (A) (A) (A) (A) (A) (A) (A)
                 (A) (A) (A) (A) (A) (A) (A) (A) (A) (A) (A) (A)
                 (A) (A) (A) (A) (A) (A) (A) (A) (A) (A) (A) (A)
                 (A) (A) (A) (A) (A) (A) (A) (A) (A) (A) (A) (A)
                 (A) (A) (A) (A) (A) (A) (A) (A) (A) (A) (A) (A)
                 (A) (A) (A) (A) (A) (A) (A) (A) (A) (A) (A) (A)
                 (A) (A) (A) (A) (A) (A) (A) (A) (A) (A) (A) (A)
                 (A) (A) (A) (A) (A) (A) (A) (A) (A) (A) (A) (A)
                 (A) (A) (A) (A) (A) (A) (A) (A) (A) (A) (A) (A)
                 (A) (A) (A) (A) (A) (A) (A) (A) (A) (A) (A) (A)
                 (A) (A) (A) (A) (A) (A) (A) (A) (A) (A) (A) (A)
                 (A) (A) (A) (A) (A) (A) (A) (A) (A) (A) (A) (A)
                 (A) (A) (A) (A) (A) (A) (A) (A) (A) (A) (A) (A)
                 (A) (A) (A) (A) (A) (A) (A) (A) (A) (A) (A) (A)
                 (A) (A) (A) (A) (A) (A) (A) (A) (A) (A) (A) (A)
                 (A) (A) (A) (A) (A) (A) (A) (A) (A) (A) (A) (A)
                 (A) (A) (A) (A) (A) (A) (A) (A) (A) (A) (A) (A)
                 (A) (A) (A) (A) (A) (A) (A) (A)
     4 initial guesses have been made.
 Convergence on wavefunction:    0.001000000000000
 Iteration     1 Dimension     4 NMult     0 NNew      4
 CISAX will form     4 AO SS matrices at one time.
 Iteration     2 Dimension     6 NMult     4 NNew      2
 Iteration     3 Dimension     8 NMult     6 NNew      2
 Iteration     4 Dimension    10 NMult     8 NNew      2
 Iteration     5 Dimension    12 NMult    10 NNew      2
 Iteration     6 Dimension    14 NMult    12 NNew      2
 ***********************************************************************
 Excited states from <AA,BB:AA,BB> singles matrix:
 ***********************************************************************
 
 Ground to excited state transition densities written to RWF  633
 Ground to excited state transition electric dipole moments (Au):
       state          X           Y           Z        Dip. S.      Osc.
         1        -0.0160     -0.6426      0.0013      0.4132      0.0285
 Ground to excited state transition velocity dipole moments (Au):
       state          X           Y           Z        Dip. S.      Osc.
         1         0.0017      0.0743     -0.0002      0.0055      0.0355
 Ground to excited state transition magnetic dipole moments (Au):
       state          X           Y           Z
         1        -0.0012     -0.0011      0.0005
 Ground to excited state transition velocity quadrupole moments (Au):
       state          XX          YY          ZZ          XY          XZ          YZ
         1         0.3003      0.0345     -0.0098      0.0024      0.0001      0.0004
 <0|del|b> * <b|rxdel|0> + <0|del|b> * <b|delr+rdel|0>
 Rotatory Strengths (R) in cgs (10**-40 erg-esu-cm/Gauss)
       state          XX          YY          ZZ    R(velocity)    E-M Angle
         1        -0.3219     -0.0035     -0.2706     -0.1987       90.00
 1/2[<0|r|b>*<b|rxdel|0> + (<0|rxdel|b>*<b|r|0>)*]
 Rotatory Strengths (R) in cgs (10**-40 erg-esu-cm/Gauss)
       state          XX          YY          ZZ     R(length)
         1        -0.0134     -0.5210     -0.0005     -0.1783
  1/2[<0|del|b>*<b|r|0> + (<0|r|b>*<b|del|0>)*] (Au)
       state          X           Y           Z        Dip. S.   Osc.(frdel)
         1        -0.0000     -0.0477     -0.0000      0.0478      0.0318

 Excitation energies and oscillator strengths:
 
 Excited State   1:      Singlet-A      2.8186 eV  439.87 nm  f=0.0285  <S**2>=0.000
      47 -> 48         0.70426
 This state for optimization and/or second-order correction.
 Total Energy, E(TD-HF/TD-DFT) =  -539.656287318    
 Copying the excited state density for this state as the 1-particle RhoCI density.
 SavETr:  write IOETrn=   770 NScale= 10 NData=  16 NLR=1 NState=    1 LETran=      28.

 **********************************************************************

            Population analysis using the SCF Density.

 **********************************************************************

 Orbital symmetries:
       Occupied  (A) (A) (A) (A) (A) (A) (A) (A) (A) (A) (A) (A)
                 (A) (A) (A) (A) (A) (A) (A) (A) (A) (A) (A) (A)
                 (A) (A) (A) (A) (A) (A) (A) (A) (A) (A) (A) (A)
                 (A) (A) (A) (A) (A) (A) (A) (A) (A) (A) (A)
       Virtual   (A) (A) (A) (A) (A) (A) (A) (A) (A) (A) (A) (A)
                 (A) (A) (A) (A) (A) (A) (A) (A) (A) (A) (A) (A)
                 (A) (A) (A) (A) (A) (A) (A) (A) (A) (A) (A) (A)
                 (A) (A) (A) (A) (A) (A) (A) (A) (A) (A) (A) (A)
                 (A) (A) (A) (A) (A) (A) (A) (A) (A) (A) (A) (A)
                 (A) (A) (A) (A) (A) (A) (A) (A) (A) (A) (A) (A)
                 (A) (A) (A) (A) (A) (A) (A) (A) (A) (A) (A) (A)
                 (A) (A) (A) (A) (A) (A) (A) (A) (A) (A) (A) (A)
                 (A) (A) (A) (A) (A) (A) (A) (A) (A) (A) (A) (A)
                 (A) (A) (A) (A) (A) (A) (A) (A) (A) (A) (A) (A)
                 (A) (A) (A) (A) (A) (A) (A) (A) (A) (A) (A) (A)
                 (A) (A) (A) (A) (A) (A) (A) (A) (A) (A) (A) (A)
                 (A) (A) (A) (A) (A) (A) (A) (A) (A) (A) (A) (A)
                 (A) (A) (A) (A) (A) (A) (A) (A) (A) (A) (A) (A)
                 (A) (A) (A) (A) (A) (A) (A) (A) (A) (A) (A) (A)
                 (A) (A) (A) (A) (A) (A) (A) (A) (A) (A) (A) (A)
                 (A) (A) (A) (A) (A) (A) (A) (A) (A) (A) (A) (A)
                 (A) (A) (A) (A) (A) (A) (A) (A) (A) (A) (A) (A)
                 (A) (A) (A) (A) (A) (A) (A) (A) (A) (A) (A) (A)
                 (A) (A) (A) (A) (A) (A) (A) (A) (A) (A) (A) (A)
                 (A) (A) (A) (A) (A) (A) (A) (A) (A) (A) (A) (A)
                 (A) (A) (A) (A) (A) (A) (A) (A) (A) (A) (A) (A)
                 (A) (A) (A) (A) (A) (A) (A) (A) (A) (A) (A) (A)
                 (A) (A) (A) (A) (A) (A) (A) (A) (A) (A) (A) (A)
                 (A) (A) (A) (A) (A) (A) (A) (A) (A) (A) (A) (A)
                 (A) (A) (A) (A) (A) (A) (A) (A) (A) (A) (A) (A)
                 (A) (A) (A) (A) (A) (A) (A) (A) (A) (A) (A) (A)
                 (A) (A) (A) (A) (A) (A) (A) (A)
 The electronic state is 1-A.
 Alpha  occ. eigenvalues --  -10.77663 -10.73324 -10.73171 -10.72460 -10.72453
 Alpha  occ. eigenvalues --  -10.71435 -10.71354 -10.71033 -10.71007 -10.70980
 Alpha  occ. eigenvalues --  -10.70030 -10.69971 -10.69658 -10.69584  -1.16427
 Alpha  occ. eigenvalues --   -1.12413  -1.06917  -1.05753  -1.01263  -1.00188
 Alpha  occ. eigenvalues --   -0.95762  -0.91061  -0.86418  -0.85890  -0.83814
 Alpha  occ. eigenvalues --   -0.78396  -0.76025  -0.74408  -0.69568  -0.69256
 Alpha  occ. eigenvalues --   -0.68519  -0.68210  -0.68119  -0.64699  -0.64253
 Alpha  occ. eigenvalues --   -0.63101  -0.61892  -0.59986  -0.59638  -0.59107
 Alpha  occ. eigenvalues --   -0.56903  -0.55241  -0.54836  -0.52417  -0.46589
 Alpha  occ. eigenvalues --   -0.46057  -0.44478
 Alpha virt. eigenvalues --   -0.26083  -0.14698  -0.14105  -0.12805  -0.11178
 Alpha virt. eigenvalues --   -0.10085  -0.09226  -0.07985  -0.07963  -0.07474
 Alpha virt. eigenvalues --   -0.07204  -0.07149  -0.05644  -0.05582  -0.05337
 Alpha virt. eigenvalues --   -0.03818  -0.03641  -0.03280  -0.03133  -0.02164
 Alpha virt. eigenvalues --   -0.01366  -0.00925   0.00191   0.00601   0.00669
 Alpha virt. eigenvalues --    0.01053   0.01513   0.01932   0.02216   0.02288
 Alpha virt. eigenvalues --    0.02445   0.02676   0.02719   0.03322   0.03380
 Alpha virt. eigenvalues --    0.04243   0.04504   0.04693   0.05016   0.05362
 Alpha virt. eigenvalues --    0.06037   0.06294   0.06595   0.07043   0.07248
 Alpha virt. eigenvalues --    0.07885   0.08140   0.08363   0.08524   0.08930
 Alpha virt. eigenvalues --    0.09549   0.09561   0.10032   0.10796   0.11074
 Alpha virt. eigenvalues --    0.11118   0.12168   0.12260   0.12908   0.12982
 Alpha virt. eigenvalues --    0.13414   0.13529   0.14020   0.14360   0.16208
 Alpha virt. eigenvalues --    0.16260   0.16421   0.17355   0.17621   0.17786
 Alpha virt. eigenvalues --    0.18117   0.19050   0.19221   0.19626   0.19722
 Alpha virt. eigenvalues --    0.21533   0.21581   0.22731   0.23113   0.23556
 Alpha virt. eigenvalues --    0.23774   0.24570   0.25303   0.26913   0.27578
 Alpha virt. eigenvalues --    0.28844   0.29289   0.29858   0.31336   0.35808
 Alpha virt. eigenvalues --    0.36399   0.38160   0.39250   0.41162   0.41422
 Alpha virt. eigenvalues --    0.41963   0.42231   0.42993   0.43650   0.44298
 Alpha virt. eigenvalues --    0.44904   0.44988   0.46080   0.46103   0.47947
 Alpha virt. eigenvalues --    0.48544   0.48872   0.49038   0.50431   0.51140
 Alpha virt. eigenvalues --    0.51554   0.51635   0.52114   0.52847   0.53979
 Alpha virt. eigenvalues --    0.54098   0.54618   0.55687   0.55760   0.57471
 Alpha virt. eigenvalues --    0.58231   0.58807   0.61432   0.62169   0.62351
 Alpha virt. eigenvalues --    0.63177   0.63508   0.64943   0.65147   0.67248
 Alpha virt. eigenvalues --    0.70401   0.70626   0.71009   0.72382   0.72846
 Alpha virt. eigenvalues --    0.75765   0.75993   0.76257   0.76884   0.77080
 Alpha virt. eigenvalues --    0.77806   0.77833   0.78222   0.79942   0.80397
 Alpha virt. eigenvalues --    0.81222   0.81648   0.82119   0.82991   0.85158
 Alpha virt. eigenvalues --    0.87125   0.88168   0.88453   0.89189   0.90401
 Alpha virt. eigenvalues --    0.91040   0.91275   0.93156   0.94633   0.96451
 Alpha virt. eigenvalues --    0.96628   1.00428   1.01271   1.01651   1.02673
 Alpha virt. eigenvalues --    1.03175   1.03847   1.04708   1.05453   1.08753
 Alpha virt. eigenvalues --    1.19611   1.23291   1.24050   1.25271   1.27980
 Alpha virt. eigenvalues --    1.29615   1.31831   1.34216   1.35711   1.35979
 Alpha virt. eigenvalues --    1.39304   1.40179   1.40888   1.42966   1.43392
 Alpha virt. eigenvalues --    1.43504   1.45115   1.45330   1.46372   1.46698
 Alpha virt. eigenvalues --    1.47615   1.47935   1.51705   1.53618   1.55754
 Alpha virt. eigenvalues --    1.55817   1.56276   1.56549   1.57738   1.61399
 Alpha virt. eigenvalues --    1.63274   1.63627   1.63813   1.66083   1.68247
 Alpha virt. eigenvalues --    1.68390   1.68676   1.69729   1.74309   1.75978
 Alpha virt. eigenvalues --    1.77138   1.78026   1.80005   1.80022   1.80591
 Alpha virt. eigenvalues --    1.83147   1.83200   1.83612   1.83762   1.84175
 Alpha virt. eigenvalues --    1.84255   1.85848   1.86011   1.88191   1.91409
 Alpha virt. eigenvalues --    1.92012   1.94133   1.95208   1.97629   1.98056
 Alpha virt. eigenvalues --    1.99653   2.02426   2.04343   2.07335   2.11716
 Alpha virt. eigenvalues --    2.12095   2.14052   2.15196   2.18971   2.21226
 Alpha virt. eigenvalues --    2.22675   2.28570   2.30069   2.34624   2.34967
 Alpha virt. eigenvalues --    2.36187   2.38791   2.39766   2.42316   2.44296
 Alpha virt. eigenvalues --    2.46410   2.46546   2.49249   2.52842   2.53796
 Alpha virt. eigenvalues --    2.54235   2.56819   2.57828   2.58287   2.59634
 Alpha virt. eigenvalues --    2.59776   2.61621   2.62056   2.63487   2.63778
 Alpha virt. eigenvalues --    2.64745   2.65073   2.65195   2.65252   2.67924
 Alpha virt. eigenvalues --    2.68615   2.70930   2.71404   2.73334   2.74820
 Alpha virt. eigenvalues --    2.76285   2.78640   2.79683   2.82780   2.83027
 Alpha virt. eigenvalues --    2.84770   2.86283   2.92097   2.96976   2.99451
 Alpha virt. eigenvalues --    2.99987   3.05174   3.10911   3.11280   3.12848
 Alpha virt. eigenvalues --    3.20837   3.23954   3.26564   3.28127   3.30659
 Alpha virt. eigenvalues --    3.32607   3.33499   3.43383   3.45810   3.46318
 Alpha virt. eigenvalues --    3.48342   3.49978   3.56445   3.65803   3.66781
 Alpha virt. eigenvalues --    3.67562   3.94436   3.94568   3.95407   3.96273
 Alpha virt. eigenvalues --    4.04118   4.06868   4.07429   4.12537   4.35548
 Alpha virt. eigenvalues --    4.61397   4.69652   4.71464  23.45389  23.60697
 Alpha virt. eigenvalues --   23.82115  23.85510  23.88003  23.89220  23.90528
 Alpha virt. eigenvalues --   23.92293  23.97589  23.99045  23.99612  23.99958
 Alpha virt. eigenvalues --   24.10183  24.10544
          Condensed to atoms (all electrons):
               1          2          3          4          5          6
     1  C    8.579934   0.320112  -0.534767   1.944230  -0.017311  -0.094592
     2  C    0.320112   7.150485   0.357377  -1.080931  -0.016447  -0.014188
     3  C   -0.534767   0.357377   6.586283   0.766410  -0.125696   0.016808
     4  C    1.944230  -1.080931   0.766410  10.966421  -0.349945  -0.121300
     5  C   -0.017311  -0.016447  -0.125696  -0.349945  11.024121   0.734851
     6  C   -0.094592  -0.014188   0.016808  -0.121300   0.734851   6.577251
     7  C   -0.021898   0.001509  -0.014382  -0.019176  -1.058541   0.349862
     8  C    0.403413  -0.015626  -0.095035  -0.038651   2.002949  -0.554187
     9  C   -1.189046  -0.808508   0.292066  -0.244169  -0.192576   0.297196
    10  C   -1.276985   0.253568  -0.359997  -2.566387  -2.566148  -0.338691
    11  C    0.329232  -0.917276   1.016816  -0.300001  -1.510837  -0.166689
    12  C   -2.025753   1.355018  -1.412109  -1.512237  -0.334567  -0.201489
    13  C    0.186802  -0.257787  -0.171846  -1.498908  -0.321169   1.014696
    14  C   -1.092995  -0.198963  -0.199831  -0.307586  -1.629405  -1.375343
    15  H    0.365758  -0.106808  -0.001047   0.027431   0.005738   0.001087
    16  H   -0.020870   0.379793  -0.016602   0.013197  -0.001517  -0.000322
    17  H   -0.025189  -0.016211   0.376053  -0.067703   0.000266   0.000394
    18  H    0.049648   0.002708  -0.084512   0.457462   0.006719  -0.005009
    19  H   -0.046770  -0.007750   0.051540  -0.069485  -0.072916   0.051284
    20  H    0.007354   0.002030  -0.005102   0.006460   0.456999  -0.086207
    21  H   -0.001330  -0.000399   0.000400   0.000289  -0.067922   0.375752
    22  H    0.000784   0.000368  -0.000327  -0.001532   0.013906  -0.017541
    23  H    0.005757  -0.002719   0.001105   0.005655   0.027526  -0.001305
    24  H    0.028218   0.013432  -0.002057  -0.010937  -0.013638  -0.001262
    25  H    0.038097   0.015669  -0.000823  -0.013403  -0.011355  -0.001848
               7          8          9         10         11         12
     1  C   -0.021898   0.403413  -1.189046  -1.276985   0.329232  -2.025753
     2  C    0.001509  -0.015626  -0.808508   0.253568  -0.917276   1.355018
     3  C   -0.014382  -0.095035   0.292066  -0.359997   1.016816  -1.412109
     4  C   -0.019176  -0.038651  -0.244169  -2.566387  -0.300001  -1.512237
     5  C   -1.058541   2.002949  -0.192576  -2.566148  -1.510837  -0.334567
     6  C    0.349862  -0.554187   0.297196  -0.338691  -0.166689  -0.201489
     7  C    7.095887   0.320202  -0.796925   0.242527  -0.232986  -0.191056
     8  C    0.320202   8.576278  -1.131581  -1.278650   0.213576  -1.056798
     9  C   -0.796925  -1.131581   9.581378   0.253520   1.642925  -1.925453
    10  C    0.242527  -1.278650   0.253520   9.143868  -0.442735   2.391449
    11  C   -0.232986   0.213576   1.642925  -0.442735  14.416830  -3.768725
    12  C   -0.191056  -1.056798  -1.925453   2.391449  -3.768725  15.978306
    13  C   -0.898234   0.247213   1.599042  -0.434273   1.095627  -4.840539
    14  C    1.343710  -2.091632  -1.966226   2.424297  -4.785725   3.066839
    15  H   -0.002585   0.005645   0.091006  -0.009644  -0.029506  -0.023628
    16  H    0.000356   0.000624   0.002917  -0.009183   0.025817  -0.030887
    17  H   -0.000395  -0.001290  -0.005723   0.020520  -0.027904   0.092155
    18  H    0.002034   0.007042  -0.024991   0.013055  -0.008048  -0.052720
    19  H   -0.007811  -0.046797   0.075472   0.422008   0.080511  -0.066343
    20  H    0.003876   0.050092  -0.024558   0.013740  -0.011974  -0.013178
    21  H   -0.017096  -0.024498  -0.005684   0.020416  -0.006107   0.005256
    22  H    0.378497  -0.018092   0.003936  -0.009511   0.003028  -0.009103
    23  H   -0.105528   0.368205   0.092382  -0.009662   0.001488   0.006446
    24  H    0.015878   0.033544   0.357919   0.005260   0.013659  -0.059288
    25  H    0.012763   0.030588   0.355473   0.005617   0.014172  -0.061076
              13         14         15         16         17         18
     1  C    0.186802  -1.092995   0.365758  -0.020870  -0.025189   0.049648
     2  C   -0.257787  -0.198963  -0.106808   0.379793  -0.016211   0.002708
     3  C   -0.171846  -0.199831  -0.001047  -0.016602   0.376053  -0.084512
     4  C   -1.498908  -0.307586   0.027431   0.013197  -0.067703   0.457462
     5  C   -0.321169  -1.629405   0.005738  -0.001517   0.000266   0.006719
     6  C    1.014696  -1.375343   0.001087  -0.000322   0.000394  -0.005009
     7  C   -0.898234   1.343710  -0.002585   0.000356  -0.000395   0.002034
     8  C    0.247213  -2.091632   0.005645   0.000624  -0.001290   0.007042
     9  C    1.599042  -1.966226   0.091006   0.002917  -0.005723  -0.024991
    10  C   -0.434273   2.424297  -0.009644  -0.009183   0.020520   0.013055
    11  C    1.095627  -4.785725  -0.029506   0.025817  -0.027904  -0.008048
    12  C   -4.840539   3.066839  -0.023628  -0.030887   0.092155  -0.052720
    13  C   14.588974  -3.728912   0.001692   0.002983  -0.006402  -0.012122
    14  C   -3.728912  16.079004   0.006617  -0.008919   0.005295  -0.013800
    15  H    0.001692   0.006617   0.439385  -0.008991   0.001495   0.000173
    16  H    0.002983  -0.008919  -0.008991   0.419589  -0.006709   0.001900
    17  H   -0.006402   0.005295   0.001495  -0.006709   0.423122  -0.010400
    18  H   -0.012122  -0.013800   0.000173   0.001900  -0.010400   0.453529
    19  H    0.078236  -0.065615   0.000299  -0.000546   0.001437  -0.006203
    20  H   -0.008493  -0.053885  -0.000115   0.000015  -0.000145   0.001271
    21  H   -0.026599   0.090936   0.000014  -0.000007   0.000011  -0.000143
    22  H    0.026911  -0.034310  -0.000127   0.000007  -0.000007   0.000015
    23  H   -0.031236  -0.025676   0.000575  -0.000128   0.000014  -0.000112
    24  H    0.011269  -0.055969  -0.001096   0.000705  -0.000167   0.000214
    25  H    0.015045  -0.064160  -0.000704   0.000557  -0.000119   0.000146
              19         20         21         22         23         24
     1  C   -0.046770   0.007354  -0.001330   0.000784   0.005757   0.028218
     2  C   -0.007750   0.002030  -0.000399   0.000368  -0.002719   0.013432
     3  C    0.051540  -0.005102   0.000400  -0.000327   0.001105  -0.002057
     4  C   -0.069485   0.006460   0.000289  -0.001532   0.005655  -0.010937
     5  C   -0.072916   0.456999  -0.067922   0.013906   0.027526  -0.013638
     6  C    0.051284  -0.086207   0.375752  -0.017541  -0.001305  -0.001262
     7  C   -0.007811   0.003876  -0.017096   0.378497  -0.105528   0.015878
     8  C   -0.046797   0.050092  -0.024498  -0.018092   0.368205   0.033544
     9  C    0.075472  -0.024558  -0.005684   0.003936   0.092382   0.357919
    10  C    0.422008   0.013740   0.020416  -0.009511  -0.009662   0.005260
    11  C    0.080511  -0.011974  -0.006107   0.003028   0.001488   0.013659
    12  C   -0.066343  -0.013178   0.005256  -0.009103   0.006446  -0.059288
    13  C    0.078236  -0.008493  -0.026599   0.026911  -0.031236   0.011269
    14  C   -0.065615  -0.053885   0.090936  -0.034310  -0.025676  -0.055969
    15  H    0.000299  -0.000115   0.000014  -0.000127   0.000575  -0.001096
    16  H   -0.000546   0.000015  -0.000007   0.000007  -0.000128   0.000705
    17  H    0.001437  -0.000145   0.000011  -0.000007   0.000014  -0.000167
    18  H   -0.006203   0.001271  -0.000143   0.000015  -0.000112   0.000214
    19  H    0.443275  -0.006351   0.001428  -0.000543   0.000317   0.000590
    20  H   -0.006351   0.453682  -0.010231   0.001954   0.000157   0.000157
    21  H    0.001428  -0.010231   0.422530  -0.006644   0.001474  -0.000141
    22  H   -0.000543   0.001954  -0.006644   0.419502  -0.009048   0.000610
    23  H    0.000317   0.000157   0.001474  -0.009048   0.439058  -0.000866
    24  H    0.000590   0.000157  -0.000141   0.000610  -0.000866   0.493395
    25  H    0.000613   0.000206  -0.000144   0.000642  -0.000986  -0.079522
              25
     1  C    0.038097
     2  C    0.015669
     3  C   -0.000823
     4  C   -0.013403
     5  C   -0.011355
     6  C   -0.001848
     7  C    0.012763
     8  C    0.030588
     9  C    0.355473
    10  C    0.005617
    11  C    0.014172
    12  C   -0.061076
    13  C    0.015045
    14  C   -0.064160
    15  H   -0.000704
    16  H    0.000557
    17  H   -0.000119
    18  H    0.000146
    19  H    0.000613
    20  H    0.000206
    21  H   -0.000144
    22  H    0.000642
    23  H   -0.000986
    24  H   -0.079522
    25  H    0.493769
 Mulliken charges:
               1
     1  C    0.088168
     2  C   -0.408455
     3  C   -0.440725
     4  C    0.014795
     5  C    0.016914
     6  C   -0.439209
     7  C   -0.400488
     8  C    0.093465
     9  C   -0.329791
    10  C    0.092022
    11  C   -0.645169
    12  C    0.689479
    13  C   -0.631970
    14  C    0.682253
    15  H    0.237338
    16  H    0.256222
    17  H    0.247601
    18  H    0.222145
    19  H    0.190120
    20  H    0.222244
    21  H    0.248439
    22  H    0.256623
    23  H    0.237106
    24  H    0.250093
    25  H    0.250781
 Sum of Mulliken charges =   1.00000
 Mulliken charges with hydrogens summed into heavy atoms:
               1
     1  C    0.325506
     2  C   -0.152234
     3  C   -0.193124
     4  C    0.236940
     5  C    0.239158
     6  C   -0.190770
     7  C   -0.143866
     8  C    0.330571
     9  C    0.171083
    10  C    0.282142
    11  C   -0.645169
    12  C    0.689479
    13  C   -0.631970
    14  C    0.682253
 Electronic spatial extent (au):  <R**2>=           2857.8798
 Charge=              1.0000 electrons
 Dipole moment (field-independent basis, Debye):
    X=              0.0146    Y=              0.1884    Z=             -0.0006  Tot=              0.1890
 Quadrupole moment (field-independent basis, Debye-Ang):
   XX=            -31.0726   YY=            -56.2620   ZZ=            -84.1580
   XY=              0.0081   XZ=              0.0135   YZ=              0.0221
 Traceless Quadrupole moment (field-independent basis, Debye-Ang):
   XX=             26.0916   YY=              0.9022   ZZ=            -26.9938
   XY=              0.0081   XZ=              0.0135   YZ=              0.0221
 Octapole moment (field-independent basis, Debye-Ang**2):
  XXX=              0.6036  YYY=              5.2093  ZZZ=             -0.0150  XYY=             -0.0057
  XXY=             -5.0127  XXZ=              0.0426  XZZ=             -0.0730  YZZ=             -3.0875
  YYZ=              0.0456  XYZ=              0.0678
 Hexadecapole moment (field-independent basis, Debye-Ang**3):
 XXXX=          -2123.2343 YYYY=           -609.2531 ZZZZ=            -99.3843 XXXY=              0.3421
 XXXZ=              0.3818 YYYX=             -0.1423 YYYZ=              0.2127 ZZZX=              0.0177
 ZZZY=              0.0209 XXYY=           -508.0552 XXZZ=           -591.3007 YYZZ=           -145.7247
 XXYZ=              0.2706 YYXZ=              0.0009 ZZXY=              0.0069
 N-N= 7.809662093693D+02 E-N=-2.798261228808D+03  KE= 5.374916702403D+02
 Unable to Open any file for archive entry.
 1\1\GINC-GADI-CPU-CLX-0113\SP\RM062X TD-FC\6-311++G(d,p)\C14H11(1+)\TS
 1578\28-Jul-2022\0\\#n M062X/6-311++G(d,p) TD(NStates=1) EmpiricalDisp
 ersion=GD3 SP\\SP_125\\1,1\C,0,0.00865,2.490855,1.360431\C,0,0.006725,
 3.702308,0.671989\C,0,0.0028,3.684211,-0.71383\C,0,-0.003625,2.464881,
 -1.407538\C,0,-0.004175,-2.465981,-1.407538\C,0,-0.0005,-3.689711,-0.7
 1383\C,0,0.0015,-3.704233,0.671989\C,0,-0.0018,-2.494155,1.360431\C,0,
 0.00205,0.0121,1.453369\C,0,-0.0061,-0.00055,-1.429189\C,0,-0.0005,1.2
 6028,0.677065\C,0,-0.0036,1.238596,-0.730804\C,0,-0.001325,-1.260005,0
 .677065\C,0,-0.0014,-1.236946,-0.730804\H,0,0.0071,2.486171,2.443647\H
 ,0,0.007325,4.636128,1.211689\H,0,0.0001,4.605712,-1.272349\H,0,-0.002
 65,2.46935,-2.490059\H,0,-0.005625,-0.000275,-2.510266\H,0,-0.001,-2.4
 70175,-2.490059\H,0,-0.00155,-4.612587,-1.272349\H,0,0.001,-4.640253,1
 .211689\H,0,-0.005,-2.489746,2.443647\H,0,-0.851585,0.00275,2.142762\H
 ,0,0.867585,0.00275,2.148812\\Version=ES64L-G16RevC.01\State=1-A\HF=-5
 39.7598705\RMSD=4.808e-09\PG=C01 [X(C14H11)]\\@
 The archive entry for this job was punched.


 Spring appears, and we are once more children.
                                  -- Anonymous
 Job cpu time:       0 days  1 hours 19 minutes 36.5 seconds.
 Elapsed time:       0 days  0 hours  1 minutes 39.8 seconds.
 File lengths (MBytes):  RWF=    460 Int=      0 D2E=      0 Chk=     15 Scr=      1
 Normal termination of Gaussian 16 at Thu Jul 28 17:03:26 2022.
