 Entering Gaussian System, Link 0=g16
 Initial command:
 /apps/gaussian/g16c01/g16/l1.exe "/jobfs/53002009.gadi-pbs/Gau-740178.inp" -scrdir="/jobfs/53002009.gadi-pbs/"
 Entering Link 1 = /apps/gaussian/g16c01/g16/l1.exe PID=    740179.
  
 Copyright (c) 1988-2019, Gaussian, Inc.  All Rights Reserved.
  
 This is part of the Gaussian(R) 16 program.  It is based on
 the Gaussian(R) 09 system (copyright 2009, Gaussian, Inc.),
 the Gaussian(R) 03 system (copyright 2003, Gaussian, Inc.),
 the Gaussian(R) 98 system (copyright 1998, Gaussian, Inc.),
 the Gaussian(R) 94 system (copyright 1995, Gaussian, Inc.),
 the Gaussian 92(TM) system (copyright 1992, Gaussian, Inc.),
 the Gaussian 90(TM) system (copyright 1990, Gaussian, Inc.),
 the Gaussian 88(TM) system (copyright 1988, Gaussian, Inc.),
 the Gaussian 86(TM) system (copyright 1986, Carnegie Mellon
 University), and the Gaussian 82(TM) system (copyright 1983,
 Carnegie Mellon University). Gaussian is a federally registered
 trademark of Gaussian, Inc.
  
 This software contains proprietary and confidential information,
 including trade secrets, belonging to Gaussian, Inc.
  
 This software is provided under written license and may be
 used, copied, transmitted, or stored only in accord with that
 written license.
  
 The following legend is applicable only to US Government
 contracts under FAR:
  
                    RESTRICTED RIGHTS LEGEND
  
 Use, reproduction and disclosure by the US Government is
 subject to restrictions as set forth in subparagraphs (a)
 and (c) of the Commercial Computer Software - Restricted
 Rights clause in FAR 52.227-19.
  
 Gaussian, Inc.
 340 Quinnipiac St., Bldg. 40, Wallingford CT 06492
  
  
 ---------------------------------------------------------------
 Warning -- This program may not be used in any manner that
 competes with the business of Gaussian, Inc. or will provide
 assistance to any competitor of Gaussian, Inc.  The licensee
 of this program is prohibited from giving any competitor of
 Gaussian, Inc. access to this program.  By using this program,
 the user acknowledges that Gaussian, Inc. is engaged in the
 business of creating and licensing software in the field of
 computational chemistry and represents and warrants to the
 licensee that it is not a competitor of Gaussian, Inc. and that
 it will not use this program in any manner prohibited above.
 ---------------------------------------------------------------
  

 Cite this work as:
 Gaussian 16, Revision C.01,
 M. J. Frisch, G. W. Trucks, H. B. Schlegel, G. E. Scuseria, 
 M. A. Robb, J. R. Cheeseman, G. Scalmani, V. Barone, 
 G. A. Petersson, H. Nakatsuji, X. Li, M. Caricato, A. V. Marenich, 
 J. Bloino, B. G. Janesko, R. Gomperts, B. Mennucci, H. P. Hratchian, 
 J. V. Ortiz, A. F. Izmaylov, J. L. Sonnenberg, D. Williams-Young, 
 F. Ding, F. Lipparini, F. Egidi, J. Goings, B. Peng, A. Petrone, 
 T. Henderson, D. Ranasinghe, V. G. Zakrzewski, J. Gao, N. Rega, 
 G. Zheng, W. Liang, M. Hada, M. Ehara, K. Toyota, R. Fukuda, 
 J. Hasegawa, M. Ishida, T. Nakajima, Y. Honda, O. Kitao, H. Nakai, 
 T. Vreven, K. Throssell, J. A. Montgomery, Jr., J. E. Peralta, 
 F. Ogliaro, M. J. Bearpark, J. J. Heyd, E. N. Brothers, K. N. Kudin, 
 V. N. Staroverov, T. A. Keith, R. Kobayashi, J. Normand, 
 K. Raghavachari, A. P. Rendell, J. C. Burant, S. S. Iyengar, 
 J. Tomasi, M. Cossi, J. M. Millam, M. Klene, C. Adamo, R. Cammi, 
 J. W. Ochterski, R. L. Martin, K. Morokuma, O. Farkas, 
 J. B. Foresman, and D. J. Fox, Gaussian, Inc., Wallingford CT, 2019.
 
 ******************************************
 Gaussian 16:  ES64L-G16RevC.01  3-Jul-2019
                28-Jul-2022 
 ******************************************
 %NProcShared=48
 Will use up to   48 processors via shared memory.
 %mem = 190GB
 ---------------------------------------------------------------
 #n M062X/6-311++G(d,p) TD(NStates=1) EmpiricalDispersion=GD3 SP
 ---------------------------------------------------------------
 1/38=1,172=1/1;
 2/12=2,17=6,18=5,40=1/2;
 3/5=4,6=6,7=1111,11=9,25=1,30=1,74=-55,124=31/1,2,3,8;
 4//1;
 5/5=2,38=5/2;
 8/6=1,10=2,108=1/1;
 9/41=1,42=1,70=2/14;
 6/7=2,8=2,9=2,10=2/1;
 99/5=1,9=1/99;
 ------
 SP_-75
 ------
 Symbolic Z-matrix:
 Charge =  1 Multiplicity = 1
 C                     0.02835   2.49116   1.36043 
 C                     0.03338   3.71543   0.67199 
 C                     0.0095    3.70816  -0.71383 
 C                    -0.03115   2.48126  -1.40754 
 C                    -0.03125  -2.48146  -1.40754 
 C                     0.0089   -3.70916  -0.71383 
 C                     0.03243  -3.71578   0.67199 
 C                     0.02645  -2.49176   1.36043 
 C                     0.01748   0.0022    1.45337 
 C                    -0.0488   -0.0001   -1.42919 
 C                    -0.00723   1.24678   0.67707 
 C                    -0.0202    1.24002  -0.7308 
 C                    -0.00738  -1.24673   0.67707 
 C                    -0.0198   -1.23972  -0.7308 
 H                     0.0095    2.48685   2.44365 
 H                     0.03388   4.64788   1.21169 
 H                    -0.00565   4.60774  -1.27235 
 H                    -0.01475   2.48518  -2.49006 
 H                    -0.045    -0.00005  -2.51027 
 H                    -0.01445  -2.48533  -2.49006 
 H                    -0.00595  -4.60899  -1.27235 
 H                     0.03273  -4.64863   1.21169 
 H                     0.0073   -2.4875    2.44365 
 H                    -0.79559   0.0005    2.14524 
 H                     0.92359   0.0005    2.14634 
 
                          Input orientation:                          
 ---------------------------------------------------------------------
 Center     Atomic      Atomic             Coordinates (Angstroms)
 Number     Number       Type             X           Y           Z
 ---------------------------------------------------------------------
      1          6           0        0.028350    2.491155    1.360431
      2          6           0        0.033375    3.715433    0.671989
      3          6           0        0.009500    3.708161   -0.713830
      4          6           0       -0.031150    2.481256   -1.407538
      5          6           0       -0.031250   -2.481456   -1.407538
      6          6           0        0.008900   -3.709161   -0.713830
      7          6           0        0.032425   -3.715783    0.671989
      8          6           0        0.026450   -2.491755    1.360431
      9          6           0        0.017475    0.002200    1.453369
     10          6           0       -0.048800   -0.000100   -1.429189
     11          6           0       -0.007225    1.246780    0.677065
     12          6           0       -0.020200    1.240021   -0.730804
     13          6           0       -0.007375   -1.246730    0.677065
     14          6           0       -0.019800   -1.239721   -0.730804
     15          1           0        0.009500    2.486846    2.443647
     16          1           0        0.033875    4.647878    1.211689
     17          1           0       -0.005650    4.607737   -1.272349
     18          1           0       -0.014750    2.485175   -2.490059
     19          1           0       -0.045000   -0.000050   -2.510266
     20          1           0       -0.014450   -2.485325   -2.490059
     21          1           0       -0.005950   -4.608987   -1.272349
     22          1           0        0.032725   -4.648628    1.211689
     23          1           0        0.007300   -2.487496    2.443647
     24          1           0       -0.795585    0.000500    2.145237
     25          1           0        0.923585    0.000500    2.146337
 ---------------------------------------------------------------------
                    Distance matrix (angstroms):
                    1          2          3          4          5
     1  C    0.000000
     2  C    1.404576   0.000000
     3  C    2.404998   1.386044   0.000000
     4  C    2.768626   2.419047   1.410028   0.000000
     5  C    5.691403   6.536822   6.228503   4.962712   0.000000
     6  C    6.538108   7.552860   7.417322   6.229293   1.410710
     7  C    6.245002   7.431216   7.552216   6.536954   2.419101
     8  C    4.982910   6.245253   6.537722   5.691732   2.768589
     9  C    2.490713   3.794589   4.293130   3.785878   3.788893
    10  C    3.740893   4.269296   3.777080   2.481513   2.481513
    11  C    1.420114   2.468992   2.827236   2.422823   4.271521
    12  C    2.437408   2.845762   2.468377   1.413773   3.782523
    13  C    3.800007   4.962333   5.146437   4.271301   2.422950
    14  C    4.277268   5.150166   4.947998   3.782032   1.414216
    15  H    1.083389   2.156100   3.385450   3.851404   6.286280
    16  H    2.161853   1.077372   2.142729   3.399828   7.595525
    17  H    3.378255   2.139668   1.058966   2.130927   7.090528
    18  H    3.850736   3.393287   2.156681   1.082652   5.083261
    19  H    4.603670   4.892617   4.120799   2.715342   2.715433
    20  H    6.292333   6.960620   6.443200   5.083213   1.082658
    21  H    7.572630   8.548565   8.335894   7.091576   2.131972
    22  H    7.141334   8.381455   8.575785   7.596030   3.400158
    23  H    5.095171   6.451029   6.953836   6.286621   3.851383
    24  H    2.738275   4.081466   4.750703   4.400082   4.400741
    25  H    2.760880   4.094741   4.771044   4.437983   4.438676
                    6          7          8          9         10
     6  C    0.000000
     7  C    1.386034   0.000000
     8  C    2.405191   1.404362   0.000000
     9  C    4.297793   3.799234   2.495702   0.000000
    10  C    3.777857   4.269408   3.741121   2.883321   0.000000
    11  C    5.147446   4.962724   3.800627   1.467051   2.448008
    12  C    4.949297   5.150785   4.278036   2.510823   1.423538
    13  C    2.828148   2.469379   1.420641   1.470745   2.447878
    14  C    2.469665   2.846303   2.437825   2.512841   1.423110
    15  H    6.954147   6.450729   5.095107   2.674730   4.602951
    16  H    8.576033   8.381056   7.141186   4.651989   5.346473
    17  H    8.335643   8.547683   7.572011   5.351733   4.610707
    18  H    6.444016   6.960794   6.292679   4.660132   2.702443
    19  H    4.121601   4.892792   4.603911   3.964128   1.081084
    20  H    2.157153   3.393342   3.850713   4.662556   2.702400
    21  H    1.059175   2.140032   3.378646   5.356597   4.611754
    22  H    2.142613   1.077718   2.162005   4.657128   5.346933
    23  H    3.385577   2.155943   1.083394   2.679429   4.603167
    24  H    4.752162   4.082502   2.739160   1.067591   3.651604
    25  H    4.772713   4.096172   2.762939   1.140720   3.705391
                   11         12         13         14         15
    11  C    0.000000
    12  C    1.407945   0.000000
    13  C    2.493510   2.857655   0.000000
    14  C    2.857436   2.479742   1.407941   0.000000
    15  H    2.158438   3.410659   4.130458   4.895437   0.000000
    16  H    3.443106   3.922970   5.918947   6.199999   2.487644
    17  H    3.885389   3.411011   6.170494   5.872498   4.278672
    18  H    3.400640   2.155323   4.894675   4.119448   4.933766
    19  H    3.422731   2.169073   3.422675   2.168849   5.543363
    20  H    4.894827   4.119856   3.400712   2.155583   7.004607
    21  H    6.171728   5.874042   3.886514   3.412538   8.009976
    22  H    5.919734   6.200989   3.443885   3.923861   7.241081
    23  H    4.131082   4.896149   2.158826   3.410985   4.974342
    24  H    2.080926   3.226336   2.081439   3.226701   2.630423
    25  H    2.139715   3.271862   2.140334   3.272012   2.665682
                   16         17         18         19         20
    16  H    0.000000
    17  H    2.484677   0.000000
    18  H    4.287492   2.447074   0.000000
    19  H    5.955032   4.771340   2.485491   0.000000
    20  H    8.036657   7.196834   4.970500   2.485545   0.000000
    21  H    9.584445   9.216724   7.197918   4.772448   2.448026
    22  H    9.296506   9.583956   8.037185   5.955524   4.287778
    23  H    7.240994   8.009440   7.004955   5.543589   4.933754
    24  H    4.812238   5.790555   5.316887   4.715622   5.317468
    25  H    4.823202   5.811843   5.343243   4.756270   5.343726
                   21         22         23         24         25
    21  H    0.000000
    22  H    2.484655   0.000000
    23  H    4.278963   2.487742   0.000000
    24  H    5.792304   4.813730   2.631311   0.000000
    25  H    5.813675   4.825100   2.667976   1.719170   0.000000
 Stoichiometry    C14H11(1+)
 Framework group  C1[X(C14H11)]
 Deg. of freedom    69
 Full point group                 C1      NOp   1
 Largest Abelian subgroup         C1      NOp   1
 Largest concise Abelian subgroup C1      NOp   1
                         Standard orientation:                         
 ---------------------------------------------------------------------
 Center     Atomic      Atomic             Coordinates (Angstroms)
 Number     Number       Type             X           Y           Z
 ---------------------------------------------------------------------
      1          6           0       -2.491216   -1.360596    0.003367
      2          6           0       -3.715466   -0.672294    0.020367
      3          6           0       -3.708132    0.713730    0.020896
      4          6           0       -2.481193    1.407992   -0.007390
      5          6           0        2.481519    1.407773   -0.006904
      6          6           0        3.709190    0.713411    0.021171
      7          6           0        3.715750   -0.672608    0.020294
      8          6           0        2.491694   -1.360784    0.002055
      9          6           0       -0.002264   -1.453438   -0.008849
     10          6           0        0.000166    1.429840   -0.024363
     11          6           0       -1.246808   -0.676764   -0.020024
     12          6           0       -1.239988    0.731114   -0.008210
     13          6           0        1.246702   -0.676873   -0.019880
     14          6           0        1.239754    0.730997   -0.007517
     15          1           0       -2.486951   -2.443312   -0.034551
     16          1           0       -4.647934   -1.211878    0.011255
     17          1           0       -4.607683    1.272469    0.015475
     18          1           0       -2.485068    2.490056    0.028066
     19          1           0        0.000161    2.510682   -0.001530
     20          1           0        2.485432    2.489830    0.028953
     21          1           0        4.609041    1.272064    0.016263
     22          1           0        4.648572   -1.212271    0.011202
     23          1           0        2.487391   -2.443495   -0.036164
     24          1           0       -0.000497   -2.130884   -0.833964
     25          1           0       -0.000701   -2.162252    0.884920
 ---------------------------------------------------------------------
 Rotational constants (GHZ):           2.1350925           0.4413031           0.3665284
 Standard basis: 6-311++G(d,p) (5D, 7F)
 There are   399 symmetry adapted cartesian basis functions of A   symmetry.
 There are   385 symmetry adapted basis functions of A   symmetry.
   385 basis functions,   603 primitive gaussians,   399 cartesian basis functions
    47 alpha electrons       47 beta electrons
       nuclear repulsion energy       779.2950303260 Hartrees.
 NAtoms=   25 NActive=   25 NUniq=   25 SFac= 1.00D+00 NAtFMM=   60 NAOKFM=F Big=F
 Integral buffers will be    131072 words long.
 Regular integral format.
 Two-electron integral symmetry is turned on.
 Nuclear repulsion after empirical dispersion term =      779.2940501258 Hartrees.
 One-electron integrals computed using PRISM.
 NBasis=   385 RedAO= T EigKep=  1.42D-06  NBF=   385
 NBsUse=   379 1.00D-06 EigRej=  9.05D-07 NBFU=   379
 ExpMin= 3.60D-02 ExpMax= 4.56D+03 ExpMxC= 6.82D+02 IAcc=3 IRadAn=         5 AccDes= 0.00D+00
 Harris functional with IExCor= 1009 and IRadAn=       5 diagonalized for initial guess.
 HarFok:  IExCor= 1009 AccDes= 0.00D+00 IRadAn=         5 IDoV= 1 UseB2=F ITyADJ=14
 ICtDFT=  3500011 ScaDFX=  1.000000  1.000000  1.000000  1.000000
 FoFCou: FMM=F IPFlag=           0 FMFlag=      100000 FMFlg1=           0
         NFxFlg=           0 DoJE=T BraDBF=F KetDBF=T FulRan=T
         wScrn=  0.000000 ICntrl=       500 IOpCl=  0 I1Cent=   200000004 NGrid=           0
         NMat0=    1 NMatS0=      1 NMatT0=    0 NMatD0=    1 NMtDS0=    0 NMtDT0=    0
 Petite list used in FoFCou.
 Requested convergence on RMS density matrix=1.00D-08 within 128 cycles.
 Requested convergence on MAX density matrix=1.00D-06.
 Requested convergence on             energy=1.00D-06.
 No special actions if energy rises.
 SCF Done:  E(RM062X) =  -539.754954116     A.U. after   15 cycles
            NFock= 15  Conv=0.51D-08     -V/T= 2.0044
 DoSCS=F DFT=T ScalE2(SS,OS)=  1.000000  1.000000
 ExpMin= 3.60D-02 ExpMax= 4.56D+03 ExpMxC= 6.82D+02 IAcc=3 IRadAn=         5 AccDes= 0.00D+00
 HarFok:  IExCor=  205 AccDes= 0.00D+00 IRadAn=         5 IDoV=-2 UseB2=F ITyADJ=14
 ICtDFT= 12500011 ScaDFX=  1.000000  1.000000  1.000000  1.000000
 Range of M.O.s used for correlation:    15   379
 NBasis=   385 NAE=    47 NBE=    47 NFC=    14 NFV=     0
 NROrb=    365 NOA=    33 NOB=    33 NVA=   332 NVB=   332

 **** Warning!!: The largest alpha MO coefficient is  0.14906248D+03

 Orbital symmetries:
       Occupied  (A) (A) (A) (A) (A) (A) (A) (A) (A) (A) (A) (A)
                 (A) (A) (A) (A) (A) (A) (A) (A) (A) (A) (A) (A)
                 (A) (A) (A) (A) (A) (A) (A) (A) (A) (A) (A) (A)
                 (A) (A) (A) (A) (A) (A) (A) (A) (A) (A) (A)
       Virtual   (A) (A) (A) (A) (A) (A) (A) (A) (A) (A) (A) (A)
                 (A) (A) (A) (A) (A) (A) (A) (A) (A) (A) (A) (A)
                 (A) (A) (A) (A) (A) (A) (A) (A) (A) (A) (A) (A)
                 (A) (A) (A) (A) (A) (A) (A) (A) (A) (A) (A) (A)
                 (A) (A) (A) (A) (A) (A) (A) (A) (A) (A) (A) (A)
                 (A) (A) (A) (A) (A) (A) (A) (A) (A) (A) (A) (A)
                 (A) (A) (A) (A) (A) (A) (A) (A) (A) (A) (A) (A)
                 (A) (A) (A) (A) (A) (A) (A) (A) (A) (A) (A) (A)
                 (A) (A) (A) (A) (A) (A) (A) (A) (A) (A) (A) (A)
                 (A) (A) (A) (A) (A) (A) (A) (A) (A) (A) (A) (A)
                 (A) (A) (A) (A) (A) (A) (A) (A) (A) (A) (A) (A)
                 (A) (A) (A) (A) (A) (A) (A) (A) (A) (A) (A) (A)
                 (A) (A) (A) (A) (A) (A) (A) (A) (A) (A) (A) (A)
                 (A) (A) (A) (A) (A) (A) (A) (A) (A) (A) (A) (A)
                 (A) (A) (A) (A) (A) (A) (A) (A) (A) (A) (A) (A)
                 (A) (A) (A) (A) (A) (A) (A) (A) (A) (A) (A) (A)
                 (A) (A) (A) (A) (A) (A) (A) (A) (A) (A) (A) (A)
                 (A) (A) (A) (A) (A) (A) (A) (A) (A) (A) (A) (A)
                 (A) (A) (A) (A) (A) (A) (A) (A) (A) (A) (A) (A)
                 (A) (A) (A) (A) (A) (A) (A) (A) (A) (A) (A) (A)
                 (A) (A) (A) (A) (A) (A) (A) (A) (A) (A) (A) (A)
                 (A) (A) (A) (A) (A) (A) (A) (A) (A) (A) (A) (A)
                 (A) (A) (A) (A) (A) (A) (A) (A) (A) (A) (A) (A)
                 (A) (A) (A) (A) (A) (A) (A) (A) (A) (A) (A) (A)
                 (A) (A) (A) (A) (A) (A) (A) (A) (A) (A) (A) (A)
                 (A) (A) (A) (A) (A) (A) (A) (A) (A) (A) (A) (A)
                 (A) (A) (A) (A) (A) (A) (A) (A) (A) (A) (A) (A)
                 (A) (A) (A) (A) (A) (A) (A) (A)
     4 initial guesses have been made.
 Convergence on wavefunction:    0.001000000000000
 Iteration     1 Dimension     4 NMult     0 NNew      4
 CISAX will form     4 AO SS matrices at one time.
 Iteration     2 Dimension     6 NMult     4 NNew      2
 Iteration     3 Dimension     8 NMult     6 NNew      2
 Iteration     4 Dimension    10 NMult     8 NNew      2
 Iteration     5 Dimension    12 NMult    10 NNew      2
 Iteration     6 Dimension    14 NMult    12 NNew      2
 ***********************************************************************
 Excited states from <AA,BB:AA,BB> singles matrix:
 ***********************************************************************
 
 Ground to excited state transition densities written to RWF  633
 Ground to excited state transition electric dipole moments (Au):
       state          X           Y           Z        Dip. S.      Osc.
         1        -0.0030     -0.6303      0.0078      0.3973      0.0271
 Ground to excited state transition velocity dipole moments (Au):
       state          X           Y           Z        Dip. S.      Osc.
         1         0.0003      0.0720     -0.0010      0.0052      0.0338
 Ground to excited state transition magnetic dipole moments (Au):
       state          X           Y           Z
         1        -0.0102     -0.0002     -0.0001
 Ground to excited state transition velocity quadrupole moments (Au):
       state          XX          YY          ZZ          XY          XZ          YZ
         1         0.3174      0.0295     -0.0093      0.0004      0.0000      0.0017
 <0|del|b> * <b|rxdel|0> + <0|del|b> * <b|delr+rdel|0>
 Rotatory Strengths (R) in cgs (10**-40 erg-esu-cm/Gauss)
       state          XX          YY          ZZ    R(velocity)    E-M Angle
         1        -0.0596     -0.0076     -0.0535     -0.0402       90.00
 1/2[<0|r|b>*<b|rxdel|0> + (<0|rxdel|b>*<b|r|0>)*]
 Rotatory Strengths (R) in cgs (10**-40 erg-esu-cm/Gauss)
       state          XX          YY          ZZ     R(length)
         1        -0.0217     -0.0891      0.0004     -0.0368
  1/2[<0|del|b>*<b|r|0> + (<0|r|b>*<b|del|0>)*] (Au)
       state          X           Y           Z        Dip. S.   Osc.(frdel)
         1        -0.0000     -0.0454     -0.0000      0.0454      0.0303

 Excitation energies and oscillator strengths:
 
 Excited State   1:      Singlet-A      2.7838 eV  445.38 nm  f=0.0271  <S**2>=0.000
      47 -> 48         0.70427
 This state for optimization and/or second-order correction.
 Total Energy, E(TD-HF/TD-DFT) =  -539.652652368    
 Copying the excited state density for this state as the 1-particle RhoCI density.
 SavETr:  write IOETrn=   770 NScale= 10 NData=  16 NLR=1 NState=    1 LETran=      28.

 **********************************************************************

            Population analysis using the SCF Density.

 **********************************************************************

 Orbital symmetries:
       Occupied  (A) (A) (A) (A) (A) (A) (A) (A) (A) (A) (A) (A)
                 (A) (A) (A) (A) (A) (A) (A) (A) (A) (A) (A) (A)
                 (A) (A) (A) (A) (A) (A) (A) (A) (A) (A) (A) (A)
                 (A) (A) (A) (A) (A) (A) (A) (A) (A) (A) (A)
       Virtual   (A) (A) (A) (A) (A) (A) (A) (A) (A) (A) (A) (A)
                 (A) (A) (A) (A) (A) (A) (A) (A) (A) (A) (A) (A)
                 (A) (A) (A) (A) (A) (A) (A) (A) (A) (A) (A) (A)
                 (A) (A) (A) (A) (A) (A) (A) (A) (A) (A) (A) (A)
                 (A) (A) (A) (A) (A) (A) (A) (A) (A) (A) (A) (A)
                 (A) (A) (A) (A) (A) (A) (A) (A) (A) (A) (A) (A)
                 (A) (A) (A) (A) (A) (A) (A) (A) (A) (A) (A) (A)
                 (A) (A) (A) (A) (A) (A) (A) (A) (A) (A) (A) (A)
                 (A) (A) (A) (A) (A) (A) (A) (A) (A) (A) (A) (A)
                 (A) (A) (A) (A) (A) (A) (A) (A) (A) (A) (A) (A)
                 (A) (A) (A) (A) (A) (A) (A) (A) (A) (A) (A) (A)
                 (A) (A) (A) (A) (A) (A) (A) (A) (A) (A) (A) (A)
                 (A) (A) (A) (A) (A) (A) (A) (A) (A) (A) (A) (A)
                 (A) (A) (A) (A) (A) (A) (A) (A) (A) (A) (A) (A)
                 (A) (A) (A) (A) (A) (A) (A) (A) (A) (A) (A) (A)
                 (A) (A) (A) (A) (A) (A) (A) (A) (A) (A) (A) (A)
                 (A) (A) (A) (A) (A) (A) (A) (A) (A) (A) (A) (A)
                 (A) (A) (A) (A) (A) (A) (A) (A) (A) (A) (A) (A)
                 (A) (A) (A) (A) (A) (A) (A) (A) (A) (A) (A) (A)
                 (A) (A) (A) (A) (A) (A) (A) (A) (A) (A) (A) (A)
                 (A) (A) (A) (A) (A) (A) (A) (A) (A) (A) (A) (A)
                 (A) (A) (A) (A) (A) (A) (A) (A) (A) (A) (A) (A)
                 (A) (A) (A) (A) (A) (A) (A) (A) (A) (A) (A) (A)
                 (A) (A) (A) (A) (A) (A) (A) (A) (A) (A) (A) (A)
                 (A) (A) (A) (A) (A) (A) (A) (A) (A) (A) (A) (A)
                 (A) (A) (A) (A) (A) (A) (A) (A) (A) (A) (A) (A)
                 (A) (A) (A) (A) (A) (A) (A) (A) (A) (A) (A) (A)
                 (A) (A) (A) (A) (A) (A) (A) (A)
 The electronic state is 1-A.
 Alpha  occ. eigenvalues --  -10.77654 -10.73325 -10.73297 -10.72610 -10.72608
 Alpha  occ. eigenvalues --  -10.71588 -10.71573 -10.71135 -10.71130 -10.70980
 Alpha  occ. eigenvalues --  -10.70207 -10.70197 -10.69576 -10.69563  -1.16319
 Alpha  occ. eigenvalues --   -1.12040  -1.06738  -1.05855  -1.00960  -1.00173
 Alpha  occ. eigenvalues --   -0.95629  -0.91090  -0.86405  -0.85833  -0.83795
 Alpha  occ. eigenvalues --   -0.78392  -0.75984  -0.74332  -0.69610  -0.69408
 Alpha  occ. eigenvalues --   -0.68745  -0.68274  -0.68084  -0.64435  -0.64020
 Alpha  occ. eigenvalues --   -0.63231  -0.62127  -0.59822  -0.59360  -0.59189
 Alpha  occ. eigenvalues --   -0.56961  -0.55305  -0.54941  -0.52275  -0.46403
 Alpha  occ. eigenvalues --   -0.45988  -0.44302
 Alpha virt. eigenvalues --   -0.26061  -0.14928  -0.14159  -0.13040  -0.11177
 Alpha virt. eigenvalues --   -0.10078  -0.09199  -0.08038  -0.07889  -0.07461
 Alpha virt. eigenvalues --   -0.07245  -0.07135  -0.05649  -0.05584  -0.05377
 Alpha virt. eigenvalues --   -0.03763  -0.03680  -0.03289  -0.03132  -0.02143
 Alpha virt. eigenvalues --   -0.01355  -0.00904   0.00192   0.00685   0.00753
 Alpha virt. eigenvalues --    0.01029   0.01509   0.01839   0.02193   0.02305
 Alpha virt. eigenvalues --    0.02395   0.02517   0.02800   0.03218   0.03410
 Alpha virt. eigenvalues --    0.04258   0.04496   0.04673   0.04929   0.05352
 Alpha virt. eigenvalues --    0.05955   0.06279   0.06610   0.07020   0.07173
 Alpha virt. eigenvalues --    0.07828   0.07962   0.08310   0.08471   0.08940
 Alpha virt. eigenvalues --    0.09569   0.09599   0.10011   0.10701   0.10986
 Alpha virt. eigenvalues --    0.11131   0.12273   0.12295   0.12852   0.13083
 Alpha virt. eigenvalues --    0.13408   0.13515   0.14040   0.14143   0.15797
 Alpha virt. eigenvalues --    0.16441   0.16720   0.17172   0.17433   0.17645
 Alpha virt. eigenvalues --    0.18054   0.18784   0.19132   0.19548   0.19706
 Alpha virt. eigenvalues --    0.21374   0.21412   0.22532   0.23134   0.23206
 Alpha virt. eigenvalues --    0.23586   0.24519   0.24534   0.26743   0.27374
 Alpha virt. eigenvalues --    0.28810   0.29251   0.29750   0.31097   0.35774
 Alpha virt. eigenvalues --    0.36071   0.37692   0.39054   0.41148   0.41524
 Alpha virt. eigenvalues --    0.41907   0.42472   0.43055   0.43473   0.44080
 Alpha virt. eigenvalues --    0.44301   0.44665   0.44761   0.46026   0.47847
 Alpha virt. eigenvalues --    0.48659   0.48953   0.49015   0.50483   0.51063
 Alpha virt. eigenvalues --    0.51253   0.51265   0.52139   0.52289   0.53996
 Alpha virt. eigenvalues --    0.54116   0.54403   0.55767   0.55851   0.57290
 Alpha virt. eigenvalues --    0.58129   0.58705   0.61307   0.61991   0.62252
 Alpha virt. eigenvalues --    0.62747   0.63631   0.63691   0.65119   0.66840
 Alpha virt. eigenvalues --    0.70501   0.70537   0.70876   0.71816   0.72647
 Alpha virt. eigenvalues --    0.74967   0.75490   0.76065   0.76170   0.76770
 Alpha virt. eigenvalues --    0.77189   0.77555   0.78024   0.80389   0.80670
 Alpha virt. eigenvalues --    0.81025   0.81672   0.81969   0.82694   0.84414
 Alpha virt. eigenvalues --    0.86381   0.86435   0.87777   0.89446   0.90510
 Alpha virt. eigenvalues --    0.90791   0.91470   0.93096   0.94782   0.96231
 Alpha virt. eigenvalues --    0.96802   1.00394   1.01201   1.01569   1.02596
 Alpha virt. eigenvalues --    1.02964   1.04076   1.04199   1.06467   1.08953
 Alpha virt. eigenvalues --    1.19876   1.23307   1.24104   1.25603   1.27988
 Alpha virt. eigenvalues --    1.28944   1.32225   1.33351   1.35106   1.35886
 Alpha virt. eigenvalues --    1.38779   1.40198   1.40205   1.42755   1.42886
 Alpha virt. eigenvalues --    1.43224   1.44852   1.44878   1.46664   1.46853
 Alpha virt. eigenvalues --    1.47328   1.47549   1.51476   1.53602   1.55371
 Alpha virt. eigenvalues --    1.55733   1.56141   1.56488   1.57510   1.61122
 Alpha virt. eigenvalues --    1.63579   1.64257   1.64270   1.65880   1.67770
 Alpha virt. eigenvalues --    1.68437   1.68660   1.69629   1.73700   1.75807
 Alpha virt. eigenvalues --    1.76906   1.77664   1.79172   1.79763   1.79870
 Alpha virt. eigenvalues --    1.82979   1.83074   1.83088   1.83355   1.83871
 Alpha virt. eigenvalues --    1.84352   1.85687   1.85846   1.88034   1.91461
 Alpha virt. eigenvalues --    1.91560   1.94087   1.95293   1.97275   1.97402
 Alpha virt. eigenvalues --    1.99054   2.02269   2.03811   2.07563   2.11502
 Alpha virt. eigenvalues --    2.11737   2.13235   2.15018   2.18200   2.20514
 Alpha virt. eigenvalues --    2.21821   2.28244   2.29220   2.34145   2.35719
 Alpha virt. eigenvalues --    2.35769   2.39067   2.40567   2.40611   2.41794
 Alpha virt. eigenvalues --    2.45657   2.48025   2.49619   2.52734   2.53657
 Alpha virt. eigenvalues --    2.54002   2.56820   2.57760   2.58379   2.59560
 Alpha virt. eigenvalues --    2.59738   2.61176   2.61760   2.62964   2.63471
 Alpha virt. eigenvalues --    2.63768   2.64359   2.64743   2.65324   2.67641
 Alpha virt. eigenvalues --    2.69014   2.70810   2.71258   2.73422   2.74771
 Alpha virt. eigenvalues --    2.76255   2.78024   2.79461   2.82096   2.82702
 Alpha virt. eigenvalues --    2.84021   2.86330   2.91999   2.95940   2.99302
 Alpha virt. eigenvalues --    2.99435   3.05972   3.09543   3.10119   3.10925
 Alpha virt. eigenvalues --    3.20702   3.23223   3.25512   3.27364   3.29952
 Alpha virt. eigenvalues --    3.30718   3.32278   3.43279   3.43935   3.45356
 Alpha virt. eigenvalues --    3.46808   3.48926   3.56015   3.64516   3.67087
 Alpha virt. eigenvalues --    3.68576   3.94264   3.95757   3.96263   3.97656
 Alpha virt. eigenvalues --    4.04637   4.06459   4.07479   4.12365   4.35646
 Alpha virt. eigenvalues --    4.61461   4.68275   4.69912  23.45728  23.61970
 Alpha virt. eigenvalues --   23.81073  23.86181  23.86667  23.88998  23.90342
 Alpha virt. eigenvalues --   23.92396  23.95976  23.96449  23.96603  23.98575
 Alpha virt. eigenvalues --   24.08794  24.08968
          Condensed to atoms (all electrons):
               1          2          3          4          5          6
     1  C    8.260996   0.585168  -0.591181   1.528102   0.017458  -0.081255
     2  C    0.585168   6.793997   0.364883  -0.715314  -0.049772  -0.014455
     3  C   -0.591181   0.364883   6.565758   0.515388  -0.106869   0.016202
     4  C    1.528102  -0.715314   0.515388  10.092249   0.038737  -0.106746
     5  C    0.017458  -0.049772  -0.106869   0.038737  10.080375   0.508297
     6  C   -0.081255  -0.014455   0.016202  -0.106746   0.508297   6.564605
     7  C   -0.034046   0.008862  -0.014515  -0.050042  -0.706795   0.363519
     8  C    0.369529  -0.033840  -0.081281   0.016215   1.532337  -0.594998
     9  C   -1.404991  -0.547134   0.264873  -0.485579  -0.489415   0.265381
    10  C   -1.034132   0.127113  -0.313488  -2.215312  -2.211512  -0.311996
    11  C    0.147709  -0.938959   1.104828  -0.855317  -1.626202  -0.123397
    12  C   -1.274183   0.894456  -1.260389  -0.475648  -0.055498  -0.212557
    13  C    0.064125  -0.162566  -0.125212  -1.632051  -0.868002   1.108156
    14  C   -0.996474  -0.209385  -0.212837  -0.062019  -0.470855  -1.254921
    15  H    0.354829  -0.098715   0.000207   0.023137   0.005127   0.001173
    16  H   -0.024392   0.381852  -0.018961   0.012839  -0.001399  -0.000309
    17  H   -0.016828  -0.025551   0.385467  -0.056379  -0.000219   0.000358
    18  H    0.042925   0.010069  -0.096685   0.437770   0.012760  -0.004461
    19  H   -0.043912  -0.009209   0.052443  -0.078778  -0.078658   0.052510
    20  H    0.007140   0.001496  -0.004462   0.012685   0.436994  -0.096882
    21  H   -0.001215  -0.000349   0.000359  -0.000209  -0.056252   0.385424
    22  H    0.000608   0.000336  -0.000310  -0.001414   0.012920  -0.019026
    23  H    0.005645  -0.002519   0.001173   0.005153   0.022988   0.000198
    24  H    0.011689   0.015043  -0.001573  -0.013870  -0.014220  -0.001451
    25  H    0.051747   0.012441  -0.000812  -0.012171  -0.011797  -0.000974
               7          8          9         10         11         12
     1  C   -0.034046   0.369529  -1.404991  -1.034132   0.147709  -1.274183
     2  C    0.008862  -0.033840  -0.547134   0.127113  -0.938959   0.894456
     3  C   -0.014515  -0.081281   0.264873  -0.313488   1.104828  -1.260389
     4  C   -0.050042   0.016215  -0.485579  -2.215312  -0.855317  -0.475648
     5  C   -0.706795   1.532337  -0.489415  -2.211512  -1.626202  -0.055498
     6  C    0.363519  -0.594998   0.265381  -0.311996  -0.123397  -0.212557
     7  C    6.782236   0.587348  -0.540444   0.124295  -0.159215  -0.209328
     8  C    0.587348   8.253892  -1.400652  -1.033056   0.065035  -0.988637
     9  C   -0.540444  -1.400652   8.637210   0.459648   1.515348  -1.209127
    10  C    0.124295  -1.033056   0.459648   8.852601  -0.227956   1.722758
    11  C   -0.159215   0.065035   1.515348  -0.227956  13.920378  -3.270952
    12  C   -0.209328  -0.988637  -1.209127   1.722758  -3.270952  14.151745
    13  C   -0.934256   0.135165   1.514336  -0.234883   1.453207  -4.481383
    14  C    0.882998  -1.271484  -1.206737   1.718945  -4.468373   2.286836
    15  H   -0.002484   0.005617   0.081865  -0.009324  -0.015243  -0.019451
    16  H    0.000332   0.000578   0.003339  -0.009977   0.025500  -0.027614
    17  H   -0.000347  -0.001205  -0.002431   0.016689  -0.018784   0.068300
    18  H    0.001489   0.007109  -0.027725   0.029513  -0.028894  -0.032104
    19  H   -0.009262  -0.043899   0.070150   0.424671   0.086461  -0.068001
    20  H    0.010360   0.042835  -0.027701   0.029921  -0.011360  -0.004724
    21  H   -0.025667  -0.016586  -0.002442   0.016674  -0.005288   0.003564
    22  H    0.381772  -0.024137   0.003506  -0.010107   0.002238  -0.008229
    23  H   -0.098173   0.355108   0.081688  -0.009272  -0.001017   0.005925
    24  H    0.015434   0.012834   0.377148   0.007811   0.001180  -0.035137
    25  H    0.011925   0.050207   0.340043   0.004372   0.022727  -0.080700
              13         14         15         16         17         18
     1  C    0.064125  -0.996474   0.354829  -0.024392  -0.016828   0.042925
     2  C   -0.162566  -0.209385  -0.098715   0.381852  -0.025551   0.010069
     3  C   -0.125212  -0.212837   0.000207  -0.018961   0.385467  -0.096685
     4  C   -1.632051  -0.062019   0.023137   0.012839  -0.056379   0.437770
     5  C   -0.868002  -0.470855   0.005127  -0.001399  -0.000219   0.012760
     6  C    1.108156  -1.254921   0.001173  -0.000309   0.000358  -0.004461
     7  C   -0.934256   0.882998  -0.002484   0.000332  -0.000347   0.001489
     8  C    0.135165  -1.271484   0.005617   0.000578  -0.001205   0.007109
     9  C    1.514336  -1.206737   0.081865   0.003339  -0.002431  -0.027725
    10  C   -0.234883   1.718945  -0.009324  -0.009977   0.016689   0.029513
    11  C    1.453207  -4.468373  -0.015243   0.025500  -0.018784  -0.028894
    12  C   -4.481383   2.286836  -0.019451  -0.027614   0.068300  -0.032104
    13  C   13.965021  -3.265104  -0.000915   0.002188  -0.005301  -0.011613
    14  C   -3.265104  14.150379   0.005983  -0.008161   0.003572  -0.005013
    15  H   -0.000915   0.005983   0.441645  -0.008956   0.001591   0.000080
    16  H    0.002188  -0.008161  -0.008956   0.420579  -0.007167   0.001974
    17  H   -0.005301   0.003572   0.001591  -0.007167   0.426413  -0.010763
    18  H   -0.011613  -0.005013   0.000080   0.001974  -0.010763   0.455933
    19  H    0.086899  -0.067432   0.000381  -0.000595   0.001473  -0.006255
    20  H   -0.029022  -0.032254  -0.000144   0.000017  -0.000149   0.001264
    21  H   -0.018727   0.067975   0.000023  -0.000007   0.000011  -0.000148
    22  H    0.025807  -0.028201  -0.000128   0.000007  -0.000007   0.000017
    23  H   -0.015572  -0.019369   0.000566  -0.000128   0.000023  -0.000143
    24  H    0.001225  -0.034404  -0.001799   0.000802  -0.000212   0.000117
    25  H    0.022478  -0.081633  -0.000109   0.000418  -0.000089   0.000267
              19         20         21         22         23         24
     1  C   -0.043912   0.007140  -0.001215   0.000608   0.005645   0.011689
     2  C   -0.009209   0.001496  -0.000349   0.000336  -0.002519   0.015043
     3  C    0.052443  -0.004462   0.000359  -0.000310   0.001173  -0.001573
     4  C   -0.078778   0.012685  -0.000209  -0.001414   0.005153  -0.013870
     5  C   -0.078658   0.436994  -0.056252   0.012920   0.022988  -0.014220
     6  C    0.052510  -0.096882   0.385424  -0.019026   0.000198  -0.001451
     7  C   -0.009262   0.010360  -0.025667   0.381772  -0.098173   0.015434
     8  C   -0.043899   0.042835  -0.016586  -0.024137   0.355108   0.012834
     9  C    0.070150  -0.027701  -0.002442   0.003506   0.081688   0.377148
    10  C    0.424671   0.029921   0.016674  -0.010107  -0.009272   0.007811
    11  C    0.086461  -0.011360  -0.005288   0.002238  -0.001017   0.001180
    12  C   -0.068001  -0.004724   0.003564  -0.008229   0.005925  -0.035137
    13  C    0.086899  -0.029022  -0.018727   0.025807  -0.015572   0.001225
    14  C   -0.067432  -0.032254   0.067975  -0.028201  -0.019369  -0.034404
    15  H    0.000381  -0.000144   0.000023  -0.000128   0.000566  -0.001799
    16  H   -0.000595   0.000017  -0.000007   0.000007  -0.000128   0.000802
    17  H    0.001473  -0.000149   0.000011  -0.000007   0.000023  -0.000212
    18  H   -0.006255   0.001264  -0.000148   0.000017  -0.000143   0.000117
    19  H    0.448441  -0.006238   0.001466  -0.000592   0.000384   0.000711
    20  H   -0.006238   0.455992  -0.010718   0.001979   0.000071   0.000110
    21  H    0.001466  -0.010718   0.426252  -0.007157   0.001594  -0.000210
    22  H   -0.000592   0.001979  -0.007157   0.420596  -0.008957   0.000787
    23  H    0.000384   0.000071   0.001594  -0.008957   0.441434  -0.001714
    24  H    0.000711   0.000110  -0.000210   0.000787  -0.001714   0.490554
    25  H    0.000454   0.000279  -0.000093   0.000434  -0.000181  -0.077782
              25
     1  C    0.051747
     2  C    0.012441
     3  C   -0.000812
     4  C   -0.012171
     5  C   -0.011797
     6  C   -0.000974
     7  C    0.011925
     8  C    0.050207
     9  C    0.340043
    10  C    0.004372
    11  C    0.022727
    12  C   -0.080700
    13  C    0.022478
    14  C   -0.081633
    15  H   -0.000109
    16  H    0.000418
    17  H   -0.000089
    18  H    0.000267
    19  H    0.000454
    20  H    0.000279
    21  H   -0.000093
    22  H    0.000434
    23  H   -0.000181
    24  H   -0.077782
    25  H    0.490643
 Mulliken charges:
               1
     1  C    0.054941
     2  C   -0.387948
     3  C   -0.443006
     4  C    0.078577
     5  C    0.079471
     6  C   -0.442393
     7  C   -0.385995
     8  C    0.055967
     9  C   -0.270158
    10  C    0.086005
    11  C   -0.593655
    12  C    0.580078
    13  C   -0.593999
    14  C    0.577969
    15  H    0.235045
    16  H    0.257242
    17  H    0.241535
    18  H    0.222518
    19  H    0.186385
    20  H    0.222510
    21  H    0.241725
    22  H    0.257260
    23  H    0.235094
    24  H    0.246928
    25  H    0.257905
 Sum of Mulliken charges =   1.00000
 Mulliken charges with hydrogens summed into heavy atoms:
               1
     1  C    0.289985
     2  C   -0.130705
     3  C   -0.201471
     4  C    0.301095
     5  C    0.301980
     6  C   -0.200668
     7  C   -0.128735
     8  C    0.291061
     9  C    0.234675
    10  C    0.272389
    11  C   -0.593655
    12  C    0.580078
    13  C   -0.593999
    14  C    0.577969
 Electronic spatial extent (au):  <R**2>=           2871.8444
 Charge=              1.0000 electrons
 Dipole moment (field-independent basis, Debye):
    X=              0.0028    Y=              0.1928    Z=              0.0031  Tot=              0.1928
 Quadrupole moment (field-independent basis, Debye-Ang):
   XX=            -30.7700   YY=            -56.2566   ZZ=            -84.2713
   XY=              0.0016   XZ=              0.0025   YZ=              0.1919
 Traceless Quadrupole moment (field-independent basis, Debye-Ang):
   XX=             26.3293   YY=              0.8427   ZZ=            -27.1720
   XY=              0.0016   XZ=              0.0025   YZ=              0.1919
 Octapole moment (field-independent basis, Debye-Ang**2):
  XXX=              0.1119  YYY=              5.1840  ZZZ=             -0.0466  XYY=             -0.0016
  XXY=             -3.9162  XXZ=              0.3792  XZZ=             -0.0126  YZZ=             -3.0901
  YYZ=              0.2380  XYZ=              0.0125
 Hexadecapole moment (field-independent basis, Debye-Ang**3):
 XXXX=          -2128.8722 YYYY=           -609.5502 ZZZZ=            -99.8988 XXXY=              0.0619
 XXXZ=              0.0719 YYYX=             -0.0250 YYYZ=              2.1074 ZZZX=              0.0036
 ZZZY=              0.0853 XXYY=           -510.5607 XXZZ=           -595.1722 YYZZ=           -145.8798
 XXYZ=              2.1121 YYXZ=             -0.0002 ZZXY=              0.0014
 N-N= 7.792940501258D+02 E-N=-2.794821141708D+03  KE= 5.373910521273D+02
 Unable to Open any file for archive entry.
 1\1\GINC-GADI-CPU-CLX-0113\SP\RM062X TD-FC\6-311++G(d,p)\C14H11(1+)\TS
 1578\28-Jul-2022\0\\#n M062X/6-311++G(d,p) TD(NStates=1) EmpiricalDisp
 ersion=GD3 SP\\SP_-75\\1,1\C,0,0.02835,2.491155,1.360431\C,0,0.033375,
 3.715433,0.671989\C,0,0.0095,3.708161,-0.71383\C,0,-0.03115,2.481256,-
 1.407538\C,0,-0.03125,-2.481456,-1.407538\C,0,0.0089,-3.709161,-0.7138
 3\C,0,0.032425,-3.715783,0.671989\C,0,0.02645,-2.491755,1.360431\C,0,0
 .017475,0.0022,1.453369\C,0,-0.0488,-0.0001,-1.429189\C,0,-0.007225,1.
 24678,0.677065\C,0,-0.0202,1.240021,-0.730804\C,0,-0.007375,-1.24673,0
 .677065\C,0,-0.0198,-1.239721,-0.730804\H,0,0.0095,2.486846,2.443647\H
 ,0,0.033875,4.647878,1.211689\H,0,-0.00565,4.607737,-1.272349\H,0,-0.0
 1475,2.485175,-2.490059\H,0,-0.045,-0.00005,-2.510266\H,0,-0.01445,-2.
 485325,-2.490059\H,0,-0.00595,-4.608987,-1.272349\H,0,0.032725,-4.6486
 28,1.211689\H,0,0.0073,-2.487496,2.443647\H,0,-0.795585,0.0005,2.14523
 7\H,0,0.923585,0.0005,2.146337\\Version=ES64L-G16RevC.01\State=1-A\HF=
 -539.7549541\RMSD=5.074e-09\PG=C01 [X(C14H11)]\\@
 The archive entry for this job was punched.


 WOMEN HOLD UP HALF THE SKY. -- MAO TSE TUNG
 Job cpu time:       0 days  1 hours 19 minutes 29.6 seconds.
 Elapsed time:       0 days  0 hours  1 minutes 39.6 seconds.
 File lengths (MBytes):  RWF=    460 Int=      0 D2E=      0 Chk=     15 Scr=      1
 Normal termination of Gaussian 16 at Thu Jul 28 14:12:55 2022.
