 Entering Gaussian System, Link 0=g16
 Initial command:
 /apps/gaussian/g16c01/g16/l1.exe "/jobfs/53002009.gadi-pbs/Gau-732093.inp" -scrdir="/jobfs/53002009.gadi-pbs/"
 Entering Link 1 = /apps/gaussian/g16c01/g16/l1.exe PID=    732094.
  
 Copyright (c) 1988-2019, Gaussian, Inc.  All Rights Reserved.
  
 This is part of the Gaussian(R) 16 program.  It is based on
 the Gaussian(R) 09 system (copyright 2009, Gaussian, Inc.),
 the Gaussian(R) 03 system (copyright 2003, Gaussian, Inc.),
 the Gaussian(R) 98 system (copyright 1998, Gaussian, Inc.),
 the Gaussian(R) 94 system (copyright 1995, Gaussian, Inc.),
 the Gaussian 92(TM) system (copyright 1992, Gaussian, Inc.),
 the Gaussian 90(TM) system (copyright 1990, Gaussian, Inc.),
 the Gaussian 88(TM) system (copyright 1988, Gaussian, Inc.),
 the Gaussian 86(TM) system (copyright 1986, Carnegie Mellon
 University), and the Gaussian 82(TM) system (copyright 1983,
 Carnegie Mellon University). Gaussian is a federally registered
 trademark of Gaussian, Inc.
  
 This software contains proprietary and confidential information,
 including trade secrets, belonging to Gaussian, Inc.
  
 This software is provided under written license and may be
 used, copied, transmitted, or stored only in accord with that
 written license.
  
 The following legend is applicable only to US Government
 contracts under FAR:
  
                    RESTRICTED RIGHTS LEGEND
  
 Use, reproduction and disclosure by the US Government is
 subject to restrictions as set forth in subparagraphs (a)
 and (c) of the Commercial Computer Software - Restricted
 Rights clause in FAR 52.227-19.
  
 Gaussian, Inc.
 340 Quinnipiac St., Bldg. 40, Wallingford CT 06492
  
  
 ---------------------------------------------------------------
 Warning -- This program may not be used in any manner that
 competes with the business of Gaussian, Inc. or will provide
 assistance to any competitor of Gaussian, Inc.  The licensee
 of this program is prohibited from giving any competitor of
 Gaussian, Inc. access to this program.  By using this program,
 the user acknowledges that Gaussian, Inc. is engaged in the
 business of creating and licensing software in the field of
 computational chemistry and represents and warrants to the
 licensee that it is not a competitor of Gaussian, Inc. and that
 it will not use this program in any manner prohibited above.
 ---------------------------------------------------------------
  

 Cite this work as:
 Gaussian 16, Revision C.01,
 M. J. Frisch, G. W. Trucks, H. B. Schlegel, G. E. Scuseria, 
 M. A. Robb, J. R. Cheeseman, G. Scalmani, V. Barone, 
 G. A. Petersson, H. Nakatsuji, X. Li, M. Caricato, A. V. Marenich, 
 J. Bloino, B. G. Janesko, R. Gomperts, B. Mennucci, H. P. Hratchian, 
 J. V. Ortiz, A. F. Izmaylov, J. L. Sonnenberg, D. Williams-Young, 
 F. Ding, F. Lipparini, F. Egidi, J. Goings, B. Peng, A. Petrone, 
 T. Henderson, D. Ranasinghe, V. G. Zakrzewski, J. Gao, N. Rega, 
 G. Zheng, W. Liang, M. Hada, M. Ehara, K. Toyota, R. Fukuda, 
 J. Hasegawa, M. Ishida, T. Nakajima, Y. Honda, O. Kitao, H. Nakai, 
 T. Vreven, K. Throssell, J. A. Montgomery, Jr., J. E. Peralta, 
 F. Ogliaro, M. J. Bearpark, J. J. Heyd, E. N. Brothers, K. N. Kudin, 
 V. N. Staroverov, T. A. Keith, R. Kobayashi, J. Normand, 
 K. Raghavachari, A. P. Rendell, J. C. Burant, S. S. Iyengar, 
 J. Tomasi, M. Cossi, J. M. Millam, M. Klene, C. Adamo, R. Cammi, 
 J. W. Ochterski, R. L. Martin, K. Morokuma, O. Farkas, 
 J. B. Foresman, and D. J. Fox, Gaussian, Inc., Wallingford CT, 2019.
 
 ******************************************
 Gaussian 16:  ES64L-G16RevC.01  3-Jul-2019
                28-Jul-2022 
 ******************************************
 %NProcShared=48
 Will use up to   48 processors via shared memory.
 %mem = 190GB
 ---------------------------------------------------------------
 #n M062X/6-311++G(d,p) TD(NStates=1) EmpiricalDispersion=GD3 SP
 ---------------------------------------------------------------
 1/38=1,172=1/1;
 2/12=2,17=6,18=5,40=1/2;
 3/5=4,6=6,7=1111,11=9,25=1,30=1,74=-55,124=31/1,2,3,8;
 4//1;
 5/5=2,38=5/2;
 8/6=1,10=2,108=1/1;
 9/41=1,42=1,70=2/14;
 6/7=2,8=2,9=2,10=2/1;
 99/5=1,9=1/99;
 -------
 SP_-100
 -------
 Symbolic Z-matrix:
 Charge =  1 Multiplicity = 1
 C                     0.0313    2.49116   1.36043 
 C                     0.03725   3.71728   0.67199 
 C                     0.0105    3.71151  -0.71383 
 C                    -0.03507   2.48358  -1.40754 
 C                    -0.03512  -2.48368  -1.40754 
 C                     0.0102   -3.71201  -0.71383 
 C                     0.03678  -3.71746   0.67199 
 C                     0.03035  -2.49146   1.36043 
 C                     0.01968   0.0011    1.45337 
 C                    -0.0549   -0.00005  -1.42919 
 C                    -0.00818   1.24486   0.67707 
 C                    -0.0226    1.24025  -0.7308 
 C                    -0.00825  -1.24483   0.67707 
 C                    -0.0224   -1.2401   -0.7308 
 H                     0.01      2.4869    2.44365 
 H                     0.03775   4.6495    1.21169 
 H                    -0.00645   4.60794  -1.27235 
 H                    -0.0165    2.48742  -2.49006 
 H                    -0.05063  -0.00003  -2.51027 
 H                    -0.01635  -2.4875   -2.49006 
 H                    -0.0066   -4.60856  -1.27235 
 H                     0.03718  -4.64988   1.21169 
 H                     0.0089   -2.48722   2.44365 
 H                    -0.78759   0.00025   2.14551 
 H                     0.93159   0.00025   2.14606 
 
                          Input orientation:                          
 ---------------------------------------------------------------------
 Center     Atomic      Atomic             Coordinates (Angstroms)
 Number     Number       Type             X           Y           Z
 ---------------------------------------------------------------------
      1          6           0        0.031300    2.491155    1.360431
      2          6           0        0.037250    3.717283    0.671989
      3          6           0        0.010500    3.711511   -0.713830
      4          6           0       -0.035075    2.483581   -1.407538
      5          6           0       -0.035125   -2.483681   -1.407538
      6          6           0        0.010200   -3.712011   -0.713830
      7          6           0        0.036775   -3.717458    0.671989
      8          6           0        0.030350   -2.491455    1.360431
      9          6           0        0.019675    0.001100    1.453369
     10          6           0       -0.054900   -0.000050   -1.429189
     11          6           0       -0.008175    1.244855    0.677065
     12          6           0       -0.022600    1.240246   -0.730804
     13          6           0       -0.008250   -1.244830    0.677065
     14          6           0       -0.022400   -1.240096   -0.730804
     15          1           0        0.010000    2.486896    2.443647
     16          1           0        0.037750    4.649503    1.211689
     17          1           0       -0.006450    4.607937   -1.272349
     18          1           0       -0.016500    2.487425   -2.490059
     19          1           0       -0.050625   -0.000025   -2.510266
     20          1           0       -0.016350   -2.487500   -2.490059
     21          1           0       -0.006600   -4.608562   -1.272349
     22          1           0        0.037175   -4.649878    1.211689
     23          1           0        0.008900   -2.487221    2.443647
     24          1           0       -0.787585    0.000250    2.145512
     25          1           0        0.931585    0.000250    2.146062
 ---------------------------------------------------------------------
                    Distance matrix (angstroms):
                    1          2          3          4          5
     1  C    0.000000
     2  C    1.406193   0.000000
     3  C    2.406711   1.386089   0.000000
     4  C    2.768775   2.419025   1.411070   0.000000
     5  C    5.693422   6.540766   6.234077   4.967262   0.000000
     6  C    6.540816   7.557489   7.423522   6.234472   1.411411
     7  C    6.246668   7.434741   7.557166   6.540832   2.419051
     8  C    4.982610   6.246793   6.540622   5.693586   2.768754
     9  C    2.491816   3.797483   4.296974   3.788205   3.789714
    10  C    3.741058   4.271066   3.780437   2.483804   2.483804
    11  C    1.421904   2.472850   2.831842   2.425023   4.271800
    12  C    2.437405   2.847301   2.471545   1.415629   3.784938
    13  C    3.798176   4.962324   5.147840   4.271690   2.425086
    14  C    4.277661   5.152377   4.951745   3.784693   1.415851
    15  H    1.083434   2.157166   3.386642   3.851450   6.288108
    16  H    2.163477   1.077177   2.142007   3.399540   7.599209
    17  H    3.378420   2.139071   1.056319   2.128846   7.092964
    18  H    3.850788   3.393227   2.157337   1.082687   5.087641
    19  H    4.603801   4.894165   4.123884   2.717453   2.717498
    20  H    6.294088   6.964248   6.448523   5.087617   1.082691
    21  H    7.572249   8.549975   8.338816   7.093489   2.129368
    22  H    7.142584   8.384549   8.580277   7.599461   3.399704
    23  H    5.094908   6.452553   6.956575   6.288277   3.851438
    24  H    2.737066   4.082641   4.752498   4.399701   4.400031
    25  H    2.762668   4.097446   4.775022   4.441783   4.442129
                    6          7          8          9         10
     6  C    0.000000
     7  C    1.386084   0.000000
     8  C    2.406807   1.406086   0.000000
     9  C    4.299306   3.799805   2.494310   0.000000
    10  C    3.780824   4.271121   3.741169   2.883523   0.000000
    11  C    5.148344   4.962519   3.798485   1.466407   2.447096
    12  C    4.952395   5.152687   4.278044   2.511550   1.423769
    13  C    2.832298   2.473043   1.422165   1.468254   2.447031
    14  C    2.472188   2.847570   2.437611   2.512558   1.423556
    15  H    6.956731   6.452402   5.094875   2.675804   4.603039
    16  H    8.580402   8.384349   7.142511   4.654717   5.348006
    17  H    8.338690   8.549533   7.571938   5.352865   4.610910
    18  H    6.448931   6.964335   6.294260   4.661946   2.704524
    19  H    4.124284   4.894251   4.603920   3.964259   1.081085
    20  H    2.157573   3.393253   3.850775   4.663159   2.704503
    21  H    1.056423   2.139252   3.378615   5.355298   4.611433
    22  H    2.141949   1.077350   2.163553   4.657286   5.348235
    23  H    3.386705   2.157089   1.083437   2.678154   4.603146
    24  H    4.753228   4.083160   2.737510   1.063359   3.649016
    25  H    4.775857   4.098162   2.763699   1.145166   3.708851
                   11         12         13         14         15
    11  C    0.000000
    12  C    1.407950   0.000000
    13  C    2.489685   2.856204   0.000000
    14  C    2.856095   2.480342   1.407948   0.000000
    15  H    2.159585   3.410621   4.128792   4.895780   0.000000
    16  H    3.446674   3.924278   5.918708   6.201957   2.489048
    17  H    3.887228   3.410993   6.168882   5.873075   4.278751
    18  H    3.402165   2.156495   4.894943   4.121823   4.933777
    19  H    3.422076   2.169226   3.422048   2.169115   5.543438
    20  H    4.895019   4.122027   3.402201   2.156625   7.006195
    21  H    6.169498   5.873847   3.887790   3.411757   8.009646
    22  H    5.919101   6.202452   3.447062   3.924722   7.242375
    23  H    4.129103   4.896135   2.159778   3.410783   4.974117
    24  H    2.076742   3.224281   2.076999   3.224463   2.628390
    25  H    2.142462   3.274816   2.142771   3.274890   2.668573
                   16         17         18         19         20
    16  H    0.000000
    17  H    2.484779   0.000000
    18  H    4.287244   2.445300   0.000000
    19  H    5.956414   4.771552   2.487766   0.000000
    20  H    8.040067   7.199176   4.974925   2.487793   0.000000
    21  H    9.585624   9.216499   7.199719   4.772105   2.445775
    22  H    9.299381   9.585379   8.040330   5.956659   4.287386
    23  H    7.242333   8.009378   7.006369   5.543550   4.933771
    24  H    4.813393   5.789881   5.316872   4.713744   5.317163
    25  H    4.825717   5.813452   5.345888   4.758795   5.346129
                   21         22         23         24         25
    21  H    0.000000
    22  H    2.484767   0.000000
    23  H    4.278896   2.489097   0.000000
    24  H    5.790756   4.814140   2.628837   0.000000
    25  H    5.814368   4.826667   2.669722   1.719170   0.000000
 Stoichiometry    C14H11(1+)
 Framework group  C1[X(C14H11)]
 Deg. of freedom    69
 Full point group                 C1      NOp   1
 Largest Abelian subgroup         C1      NOp   1
 Largest concise Abelian subgroup C1      NOp   1
                         Standard orientation:                         
 ---------------------------------------------------------------------
 Center     Atomic      Atomic             Coordinates (Angstroms)
 Number     Number       Type             X           Y           Z
 ---------------------------------------------------------------------
      1          6           0       -2.491186   -1.360712    0.003380
      2          6           0       -3.717300   -0.672495    0.022890
      3          6           0       -3.711497    0.713582    0.023590
      4          6           0       -2.483549    1.408029   -0.008166
      5          6           0        2.483713    1.407918   -0.007923
      6          6           0        3.712025    0.713421    0.023728
      7          6           0        3.717441   -0.672652    0.022853
      8          6           0        2.491424   -1.360805    0.002724
      9          6           0       -0.001132   -1.453457   -0.009937
     10          6           0        0.000083    1.430012   -0.027412
     11          6           0       -1.244869   -0.676726   -0.022481
     12          6           0       -1.240229    0.731152   -0.009022
     13          6           0        1.244816   -0.676780   -0.022409
     14          6           0        1.240113    0.731093   -0.008676
     15          1           0       -2.486949   -2.443294   -0.039368
     16          1           0       -4.649531   -1.212079    0.012647
     17          1           0       -4.607910    1.272347    0.017651
     18          1           0       -2.487371    2.489969    0.031844
     19          1           0        0.000081    2.510793   -0.001728
     20          1           0        2.487554    2.489855    0.032287
     21          1           0        4.608589    1.272143    0.018044
     22          1           0        4.649850   -1.212275    0.012620
     23          1           0        2.487168   -2.443383   -0.040174
     24          1           0       -0.000249   -2.129478   -0.830745
     25          1           0       -0.000351   -2.164074    0.888077
 ---------------------------------------------------------------------
 Rotational constants (GHZ):           2.1347915           0.4408868           0.3662389
 Standard basis: 6-311++G(d,p) (5D, 7F)
 There are   399 symmetry adapted cartesian basis functions of A   symmetry.
 There are   385 symmetry adapted basis functions of A   symmetry.
   385 basis functions,   603 primitive gaussians,   399 cartesian basis functions
    47 alpha electrons       47 beta electrons
       nuclear repulsion energy       779.0489786111 Hartrees.
 NAtoms=   25 NActive=   25 NUniq=   25 SFac= 1.00D+00 NAtFMM=   60 NAOKFM=F Big=F
 Integral buffers will be    131072 words long.
 Regular integral format.
 Two-electron integral symmetry is turned on.
 Nuclear repulsion after empirical dispersion term =      779.0479983092 Hartrees.
 One-electron integrals computed using PRISM.
 NBasis=   385 RedAO= T EigKep=  1.49D-06  NBF=   385
 NBsUse=   379 1.00D-06 EigRej=  9.14D-07 NBFU=   379
 ExpMin= 3.60D-02 ExpMax= 4.56D+03 ExpMxC= 6.82D+02 IAcc=3 IRadAn=         5 AccDes= 0.00D+00
 Harris functional with IExCor= 1009 and IRadAn=       5 diagonalized for initial guess.
 HarFok:  IExCor= 1009 AccDes= 0.00D+00 IRadAn=         5 IDoV= 1 UseB2=F ITyADJ=14
 ICtDFT=  3500011 ScaDFX=  1.000000  1.000000  1.000000  1.000000
 FoFCou: FMM=F IPFlag=           0 FMFlag=      100000 FMFlg1=           0
         NFxFlg=           0 DoJE=T BraDBF=F KetDBF=T FulRan=T
         wScrn=  0.000000 ICntrl=       500 IOpCl=  0 I1Cent=   200000004 NGrid=           0
         NMat0=    1 NMatS0=      1 NMatT0=    0 NMatD0=    1 NMtDS0=    0 NMtDT0=    0
 Petite list used in FoFCou.
 Requested convergence on RMS density matrix=1.00D-08 within 128 cycles.
 Requested convergence on MAX density matrix=1.00D-06.
 Requested convergence on             energy=1.00D-06.
 No special actions if energy rises.
 SCF Done:  E(RM062X) =  -539.753693307     A.U. after   15 cycles
            NFock= 15  Conv=0.53D-08     -V/T= 2.0044
 DoSCS=F DFT=T ScalE2(SS,OS)=  1.000000  1.000000
 ExpMin= 3.60D-02 ExpMax= 4.56D+03 ExpMxC= 6.82D+02 IAcc=3 IRadAn=         5 AccDes= 0.00D+00
 HarFok:  IExCor=  205 AccDes= 0.00D+00 IRadAn=         5 IDoV=-2 UseB2=F ITyADJ=14
 ICtDFT= 12500011 ScaDFX=  1.000000  1.000000  1.000000  1.000000
 Range of M.O.s used for correlation:    15   379
 NBasis=   385 NAE=    47 NBE=    47 NFC=    14 NFV=     0
 NROrb=    365 NOA=    33 NOB=    33 NVA=   332 NVB=   332

 **** Warning!!: The largest alpha MO coefficient is  0.14855059D+03

 Orbital symmetries:
       Occupied  (A) (A) (A) (A) (A) (A) (A) (A) (A) (A) (A) (A)
                 (A) (A) (A) (A) (A) (A) (A) (A) (A) (A) (A) (A)
                 (A) (A) (A) (A) (A) (A) (A) (A) (A) (A) (A) (A)
                 (A) (A) (A) (A) (A) (A) (A) (A) (A) (A) (A)
       Virtual   (A) (A) (A) (A) (A) (A) (A) (A) (A) (A) (A) (A)
                 (A) (A) (A) (A) (A) (A) (A) (A) (A) (A) (A) (A)
                 (A) (A) (A) (A) (A) (A) (A) (A) (A) (A) (A) (A)
                 (A) (A) (A) (A) (A) (A) (A) (A) (A) (A) (A) (A)
                 (A) (A) (A) (A) (A) (A) (A) (A) (A) (A) (A) (A)
                 (A) (A) (A) (A) (A) (A) (A) (A) (A) (A) (A) (A)
                 (A) (A) (A) (A) (A) (A) (A) (A) (A) (A) (A) (A)
                 (A) (A) (A) (A) (A) (A) (A) (A) (A) (A) (A) (A)
                 (A) (A) (A) (A) (A) (A) (A) (A) (A) (A) (A) (A)
                 (A) (A) (A) (A) (A) (A) (A) (A) (A) (A) (A) (A)
                 (A) (A) (A) (A) (A) (A) (A) (A) (A) (A) (A) (A)
                 (A) (A) (A) (A) (A) (A) (A) (A) (A) (A) (A) (A)
                 (A) (A) (A) (A) (A) (A) (A) (A) (A) (A) (A) (A)
                 (A) (A) (A) (A) (A) (A) (A) (A) (A) (A) (A) (A)
                 (A) (A) (A) (A) (A) (A) (A) (A) (A) (A) (A) (A)
                 (A) (A) (A) (A) (A) (A) (A) (A) (A) (A) (A) (A)
                 (A) (A) (A) (A) (A) (A) (A) (A) (A) (A) (A) (A)
                 (A) (A) (A) (A) (A) (A) (A) (A) (A) (A) (A) (A)
                 (A) (A) (A) (A) (A) (A) (A) (A) (A) (A) (A) (A)
                 (A) (A) (A) (A) (A) (A) (A) (A) (A) (A) (A) (A)
                 (A) (A) (A) (A) (A) (A) (A) (A) (A) (A) (A) (A)
                 (A) (A) (A) (A) (A) (A) (A) (A) (A) (A) (A) (A)
                 (A) (A) (A) (A) (A) (A) (A) (A) (A) (A) (A) (A)
                 (A) (A) (A) (A) (A) (A) (A) (A) (A) (A) (A) (A)
                 (A) (A) (A) (A) (A) (A) (A) (A) (A) (A) (A) (A)
                 (A) (A) (A) (A) (A) (A) (A) (A) (A) (A) (A) (A)
                 (A) (A) (A) (A) (A) (A) (A) (A) (A) (A) (A) (A)
                 (A) (A) (A) (A) (A) (A) (A) (A)
     4 initial guesses have been made.
 Convergence on wavefunction:    0.001000000000000
 Iteration     1 Dimension     4 NMult     0 NNew      4
 CISAX will form     4 AO SS matrices at one time.
 Iteration     2 Dimension     6 NMult     4 NNew      2
 Iteration     3 Dimension     8 NMult     6 NNew      2
 Iteration     4 Dimension    10 NMult     8 NNew      2
 Iteration     5 Dimension    12 NMult    10 NNew      2
 Iteration     6 Dimension    14 NMult    12 NNew      2
 ***********************************************************************
 Excited states from <AA,BB:AA,BB> singles matrix:
 ***********************************************************************
 
 Ground to excited state transition densities written to RWF  633
 Ground to excited state transition electric dipole moments (Au):
       state          X           Y           Z        Dip. S.      Osc.
         1        -0.0015     -0.6285      0.0087      0.3951      0.0269
 Ground to excited state transition velocity dipole moments (Au):
       state          X           Y           Z        Dip. S.      Osc.
         1         0.0001      0.0716     -0.0011      0.0051      0.0335
 Ground to excited state transition magnetic dipole moments (Au):
       state          X           Y           Z
         1        -0.0114     -0.0001     -0.0000
 Ground to excited state transition velocity quadrupole moments (Au):
       state          XX          YY          ZZ          XY          XZ          YZ
         1         0.3196      0.0287     -0.0093      0.0002      0.0000      0.0019
 <0|del|b> * <b|rxdel|0> + <0|del|b> * <b|delr+rdel|0>
 Rotatory Strengths (R) in cgs (10**-40 erg-esu-cm/Gauss)
       state          XX          YY          ZZ    R(velocity)    E-M Angle
         1        -0.0327     -0.0042     -0.0295     -0.0221       90.00
 1/2[<0|r|b>*<b|rxdel|0> + (<0|rxdel|b>*<b|r|0>)*]
 Rotatory Strengths (R) in cgs (10**-40 erg-esu-cm/Gauss)
       state          XX          YY          ZZ     R(length)
         1        -0.0121     -0.0489      0.0001     -0.0203
  1/2[<0|del|b>*<b|r|0> + (<0|r|b>*<b|del|0>)*] (Au)
       state          X           Y           Z        Dip. S.   Osc.(frdel)
         1        -0.0000     -0.0450     -0.0000      0.0450      0.0300

 Excitation energies and oscillator strengths:
 
 Excited State   1:      Singlet-A      2.7779 eV  446.32 nm  f=0.0269  <S**2>=0.000
      47 -> 48         0.70427
 This state for optimization and/or second-order correction.
 Total Energy, E(TD-HF/TD-DFT) =  -539.651607294    
 Copying the excited state density for this state as the 1-particle RhoCI density.
 SavETr:  write IOETrn=   770 NScale= 10 NData=  16 NLR=1 NState=    1 LETran=      28.

 **********************************************************************

            Population analysis using the SCF Density.

 **********************************************************************

 Orbital symmetries:
       Occupied  (A) (A) (A) (A) (A) (A) (A) (A) (A) (A) (A) (A)
                 (A) (A) (A) (A) (A) (A) (A) (A) (A) (A) (A) (A)
                 (A) (A) (A) (A) (A) (A) (A) (A) (A) (A) (A) (A)
                 (A) (A) (A) (A) (A) (A) (A) (A) (A) (A) (A)
       Virtual   (A) (A) (A) (A) (A) (A) (A) (A) (A) (A) (A) (A)
                 (A) (A) (A) (A) (A) (A) (A) (A) (A) (A) (A) (A)
                 (A) (A) (A) (A) (A) (A) (A) (A) (A) (A) (A) (A)
                 (A) (A) (A) (A) (A) (A) (A) (A) (A) (A) (A) (A)
                 (A) (A) (A) (A) (A) (A) (A) (A) (A) (A) (A) (A)
                 (A) (A) (A) (A) (A) (A) (A) (A) (A) (A) (A) (A)
                 (A) (A) (A) (A) (A) (A) (A) (A) (A) (A) (A) (A)
                 (A) (A) (A) (A) (A) (A) (A) (A) (A) (A) (A) (A)
                 (A) (A) (A) (A) (A) (A) (A) (A) (A) (A) (A) (A)
                 (A) (A) (A) (A) (A) (A) (A) (A) (A) (A) (A) (A)
                 (A) (A) (A) (A) (A) (A) (A) (A) (A) (A) (A) (A)
                 (A) (A) (A) (A) (A) (A) (A) (A) (A) (A) (A) (A)
                 (A) (A) (A) (A) (A) (A) (A) (A) (A) (A) (A) (A)
                 (A) (A) (A) (A) (A) (A) (A) (A) (A) (A) (A) (A)
                 (A) (A) (A) (A) (A) (A) (A) (A) (A) (A) (A) (A)
                 (A) (A) (A) (A) (A) (A) (A) (A) (A) (A) (A) (A)
                 (A) (A) (A) (A) (A) (A) (A) (A) (A) (A) (A) (A)
                 (A) (A) (A) (A) (A) (A) (A) (A) (A) (A) (A) (A)
                 (A) (A) (A) (A) (A) (A) (A) (A) (A) (A) (A) (A)
                 (A) (A) (A) (A) (A) (A) (A) (A) (A) (A) (A) (A)
                 (A) (A) (A) (A) (A) (A) (A) (A) (A) (A) (A) (A)
                 (A) (A) (A) (A) (A) (A) (A) (A) (A) (A) (A) (A)
                 (A) (A) (A) (A) (A) (A) (A) (A) (A) (A) (A) (A)
                 (A) (A) (A) (A) (A) (A) (A) (A) (A) (A) (A) (A)
                 (A) (A) (A) (A) (A) (A) (A) (A) (A) (A) (A) (A)
                 (A) (A) (A) (A) (A) (A) (A) (A) (A) (A) (A) (A)
                 (A) (A) (A) (A) (A) (A) (A) (A) (A) (A) (A) (A)
                 (A) (A) (A) (A) (A) (A) (A) (A)
 The electronic state is 1-A.
 Alpha  occ. eigenvalues --  -10.77654 -10.73328 -10.73314 -10.72633 -10.72631
 Alpha  occ. eigenvalues --  -10.71611 -10.71603 -10.71150 -10.71147 -10.70979
 Alpha  occ. eigenvalues --  -10.70235 -10.70229 -10.69567 -10.69560  -1.16305
 Alpha  occ. eigenvalues --   -1.11986  -1.06716  -1.05867  -1.00927  -1.00159
 Alpha  occ. eigenvalues --   -0.95611  -0.91093  -0.86405  -0.85825  -0.83792
 Alpha  occ. eigenvalues --   -0.78394  -0.75976  -0.74321  -0.69621  -0.69439
 Alpha  occ. eigenvalues --   -0.68786  -0.68278  -0.68066  -0.64399  -0.63988
 Alpha  occ. eigenvalues --   -0.63240  -0.62157  -0.59795  -0.59318  -0.59199
 Alpha  occ. eigenvalues --   -0.56972  -0.55315  -0.54949  -0.52255  -0.46389
 Alpha  occ. eigenvalues --   -0.45964  -0.44275
 Alpha virt. eigenvalues --   -0.26059  -0.14966  -0.14168  -0.13076  -0.11177
 Alpha virt. eigenvalues --   -0.10077  -0.09196  -0.08048  -0.07879  -0.07459
 Alpha virt. eigenvalues --   -0.07254  -0.07131  -0.05650  -0.05584  -0.05383
 Alpha virt. eigenvalues --   -0.03757  -0.03692  -0.03291  -0.03131  -0.02138
 Alpha virt. eigenvalues --   -0.01354  -0.00903   0.00192   0.00696   0.00764
 Alpha virt. eigenvalues --    0.01025   0.01508   0.01821   0.02192   0.02308
 Alpha virt. eigenvalues --    0.02383   0.02491   0.02824   0.03210   0.03414
 Alpha virt. eigenvalues --    0.04261   0.04496   0.04667   0.04921   0.05351
 Alpha virt. eigenvalues --    0.05932   0.06277   0.06614   0.07015   0.07157
 Alpha virt. eigenvalues --    0.07818   0.07935   0.08293   0.08470   0.08941
 Alpha virt. eigenvalues --    0.09571   0.09606   0.10005   0.10670   0.10980
 Alpha virt. eigenvalues --    0.11134   0.12285   0.12299   0.12844   0.13096
 Alpha virt. eigenvalues --    0.13411   0.13507   0.14042   0.14106   0.15733
 Alpha virt. eigenvalues --    0.16443   0.16751   0.17047   0.17444   0.17641
 Alpha virt. eigenvalues --    0.18041   0.18737   0.19122   0.19535   0.19699
 Alpha virt. eigenvalues --    0.21350   0.21386   0.22459   0.23133   0.23145
 Alpha virt. eigenvalues --    0.23591   0.24439   0.24510   0.26711   0.27340
 Alpha virt. eigenvalues --    0.28803   0.29239   0.29724   0.31066   0.35763
 Alpha virt. eigenvalues --    0.36020   0.37586   0.39024   0.41143   0.41534
 Alpha virt. eigenvalues --    0.41897   0.42507   0.43048   0.43444   0.43999
 Alpha virt. eigenvalues --    0.44006   0.44659   0.44667   0.46017   0.47821
 Alpha virt. eigenvalues --    0.48675   0.48967   0.48981   0.50488   0.50994
 Alpha virt. eigenvalues --    0.51203   0.51252   0.52139   0.52212   0.53984
 Alpha virt. eigenvalues --    0.54111   0.54379   0.55768   0.55878   0.57235
 Alpha virt. eigenvalues --    0.58109   0.58680   0.61279   0.61978   0.62225
 Alpha virt. eigenvalues --    0.62678   0.63314   0.63711   0.65111   0.66796
 Alpha virt. eigenvalues --    0.70512   0.70526   0.70830   0.71667   0.72621
 Alpha virt. eigenvalues --    0.74779   0.75375   0.76025   0.76037   0.76700
 Alpha virt. eigenvalues --    0.77093   0.77510   0.77990   0.80381   0.80644
 Alpha virt. eigenvalues --    0.80945   0.81765   0.81939   0.82642   0.84248
 Alpha virt. eigenvalues --    0.86091   0.86303   0.87681   0.89350   0.90518
 Alpha virt. eigenvalues --    0.90851   0.91459   0.93112   0.94795   0.96174
 Alpha virt. eigenvalues --    0.96838   1.00354   1.01155   1.01606   1.02519
 Alpha virt. eigenvalues --    1.03036   1.04116   1.04160   1.06680   1.09022
 Alpha virt. eigenvalues --    1.19885   1.23283   1.24112   1.25698   1.27999
 Alpha virt. eigenvalues --    1.28840   1.32249   1.33264   1.34996   1.35878
 Alpha virt. eigenvalues --    1.38667   1.40098   1.40203   1.42743   1.42801
 Alpha virt. eigenvalues --    1.43176   1.44801   1.44822   1.46727   1.46876
 Alpha virt. eigenvalues --    1.47245   1.47547   1.51437   1.53607   1.55316
 Alpha virt. eigenvalues --    1.55651   1.56067   1.56625   1.57480   1.61085
 Alpha virt. eigenvalues --    1.63617   1.64314   1.64359   1.65852   1.67691
 Alpha virt. eigenvalues --    1.68412   1.68688   1.69607   1.73605   1.75755
 Alpha virt. eigenvalues --    1.76867   1.77579   1.79041   1.79688   1.79772
 Alpha virt. eigenvalues --    1.82935   1.82965   1.83054   1.83284   1.83824
 Alpha virt. eigenvalues --    1.84350   1.85674   1.85880   1.88015   1.91364
 Alpha virt. eigenvalues --    1.91576   1.94068   1.95307   1.97230   1.97314
 Alpha virt. eigenvalues --    1.98977   2.02221   2.03728   2.07538   2.11463
 Alpha virt. eigenvalues --    2.11690   2.13123   2.14989   2.18098   2.20332
 Alpha virt. eigenvalues --    2.21707   2.28197   2.29071   2.34067   2.35681
 Alpha virt. eigenvalues --    2.35856   2.38872   2.40334   2.40634   2.41637
 Alpha virt. eigenvalues --    2.45532   2.47784   2.49771   2.52882   2.53624
 Alpha virt. eigenvalues --    2.53995   2.56798   2.57760   2.58404   2.59539
 Alpha virt. eigenvalues --    2.59777   2.61022   2.61766   2.62832   2.63251
 Alpha virt. eigenvalues --    2.63568   2.64413   2.64682   2.65362   2.67594
 Alpha virt. eigenvalues --    2.69081   2.70793   2.71231   2.73440   2.74747
 Alpha virt. eigenvalues --    2.76264   2.77941   2.79438   2.82026   2.82618
 Alpha virt. eigenvalues --    2.83950   2.86353   2.91986   2.95697   2.99291
 Alpha virt. eigenvalues --    2.99359   3.06061   3.09326   3.09933   3.10645
 Alpha virt. eigenvalues --    3.20611   3.23065   3.25352   3.27234   3.29845
 Alpha virt. eigenvalues --    3.30445   3.32063   3.43267   3.43567   3.45236
 Alpha virt. eigenvalues --    3.46564   3.48774   3.55947   3.64285   3.67045
 Alpha virt. eigenvalues --    3.68848   3.94211   3.95731   3.96500   3.97901
 Alpha virt. eigenvalues --    4.04641   4.06301   4.07627   4.12343   4.35635
 Alpha virt. eigenvalues --    4.61418   4.68036   4.69650  23.45777  23.62147
 Alpha virt. eigenvalues --   23.80900  23.86221  23.86457  23.88966  23.90278
 Alpha virt. eigenvalues --   23.92499  23.95688  23.96073  23.96225  23.98366
 Alpha virt. eigenvalues --   24.08604  24.08785
          Condensed to atoms (all electrons):
               1          2          3          4          5          6
     1  C    8.232756   0.606098  -0.593251   1.482853   0.016473  -0.079283
     2  C    0.606098   6.743978   0.363364  -0.662231  -0.052935  -0.014560
     3  C   -0.593251   0.363364   6.563434   0.474009  -0.104698   0.016166
     4  C    1.482853  -0.662231   0.474009   9.991852   0.087374  -0.104666
     5  C    0.016473  -0.052935  -0.104698   0.087374   9.985864   0.470365
     6  C   -0.079283  -0.014560   0.016166  -0.104666   0.470365   6.562907
     7  C   -0.034867   0.009750  -0.014589  -0.053068  -0.658013   0.362754
     8  C    0.363940  -0.034825  -0.079293   0.016046   1.484921  -0.595224
     9  C   -1.417752  -0.503888   0.257080  -0.521602  -0.523883   0.257273
    10  C   -1.004359   0.105088  -0.301632  -2.161164  -2.158851  -0.300972
    11  C    0.132689  -0.928511   1.108244  -0.957889  -1.638158  -0.115728
    12  C   -1.212105   0.824301  -1.233561  -0.345396  -0.015836  -0.212917
    13  C    0.058991  -0.150338  -0.116637  -1.641273  -0.965277   1.110060
    14  C   -0.987699  -0.207477  -0.213065  -0.019637  -0.342378  -1.230804
    15  H    0.353481  -0.097631   0.000444   0.022373   0.004961   0.001195
    16  H   -0.025397   0.382600  -0.019236   0.012591  -0.001370  -0.000308
    17  H   -0.015791  -0.027045   0.387166  -0.054579  -0.000275   0.000350
    18  H    0.042233   0.011248  -0.098380   0.435301   0.013248  -0.004361
    19  H   -0.043139  -0.009510   0.052472  -0.079164  -0.079088   0.052510
    20  H    0.006999   0.001429  -0.004361   0.013207   0.434904  -0.098470
    21  H   -0.001184  -0.000341   0.000350  -0.000270  -0.054510   0.387144
    22  H    0.000575   0.000330  -0.000308  -0.001378   0.012626  -0.019263
    23  H    0.005656  -0.002455   0.001195   0.004975   0.022295   0.000441
    24  H    0.009414   0.015110  -0.001406  -0.014326  -0.014494  -0.001348
    25  H    0.053777   0.012011  -0.000926  -0.011787  -0.011607  -0.001005
               7          8          9         10         11         12
     1  C   -0.034867   0.363940  -1.417752  -1.004359   0.132689  -1.212105
     2  C    0.009750  -0.034825  -0.503888   0.105088  -0.928511   0.824301
     3  C   -0.014589  -0.079293   0.257080  -0.301632   1.108244  -1.233561
     4  C   -0.053068   0.016046  -0.521602  -2.161164  -0.957889  -0.345396
     5  C   -0.658013   1.484921  -0.523883  -2.158851  -1.638158  -0.015836
     6  C    0.362754  -0.595224   0.257273  -0.300972  -0.115728  -0.212917
     7  C    6.738248   0.607156  -0.500524   0.103626  -0.148712  -0.207557
     8  C    0.607156   8.229089  -1.415788  -1.003770   0.059052  -0.983762
     9  C   -0.500524  -1.415788   8.464628   0.506778   1.451103  -1.066482
    10  C    0.103626  -1.003770   0.506778   8.763474  -0.157423   1.599322
    11  C   -0.148712   0.059052   1.451103  -0.157423  13.731193  -3.124584
    12  C   -0.207557  -0.983762  -1.066482   1.599322  -3.124584  13.807381
    13  C   -0.925870   0.126423   1.450716  -0.160950   1.477738  -4.371517
    14  C    0.818227  -1.210108  -1.064988   1.596968  -4.364504   2.175639
    15  H   -0.002438   0.005641   0.079847  -0.009190  -0.013103  -0.018474
    16  H    0.000328   0.000559   0.003112  -0.009948   0.024783  -0.026146
    17  H   -0.000339  -0.001179  -0.001831   0.015719  -0.016658   0.064169
    18  H    0.001425   0.006985  -0.027913   0.030953  -0.030742  -0.030202
    19  H   -0.009535  -0.043136   0.068854   0.425209   0.086211  -0.067413
    20  H    0.011392   0.042183  -0.027896   0.031165  -0.010969  -0.004071
    21  H   -0.027099  -0.015665  -0.001840   0.015713  -0.005137   0.003248
    22  H    0.382569  -0.025283   0.003194  -0.010015   0.002012  -0.008006
    23  H   -0.097353   0.353617   0.079743  -0.009163  -0.001352   0.005696
    24  H    0.015301   0.009992   0.379787   0.008344  -0.000198  -0.031921
    25  H    0.011761   0.052997   0.337675   0.003940   0.022893  -0.082510
              13         14         15         16         17         18
     1  C    0.058991  -0.987699   0.353481  -0.025397  -0.015791   0.042233
     2  C   -0.150338  -0.207477  -0.097631   0.382600  -0.027045   0.011248
     3  C   -0.116637  -0.213065   0.000444  -0.019236   0.387166  -0.098380
     4  C   -1.641273  -0.019637   0.022373   0.012591  -0.054579   0.435301
     5  C   -0.965277  -0.342378   0.004961  -0.001370  -0.000275   0.013248
     6  C    1.110060  -1.230804   0.001195  -0.000308   0.000350  -0.004361
     7  C   -0.925870   0.818227  -0.002438   0.000328  -0.000339   0.001425
     8  C    0.126423  -1.210108   0.005641   0.000559  -0.001179   0.006985
     9  C    1.450716  -1.064988   0.079847   0.003112  -0.001831  -0.027913
    10  C   -0.160950   1.596968  -0.009190  -0.009948   0.015719   0.030953
    11  C    1.477738  -4.364504  -0.013103   0.024783  -0.016658  -0.030742
    12  C   -4.371517   2.175639  -0.018474  -0.026146   0.064169  -0.030202
    13  C   13.754274  -3.121546  -0.001303   0.001986  -0.005142  -0.011102
    14  C   -3.121546  13.805735   0.005726  -0.007971   0.003251  -0.004218
    15  H   -0.001303   0.005726   0.442255  -0.008934   0.001600   0.000057
    16  H    0.001986  -0.007971  -0.008934   0.420764  -0.007233   0.001978
    17  H   -0.005142   0.003251   0.001600  -0.007233   0.427003  -0.010866
    18  H   -0.011102  -0.004218   0.000057   0.001978  -0.010866   0.456793
    19  H    0.086474  -0.067091   0.000403  -0.000602   0.001461  -0.006138
    20  H   -0.030802  -0.030297  -0.000150   0.000017  -0.000148   0.001224
    21  H   -0.016641   0.064008   0.000025  -0.000007   0.000011  -0.000148
    22  H    0.024941  -0.026432  -0.000129   0.000007  -0.000007   0.000017
    23  H   -0.013273  -0.018416   0.000556  -0.000129   0.000025  -0.000150
    24  H   -0.000150  -0.031545  -0.001882   0.000811  -0.000215   0.000098
    25  H    0.022773  -0.082989  -0.000040   0.000405  -0.000090   0.000297
              19         20         21         22         23         24
     1  C   -0.043139   0.006999  -0.001184   0.000575   0.005656   0.009414
     2  C   -0.009510   0.001429  -0.000341   0.000330  -0.002455   0.015110
     3  C    0.052472  -0.004361   0.000350  -0.000308   0.001195  -0.001406
     4  C   -0.079164   0.013207  -0.000270  -0.001378   0.004975  -0.014326
     5  C   -0.079088   0.434904  -0.054510   0.012626   0.022295  -0.014494
     6  C    0.052510  -0.098470   0.387144  -0.019263   0.000441  -0.001348
     7  C   -0.009535   0.011392  -0.027099   0.382569  -0.097353   0.015301
     8  C   -0.043136   0.042183  -0.015665  -0.025283   0.353617   0.009992
     9  C    0.068854  -0.027896  -0.001840   0.003194   0.079743   0.379787
    10  C    0.425209   0.031165   0.015713  -0.010015  -0.009163   0.008344
    11  C    0.086211  -0.010969  -0.005137   0.002012  -0.001352  -0.000198
    12  C   -0.067413  -0.004071   0.003248  -0.008006   0.005696  -0.031921
    13  C    0.086474  -0.030802  -0.016641   0.024941  -0.013273  -0.000150
    14  C   -0.067091  -0.030297   0.064008  -0.026432  -0.018416  -0.031545
    15  H    0.000403  -0.000150   0.000025  -0.000129   0.000556  -0.001882
    16  H   -0.000602   0.000017  -0.000007   0.000007  -0.000129   0.000811
    17  H    0.001461  -0.000148   0.000011  -0.000007   0.000025  -0.000215
    18  H   -0.006138   0.001224  -0.000148   0.000017  -0.000150   0.000098
    19  H    0.449211  -0.006128   0.001457  -0.000600   0.000404   0.000744
    20  H   -0.006128   0.456825  -0.010844   0.001980   0.000052   0.000095
    21  H    0.001457  -0.010844   0.426919  -0.007229   0.001601  -0.000215
    22  H   -0.000600   0.001980  -0.007229   0.420775  -0.008934   0.000804
    23  H    0.000404   0.000052   0.001601  -0.008934   0.442142  -0.001837
    24  H    0.000744   0.000095  -0.000215   0.000804  -0.001837   0.490119
    25  H    0.000393   0.000302  -0.000092   0.000413  -0.000077  -0.077456
              25
     1  C    0.053777
     2  C    0.012011
     3  C   -0.000926
     4  C   -0.011787
     5  C   -0.011607
     6  C   -0.001005
     7  C    0.011761
     8  C    0.052997
     9  C    0.337675
    10  C    0.003940
    11  C    0.022893
    12  C   -0.082510
    13  C    0.022773
    14  C   -0.082989
    15  H   -0.000040
    16  H    0.000405
    17  H   -0.000090
    18  H    0.000297
    19  H    0.000393
    20  H    0.000302
    21  H   -0.000092
    22  H    0.000413
    23  H   -0.000077
    24  H   -0.077456
    25  H    0.490098
 Mulliken charges:
               1
     1  C    0.048894
     2  C   -0.383561
     3  C   -0.442580
     4  C    0.087849
     5  C    0.088343
     6  C   -0.442254
     7  C   -0.382572
     8  C    0.049433
     9  C   -0.265400
    10  C    0.081137
    11  C   -0.582250
    12  C    0.562704
    13  C   -0.582557
    14  C    0.561610
    15  H    0.234709
    16  H    0.257338
    17  H    0.240647
    18  H    0.222363
    19  H    0.185743
    20  H    0.222358
    21  H    0.240744
    22  H    0.257343
    23  H    0.234740
    24  H    0.246373
    25  H    0.258846
 Sum of Mulliken charges =   1.00000
 Mulliken charges with hydrogens summed into heavy atoms:
               1
     1  C    0.283602
     2  C   -0.126223
     3  C   -0.201933
     4  C    0.310212
     5  C    0.310701
     6  C   -0.201510
     7  C   -0.125229
     8  C    0.284173
     9  C    0.239820
    10  C    0.266880
    11  C   -0.582250
    12  C    0.562704
    13  C   -0.582557
    14  C    0.561610
 Electronic spatial extent (au):  <R**2>=           2873.8791
 Charge=              1.0000 electrons
 Dipole moment (field-independent basis, Debye):
    X=              0.0014    Y=              0.1930    Z=              0.0040  Tot=              0.1930
 Quadrupole moment (field-independent basis, Debye-Ang):
   XX=            -30.7278   YY=            -56.2554   ZZ=            -84.2873
   XY=              0.0008   XZ=              0.0012   YZ=              0.2160
 Traceless Quadrupole moment (field-independent basis, Debye-Ang):
   XX=             26.3624   YY=              0.8348   ZZ=            -27.1972
   XY=              0.0008   XZ=              0.0012   YZ=              0.2160
 Octapole moment (field-independent basis, Debye-Ang**2):
  XXX=              0.0561  YYY=              5.1762  ZZZ=             -0.0503  XYY=             -0.0008
  XXY=             -3.7647  XXZ=              0.4333  XZZ=             -0.0062  YZZ=             -3.0917
  YYZ=              0.2673  XYZ=              0.0063
 Hexadecapole moment (field-independent basis, Debye-Ang**3):
 XXXX=          -2129.7157 YYYY=           -609.6261 ZZZZ=            -99.9928 XXXY=              0.0309
 XXXZ=              0.0361 YYYX=             -0.0125 YYYZ=              2.3746 ZZZX=              0.0018
 ZZZY=              0.0953 XXYY=           -510.9365 XXZZ=           -595.7313 YYZZ=           -145.9034
 XXYZ=              2.3796 YYXZ=             -0.0001 ZZXY=              0.0007
 N-N= 7.790479983092D+02 E-N=-2.794314735015D+03  KE= 5.373769546337D+02
 Unable to Open any file for archive entry.
 1\1\GINC-GADI-CPU-CLX-0113\SP\RM062X TD-FC\6-311++G(d,p)\C14H11(1+)\TS
 1578\28-Jul-2022\0\\#n M062X/6-311++G(d,p) TD(NStates=1) EmpiricalDisp
 ersion=GD3 SP\\SP_-100\\1,1\C,0,0.0313,2.491155,1.360431\C,0,0.03725,3
 .717283,0.671989\C,0,0.0105,3.711511,-0.71383\C,0,-0.035075,2.483581,-
 1.407538\C,0,-0.035125,-2.483681,-1.407538\C,0,0.0102,-3.712011,-0.713
 83\C,0,0.036775,-3.717458,0.671989\C,0,0.03035,-2.491455,1.360431\C,0,
 0.019675,0.0011,1.453369\C,0,-0.0549,-0.00005,-1.429189\C,0,-0.008175,
 1.244855,0.677065\C,0,-0.0226,1.240246,-0.730804\C,0,-0.00825,-1.24483
 ,0.677065\C,0,-0.0224,-1.240096,-0.730804\H,0,0.01,2.486896,2.443647\H
 ,0,0.03775,4.649503,1.211689\H,0,-0.00645,4.607937,-1.272349\H,0,-0.01
 65,2.487425,-2.490059\H,0,-0.050625,-0.000025,-2.510266\H,0,-0.01635,-
 2.4875,-2.490059\H,0,-0.0066,-4.608562,-1.272349\H,0,0.037175,-4.64987
 8,1.211689\H,0,0.0089,-2.487221,2.443647\H,0,-0.787585,0.00025,2.14551
 2\H,0,0.931585,0.00025,2.146062\\Version=ES64L-G16RevC.01\State=1-A\HF
 =-539.7536933\RMSD=5.265e-09\PG=C01 [X(C14H11)]\\@
 The archive entry for this job was punched.


 IN NATURE THERE ARE NEITHER REWARDS OR
 PUNISHMENTS -- THERE ARE CONSEQUENCES.

                            -- ROBERT GREEN INGERSOLL
 Job cpu time:       0 days  1 hours 21 minutes 23.0 seconds.
 Elapsed time:       0 days  0 hours  1 minutes 43.1 seconds.
 File lengths (MBytes):  RWF=    460 Int=      0 D2E=      0 Chk=     15 Scr=      1
 Normal termination of Gaussian 16 at Thu Jul 28 13:51:56 2022.
