 Entering Gaussian System, Link 0=g16
 Initial command:
 /apps/gaussian/g16c01/g16/l1.exe "/jobfs/53002009.gadi-pbs/Gau-792547.inp" -scrdir="/jobfs/53002009.gadi-pbs/"
 Entering Link 1 = /apps/gaussian/g16c01/g16/l1.exe PID=    792548.
  
 Copyright (c) 1988-2019, Gaussian, Inc.  All Rights Reserved.
  
 This is part of the Gaussian(R) 16 program.  It is based on
 the Gaussian(R) 09 system (copyright 2009, Gaussian, Inc.),
 the Gaussian(R) 03 system (copyright 2003, Gaussian, Inc.),
 the Gaussian(R) 98 system (copyright 1998, Gaussian, Inc.),
 the Gaussian(R) 94 system (copyright 1995, Gaussian, Inc.),
 the Gaussian 92(TM) system (copyright 1992, Gaussian, Inc.),
 the Gaussian 90(TM) system (copyright 1990, Gaussian, Inc.),
 the Gaussian 88(TM) system (copyright 1988, Gaussian, Inc.),
 the Gaussian 86(TM) system (copyright 1986, Carnegie Mellon
 University), and the Gaussian 82(TM) system (copyright 1983,
 Carnegie Mellon University). Gaussian is a federally registered
 trademark of Gaussian, Inc.
  
 This software contains proprietary and confidential information,
 including trade secrets, belonging to Gaussian, Inc.
  
 This software is provided under written license and may be
 used, copied, transmitted, or stored only in accord with that
 written license.
  
 The following legend is applicable only to US Government
 contracts under FAR:
  
                    RESTRICTED RIGHTS LEGEND
  
 Use, reproduction and disclosure by the US Government is
 subject to restrictions as set forth in subparagraphs (a)
 and (c) of the Commercial Computer Software - Restricted
 Rights clause in FAR 52.227-19.
  
 Gaussian, Inc.
 340 Quinnipiac St., Bldg. 40, Wallingford CT 06492
  
  
 ---------------------------------------------------------------
 Warning -- This program may not be used in any manner that
 competes with the business of Gaussian, Inc. or will provide
 assistance to any competitor of Gaussian, Inc.  The licensee
 of this program is prohibited from giving any competitor of
 Gaussian, Inc. access to this program.  By using this program,
 the user acknowledges that Gaussian, Inc. is engaged in the
 business of creating and licensing software in the field of
 computational chemistry and represents and warrants to the
 licensee that it is not a competitor of Gaussian, Inc. and that
 it will not use this program in any manner prohibited above.
 ---------------------------------------------------------------
  

 Cite this work as:
 Gaussian 16, Revision C.01,
 M. J. Frisch, G. W. Trucks, H. B. Schlegel, G. E. Scuseria, 
 M. A. Robb, J. R. Cheeseman, G. Scalmani, V. Barone, 
 G. A. Petersson, H. Nakatsuji, X. Li, M. Caricato, A. V. Marenich, 
 J. Bloino, B. G. Janesko, R. Gomperts, B. Mennucci, H. P. Hratchian, 
 J. V. Ortiz, A. F. Izmaylov, J. L. Sonnenberg, D. Williams-Young, 
 F. Ding, F. Lipparini, F. Egidi, J. Goings, B. Peng, A. Petrone, 
 T. Henderson, D. Ranasinghe, V. G. Zakrzewski, J. Gao, N. Rega, 
 G. Zheng, W. Liang, M. Hada, M. Ehara, K. Toyota, R. Fukuda, 
 J. Hasegawa, M. Ishida, T. Nakajima, Y. Honda, O. Kitao, H. Nakai, 
 T. Vreven, K. Throssell, J. A. Montgomery, Jr., J. E. Peralta, 
 F. Ogliaro, M. J. Bearpark, J. J. Heyd, E. N. Brothers, K. N. Kudin, 
 V. N. Staroverov, T. A. Keith, R. Kobayashi, J. Normand, 
 K. Raghavachari, A. P. Rendell, J. C. Burant, S. S. Iyengar, 
 J. Tomasi, M. Cossi, J. M. Millam, M. Klene, C. Adamo, R. Cammi, 
 J. W. Ochterski, R. L. Martin, K. Morokuma, O. Farkas, 
 J. B. Foresman, and D. J. Fox, Gaussian, Inc., Wallingford CT, 2019.
 
 ******************************************
 Gaussian 16:  ES64L-G16RevC.01  3-Jul-2019
                28-Jul-2022 
 ******************************************
 %NProcShared=48
 Will use up to   48 processors via shared memory.
 %mem = 190GB
 ---------------------------------------------------------------
 #n M062X/6-311++G(d,p) TD(NStates=1) EmpiricalDispersion=GD3 SP
 ---------------------------------------------------------------
 1/38=1,172=1/1;
 2/12=2,17=6,18=5,40=1/2;
 3/5=4,6=6,7=1111,11=9,25=1,30=1,74=-55,124=31/1,2,3,8;
 4//1;
 5/5=2,38=5/2;
 8/6=1,10=2,108=1/1;
 9/41=1,42=1,70=2/14;
 6/7=2,8=2,9=2,10=2/1;
 99/5=1,9=1/99;
 ------
 SP_100
 ------
 Symbolic Z-matrix:
 Charge =  1 Multiplicity = 1
 C                    -0.0196    2.49325   1.36043 
 C                    -0.0242    3.69076   0.67199 
 C                    -0.0066    3.66476  -0.71383 
 C                     0.02345   2.44941  -1.40754 
 C                     0.02335  -2.44961  -1.40754 
 C                    -0.0072   -3.66576  -0.71383 
 C                    -0.02515  -3.69111   0.67199 
 C                    -0.0215   -2.49386   1.36043 
 C                    -0.01315   0.0022    1.45337 
 C                     0.0366   -0.0001   -1.42919 
 C                     0.00555   1.27355   0.67707 
 C                     0.0148    1.23582  -0.7308 
 C                     0.0054   -1.2735    0.67707 
 C                     0.0152   -1.23552  -0.7308 
 H                    -0.0052    2.48842   2.44365 
 H                    -0.0244    4.62775   1.21169 
 H                     0.0045    4.60931  -1.27235 
 H                     0.0108    2.4542   -2.49006 
 H                     0.03375  -0.00005  -2.51027 
 H                     0.0111   -2.45435  -2.49006 
 H                     0.0042   -4.61056  -1.27235 
 H                    -0.02555  -4.6285    1.21169 
 H                    -0.0074   -2.48907   2.44365 
 H                    -0.90759   0.0005    2.14524 
 H                     0.81159   0.0005    2.14634 
 
                          Input orientation:                          
 ---------------------------------------------------------------------
 Center     Atomic      Atomic             Coordinates (Angstroms)
 Number     Number       Type             X           Y           Z
 ---------------------------------------------------------------------
      1          6           0       -0.019600    2.493255    1.360431
      2          6           0       -0.024200    3.690758    0.671989
      3          6           0       -0.006600    3.664761   -0.713830
      4          6           0        0.023450    2.449406   -1.407538
      5          6           0        0.023350   -2.449606   -1.407538
      6          6           0       -0.007200   -3.665761   -0.713830
      7          6           0       -0.025150   -3.691108    0.671989
      8          6           0       -0.021500   -2.493855    1.360431
      9          6           0       -0.013150    0.002200    1.453369
     10          6           0        0.036600   -0.000100   -1.429189
     11          6           0        0.005550    1.273555    0.677065
     12          6           0        0.014800    1.235821   -0.730804
     13          6           0        0.005400   -1.273505    0.677065
     14          6           0        0.015200   -1.235521   -0.730804
     15          1           0       -0.005200    2.488421    2.443647
     16          1           0       -0.024400    4.627753    1.211689
     17          1           0        0.004500    4.609312   -1.272349
     18          1           0        0.010800    2.454200   -2.490059
     19          1           0        0.033750   -0.000050   -2.510266
     20          1           0        0.011100   -2.454350   -2.490059
     21          1           0        0.004200   -4.610562   -1.272349
     22          1           0       -0.025550   -4.628503    1.211689
     23          1           0       -0.007400   -2.489071    2.443647
     24          1           0       -0.907585    0.000500    2.145237
     25          1           0        0.811585    0.000500    2.146337
 ---------------------------------------------------------------------
                    Distance matrix (angstroms):
                    1          2          3          4          5
     1  C    0.000000
     2  C    1.381299   0.000000
     3  C    2.382258   1.386175   0.000000
     4  C    2.768651   2.422325   1.399722   0.000000
     5  C    5.665278   6.483114   6.153667   4.899012   0.000000
     6  C    6.498938   7.485930   7.330522   6.154465   1.400427
     7  C    6.222566   7.381866   7.485295   6.483264   2.422419
     8  C    4.987110   6.222813   6.498564   5.665642   2.768686
     9  C    2.492796   3.770429   4.255719   3.764963   3.767954
    10  C    3.741919   4.247479   3.734275   2.449637   2.449638
    11  C    1.398317   2.417391   2.766334   2.393432   4.267062
    12  C    2.440407   2.827731   2.429094   1.389544   3.747054
    13  C    3.828328   4.964354   5.130419   4.266844   2.393555
    14  C    4.275306   5.122266   4.900360   3.746562   1.389978
    15  H    1.083322   2.141202   3.369486   3.851489   6.262312
    16  H    2.139680   1.081312   2.152973   3.407027   7.546631
    17  H    3.377841   2.150585   1.097380   2.164216   7.060238
    18  H    3.850808   3.395416   2.149593   1.082606   5.021884
    19  H    4.604532   4.873620   4.081623   2.686252   2.686344
    20  H    6.269451   6.911016   6.371721   5.021835   1.082601
    21  H    7.576035   8.526029   8.294156   7.061288   2.165265
    22  H    7.123314   8.336749   8.513883   7.547155   3.407394
    23  H    5.098733   6.428790   6.916597   6.262678   3.851510
    24  H    2.760121   4.070483   4.734221   4.414315   4.414960
    25  H    2.742689   4.060818   4.719830   4.387291   4.387979
                    6          7          8          9         10
     6  C    0.000000
     7  C    1.386167   0.000000
     8  C    2.382462   1.381079   0.000000
     9  C    4.260367   3.775079   2.497799   0.000000
    10  C    3.735067   4.247623   3.742214   2.882988   0.000000
    11  C    5.131432   4.964761   3.828981   1.489745   2.461598
    12  C    4.901661   5.122895   4.276104   2.508628   1.419760
    13  C    2.767243   2.417801   1.398916   1.493457   2.461471
    14  C    2.430403   2.828315   2.440905   2.510651   1.419318
    15  H    6.916908   6.428511   5.098696   2.676193   4.603623
    16  H    8.514123   8.336350   7.123162   4.631876   5.328694
    17  H    8.293908   8.525157   7.575433   5.353067   4.612191
    18  H    6.372538   6.911197   6.269814   4.643652   2.673892
    19  H    4.082438   4.873820   4.604825   3.963913   1.081081
    20  H    2.150079   3.395502   3.850831   4.646058   2.673843
    21  H    1.097598   2.150978   3.378260   5.357930   4.613243
    22  H    2.152866   1.081659   2.139828   4.637022   5.329185
    23  H    3.369608   2.141023   1.083318   2.680879   4.603887
    24  H    4.735655   4.071501   2.760955   1.130795   3.697027
    25  H    4.721486   4.062240   2.744720   1.077216   3.658550
                   11         12         13         14         15
    11  C    0.000000
    12  C    1.408405   0.000000
    13  C    2.547060   2.877308   0.000000
    14  C    2.877091   2.471342   1.408415   0.000000
    15  H    2.144021   3.412704   4.156081   4.893393   0.000000
    16  H    3.396670   3.908966   5.925501   6.176798   2.468771
    17  H    3.863611   3.416697   6.197399   5.869877   4.278656
    18  H    3.380033   2.139963   4.891471   4.087669   4.933851
    19  H    3.432484   2.166615   3.432429   2.166384   5.543939
    20  H    4.891624   4.088075   3.380104   2.140219   6.983746
    21  H    6.198633   5.871420   3.864734   3.418230   8.012757
    22  H    5.926304   6.177799   3.397469   3.909893   7.222793
    23  H    4.156722   4.894124   2.144429   3.413069   4.977492
    24  H    2.147094   3.263192   2.147594   3.263570   2.663287
    25  H    2.104548   3.230917   2.105180   3.231086   2.635390
                   16         17         18         19         20
    16  H    0.000000
    17  H    2.484275   0.000000
    18  H    4.292844   2.475352   0.000000
    19  H    5.939099   4.772789   2.454440   0.000000
    20  H    7.991269   7.167858   4.908550   2.454488   0.000000
    21  H    9.566490   9.219874   7.168942   4.773901   2.476311
    22  H    9.256256   9.566011   7.991805   5.939616   4.293160
    23  H    7.222686   8.012229   6.984104   5.544202   4.933863
    24  H    4.802395   5.809728   5.324476   4.749718   5.325058
    25  H    4.794154   5.794821   5.306418   4.721121   5.306904
                   21         22         23         24         25
    21  H    0.000000
    22  H    2.484281   0.000000
    23  H    4.278958   2.468850   0.000000
    24  H    5.811466   4.803870   2.664084   0.000000
    25  H    5.796652   4.796043   2.637630   1.719170   0.000000
 Stoichiometry    C14H11(1+)
 Framework group  C1[X(C14H11)]
 Deg. of freedom    69
 Full point group                 C1      NOp   1
 Largest Abelian subgroup         C1      NOp   1
 Largest concise Abelian subgroup C1      NOp   1
                         Standard orientation:                         
 ---------------------------------------------------------------------
 Center     Atomic      Atomic             Coordinates (Angstroms)
 Number     Number       Type             X           Y           Z
 ---------------------------------------------------------------------
      1          6           0        2.493310   -1.360463    0.001393
      2          6           0        3.690784   -0.672093    0.015220
      3          6           0        3.664731    0.713836    0.015905
      4          6           0        2.449350    1.407831   -0.005134
      5          6           0       -2.449662    1.407632   -0.005621
      6          6           0       -3.665791    0.713532    0.015627
      7          6           0       -3.691082   -0.672404    0.015286
      8          6           0       -2.493800   -1.360690    0.002696
      9          6           0        0.002260   -1.453409   -0.006581
     10          6           0       -0.000155    1.429555   -0.018291
     11          6           0        1.273585   -0.676874   -0.014884
     12          6           0        1.235793    0.730993   -0.005560
     13          6           0       -1.273475   -0.676979   -0.015039
     14          6           0       -1.235549    0.730898   -0.006256
     15          1           0        2.488524   -2.443395   -0.027299
     16          1           0        4.627802   -1.211711    0.008411
     17          1           0        4.609260    1.272491    0.012289
     18          1           0        2.454097    2.490091    0.021799
     19          1           0       -0.000151    2.510500   -0.001176
     20          1           0       -2.454453    2.489897    0.020911
     21          1           0       -4.610614    1.272114    0.011484
     22          1           0       -4.628454   -1.212101    0.008452
     23          1           0       -2.488969   -2.443625   -0.025696
     24          1           0        0.000483   -2.157019    0.878647
     25          1           0        0.000688   -2.135434   -0.840388
 ---------------------------------------------------------------------
 Rotational constants (GHZ):           2.1355885           0.4471105           0.3705295
 Standard basis: 6-311++G(d,p) (5D, 7F)
 There are   399 symmetry adapted cartesian basis functions of A   symmetry.
 There are   385 symmetry adapted basis functions of A   symmetry.
   385 basis functions,   603 primitive gaussians,   399 cartesian basis functions
    47 alpha electrons       47 beta electrons
       nuclear repulsion energy       782.5480836677 Hartrees.
 NAtoms=   25 NActive=   25 NUniq=   25 SFac= 1.00D+00 NAtFMM=   60 NAOKFM=F Big=F
 Integral buffers will be    131072 words long.
 Regular integral format.
 Two-electron integral symmetry is turned on.
 Nuclear repulsion after empirical dispersion term =      782.5471045876 Hartrees.
 One-electron integrals computed using PRISM.
 NBasis=   385 RedAO= T EigKep=  1.25D-06  NBF=   385
 NBsUse=   379 1.00D-06 EigRej=  8.26D-07 NBFU=   379
 ExpMin= 3.60D-02 ExpMax= 4.56D+03 ExpMxC= 6.82D+02 IAcc=3 IRadAn=         5 AccDes= 0.00D+00
 Harris functional with IExCor= 1009 and IRadAn=       5 diagonalized for initial guess.
 HarFok:  IExCor= 1009 AccDes= 0.00D+00 IRadAn=         5 IDoV= 1 UseB2=F ITyADJ=14
 ICtDFT=  3500011 ScaDFX=  1.000000  1.000000  1.000000  1.000000
 FoFCou: FMM=F IPFlag=           0 FMFlag=      100000 FMFlg1=           0
         NFxFlg=           0 DoJE=T BraDBF=F KetDBF=T FulRan=T
         wScrn=  0.000000 ICntrl=       500 IOpCl=  0 I1Cent=   200000004 NGrid=           0
         NMat0=    1 NMatS0=      1 NMatT0=    0 NMatD0=    1 NMtDS0=    0 NMtDT0=    0
 Petite list used in FoFCou.
 Requested convergence on RMS density matrix=1.00D-08 within 128 cycles.
 Requested convergence on MAX density matrix=1.00D-06.
 Requested convergence on             energy=1.00D-06.
 No special actions if energy rises.
 SCF Done:  E(RM062X) =  -539.758396017     A.U. after   15 cycles
            NFock= 15  Conv=0.51D-08     -V/T= 2.0040
 DoSCS=F DFT=T ScalE2(SS,OS)=  1.000000  1.000000
 ExpMin= 3.60D-02 ExpMax= 4.56D+03 ExpMxC= 6.82D+02 IAcc=3 IRadAn=         5 AccDes= 0.00D+00
 HarFok:  IExCor=  205 AccDes= 0.00D+00 IRadAn=         5 IDoV=-2 UseB2=F ITyADJ=14
 ICtDFT= 12500011 ScaDFX=  1.000000  1.000000  1.000000  1.000000
 Range of M.O.s used for correlation:    15   379
 NBasis=   385 NAE=    47 NBE=    47 NFC=    14 NFV=     0
 NROrb=    365 NOA=    33 NOB=    33 NVA=   332 NVB=   332

 **** Warning!!: The largest alpha MO coefficient is  0.14539722D+03

 Orbital symmetries:
       Occupied  (A) (A) (A) (A) (A) (A) (A) (A) (A) (A) (A) (A)
                 (A) (A) (A) (A) (A) (A) (A) (A) (A) (A) (A) (A)
                 (A) (A) (A) (A) (A) (A) (A) (A) (A) (A) (A) (A)
                 (A) (A) (A) (A) (A) (A) (A) (A) (A) (A) (A)
       Virtual   (A) (A) (A) (A) (A) (A) (A) (A) (A) (A) (A) (A)
                 (A) (A) (A) (A) (A) (A) (A) (A) (A) (A) (A) (A)
                 (A) (A) (A) (A) (A) (A) (A) (A) (A) (A) (A) (A)
                 (A) (A) (A) (A) (A) (A) (A) (A) (A) (A) (A) (A)
                 (A) (A) (A) (A) (A) (A) (A) (A) (A) (A) (A) (A)
                 (A) (A) (A) (A) (A) (A) (A) (A) (A) (A) (A) (A)
                 (A) (A) (A) (A) (A) (A) (A) (A) (A) (A) (A) (A)
                 (A) (A) (A) (A) (A) (A) (A) (A) (A) (A) (A) (A)
                 (A) (A) (A) (A) (A) (A) (A) (A) (A) (A) (A) (A)
                 (A) (A) (A) (A) (A) (A) (A) (A) (A) (A) (A) (A)
                 (A) (A) (A) (A) (A) (A) (A) (A) (A) (A) (A) (A)
                 (A) (A) (A) (A) (A) (A) (A) (A) (A) (A) (A) (A)
                 (A) (A) (A) (A) (A) (A) (A) (A) (A) (A) (A) (A)
                 (A) (A) (A) (A) (A) (A) (A) (A) (A) (A) (A) (A)
                 (A) (A) (A) (A) (A) (A) (A) (A) (A) (A) (A) (A)
                 (A) (A) (A) (A) (A) (A) (A) (A) (A) (A) (A) (A)
                 (A) (A) (A) (A) (A) (A) (A) (A) (A) (A) (A) (A)
                 (A) (A) (A) (A) (A) (A) (A) (A) (A) (A) (A) (A)
                 (A) (A) (A) (A) (A) (A) (A) (A) (A) (A) (A) (A)
                 (A) (A) (A) (A) (A) (A) (A) (A) (A) (A) (A) (A)
                 (A) (A) (A) (A) (A) (A) (A) (A) (A) (A) (A) (A)
                 (A) (A) (A) (A) (A) (A) (A) (A) (A) (A) (A) (A)
                 (A) (A) (A) (A) (A) (A) (A) (A) (A) (A) (A) (A)
                 (A) (A) (A) (A) (A) (A) (A) (A) (A) (A) (A) (A)
                 (A) (A) (A) (A) (A) (A) (A) (A) (A) (A) (A) (A)
                 (A) (A) (A) (A) (A) (A) (A) (A) (A) (A) (A) (A)
                 (A) (A) (A) (A) (A) (A) (A) (A) (A) (A) (A) (A)
                 (A) (A) (A) (A) (A) (A) (A) (A)
     4 initial guesses have been made.
 Convergence on wavefunction:    0.001000000000000
 Iteration     1 Dimension     4 NMult     0 NNew      4
 CISAX will form     4 AO SS matrices at one time.
 Iteration     2 Dimension     6 NMult     4 NNew      2
 Iteration     3 Dimension     8 NMult     6 NNew      2
 Iteration     4 Dimension    10 NMult     8 NNew      2
 Iteration     5 Dimension    12 NMult    10 NNew      2
 Iteration     6 Dimension    14 NMult    12 NNew      2
 ***********************************************************************
 Excited states from <AA,BB:AA,BB> singles matrix:
 ***********************************************************************
 
 Ground to excited state transition densities written to RWF  633
 Ground to excited state transition electric dipole moments (Au):
       state          X           Y           Z        Dip. S.      Osc.
         1         0.0027     -0.6538      0.0061      0.4275      0.0298
 Ground to excited state transition velocity dipole moments (Au):
       state          X           Y           Z        Dip. S.      Osc.
         1        -0.0003      0.0757     -0.0008      0.0057      0.0366
 Ground to excited state transition magnetic dipole moments (Au):
       state          X           Y           Z
         1        -0.0084     -0.0002     -0.0002
 Ground to excited state transition velocity quadrupole moments (Au):
       state          XX          YY          ZZ          XY          XZ          YZ
         1         0.2788      0.0384     -0.0101     -0.0005      0.0000      0.0010
 <0|del|b> * <b|rxdel|0> + <0|del|b> * <b|delr+rdel|0>
 Rotatory Strengths (R) in cgs (10**-40 erg-esu-cm/Gauss)
       state          XX          YY          ZZ    R(velocity)    E-M Angle
         1        -0.0680      0.0065     -0.0432     -0.0349       90.00
 1/2[<0|r|b>*<b|rxdel|0> + (<0|rxdel|b>*<b|r|0>)*]
 Rotatory Strengths (R) in cgs (10**-40 erg-esu-cm/Gauss)
       state          XX          YY          ZZ     R(length)
         1         0.0161     -0.1101      0.0009     -0.0310
  1/2[<0|del|b>*<b|r|0> + (<0|r|b>*<b|del|0>)*] (Au)
       state          X           Y           Z        Dip. S.   Osc.(frdel)
         1        -0.0000     -0.0495     -0.0000      0.0495      0.0330

 Excitation energies and oscillator strengths:
 
 Excited State   1:      Singlet-A      2.8423 eV  436.21 nm  f=0.0298  <S**2>=0.000
      47 -> 48         0.70423
 This state for optimization and/or second-order correction.
 Total Energy, E(TD-HF/TD-DFT) =  -539.653944162    
 Copying the excited state density for this state as the 1-particle RhoCI density.
 SavETr:  write IOETrn=   770 NScale= 10 NData=  16 NLR=1 NState=    1 LETran=      28.

 **********************************************************************

            Population analysis using the SCF Density.

 **********************************************************************

 Orbital symmetries:
       Occupied  (A) (A) (A) (A) (A) (A) (A) (A) (A) (A) (A) (A)
                 (A) (A) (A) (A) (A) (A) (A) (A) (A) (A) (A) (A)
                 (A) (A) (A) (A) (A) (A) (A) (A) (A) (A) (A) (A)
                 (A) (A) (A) (A) (A) (A) (A) (A) (A) (A) (A)
       Virtual   (A) (A) (A) (A) (A) (A) (A) (A) (A) (A) (A) (A)
                 (A) (A) (A) (A) (A) (A) (A) (A) (A) (A) (A) (A)
                 (A) (A) (A) (A) (A) (A) (A) (A) (A) (A) (A) (A)
                 (A) (A) (A) (A) (A) (A) (A) (A) (A) (A) (A) (A)
                 (A) (A) (A) (A) (A) (A) (A) (A) (A) (A) (A) (A)
                 (A) (A) (A) (A) (A) (A) (A) (A) (A) (A) (A) (A)
                 (A) (A) (A) (A) (A) (A) (A) (A) (A) (A) (A) (A)
                 (A) (A) (A) (A) (A) (A) (A) (A) (A) (A) (A) (A)
                 (A) (A) (A) (A) (A) (A) (A) (A) (A) (A) (A) (A)
                 (A) (A) (A) (A) (A) (A) (A) (A) (A) (A) (A) (A)
                 (A) (A) (A) (A) (A) (A) (A) (A) (A) (A) (A) (A)
                 (A) (A) (A) (A) (A) (A) (A) (A) (A) (A) (A) (A)
                 (A) (A) (A) (A) (A) (A) (A) (A) (A) (A) (A) (A)
                 (A) (A) (A) (A) (A) (A) (A) (A) (A) (A) (A) (A)
                 (A) (A) (A) (A) (A) (A) (A) (A) (A) (A) (A) (A)
                 (A) (A) (A) (A) (A) (A) (A) (A) (A) (A) (A) (A)
                 (A) (A) (A) (A) (A) (A) (A) (A) (A) (A) (A) (A)
                 (A) (A) (A) (A) (A) (A) (A) (A) (A) (A) (A) (A)
                 (A) (A) (A) (A) (A) (A) (A) (A) (A) (A) (A) (A)
                 (A) (A) (A) (A) (A) (A) (A) (A) (A) (A) (A) (A)
                 (A) (A) (A) (A) (A) (A) (A) (A) (A) (A) (A) (A)
                 (A) (A) (A) (A) (A) (A) (A) (A) (A) (A) (A) (A)
                 (A) (A) (A) (A) (A) (A) (A) (A) (A) (A) (A) (A)
                 (A) (A) (A) (A) (A) (A) (A) (A) (A) (A) (A) (A)
                 (A) (A) (A) (A) (A) (A) (A) (A) (A) (A) (A) (A)
                 (A) (A) (A) (A) (A) (A) (A) (A) (A) (A) (A) (A)
                 (A) (A) (A) (A) (A) (A) (A) (A) (A) (A) (A) (A)
                 (A) (A) (A) (A) (A) (A) (A) (A)
 The electronic state is 1-A.
 Alpha  occ. eigenvalues --  -10.77681 -10.73212 -10.73184 -10.72316 -10.72314
 Alpha  occ. eigenvalues --  -10.71222 -10.71207 -10.70972 -10.70916 -10.70911
 Alpha  occ. eigenvalues --  -10.69816 -10.69805 -10.69694 -10.69680  -1.16548
 Alpha  occ. eigenvalues --   -1.12780  -1.07119  -1.05624  -1.01638  -1.00122
 Alpha  occ. eigenvalues --   -0.95901  -0.91023  -0.86440  -0.85959  -0.83828
 Alpha  occ. eigenvalues --   -0.78434  -0.76040  -0.74480  -0.69563  -0.69226
 Alpha  occ. eigenvalues --   -0.68511  -0.68071  -0.67891  -0.64976  -0.64488
 Alpha  occ. eigenvalues --   -0.62846  -0.61658  -0.60086  -0.59905  -0.59002
 Alpha  occ. eigenvalues --   -0.56868  -0.55133  -0.54713  -0.52562  -0.46865
 Alpha  occ. eigenvalues --   -0.46022  -0.44627
 Alpha virt. eigenvalues --   -0.26124  -0.14528  -0.14062  -0.12599  -0.11183
 Alpha virt. eigenvalues --   -0.10098  -0.09253  -0.08053  -0.07941  -0.07485
 Alpha virt. eigenvalues --   -0.07220  -0.07110  -0.05638  -0.05581  -0.05306
 Alpha virt. eigenvalues --   -0.03871  -0.03730  -0.03278  -0.03128  -0.02164
 Alpha virt. eigenvalues --   -0.01388  -0.00973   0.00197   0.00522   0.00681
 Alpha virt. eigenvalues --    0.01068   0.01512   0.01959   0.02229   0.02280
 Alpha virt. eigenvalues --    0.02458   0.02682   0.02899   0.03162   0.03323
 Alpha virt. eigenvalues --    0.04228   0.04511   0.04709   0.05118   0.05388
 Alpha virt. eigenvalues --    0.05943   0.06313   0.06622   0.07034   0.07268
 Alpha virt. eigenvalues --    0.07913   0.08290   0.08336   0.08606   0.08922
 Alpha virt. eigenvalues --    0.09529   0.09564   0.10032   0.10866   0.11053
 Alpha virt. eigenvalues --    0.11152   0.12189   0.12206   0.12910   0.12971
 Alpha virt. eigenvalues --    0.13429   0.13453   0.14014   0.14525   0.15905
 Alpha virt. eigenvalues --    0.16227   0.16630   0.17307   0.17412   0.17728
 Alpha virt. eigenvalues --    0.18128   0.19185   0.19326   0.19699   0.19742
 Alpha virt. eigenvalues --    0.21591   0.21679   0.22666   0.23048   0.23563
 Alpha virt. eigenvalues --    0.23785   0.24596   0.24927   0.26853   0.27734
 Alpha virt. eigenvalues --    0.28834   0.29262   0.29814   0.31410   0.35795
 Alpha virt. eigenvalues --    0.36635   0.38104   0.39403   0.41096   0.41325
 Alpha virt. eigenvalues --    0.41975   0.42062   0.42951   0.43875   0.44198
 Alpha virt. eigenvalues --    0.44746   0.45265   0.45745   0.46209   0.47875
 Alpha virt. eigenvalues --    0.48464   0.48863   0.48997   0.50371   0.51269
 Alpha virt. eigenvalues --    0.51641   0.51750   0.52183   0.53264   0.53899
 Alpha virt. eigenvalues --    0.53997   0.54805   0.55754   0.55808   0.57295
 Alpha virt. eigenvalues --    0.58267   0.58809   0.61469   0.62222   0.62244
 Alpha virt. eigenvalues --    0.63126   0.63609   0.64376   0.65208   0.66668
 Alpha virt. eigenvalues --    0.70397   0.70593   0.71014   0.72414   0.72769
 Alpha virt. eigenvalues --    0.75690   0.75713   0.76294   0.76475   0.76867
 Alpha virt. eigenvalues --    0.77600   0.77794   0.78272   0.80310   0.80604
 Alpha virt. eigenvalues --    0.81302   0.81673   0.82183   0.83062   0.84858
 Alpha virt. eigenvalues --    0.86952   0.87477   0.87947   0.89712   0.90452
 Alpha virt. eigenvalues --    0.91016   0.91540   0.93605   0.94880   0.96220
 Alpha virt. eigenvalues --    0.96769   1.00218   1.01340   1.01890   1.02922
 Alpha virt. eigenvalues --    1.03296   1.04211   1.04538   1.05707   1.09142
 Alpha virt. eigenvalues --    1.19232   1.23229   1.24083   1.25462   1.28176
 Alpha virt. eigenvalues --    1.30149   1.31266   1.34543   1.35881   1.36301
 Alpha virt. eigenvalues --    1.39472   1.40078   1.40963   1.43483   1.43596
 Alpha virt. eigenvalues --    1.43769   1.45221   1.45514   1.46489   1.46643
 Alpha virt. eigenvalues --    1.47887   1.48552   1.51763   1.53778   1.55839
 Alpha virt. eigenvalues --    1.56282   1.56387   1.56885   1.58013   1.61737
 Alpha virt. eigenvalues --    1.62972   1.63160   1.63312   1.66253   1.68092
 Alpha virt. eigenvalues --    1.68618   1.68760   1.69714   1.74784   1.76005
 Alpha virt. eigenvalues --    1.77229   1.78081   1.79859   1.80652   1.81326
 Alpha virt. eigenvalues --    1.83030   1.83262   1.83426   1.84036   1.84230
 Alpha virt. eigenvalues --    1.84520   1.86154   1.86296   1.88411   1.91248
 Alpha virt. eigenvalues --    1.92176   1.94060   1.95174   1.98089   1.98739
 Alpha virt. eigenvalues --    2.00316   2.02252   2.04760   2.06726   2.12036
 Alpha virt. eigenvalues --    2.12127   2.13884   2.15330   2.19985   2.21114
 Alpha virt. eigenvalues --    2.23266   2.28997   2.30504   2.34288   2.35478
 Alpha virt. eigenvalues --    2.36250   2.37883   2.38419   2.41603   2.42523
 Alpha virt. eigenvalues --    2.46936   2.49150   2.49640   2.53151   2.53752
 Alpha virt. eigenvalues --    2.54051   2.56555   2.58053   2.58572   2.59843
 Alpha virt. eigenvalues --    2.60073   2.61454   2.62223   2.63438   2.64085
 Alpha virt. eigenvalues --    2.64713   2.64941   2.65371   2.65413   2.67917
 Alpha virt. eigenvalues --    2.68164   2.71204   2.71322   2.73555   2.74858
 Alpha virt. eigenvalues --    2.76509   2.79218   2.80021   2.83262   2.83614
 Alpha virt. eigenvalues --    2.85574   2.86518   2.92235   2.96480   2.99947
 Alpha virt. eigenvalues --    3.00551   3.04279   3.11967   3.12273   3.14138
 Alpha virt. eigenvalues --    3.20705   3.23249   3.27534   3.28627   3.31322
 Alpha virt. eigenvalues --    3.33514   3.33875   3.43546   3.46136   3.48095
 Alpha virt. eigenvalues --    3.49479   3.51080   3.56683   3.64720   3.67615
 Alpha virt. eigenvalues --    3.67712   3.92483   3.93375   3.94701   3.96159
 Alpha virt. eigenvalues --    4.03132   4.06958   4.07691   4.12491   4.35165
 Alpha virt. eigenvalues --    4.60780   4.70537   4.72439  23.45040  23.59422
 Alpha virt. eigenvalues --   23.82725  23.84992  23.88107  23.90077  23.90712
 Alpha virt. eigenvalues --   23.92522  23.98655  24.00945  24.02214  24.02360
 Alpha virt. eigenvalues --   24.12020  24.12113
          Condensed to atoms (all electrons):
               1          2          3          4          5          6
     1  C    8.450253   0.549625  -0.599836   1.615230   0.012085  -0.094255
     2  C    0.549625   6.993606   0.384281  -0.831967  -0.058265  -0.017899
     3  C   -0.599836   0.384281   6.646747   0.689341  -0.112358   0.018365
     4  C    1.615230  -0.831967   0.689341  10.193107  -0.159236  -0.111130
     5  C    0.012085  -0.058265  -0.112358  -0.159236  10.225460   0.685596
     6  C   -0.094255  -0.017899   0.018365  -0.111130   0.685596   6.643759
     7  C   -0.028652   0.010134  -0.017943  -0.058699  -0.832881   0.383522
     8  C    0.412379  -0.027936  -0.094177   0.008859   1.625376  -0.603462
     9  C   -1.483557  -0.581431   0.262247  -0.484539  -0.470964   0.262490
    10  C   -1.112515   0.142086  -0.367992  -2.335186  -2.342793  -0.361756
    11  C    0.243233  -0.991926   1.017453  -0.276066  -1.567691  -0.200844
    12  C   -1.588726   0.942495  -1.304412  -0.882358  -0.221002  -0.188563
    13  C    0.183419  -0.146221  -0.201308  -1.560003  -0.266065   1.011840
    14  C   -1.052904  -0.234687  -0.188101  -0.210505  -0.919173  -1.294645
    15  H    0.359707  -0.097995  -0.003014   0.021858   0.005941   0.001246
    16  H   -0.021634   0.379868  -0.013785   0.013562  -0.001688  -0.000363
    17  H   -0.018102  -0.021479   0.371464  -0.059099   0.000344   0.000403
    18  H    0.046177   0.005101  -0.088333   0.442861   0.010143  -0.004806
    19  H   -0.045167  -0.007956   0.050270  -0.060084  -0.061264   0.050110
    20  H    0.007984   0.001632  -0.004835   0.010097   0.443496  -0.088633
    21  H   -0.001325  -0.000387   0.000404   0.000340  -0.059393   0.371456
    22  H    0.000810   0.000380  -0.000364  -0.001682   0.013719  -0.014006
    23  H    0.005937  -0.002656   0.001256   0.005882   0.021993  -0.003117
    24  H    0.048129   0.012541  -0.001047  -0.011360  -0.011790  -0.000892
    25  H    0.021507   0.016063  -0.002420  -0.011345  -0.011128  -0.002612
               7          8          9         10         11         12
     1  C   -0.028652   0.412379  -1.483557  -1.112515   0.243233  -1.588726
     2  C    0.010134  -0.027936  -0.581431   0.142086  -0.991926   0.942495
     3  C   -0.017943  -0.094177   0.262247  -0.367992   1.017453  -1.304412
     4  C   -0.058699   0.008859  -0.484539  -2.335186  -0.276066  -0.882358
     5  C   -0.832881   1.625376  -0.470964  -2.342793  -1.567691  -0.221002
     6  C    0.383522  -0.603462   0.262490  -0.361756  -0.200844  -0.188563
     7  C    6.990088   0.547069  -0.583157   0.141714  -0.143958  -0.233200
     8  C    0.547069   8.448903  -1.472198  -1.113583   0.186647  -1.047003
     9  C   -0.583157  -1.472198   9.030789   0.510015   1.503827  -1.266131
    10  C    0.141714  -1.113583   0.510015   9.116155  -0.495118   2.060158
    11  C   -0.143958   0.186647   1.503827  -0.495118  14.015675  -3.645374
    12  C   -0.233200  -1.047003  -1.266131   2.060158  -3.645374  14.824456
    13  C   -0.990952   0.239115   1.497785  -0.488032   1.317454  -4.445591
    14  C    0.948143  -1.605346  -1.273415   2.074694  -4.440836   2.602665
    15  H   -0.002644   0.005948   0.081028  -0.008453  -0.018565  -0.017194
    16  H    0.000378   0.000781   0.004222  -0.010975   0.032467  -0.038535
    17  H   -0.000388  -0.001323  -0.003407   0.017849  -0.022398   0.077570
    18  H    0.001642   0.007942  -0.029019   0.022672  -0.011646  -0.046746
    19  H   -0.007960  -0.045163   0.074423   0.422533   0.064128  -0.060185
    20  H    0.005209   0.046405  -0.028953   0.022402  -0.009165  -0.010597
    21  H   -0.021621  -0.018175  -0.003386   0.017888  -0.006004   0.004272
    22  H    0.379668  -0.021135   0.004366  -0.011008   0.003116  -0.009467
    23  H   -0.098103   0.360042   0.081418  -0.008501  -0.001387   0.007090
    24  H    0.012915   0.049157   0.341772   0.004585   0.022358  -0.078016
    25  H    0.015633   0.020115   0.365473   0.004412   0.001224  -0.038303
              13         14         15         16         17         18
     1  C    0.183419  -1.052904   0.359707  -0.021634  -0.018102   0.046177
     2  C   -0.146221  -0.234687  -0.097995   0.379868  -0.021479   0.005101
     3  C   -0.201308  -0.188101  -0.003014  -0.013785   0.371464  -0.088333
     4  C   -1.560003  -0.210505   0.021858   0.013562  -0.059099   0.442861
     5  C   -0.266065  -0.919173   0.005941  -0.001688   0.000344   0.010143
     6  C    1.011840  -1.294645   0.001246  -0.000363   0.000403  -0.004806
     7  C   -0.990952   0.948143  -0.002644   0.000378  -0.000388   0.001642
     8  C    0.239115  -1.605346   0.005948   0.000781  -0.001323   0.007942
     9  C    1.497785  -1.273415   0.081028   0.004222  -0.003407  -0.029019
    10  C   -0.488032   2.074694  -0.008453  -0.010975   0.017849   0.022672
    11  C    1.317454  -4.440836  -0.018565   0.032467  -0.022398  -0.011646
    12  C   -4.445591   2.602665  -0.017194  -0.038535   0.077570  -0.046746
    13  C   14.013197  -3.645289  -0.001399   0.003133  -0.006084  -0.008953
    14  C   -3.645289  14.848273   0.007066  -0.009462   0.004275  -0.010533
    15  H   -0.001399   0.007066   0.438717  -0.008975   0.001373   0.000216
    16  H    0.003133  -0.009462  -0.008975   0.419430  -0.006601   0.001911
    17  H   -0.006084   0.004275   0.001373  -0.006601   0.421062  -0.009989
    18  H   -0.008953  -0.010533   0.000216   0.001911  -0.009989   0.455204
    19  H    0.062854  -0.060520   0.000351  -0.000520   0.001304  -0.005504
    20  H   -0.011525  -0.047026  -0.000121   0.000015  -0.000144   0.001280
    21  H   -0.022094   0.077587   0.000016  -0.000007   0.000009  -0.000144
    22  H    0.032576  -0.039110  -0.000125   0.000007  -0.000007   0.000015
    23  H   -0.018540  -0.017725   0.000626  -0.000126   0.000016  -0.000121
    24  H    0.021369  -0.077545  -0.000330   0.000481  -0.000089   0.000220
    25  H    0.001969  -0.038568  -0.001446   0.000808  -0.000195   0.000169
              19         20         21         22         23         24
     1  C   -0.045167   0.007984  -0.001325   0.000810   0.005937   0.048129
     2  C   -0.007956   0.001632  -0.000387   0.000380  -0.002656   0.012541
     3  C    0.050270  -0.004835   0.000404  -0.000364   0.001256  -0.001047
     4  C   -0.060084   0.010097   0.000340  -0.001682   0.005882  -0.011360
     5  C   -0.061264   0.443496  -0.059393   0.013719   0.021993  -0.011790
     6  C    0.050110  -0.088633   0.371456  -0.014006  -0.003117  -0.000892
     7  C   -0.007960   0.005209  -0.021621   0.379668  -0.098103   0.012915
     8  C   -0.045163   0.046405  -0.018175  -0.021135   0.360042   0.049157
     9  C    0.074423  -0.028953  -0.003386   0.004366   0.081418   0.341772
    10  C    0.422533   0.022402   0.017888  -0.011008  -0.008501   0.004585
    11  C    0.064128  -0.009165  -0.006004   0.003116  -0.001387   0.022358
    12  C   -0.060185  -0.010597   0.004272  -0.009467   0.007090  -0.078016
    13  C    0.062854  -0.011525  -0.022094   0.032576  -0.018540   0.021369
    14  C   -0.060520  -0.047026   0.077587  -0.039110  -0.017725  -0.077545
    15  H    0.000351  -0.000121   0.000016  -0.000125   0.000626  -0.000330
    16  H   -0.000520   0.000015  -0.000007   0.000007  -0.000126   0.000481
    17  H    0.001304  -0.000144   0.000009  -0.000007   0.000016  -0.000089
    18  H   -0.005504   0.001280  -0.000144   0.000015  -0.000121   0.000220
    19  H    0.441117  -0.005559   0.001309  -0.000523   0.000356   0.000532
    20  H   -0.005559   0.455203  -0.009980   0.001925   0.000217   0.000209
    21  H    0.001309  -0.009980   0.421001  -0.006590   0.001364  -0.000084
    22  H   -0.000523   0.001925  -0.006590   0.419397  -0.008989   0.000464
    23  H    0.000356   0.000217   0.001364  -0.008989   0.438834  -0.000314
    24  H    0.000532   0.000209  -0.000084   0.000464  -0.000314   0.495136
    25  H    0.000490   0.000178  -0.000198   0.000821  -0.001484  -0.079571
              25
     1  C    0.021507
     2  C    0.016063
     3  C   -0.002420
     4  C   -0.011345
     5  C   -0.011128
     6  C   -0.002612
     7  C    0.015633
     8  C    0.020115
     9  C    0.365473
    10  C    0.004412
    11  C    0.001224
    12  C   -0.038303
    13  C    0.001969
    14  C   -0.038568
    15  H   -0.001446
    16  H    0.000808
    17  H   -0.000195
    18  H    0.000169
    19  H    0.000490
    20  H    0.000178
    21  H   -0.000198
    22  H    0.000821
    23  H   -0.001484
    24  H   -0.079571
    25  H    0.494793
 Mulliken charges:
               1
     1  C    0.090199
     2  C   -0.417006
     3  C   -0.441901
     4  C    0.052122
     5  C    0.051539
     6  C   -0.441803
     7  C   -0.415956
     8  C    0.090765
     9  C   -0.339698
    10  C    0.098749
    11  C   -0.576603
    12  C    0.602698
    13  C   -0.572657
    14  C    0.602687
    15  H    0.236169
    16  H    0.255607
    17  H    0.253637
    18  H    0.220239
    19  H    0.190628
    20  H    0.220284
    21  H    0.253741
    22  H    0.255741
    23  H    0.236032
    24  H    0.251172
    25  H    0.243614
 Sum of Mulliken charges =   1.00000
 Mulliken charges with hydrogens summed into heavy atoms:
               1
     1  C    0.326367
     2  C   -0.161399
     3  C   -0.188264
     4  C    0.272362
     5  C    0.271823
     6  C   -0.188062
     7  C   -0.160215
     8  C    0.326797
     9  C    0.155088
    10  C    0.289377
    11  C   -0.576603
    12  C    0.602698
    13  C   -0.572657
    14  C    0.602687
 Electronic spatial extent (au):  <R**2>=           2844.3764
 Charge=              1.0000 electrons
 Dipole moment (field-independent basis, Debye):
    X=             -0.0025    Y=              0.1802    Z=             -0.0008  Tot=              0.1802
 Quadrupole moment (field-independent basis, Debye-Ang):
   XX=            -31.3769   YY=            -56.2624   ZZ=            -84.0454
   XY=             -0.0014   XZ=              0.0024   YZ=              0.1442
 Traceless Quadrupole moment (field-independent basis, Debye-Ang):
   XX=             25.8513   YY=              0.9658   ZZ=            -26.8172
   XY=             -0.0014   XZ=              0.0024   YZ=              0.1442
 Octapole moment (field-independent basis, Debye-Ang**2):
  XXX=             -0.1083  YYY=              5.1911  ZZZ=             -0.0421  XYY=              0.0005
  XXY=             -6.1619  XXZ=              0.2329  XZZ=              0.0140  YZZ=             -3.0989
  YYZ=              0.1583  XYZ=              0.0121
 Hexadecapole moment (field-independent basis, Debye-Ang**3):
 XXXX=          -2117.7121 YYYY=           -609.3724 ZZZZ=            -99.1232 XXXY=             -0.0621
 XXXZ=              0.0673 YYYX=              0.0266 YYYZ=              1.5999 ZZZX=              0.0028
 ZZZY=              0.0547 XXYY=           -505.7556 XXZZ=           -587.4971 YYZZ=           -145.5834
 XXYZ=              1.5222 YYXZ=              0.0003 ZZXY=             -0.0012
 N-N= 7.825471045876D+02 E-N=-2.801510488011D+03  KE= 5.375940284780D+02
 Unable to Open any file for archive entry.
 1\1\GINC-GADI-CPU-CLX-0113\SP\RM062X TD-FC\6-311++G(d,p)\C14H11(1+)\TS
 1578\28-Jul-2022\0\\#n M062X/6-311++G(d,p) TD(NStates=1) EmpiricalDisp
 ersion=GD3 SP\\SP_100\\1,1\C,0,-0.0196,2.493255,1.360431\C,0,-0.0242,3
 .690758,0.671989\C,0,-0.0066,3.664761,-0.71383\C,0,0.02345,2.449406,-1
 .407538\C,0,0.02335,-2.449606,-1.407538\C,0,-0.0072,-3.665761,-0.71383
 \C,0,-0.02515,-3.691108,0.671989\C,0,-0.0215,-2.493855,1.360431\C,0,-0
 .01315,0.0022,1.453369\C,0,0.0366,-0.0001,-1.429189\C,0,0.00555,1.2735
 55,0.677065\C,0,0.0148,1.235821,-0.730804\C,0,0.0054,-1.273505,0.67706
 5\C,0,0.0152,-1.235521,-0.730804\H,0,-0.0052,2.488421,2.443647\H,0,-0.
 0244,4.627753,1.211689\H,0,0.0045,4.609312,-1.272349\H,0,0.0108,2.4542
 ,-2.490059\H,0,0.03375,-0.00005,-2.510266\H,0,0.0111,-2.45435,-2.49005
 9\H,0,0.0042,-4.610562,-1.272349\H,0,-0.02555,-4.628503,1.211689\H,0,-
 0.0074,-2.489071,2.443647\H,0,-0.907585,0.0005,2.145237\H,0,0.811585,0
 .0005,2.146337\\Version=ES64L-G16RevC.01\State=1-A\HF=-539.758396\RMSD
 =5.076e-09\PG=C01 [X(C14H11)]\\@
 The archive entry for this job was punched.


 YOU KNOW YOU'RE A TEACHER WHEN YOU SAY 2, WRITE 3, AND MEAN 4.
 -- RONALD ANSTROM, HIGH SCHOOL TEACHER, UNDERWOOD, N.D. 1974
 Job cpu time:       0 days  1 hours 20 minutes  9.2 seconds.
 Elapsed time:       0 days  0 hours  1 minutes 40.4 seconds.
 File lengths (MBytes):  RWF=    460 Int=      0 D2E=      0 Chk=     15 Scr=      1
 Normal termination of Gaussian 16 at Thu Jul 28 16:28:24 2022.
