 Entering Gaussian System, Link 0=g16
 Initial command:
 /apps/gaussian/g16c01/g16/l1.exe "/jobfs/53002009.gadi-pbs/Gau-767522.inp" -scrdir="/jobfs/53002009.gadi-pbs/"
 Entering Link 1 = /apps/gaussian/g16c01/g16/l1.exe PID=    767523.
  
 Copyright (c) 1988-2019, Gaussian, Inc.  All Rights Reserved.
  
 This is part of the Gaussian(R) 16 program.  It is based on
 the Gaussian(R) 09 system (copyright 2009, Gaussian, Inc.),
 the Gaussian(R) 03 system (copyright 2003, Gaussian, Inc.),
 the Gaussian(R) 98 system (copyright 1998, Gaussian, Inc.),
 the Gaussian(R) 94 system (copyright 1995, Gaussian, Inc.),
 the Gaussian 92(TM) system (copyright 1992, Gaussian, Inc.),
 the Gaussian 90(TM) system (copyright 1990, Gaussian, Inc.),
 the Gaussian 88(TM) system (copyright 1988, Gaussian, Inc.),
 the Gaussian 86(TM) system (copyright 1986, Carnegie Mellon
 University), and the Gaussian 82(TM) system (copyright 1983,
 Carnegie Mellon University). Gaussian is a federally registered
 trademark of Gaussian, Inc.
  
 This software contains proprietary and confidential information,
 including trade secrets, belonging to Gaussian, Inc.
  
 This software is provided under written license and may be
 used, copied, transmitted, or stored only in accord with that
 written license.
  
 The following legend is applicable only to US Government
 contracts under FAR:
  
                    RESTRICTED RIGHTS LEGEND
  
 Use, reproduction and disclosure by the US Government is
 subject to restrictions as set forth in subparagraphs (a)
 and (c) of the Commercial Computer Software - Restricted
 Rights clause in FAR 52.227-19.
  
 Gaussian, Inc.
 340 Quinnipiac St., Bldg. 40, Wallingford CT 06492
  
  
 ---------------------------------------------------------------
 Warning -- This program may not be used in any manner that
 competes with the business of Gaussian, Inc. or will provide
 assistance to any competitor of Gaussian, Inc.  The licensee
 of this program is prohibited from giving any competitor of
 Gaussian, Inc. access to this program.  By using this program,
 the user acknowledges that Gaussian, Inc. is engaged in the
 business of creating and licensing software in the field of
 computational chemistry and represents and warrants to the
 licensee that it is not a competitor of Gaussian, Inc. and that
 it will not use this program in any manner prohibited above.
 ---------------------------------------------------------------
  

 Cite this work as:
 Gaussian 16, Revision C.01,
 M. J. Frisch, G. W. Trucks, H. B. Schlegel, G. E. Scuseria, 
 M. A. Robb, J. R. Cheeseman, G. Scalmani, V. Barone, 
 G. A. Petersson, H. Nakatsuji, X. Li, M. Caricato, A. V. Marenich, 
 J. Bloino, B. G. Janesko, R. Gomperts, B. Mennucci, H. P. Hratchian, 
 J. V. Ortiz, A. F. Izmaylov, J. L. Sonnenberg, D. Williams-Young, 
 F. Ding, F. Lipparini, F. Egidi, J. Goings, B. Peng, A. Petrone, 
 T. Henderson, D. Ranasinghe, V. G. Zakrzewski, J. Gao, N. Rega, 
 G. Zheng, W. Liang, M. Hada, M. Ehara, K. Toyota, R. Fukuda, 
 J. Hasegawa, M. Ishida, T. Nakajima, Y. Honda, O. Kitao, H. Nakai, 
 T. Vreven, K. Throssell, J. A. Montgomery, Jr., J. E. Peralta, 
 F. Ogliaro, M. J. Bearpark, J. J. Heyd, E. N. Brothers, K. N. Kudin, 
 V. N. Staroverov, T. A. Keith, R. Kobayashi, J. Normand, 
 K. Raghavachari, A. P. Rendell, J. C. Burant, S. S. Iyengar, 
 J. Tomasi, M. Cossi, J. M. Millam, M. Klene, C. Adamo, R. Cammi, 
 J. W. Ochterski, R. L. Martin, K. Morokuma, O. Farkas, 
 J. B. Foresman, and D. J. Fox, Gaussian, Inc., Wallingford CT, 2019.
 
 ******************************************
 Gaussian 16:  ES64L-G16RevC.01  3-Jul-2019
                28-Jul-2022 
 ******************************************
 %NProcShared=48
 Will use up to   48 processors via shared memory.
 %mem = 190GB
 ---------------------------------------------------------------
 #n M062X/6-311++G(d,p) TD(NStates=1) EmpiricalDispersion=GD3 SP
 ---------------------------------------------------------------
 1/38=1,172=1/1;
 2/12=2,17=6,18=5,40=1/2;
 3/5=4,6=6,7=1111,11=9,25=1,30=1,74=-55,124=31/1,2,3,8;
 4//1;
 5/5=2,38=5/2;
 8/6=1,10=2,108=1/1;
 9/41=1,42=1,70=2/14;
 6/7=2,8=2,9=2,10=2/1;
 99/5=1,9=1/99;
 -----
 SP_25
 -----
 Symbolic Z-matrix:
 Charge =  1 Multiplicity = 1
 C                    -0.01465   2.49356   1.36043 
 C                    -0.01693   3.69463   0.67199 
 C                    -0.0049    3.67196  -0.71383 
 C                     0.01555   2.45416  -1.40754 
 C                     0.01565  -2.45396  -1.40754 
 C                    -0.0043   -3.67096  -0.71383 
 C                    -0.01597  -3.69428   0.67199 
 C                    -0.01275  -2.49296   1.36043 
 C                    -0.00873  -0.0022    1.45337 
 C                     0.0244    0.0001   -1.42919 
 C                     0.00358   1.26968   0.67707 
 C                     0.0102    1.23612  -0.7308 
 C                     0.00373  -1.26973   0.67707 
 C                     0.0098   -1.23642  -0.7308 
 H                    -0.0053    2.48885   2.44365 
 H                    -0.01723   4.63138   1.21169 
 H                     0.00275   4.61034  -1.27235 
 H                     0.00745   2.45878  -2.49006 
 H                     0.0225    0.00005  -2.51027 
 H                     0.00715  -2.45863  -2.49006 
 H                     0.00305  -4.60909  -1.27235 
 H                    -0.01608  -4.63063   1.21169 
 H                    -0.0031   -2.4882    2.44365 
 H                    -0.89159  -0.0005    2.14634 
 H                     0.82759  -0.0005    2.14524 
 
                          Input orientation:                          
 ---------------------------------------------------------------------
 Center     Atomic      Atomic             Coordinates (Angstroms)
 Number     Number       Type             X           Y           Z
 ---------------------------------------------------------------------
      1          6           0       -0.014650    2.493555    1.360431
      2          6           0       -0.016925    3.694633    0.671989
      3          6           0       -0.004900    3.671961   -0.713830
      4          6           0        0.015550    2.454156   -1.407538
      5          6           0        0.015650   -2.453956   -1.407538
      6          6           0       -0.004300   -3.670961   -0.713830
      7          6           0       -0.015975   -3.694283    0.671989
      8          6           0       -0.012750   -2.492955    1.360431
      9          6           0       -0.008725   -0.002200    1.453369
     10          6           0        0.024400    0.000100   -1.429189
     11          6           0        0.003575    1.269680    0.677065
     12          6           0        0.010200    1.236121   -0.730804
     13          6           0        0.003725   -1.269730    0.677065
     14          6           0        0.009800   -1.236421   -0.730804
     15          1           0       -0.005300    2.488846    2.443647
     16          1           0       -0.017225    4.631378    1.211689
     17          1           0        0.002750    4.610337   -1.272349
     18          1           0        0.007450    2.458775   -2.490059
     19          1           0        0.022500    0.000050   -2.510266
     20          1           0        0.007150   -2.458625   -2.490059
     21          1           0        0.003050   -4.609087   -1.272349
     22          1           0       -0.016075   -4.630628    1.211689
     23          1           0       -0.003100   -2.488196    2.443647
     24          1           0       -0.891585   -0.000500    2.146337
     25          1           0        0.827585   -0.000500    2.145237
 ---------------------------------------------------------------------
                    Distance matrix (angstroms):
                    1          2          3          4          5
     1  C    0.000000
     2  C    1.384394   0.000000
     3  C    2.385643   1.386057   0.000000
     4  C    2.768414   2.421626   1.401677   0.000000
     5  C    5.669254   6.490812   6.165104   4.908112   0.000000
     6  C    6.504147   7.494840   7.342922   6.164307   1.400975
     7  C    6.226017   7.388916   7.495476   6.490665   2.421537
     8  C    4.986510   6.225770   6.504522   5.668894   2.768389
     9  C    2.497492   3.778518   4.265703   3.770817   3.767823
    10  C    3.741767   4.250439   3.741011   2.454167   2.454167
    11  C    1.401853   2.425045   2.775899   2.397644   4.267456
    12  C    2.440291   2.830697   2.435946   1.393416   3.751622
    13  C    3.824871   4.964409   5.133710   4.267673   2.397520
    14  C    4.276281   5.126776   4.908433   3.752114   1.392980
    15  H    1.083267   2.143089   3.371857   3.851398   6.266048
    16  H    2.142993   1.081095   2.151338   3.406130   7.554031
    17  H    3.378254   2.149268   1.092040   2.160453   7.065598
    18  H    3.850710   3.395068   2.151037   1.082561   5.030591
    19  H    4.604481   4.876294   4.087892   2.690482   2.690391
    20  H    6.273024   6.918216   6.382728   5.030640   1.082564
    21  H    7.574917   8.528342   8.299865   7.064548   2.159404
    22  H    7.125736   8.342736   8.522953   7.553510   3.405768
    23  H    5.098170   6.431667   6.922225   6.265686   3.851383
    24  H    2.758074   4.073419   4.738537   4.413418   4.412771
    25  H    2.746924   4.066653   4.728030   4.393967   4.393278
                    6          7          8          9         10
     6  C    0.000000
     7  C    1.386064   0.000000
     8  C    2.385441   1.384612   0.000000
     9  C    4.261054   3.773869   2.492492   0.000000
    10  C    3.740221   4.250299   3.741481   2.882749   0.000000
    11  C    5.132698   4.964004   3.824223   1.490127   2.459385
    12  C    4.907133   5.126148   4.275488   2.510858   1.419750
    13  C    2.774989   2.424638   1.401264   1.486417   2.459512
    14  C    2.434640   2.830120   2.439805   2.508836   1.420190
    15  H    6.921913   6.431949   5.098211   2.680666   4.603650
    16  H    8.522712   8.343135   7.125887   4.639884   5.331482
    17  H    8.300114   8.529215   7.575522   5.357720   4.612955
    18  H    6.381911   6.918036   6.272664   4.648364   2.677838
    19  H    4.087080   4.876097   4.604195   3.963759   1.081079
    20  H    2.150553   3.394986   3.850694   4.645955   2.677886
    21  H    1.091823   2.148878   3.377839   5.352858   4.611904
    22  H    2.151447   1.080749   2.142844   4.634739   5.330996
    23  H    3.371735   2.143265   1.083269   2.675978   4.603394
    24  H    4.737100   4.072398   2.757233   1.122341   3.690991
    25  H    4.726371   4.065229   2.744889   1.085403   3.663554
                   11         12         13         14         15
    11  C    0.000000
    12  C    1.408284   0.000000
    13  C    2.539410   2.874270   0.000000
    14  C    2.874487   2.472542   1.408276   0.000000
    15  H    2.146452   3.412726   4.153046   4.894383   0.000000
    16  H    3.404008   3.911752   5.925313   6.181025   2.471499
    17  H    3.867842   3.417405   6.194788   5.871788   4.278950
    18  H    3.382992   2.142398   4.892079   4.092610   4.933814
    19  H    3.430947   2.166681   3.431002   2.166912   5.544018
    20  H    4.891927   4.092204   3.382921   2.142141   6.987065
    21  H    6.193554   5.870245   3.866720   3.415874   8.011826
    22  H    5.924512   6.180025   3.403212   3.910830   7.225285
    23  H    4.152408   4.893654   2.146047   3.412367   4.977042
    24  H    2.138558   3.258894   2.138056   3.258517   2.659086
    25  H    2.108999   3.235577   2.108369   3.235411   2.641891
                   16         17         18         19         20
    16  H    0.000000
    17  H    2.484207   0.000000
    18  H    4.292290   2.472258   0.000000
    19  H    5.941694   4.773633   2.458854   0.000000
    20  H    7.998229   7.173079   4.917400   2.458806   0.000000
    21  H    9.568545   9.219424   7.171995   4.772521   2.471300
    22  H    9.262006   9.569025   7.997695   5.941180   4.291978
    23  H    7.225390   8.012355   6.986708   5.543760   4.933805
    24  H    4.805452   5.809223   5.324703   4.745472   5.324122
    25  H    4.799949   5.798281   5.310991   4.724603   5.310505
                   21         22         23         24         25
    21  H    0.000000
    22  H    2.484205   0.000000
    23  H    4.278650   2.471417   0.000000
    24  H    5.807483   4.803974   2.658276   0.000000
    25  H    5.796449   4.798058   2.639643   1.719170   0.000000
 Stoichiometry    C14H11(1+)
 Framework group  C1[X(C14H11)]
 Deg. of freedom    69
 Full point group                 C1      NOp   1
 Largest Abelian subgroup         C1      NOp   1
 Largest concise Abelian subgroup C1      NOp   1
                         Standard orientation:                         
 ---------------------------------------------------------------------
 Center     Atomic      Atomic             Coordinates (Angstroms)
 Number     Number       Type             X           Y           Z
 ---------------------------------------------------------------------
      1          6           0        2.493499   -1.360606    0.002006
      2          6           0        3.694606   -0.672260    0.010200
      3          6           0        3.671991    0.713612    0.010381
      4          6           0        2.454213    1.407523   -0.003815
      5          6           0       -2.453899    1.407725   -0.003328
      6          6           0       -3.670931    0.713918    0.010658
      7          6           0       -3.694310   -0.671949    0.010133
      8          6           0       -2.493011   -1.360385    0.000702
      9          6           0       -0.002261   -1.453386   -0.004438
     10          6           0        0.000157    1.429352   -0.012180
     11          6           0        1.269650   -0.677056   -0.010054
     12          6           0        1.236150    0.730818   -0.004278
     13          6           0       -1.269760   -0.676951   -0.009901
     14          6           0       -1.236392    0.730916   -0.003583
     15          1           0        2.488743   -2.443698   -0.016881
     16          1           0        4.631328   -1.211981    0.005635
     17          1           0        4.610390    1.272138    0.007537
     18          1           0        2.458878    2.489930    0.013817
     19          1           0        0.000152    2.510370   -0.000761
     20          1           0       -2.458522    2.490130    0.014705
     21          1           0       -4.609034    1.272519    0.008339
     22          1           0       -4.630678   -1.211590    0.005593
     23          1           0       -2.488299   -2.443474   -0.018486
     24          1           0       -0.000485   -2.154101    0.872285
     25          1           0       -0.000689   -2.137863   -0.846808
 ---------------------------------------------------------------------
 Rotational constants (GHZ):           2.1359431           0.4462835           0.3699641
 Standard basis: 6-311++G(d,p) (5D, 7F)
 There are   399 symmetry adapted cartesian basis functions of A   symmetry.
 There are   385 symmetry adapted basis functions of A   symmetry.
   385 basis functions,   603 primitive gaussians,   399 cartesian basis functions
    47 alpha electrons       47 beta electrons
       nuclear repulsion energy       782.1055187234 Hartrees.
 NAtoms=   25 NActive=   25 NUniq=   25 SFac= 1.00D+00 NAtFMM=   60 NAOKFM=F Big=F
 Integral buffers will be    131072 words long.
 Regular integral format.
 Two-electron integral symmetry is turned on.
 Nuclear repulsion after empirical dispersion term =      782.1045395175 Hartrees.
 One-electron integrals computed using PRISM.
 NBasis=   385 RedAO= T EigKep=  1.18D-06  NBF=   385
 NBsUse=   379 1.00D-06 EigRej=  8.29D-07 NBFU=   379
 ExpMin= 3.60D-02 ExpMax= 4.56D+03 ExpMxC= 6.82D+02 IAcc=3 IRadAn=         5 AccDes= 0.00D+00
 Harris functional with IExCor= 1009 and IRadAn=       5 diagonalized for initial guess.
 HarFok:  IExCor= 1009 AccDes= 0.00D+00 IRadAn=         5 IDoV= 1 UseB2=F ITyADJ=14
 ICtDFT=  3500011 ScaDFX=  1.000000  1.000000  1.000000  1.000000
 FoFCou: FMM=F IPFlag=           0 FMFlag=      100000 FMFlg1=           0
         NFxFlg=           0 DoJE=T BraDBF=F KetDBF=T FulRan=T
         wScrn=  0.000000 ICntrl=       500 IOpCl=  0 I1Cent=   200000004 NGrid=           0
         NMat0=    1 NMatS0=      1 NMatT0=    0 NMatD0=    1 NMtDS0=    0 NMtDT0=    0
 Petite list used in FoFCou.
 Requested convergence on RMS density matrix=1.00D-08 within 128 cycles.
 Requested convergence on MAX density matrix=1.00D-06.
 Requested convergence on             energy=1.00D-06.
 No special actions if energy rises.
 SCF Done:  E(RM062X) =  -539.759523722     A.U. after   15 cycles
            NFock= 15  Conv=0.47D-08     -V/T= 2.0041
 DoSCS=F DFT=T ScalE2(SS,OS)=  1.000000  1.000000
 ExpMin= 3.60D-02 ExpMax= 4.56D+03 ExpMxC= 6.82D+02 IAcc=3 IRadAn=         5 AccDes= 0.00D+00
 HarFok:  IExCor=  205 AccDes= 0.00D+00 IRadAn=         5 IDoV=-2 UseB2=F ITyADJ=14
 ICtDFT= 12500011 ScaDFX=  1.000000  1.000000  1.000000  1.000000
 Range of M.O.s used for correlation:    15   379
 NBasis=   385 NAE=    47 NBE=    47 NFC=    14 NFV=     0
 NROrb=    365 NOA=    33 NOB=    33 NVA=   332 NVB=   332

 **** Warning!!: The largest alpha MO coefficient is  0.14736120D+03

 Orbital symmetries:
       Occupied  (A) (A) (A) (A) (A) (A) (A) (A) (A) (A) (A) (A)
                 (A) (A) (A) (A) (A) (A) (A) (A) (A) (A) (A) (A)
                 (A) (A) (A) (A) (A) (A) (A) (A) (A) (A) (A) (A)
                 (A) (A) (A) (A) (A) (A) (A) (A) (A) (A) (A)
       Virtual   (A) (A) (A) (A) (A) (A) (A) (A) (A) (A) (A) (A)
                 (A) (A) (A) (A) (A) (A) (A) (A) (A) (A) (A) (A)
                 (A) (A) (A) (A) (A) (A) (A) (A) (A) (A) (A) (A)
                 (A) (A) (A) (A) (A) (A) (A) (A) (A) (A) (A) (A)
                 (A) (A) (A) (A) (A) (A) (A) (A) (A) (A) (A) (A)
                 (A) (A) (A) (A) (A) (A) (A) (A) (A) (A) (A) (A)
                 (A) (A) (A) (A) (A) (A) (A) (A) (A) (A) (A) (A)
                 (A) (A) (A) (A) (A) (A) (A) (A) (A) (A) (A) (A)
                 (A) (A) (A) (A) (A) (A) (A) (A) (A) (A) (A) (A)
                 (A) (A) (A) (A) (A) (A) (A) (A) (A) (A) (A) (A)
                 (A) (A) (A) (A) (A) (A) (A) (A) (A) (A) (A) (A)
                 (A) (A) (A) (A) (A) (A) (A) (A) (A) (A) (A) (A)
                 (A) (A) (A) (A) (A) (A) (A) (A) (A) (A) (A) (A)
                 (A) (A) (A) (A) (A) (A) (A) (A) (A) (A) (A) (A)
                 (A) (A) (A) (A) (A) (A) (A) (A) (A) (A) (A) (A)
                 (A) (A) (A) (A) (A) (A) (A) (A) (A) (A) (A) (A)
                 (A) (A) (A) (A) (A) (A) (A) (A) (A) (A) (A) (A)
                 (A) (A) (A) (A) (A) (A) (A) (A) (A) (A) (A) (A)
                 (A) (A) (A) (A) (A) (A) (A) (A) (A) (A) (A) (A)
                 (A) (A) (A) (A) (A) (A) (A) (A) (A) (A) (A) (A)
                 (A) (A) (A) (A) (A) (A) (A) (A) (A) (A) (A) (A)
                 (A) (A) (A) (A) (A) (A) (A) (A) (A) (A) (A) (A)
                 (A) (A) (A) (A) (A) (A) (A) (A) (A) (A) (A) (A)
                 (A) (A) (A) (A) (A) (A) (A) (A) (A) (A) (A) (A)
                 (A) (A) (A) (A) (A) (A) (A) (A) (A) (A) (A) (A)
                 (A) (A) (A) (A) (A) (A) (A) (A) (A) (A) (A) (A)
                 (A) (A) (A) (A) (A) (A) (A) (A) (A) (A) (A) (A)
                 (A) (A) (A) (A) (A) (A) (A) (A)
     4 initial guesses have been made.
 Convergence on wavefunction:    0.001000000000000
 Iteration     1 Dimension     4 NMult     0 NNew      4
 CISAX will form     4 AO SS matrices at one time.
 Iteration     2 Dimension     6 NMult     4 NNew      2
 Iteration     3 Dimension     8 NMult     6 NNew      2
 Iteration     4 Dimension    10 NMult     8 NNew      2
 Iteration     5 Dimension    12 NMult    10 NNew      2
 Iteration     6 Dimension    14 NMult    12 NNew      2
 ***********************************************************************
 Excited states from <AA,BB:AA,BB> singles matrix:
 ***********************************************************************
 
 Ground to excited state transition densities written to RWF  633
 Ground to excited state transition electric dipole moments (Au):
       state          X           Y           Z        Dip. S.      Osc.
         1        -0.0028     -0.6507      0.0041      0.4235      0.0294
 Ground to excited state transition velocity dipole moments (Au):
       state          X           Y           Z        Dip. S.      Osc.
         1         0.0003      0.0754     -0.0005      0.0057      0.0364
 Ground to excited state transition magnetic dipole moments (Au):
       state          X           Y           Z
         1        -0.0055      0.0002      0.0001
 Ground to excited state transition velocity quadrupole moments (Au):
       state          XX          YY          ZZ          XY          XZ          YZ
         1         0.2854      0.0374     -0.0100      0.0004     -0.0000      0.0008
 <0|del|b> * <b|rxdel|0> + <0|del|b> * <b|delr+rdel|0>
 Rotatory Strengths (R) in cgs (10**-40 erg-esu-cm/Gauss)
       state          XX          YY          ZZ    R(velocity)    E-M Angle
         1         0.0564     -0.0041      0.0456      0.0326       90.00
 1/2[<0|r|b>*<b|rxdel|0> + (<0|rxdel|b>*<b|r|0>)*]
 Rotatory Strengths (R) in cgs (10**-40 erg-esu-cm/Gauss)
       state          XX          YY          ZZ     R(length)
         1        -0.0107      0.0981     -0.0004      0.0290
  1/2[<0|del|b>*<b|r|0> + (<0|r|b>*<b|del|0>)*] (Au)
       state          X           Y           Z        Dip. S.   Osc.(frdel)
         1        -0.0000     -0.0491     -0.0000      0.0491      0.0327

 Excitation energies and oscillator strengths:
 
 Excited State   1:      Singlet-A      2.8367 eV  437.06 nm  f=0.0294  <S**2>=0.000
      47 -> 48         0.70424
 This state for optimization and/or second-order correction.
 Total Energy, E(TD-HF/TD-DFT) =  -539.655275206    
 Copying the excited state density for this state as the 1-particle RhoCI density.
 SavETr:  write IOETrn=   770 NScale= 10 NData=  16 NLR=1 NState=    1 LETran=      28.

 **********************************************************************

            Population analysis using the SCF Density.

 **********************************************************************

 Orbital symmetries:
       Occupied  (A) (A) (A) (A) (A) (A) (A) (A) (A) (A) (A) (A)
                 (A) (A) (A) (A) (A) (A) (A) (A) (A) (A) (A) (A)
                 (A) (A) (A) (A) (A) (A) (A) (A) (A) (A) (A) (A)
                 (A) (A) (A) (A) (A) (A) (A) (A) (A) (A) (A)
       Virtual   (A) (A) (A) (A) (A) (A) (A) (A) (A) (A) (A) (A)
                 (A) (A) (A) (A) (A) (A) (A) (A) (A) (A) (A) (A)
                 (A) (A) (A) (A) (A) (A) (A) (A) (A) (A) (A) (A)
                 (A) (A) (A) (A) (A) (A) (A) (A) (A) (A) (A) (A)
                 (A) (A) (A) (A) (A) (A) (A) (A) (A) (A) (A) (A)
                 (A) (A) (A) (A) (A) (A) (A) (A) (A) (A) (A) (A)
                 (A) (A) (A) (A) (A) (A) (A) (A) (A) (A) (A) (A)
                 (A) (A) (A) (A) (A) (A) (A) (A) (A) (A) (A) (A)
                 (A) (A) (A) (A) (A) (A) (A) (A) (A) (A) (A) (A)
                 (A) (A) (A) (A) (A) (A) (A) (A) (A) (A) (A) (A)
                 (A) (A) (A) (A) (A) (A) (A) (A) (A) (A) (A) (A)
                 (A) (A) (A) (A) (A) (A) (A) (A) (A) (A) (A) (A)
                 (A) (A) (A) (A) (A) (A) (A) (A) (A) (A) (A) (A)
                 (A) (A) (A) (A) (A) (A) (A) (A) (A) (A) (A) (A)
                 (A) (A) (A) (A) (A) (A) (A) (A) (A) (A) (A) (A)
                 (A) (A) (A) (A) (A) (A) (A) (A) (A) (A) (A) (A)
                 (A) (A) (A) (A) (A) (A) (A) (A) (A) (A) (A) (A)
                 (A) (A) (A) (A) (A) (A) (A) (A) (A) (A) (A) (A)
                 (A) (A) (A) (A) (A) (A) (A) (A) (A) (A) (A) (A)
                 (A) (A) (A) (A) (A) (A) (A) (A) (A) (A) (A) (A)
                 (A) (A) (A) (A) (A) (A) (A) (A) (A) (A) (A) (A)
                 (A) (A) (A) (A) (A) (A) (A) (A) (A) (A) (A) (A)
                 (A) (A) (A) (A) (A) (A) (A) (A) (A) (A) (A) (A)
                 (A) (A) (A) (A) (A) (A) (A) (A) (A) (A) (A) (A)
                 (A) (A) (A) (A) (A) (A) (A) (A) (A) (A) (A) (A)
                 (A) (A) (A) (A) (A) (A) (A) (A) (A) (A) (A) (A)
                 (A) (A) (A) (A) (A) (A) (A) (A) (A) (A) (A) (A)
                 (A) (A) (A) (A) (A) (A) (A) (A)
 The electronic state is 1-A.
 Alpha  occ. eigenvalues --  -10.77675 -10.73225 -10.73197 -10.72355 -10.72353
 Alpha  occ. eigenvalues --  -10.71273 -10.71258 -10.70975 -10.70946 -10.70941
 Alpha  occ. eigenvalues --  -10.69869 -10.69858 -10.69673 -10.69660  -1.16512
 Alpha  occ. eigenvalues --   -1.12676  -1.07060  -1.05661  -1.01526  -1.00147
 Alpha  occ. eigenvalues --   -0.95861  -0.91035  -0.86432  -0.85940  -0.83824
 Alpha  occ. eigenvalues --   -0.78420  -0.76038  -0.74460  -0.69560  -0.69224
 Alpha  occ. eigenvalues --   -0.68499  -0.68117  -0.67973  -0.64897  -0.64419
 Alpha  occ. eigenvalues --   -0.62927  -0.61728  -0.60064  -0.59831  -0.59034
 Alpha  occ. eigenvalues --   -0.56876  -0.55161  -0.54759  -0.52520  -0.46782
 Alpha  occ. eigenvalues --   -0.46038  -0.44588
 Alpha virt. eigenvalues --   -0.26111  -0.14570  -0.14073  -0.12654  -0.11182
 Alpha virt. eigenvalues --   -0.10093  -0.09245  -0.08028  -0.07950  -0.07482
 Alpha virt. eigenvalues --   -0.07211  -0.07125  -0.05640  -0.05581  -0.05314
 Alpha virt. eigenvalues --   -0.03855  -0.03692  -0.03278  -0.03130  -0.02166
 Alpha virt. eigenvalues --   -0.01380  -0.00957   0.00195   0.00546   0.00673
 Alpha virt. eigenvalues --    0.01065   0.01512   0.01958   0.02225   0.02281
 Alpha virt. eigenvalues --    0.02459   0.02667   0.02850   0.03215   0.03339
 Alpha virt. eigenvalues --    0.04232   0.04509   0.04704   0.05090   0.05379
 Alpha virt. eigenvalues --    0.05986   0.06307   0.06611   0.07040   0.07267
 Alpha virt. eigenvalues --    0.07909   0.08252   0.08347   0.08586   0.08924
 Alpha virt. eigenvalues --    0.09535   0.09557   0.10037   0.10877   0.11047
 Alpha virt. eigenvalues --    0.11136   0.12184   0.12216   0.12929   0.12954
 Alpha virt. eigenvalues --    0.13421   0.13483   0.14014   0.14481   0.16051
 Alpha virt. eigenvalues --    0.16235   0.16536   0.17318   0.17568   0.17739
 Alpha virt. eigenvalues --    0.18130   0.19148   0.19297   0.19679   0.19766
 Alpha virt. eigenvalues --    0.21609   0.21644   0.22678   0.23073   0.23560
 Alpha virt. eigenvalues --    0.23801   0.24591   0.25113   0.26885   0.27695
 Alpha virt. eigenvalues --    0.28843   0.29279   0.29841   0.31399   0.35810
 Alpha virt. eigenvalues --    0.36574   0.38171   0.39362   0.41126   0.41347
 Alpha virt. eigenvalues --    0.41977   0.42102   0.42958   0.43808   0.44239
 Alpha virt. eigenvalues --    0.44975   0.45176   0.45948   0.46175   0.47909
 Alpha virt. eigenvalues --    0.48486   0.48859   0.48999   0.50389   0.51291
 Alpha virt. eigenvalues --    0.51647   0.51741   0.52151   0.53140   0.53925
 Alpha virt. eigenvalues --    0.54035   0.54761   0.55728   0.55777   0.57375
 Alpha virt. eigenvalues --    0.58262   0.58817   0.61465   0.62216   0.62306
 Alpha virt. eigenvalues --    0.63192   0.63537   0.64727   0.65188   0.66963
 Alpha virt. eigenvalues --    0.70485   0.70518   0.71033   0.72450   0.72838
 Alpha virt. eigenvalues --    0.75752   0.75868   0.76315   0.76715   0.76995
 Alpha virt. eigenvalues --    0.77746   0.77827   0.78257   0.80309   0.80346
 Alpha virt. eigenvalues --    0.81347   0.81591   0.82172   0.83058   0.85051
 Alpha virt. eigenvalues --    0.87100   0.87944   0.88065   0.89655   0.90439
 Alpha virt. eigenvalues --    0.90938   0.91478   0.93439   0.94765   0.96340
 Alpha virt. eigenvalues --    0.96705   1.00258   1.01322   1.01816   1.02933
 Alpha virt. eigenvalues --    1.03197   1.04042   1.04677   1.05491   1.08981
 Alpha virt. eigenvalues --    1.19331   1.23226   1.24073   1.25380   1.28099
 Alpha virt. eigenvalues --    1.30016   1.31434   1.34480   1.35879   1.36180
 Alpha virt. eigenvalues --    1.39458   1.40107   1.41009   1.43321   1.43576
 Alpha virt. eigenvalues --    1.43679   1.45262   1.45459   1.46413   1.46641
 Alpha virt. eigenvalues --    1.47778   1.48368   1.51768   1.53713   1.55784
 Alpha virt. eigenvalues --    1.56088   1.56467   1.56734   1.57931   1.61636
 Alpha virt. eigenvalues --    1.63058   1.63271   1.63461   1.66210   1.68185
 Alpha virt. eigenvalues --    1.68540   1.68727   1.69728   1.74668   1.76004
 Alpha virt. eigenvalues --    1.77219   1.78090   1.79955   1.80506   1.81124
 Alpha virt. eigenvalues --    1.83093   1.83352   1.83447   1.84030   1.84120
 Alpha virt. eigenvalues --    1.84444   1.86058   1.86205   1.88341   1.91288
 Alpha virt. eigenvalues --    1.92180   1.94092   1.95171   1.97949   1.98544
 Alpha virt. eigenvalues --    2.00121   2.02336   2.04665   2.06903   2.11964
 Alpha virt. eigenvalues --    2.12112   2.14035   2.15298   2.19678   2.21203
 Alpha virt. eigenvalues --    2.23148   2.28864   2.30423   2.34429   2.35254
 Alpha virt. eigenvalues --    2.36281   2.38163   2.38837   2.42289   2.42970
 Alpha virt. eigenvalues --    2.46819   2.48076   2.49618   2.53095   2.53787
 Alpha virt. eigenvalues --    2.54149   2.56618   2.57968   2.58468   2.59751
 Alpha virt. eigenvalues --    2.59983   2.61510   2.62231   2.63550   2.63999
 Alpha virt. eigenvalues --    2.64773   2.65033   2.65378   2.65397   2.67961
 Alpha virt. eigenvalues --    2.68297   2.71109   2.71378   2.73454   2.74845
 Alpha virt. eigenvalues --    2.76426   2.79096   2.79911   2.83188   2.83349
 Alpha virt. eigenvalues --    2.85351   2.86416   2.92188   2.96774   2.99778
 Alpha virt. eigenvalues --    3.00384   3.04573   3.11708   3.12003   3.13794
 Alpha virt. eigenvalues --    3.20842   3.23475   3.27268   3.28509   3.31147
 Alpha virt. eigenvalues --    3.33579   3.33630   3.43497   3.46095   3.47629
 Alpha virt. eigenvalues --    3.49195   3.50781   3.56636   3.65162   3.67349
 Alpha virt. eigenvalues --    3.67582   3.93069   3.94005   3.94682   3.96168
 Alpha virt. eigenvalues --    4.03433   4.06924   4.07686   4.12536   4.35312
 Alpha virt. eigenvalues --    4.61027   4.70343   4.72218  23.45145  23.59794
 Alpha virt. eigenvalues --   23.82624  23.85170  23.88108  23.89775  23.90630
 Alpha virt. eigenvalues --   23.92433  23.98398  24.00678  24.01367  24.01514
 Alpha virt. eigenvalues --   24.11503  24.11607
          Condensed to atoms (all electrons):
               1          2          3          4          5          6
     1  C    8.494585   0.466721  -0.583704   1.759348  -0.002731  -0.095218
     2  C    0.466721   7.055903   0.373566  -0.937601  -0.042582  -0.016592
     3  C   -0.583704   0.373566   6.625164   0.729525  -0.117298   0.017757
     4  C    1.759348  -0.937601   0.729525  10.554078  -0.254618  -0.118449
     5  C   -0.002731  -0.042582  -0.117298  -0.254618  10.524232   0.733825
     6  C   -0.095218  -0.016592   0.017757  -0.118449   0.733825   6.627623
     7  C   -0.024848   0.006725  -0.016558  -0.042081  -0.937129   0.374416
     8  C    0.412220  -0.025745  -0.095231   0.000847   1.747209  -0.580066
     9  C   -1.363996  -0.679559   0.278353  -0.361533  -0.375619   0.277926
    10  C   -1.183045   0.191267  -0.366600  -2.459324  -2.455025  -0.372382
    11  C    0.274957  -0.981808   1.017419  -0.199756  -1.541747  -0.194475
    12  C   -1.781828   1.122444  -1.342515  -1.215786  -0.279886  -0.194630
    13  C    0.188871  -0.181724  -0.194067  -1.548803  -0.203554   1.021638
    14  C   -1.060654  -0.219149  -0.195158  -0.289801  -1.179913  -1.351366
    15  H    0.362842  -0.101213  -0.002563   0.024086   0.005923   0.001193
    16  H   -0.019606   0.378671  -0.014943   0.014028  -0.001649  -0.000352
    17  H   -0.020828  -0.019208   0.371986  -0.063096   0.000367   0.000406
    18  H    0.047833   0.004049  -0.086621   0.449172   0.008449  -0.004976
    19  H   -0.045981  -0.007755   0.050485  -0.064455  -0.063313   0.050624
    20  H    0.007741   0.001818  -0.004949   0.008497   0.448639  -0.086315
    21  H   -0.001332  -0.000397   0.000405   0.000369  -0.062864   0.372010
    22  H    0.000760   0.000377  -0.000351  -0.001653   0.013889  -0.014729
    23  H    0.005890  -0.002687   0.001185   0.005976   0.023951  -0.002479
    24  H    0.043752   0.013615  -0.001055  -0.012050  -0.011578  -0.001207
    25  H    0.024168   0.015209  -0.002335  -0.011431  -0.011688  -0.002143
               7          8          9         10         11         12
     1  C   -0.024848   0.412220  -1.363996  -1.183045   0.274957  -1.781828
     2  C    0.006725  -0.025745  -0.679559   0.191267  -0.981808   1.122444
     3  C   -0.016558  -0.095231   0.278353  -0.366600   1.017419  -1.342515
     4  C   -0.042081   0.000847  -0.361533  -2.459324  -0.199756  -1.215786
     5  C   -0.937129   1.747209  -0.375619  -2.455025  -1.541747  -0.279886
     6  C    0.374416  -0.580066   0.277926  -0.372382  -0.194475  -0.194630
     7  C    7.060804   0.469439  -0.678300   0.192219  -0.184929  -0.220703
     8  C    0.469439   8.494742  -1.375931  -1.181920   0.185002  -1.066777
     9  C   -0.678300  -1.375931   9.305164   0.386715   1.585609  -1.583135
    10  C    0.192219  -1.181920   0.386715   9.199346  -0.526659   2.276187
    11  C   -0.184929   0.185002   1.585609  -0.526659  14.275409  -3.778340
    12  C   -0.220703  -1.066777  -1.583135   2.276187  -3.778340  15.453001
    13  C   -0.984530   0.283015   1.593394  -0.534016   1.251209  -4.627357
    14  C    1.118174  -1.764717  -1.574481   2.263586  -4.634887   2.815649
    15  H   -0.002701   0.005884   0.086080  -0.008941  -0.023118  -0.020874
    16  H    0.000378   0.000790   0.004415  -0.010539   0.031016  -0.038287
    17  H   -0.000396  -0.001335  -0.004563   0.019457  -0.025447   0.084664
    18  H    0.001812   0.007789  -0.027335   0.018582  -0.009013  -0.049973
    19  H   -0.007766  -0.045964   0.075277   0.422093   0.068051  -0.062302
    20  H    0.003926   0.047616  -0.027429   0.018751  -0.010294  -0.012123
    21  H   -0.019055  -0.020803  -0.004575   0.019442  -0.006234   0.004869
    22  H    0.378890  -0.020124   0.004255  -0.010508   0.003260  -0.009431
    23  H   -0.101173   0.362426   0.085679  -0.008897  -0.000204   0.006920
    24  H    0.013205   0.042754   0.346668   0.004882   0.018880  -0.071921
    25  H    0.015663   0.025560   0.362473   0.004700   0.006076  -0.046111
              13         14         15         16         17         18
     1  C    0.188871  -1.060654   0.362842  -0.019606  -0.020828   0.047833
     2  C   -0.181724  -0.219149  -0.101213   0.378671  -0.019208   0.004049
     3  C   -0.194067  -0.195158  -0.002563  -0.014943   0.371986  -0.086621
     4  C   -1.548803  -0.289801   0.024086   0.014028  -0.063096   0.449172
     5  C   -0.203554  -1.179913   0.005923  -0.001649   0.000367   0.008449
     6  C    1.021638  -1.351366   0.001193  -0.000352   0.000406  -0.004976
     7  C   -0.984530   1.118174  -0.002701   0.000378  -0.000396   0.001812
     8  C    0.283015  -1.764717   0.005884   0.000790  -0.001335   0.007789
     9  C    1.593394  -1.574481   0.086080   0.004415  -0.004563  -0.027335
    10  C   -0.534016   2.263586  -0.008941  -0.010539   0.019457   0.018582
    11  C    1.251209  -4.634887  -0.023118   0.031016  -0.025447  -0.009013
    12  C   -4.627357   2.815649  -0.020874  -0.038287   0.084664  -0.049973
    13  C   14.267564  -3.781677  -0.000185   0.003246  -0.006158  -0.010454
    14  C   -3.781677  15.428785   0.006929  -0.009443   0.004868  -0.012161
    15  H   -0.000185   0.006929   0.438560  -0.009011   0.001405   0.000210
    16  H    0.003246  -0.009443  -0.009011   0.419348  -0.006585   0.001929
    17  H   -0.006158   0.004868   0.001405  -0.006585   0.421331  -0.010047
    18  H   -0.010454  -0.012161   0.000210   0.001929  -0.010047   0.454186
    19  H    0.069115  -0.062105   0.000333  -0.000526   0.001349  -0.005827
    20  H   -0.009066  -0.049633  -0.000116   0.000015  -0.000143   0.001287
    21  H   -0.025755   0.084708   0.000014  -0.000007   0.000010  -0.000143
    22  H    0.030875  -0.037696  -0.000126   0.000007  -0.000007   0.000015
    23  H   -0.022998  -0.020323   0.000617  -0.000125   0.000014  -0.000115
    24  H    0.019704  -0.072450  -0.000499   0.000516  -0.000099   0.000191
    25  H    0.005452  -0.045775  -0.001304   0.000762  -0.000183   0.000185
              19         20         21         22         23         24
     1  C   -0.045981   0.007741  -0.001332   0.000760   0.005890   0.043752
     2  C   -0.007755   0.001818  -0.000397   0.000377  -0.002687   0.013615
     3  C    0.050485  -0.004949   0.000405  -0.000351   0.001185  -0.001055
     4  C   -0.064455   0.008497   0.000369  -0.001653   0.005976  -0.012050
     5  C   -0.063313   0.448639  -0.062864   0.013889   0.023951  -0.011578
     6  C    0.050624  -0.086315   0.372010  -0.014729  -0.002479  -0.001207
     7  C   -0.007766   0.003926  -0.019055   0.378890  -0.101173   0.013205
     8  C   -0.045964   0.047616  -0.020803  -0.020124   0.362426   0.042754
     9  C    0.075277  -0.027429  -0.004575   0.004255   0.085679   0.346668
    10  C    0.422093   0.018751   0.019442  -0.010508  -0.008897   0.004882
    11  C    0.068051  -0.010294  -0.006234   0.003260  -0.000204   0.018880
    12  C   -0.062302  -0.012123   0.004869  -0.009431   0.006920  -0.071921
    13  C    0.069115  -0.009066  -0.025755   0.030875  -0.022998   0.019704
    14  C   -0.062105  -0.049633   0.084708  -0.037696  -0.020323  -0.072450
    15  H    0.000333  -0.000116   0.000014  -0.000126   0.000617  -0.000499
    16  H   -0.000526   0.000015  -0.000007   0.000007  -0.000125   0.000516
    17  H    0.001349  -0.000143   0.000010  -0.000007   0.000014  -0.000099
    18  H   -0.005827   0.001287  -0.000143   0.000015  -0.000115   0.000191
    19  H    0.441344  -0.005775   0.001346  -0.000525   0.000329   0.000568
    20  H   -0.005775   0.454175  -0.010062   0.001916   0.000209   0.000203
    21  H    0.001346  -0.010062   0.421403  -0.006597   0.001413  -0.000105
    22  H   -0.000525   0.001916  -0.006597   0.419378  -0.008996   0.000533
    23  H    0.000329   0.000209   0.001413  -0.008996   0.438491  -0.000522
    24  H    0.000568   0.000203  -0.000105   0.000533  -0.000522   0.494961
    25  H    0.000522   0.000175  -0.000179   0.000748  -0.001261  -0.079758
              25
     1  C    0.024168
     2  C    0.015209
     3  C   -0.002335
     4  C   -0.011431
     5  C   -0.011688
     6  C   -0.002143
     7  C    0.015663
     8  C    0.025560
     9  C    0.362473
    10  C    0.004700
    11  C    0.006076
    12  C   -0.046111
    13  C    0.005452
    14  C   -0.045775
    15  H   -0.001304
    16  H    0.000762
    17  H   -0.000183
    18  H    0.000185
    19  H    0.000522
    20  H    0.000175
    21  H   -0.000179
    22  H    0.000748
    23  H   -0.001261
    24  H   -0.079758
    25  H    0.494614
 Mulliken charges:
               1
     1  C    0.094083
     2  C   -0.414343
     3  C   -0.441897
     4  C    0.034512
     5  C    0.034708
     6  C   -0.442041
     7  C   -0.415481
     8  C    0.093319
     9  C   -0.335553
    10  C    0.100631
    11  C   -0.599979
    12  C    0.638247
    13  C   -0.603741
    14  C    0.638689
    15  H    0.236575
    16  H    0.255953
    17  H    0.252238
    18  H    0.220976
    19  H    0.190857
    20  H    0.220937
    21  H    0.252118
    22  H    0.255837
    23  H    0.236682
    24  H    0.250811
    25  H    0.245862
 Sum of Mulliken charges =   1.00000
 Mulliken charges with hydrogens summed into heavy atoms:
               1
     1  C    0.330657
     2  C   -0.158390
     3  C   -0.189659
     4  C    0.255488
     5  C    0.255645
     6  C   -0.189923
     7  C   -0.159645
     8  C    0.330001
     9  C    0.161121
    10  C    0.291488
    11  C   -0.599979
    12  C    0.638247
    13  C   -0.603741
    14  C    0.638689
 Electronic spatial extent (au):  <R**2>=           2848.1846
 Charge=              1.0000 electrons
 Dipole moment (field-independent basis, Debye):
    X=              0.0026    Y=              0.1830    Z=             -0.0005  Tot=              0.1830
 Quadrupole moment (field-independent basis, Debye-Ang):
   XX=            -31.2896   YY=            -56.2630   ZZ=            -84.0774
   XY=              0.0014   XZ=             -0.0024   YZ=              0.0957
 Traceless Quadrupole moment (field-independent basis, Debye-Ang):
   XX=             25.9204   YY=              0.9470   ZZ=            -26.8674
   XY=              0.0014   XZ=             -0.0024   YZ=              0.0957
 Octapole moment (field-independent basis, Debye-Ang**2):
  XXX=              0.1086  YYY=              5.2009  ZZZ=             -0.0298  XYY=             -0.0006
  XXY=             -5.8289  XXZ=              0.1589  XZZ=             -0.0138  YZZ=             -3.0943
  YYZ=              0.1122  XYZ=             -0.0122
 Hexadecapole moment (field-independent basis, Debye-Ang**3):
 XXXX=          -2119.2748 YYYY=           -609.2966 ZZZZ=            -99.1706 XXXY=              0.0622
 XXXZ=             -0.0680 YYYX=             -0.0264 YYYZ=              1.0520 ZZZX=             -0.0029
 ZZZY=              0.0404 XXYY=           -506.3912 XXZZ=           -588.5759 YYZZ=           -145.6218
 XXYZ=              1.0247 YYXZ=             -0.0003 ZZXY=              0.0012
 N-N= 7.821045395175D+02 E-N=-2.800601151014D+03  KE= 5.375644466906D+02
 Unable to Open any file for archive entry.
 1\1\GINC-GADI-CPU-CLX-0113\SP\RM062X TD-FC\6-311++G(d,p)\C14H11(1+)\TS
 1578\28-Jul-2022\0\\#n M062X/6-311++G(d,p) TD(NStates=1) EmpiricalDisp
 ersion=GD3 SP\\SP_25\\1,1\C,0,-0.01465,2.493555,1.360431\C,0,-0.016925
 ,3.694633,0.671989\C,0,-0.0049,3.671961,-0.71383\C,0,0.01555,2.454156,
 -1.407538\C,0,0.01565,-2.453956,-1.407538\C,0,-0.0043,-3.670961,-0.713
 83\C,0,-0.015975,-3.694283,0.671989\C,0,-0.01275,-2.492955,1.360431\C,
 0,-0.008725,-0.0022,1.453369\C,0,0.0244,0.0001,-1.429189\C,0,0.003575,
 1.26968,0.677065\C,0,0.0102,1.236121,-0.730804\C,0,0.003725,-1.26973,0
 .677065\C,0,0.0098,-1.236421,-0.730804\H,0,-0.0053,2.488846,2.443647\H
 ,0,-0.017225,4.631378,1.211689\H,0,0.00275,4.610337,-1.272349\H,0,0.00
 745,2.458775,-2.490059\H,0,0.0225,0.00005,-2.510266\H,0,0.00715,-2.458
 625,-2.490059\H,0,0.00305,-4.609087,-1.272349\H,0,-0.016075,-4.630628,
 1.211689\H,0,-0.0031,-2.488196,2.443647\H,0,-0.891585,-0.0005,2.146337
 \H,0,0.827585,-0.0005,2.145237\\Version=ES64L-G16RevC.01\State=1-A\HF=
 -539.7595237\RMSD=4.665e-09\PG=C01 [X(C14H11)]\\@
 The archive entry for this job was punched.


 IT IS IMPOSSIBLE TO MEDITATE ON TIME AND THE MYSTERY 
 OF NATURE WITHOUT AN OVERWHELMING EMOTION AT THE
 LIMITATIONS OF HUMAN INTELLIGENCE.

                                         -- ALFRED NORTH WHITEHEAD
 Job cpu time:       0 days  1 hours 23 minutes 51.8 seconds.
 Elapsed time:       0 days  0 hours  1 minutes 55.2 seconds.
 File lengths (MBytes):  RWF=    460 Int=      0 D2E=      0 Chk=     15 Scr=      1
 Normal termination of Gaussian 16 at Thu Jul 28 15:24:27 2022.
