 Entering Gaussian System, Link 0=g16
 Initial command:
 /apps/gaussian/g16c01/g16/l1.exe "/jobfs/53002009.gadi-pbs/Gau-725878.inp" -scrdir="/jobfs/53002009.gadi-pbs/"
 Entering Link 1 = /apps/gaussian/g16c01/g16/l1.exe PID=    725879.
  
 Copyright (c) 1988-2019, Gaussian, Inc.  All Rights Reserved.
  
 This is part of the Gaussian(R) 16 program.  It is based on
 the Gaussian(R) 09 system (copyright 2009, Gaussian, Inc.),
 the Gaussian(R) 03 system (copyright 2003, Gaussian, Inc.),
 the Gaussian(R) 98 system (copyright 1998, Gaussian, Inc.),
 the Gaussian(R) 94 system (copyright 1995, Gaussian, Inc.),
 the Gaussian 92(TM) system (copyright 1992, Gaussian, Inc.),
 the Gaussian 90(TM) system (copyright 1990, Gaussian, Inc.),
 the Gaussian 88(TM) system (copyright 1988, Gaussian, Inc.),
 the Gaussian 86(TM) system (copyright 1986, Carnegie Mellon
 University), and the Gaussian 82(TM) system (copyright 1983,
 Carnegie Mellon University). Gaussian is a federally registered
 trademark of Gaussian, Inc.
  
 This software contains proprietary and confidential information,
 including trade secrets, belonging to Gaussian, Inc.
  
 This software is provided under written license and may be
 used, copied, transmitted, or stored only in accord with that
 written license.
  
 The following legend is applicable only to US Government
 contracts under FAR:
  
                    RESTRICTED RIGHTS LEGEND
  
 Use, reproduction and disclosure by the US Government is
 subject to restrictions as set forth in subparagraphs (a)
 and (c) of the Commercial Computer Software - Restricted
 Rights clause in FAR 52.227-19.
  
 Gaussian, Inc.
 340 Quinnipiac St., Bldg. 40, Wallingford CT 06492
  
  
 ---------------------------------------------------------------
 Warning -- This program may not be used in any manner that
 competes with the business of Gaussian, Inc. or will provide
 assistance to any competitor of Gaussian, Inc.  The licensee
 of this program is prohibited from giving any competitor of
 Gaussian, Inc. access to this program.  By using this program,
 the user acknowledges that Gaussian, Inc. is engaged in the
 business of creating and licensing software in the field of
 computational chemistry and represents and warrants to the
 licensee that it is not a competitor of Gaussian, Inc. and that
 it will not use this program in any manner prohibited above.
 ---------------------------------------------------------------
  

 Cite this work as:
 Gaussian 16, Revision C.01,
 M. J. Frisch, G. W. Trucks, H. B. Schlegel, G. E. Scuseria, 
 M. A. Robb, J. R. Cheeseman, G. Scalmani, V. Barone, 
 G. A. Petersson, H. Nakatsuji, X. Li, M. Caricato, A. V. Marenich, 
 J. Bloino, B. G. Janesko, R. Gomperts, B. Mennucci, H. P. Hratchian, 
 J. V. Ortiz, A. F. Izmaylov, J. L. Sonnenberg, D. Williams-Young, 
 F. Ding, F. Lipparini, F. Egidi, J. Goings, B. Peng, A. Petrone, 
 T. Henderson, D. Ranasinghe, V. G. Zakrzewski, J. Gao, N. Rega, 
 G. Zheng, W. Liang, M. Hada, M. Ehara, K. Toyota, R. Fukuda, 
 J. Hasegawa, M. Ishida, T. Nakajima, Y. Honda, O. Kitao, H. Nakai, 
 T. Vreven, K. Throssell, J. A. Montgomery, Jr., J. E. Peralta, 
 F. Ogliaro, M. J. Bearpark, J. J. Heyd, E. N. Brothers, K. N. Kudin, 
 V. N. Staroverov, T. A. Keith, R. Kobayashi, J. Normand, 
 K. Raghavachari, A. P. Rendell, J. C. Burant, S. S. Iyengar, 
 J. Tomasi, M. Cossi, J. M. Millam, M. Klene, C. Adamo, R. Cammi, 
 J. W. Ochterski, R. L. Martin, K. Morokuma, O. Farkas, 
 J. B. Foresman, and D. J. Fox, Gaussian, Inc., Wallingford CT, 2019.
 
 ******************************************
 Gaussian 16:  ES64L-G16RevC.01  3-Jul-2019
                28-Jul-2022 
 ******************************************
 %NProcShared=48
 Will use up to   48 processors via shared memory.
 %mem = 190GB
 ---------------------------------------------------------------
 #n M062X/6-311++G(d,p) TD(NStates=1) EmpiricalDispersion=GD3 SP
 ---------------------------------------------------------------
 1/38=1,172=1/1;
 2/12=2,17=6,18=5,40=1/2;
 3/5=4,6=6,7=1111,11=9,25=1,30=1,74=-55,124=31/1,2,3,8;
 4//1;
 5/5=2,38=5/2;
 8/6=1,10=2,108=1/1;
 9/41=1,42=1,70=2/14;
 6/7=2,8=2,9=2,10=2/1;
 99/5=1,9=1/99;
 -------
 SP_-100
 -------
 Symbolic Z-matrix:
 Charge =  1 Multiplicity = 1
 C                    -0.0077    2.49416   1.36043 
 C                    -0.00625   3.70053   0.67199 
 C                    -0.0025    3.68301  -0.71383 
 C                     0.00367   2.46133  -1.40754 
 C                     0.00412  -2.46043  -1.40754 
 C                     0.0002   -3.67851  -0.71383 
 C                    -0.00197  -3.69896   0.67199 
 C                     0.00085  -2.49146   1.36043 
 C                    -0.00208  -0.0099    1.45337 
 C                     0.0061    0.00045  -1.42919 
 C                     0.00058   1.26385   0.67707 
 C                     0.0034    1.2365   -0.7308 
 C                     0.00125  -1.26408   0.67707 
 C                     0.0016   -1.23785  -0.7308 
 H                    -0.006     2.48965   2.44365 
 H                    -0.00675   4.637     1.21169 
 H                     0.00005   4.61219  -1.27235 
 H                     0.0025    2.46568  -2.49006 
 H                     0.00563   0.00023  -2.51027 
 H                     0.00115  -2.465    -2.49006 
 H                     0.0014   -4.60656  -1.27235 
 H                    -0.00158  -4.63363   1.21169 
 H                     0.0039   -2.48672   2.44365 
 H                    -0.86759  -0.00225   2.14826 
 H                     0.85159  -0.00225   2.14331 
 
                          Input orientation:                          
 ---------------------------------------------------------------------
 Center     Atomic      Atomic             Coordinates (Angstroms)
 Number     Number       Type             X           Y           Z
 ---------------------------------------------------------------------
      1          6           0       -0.007700    2.494155    1.360431
      2          6           0       -0.006250    3.700533    0.671989
      3          6           0       -0.002500    3.683011   -0.713830
      4          6           0        0.003675    2.461331   -1.407538
      5          6           0        0.004125   -2.460431   -1.407538
      6          6           0        0.000200   -3.678511   -0.713830
      7          6           0       -0.001975   -3.698958    0.671989
      8          6           0        0.000850   -2.491455    1.360431
      9          6           0       -0.002075   -0.009900    1.453369
     10          6           0        0.006100    0.000450   -1.429189
     11          6           0        0.000575    1.263855    0.677065
     12          6           0        0.003400    1.236496   -0.730804
     13          6           0        0.001250   -1.264080    0.677065
     14          6           0        0.001600   -1.237846   -0.730804
     15          1           0       -0.006000    2.489646    2.443647
     16          1           0       -0.006750    4.637003    1.211689
     17          1           0        0.000050    4.612187   -1.272349
     18          1           0        0.002500    2.465675   -2.490059
     19          1           0        0.005625    0.000225   -2.510266
     20          1           0        0.001150   -2.465000   -2.490059
     21          1           0        0.001400   -4.606562   -1.272349
     22          1           0       -0.001575   -4.633628    1.211689
     23          1           0        0.003900   -2.486721    2.443647
     24          1           0       -0.867585   -0.002250    2.148262
     25          1           0        0.851585   -0.002250    2.143312
 ---------------------------------------------------------------------
                    Distance matrix (angstroms):
                    1          2          3          4          5
     1  C    0.000000
     2  C    1.388993   0.000000
     3  C    2.390808   1.385935   0.000000
     4  C    2.768187   2.420775   1.404910   0.000000
     5  C    5.675360   6.502462   6.182488   4.921762   0.000000
     6  C    6.511868   7.508051   7.361522   6.178908   1.401772
     7  C    6.231263   7.399492   7.510923   6.501817   2.420417
     8  C    4.985617   6.230146   6.513570   5.673777   2.768145
     9  C    2.505785   3.791818   4.281862   3.780450   3.766952
    10  C    3.741756   4.255081   3.751409   2.460977   2.460977
    11  C    1.407372   2.436693   2.790504   2.404065   4.268008
    12  C    2.440306   2.835384   2.446581   1.399353   3.758356
    13  C    3.819869   4.964621   5.138902   4.268988   2.403504
    14  C    4.277988   5.133759   4.920888   3.760570   1.397387
    15  H    1.083227   2.145931   3.375469   3.851301   6.271761
    16  H    2.148004   1.080857   2.148893   3.404997   7.565318
    17  H    3.379001   2.147464   1.084121   2.155103   7.073911
    18  H    3.850609   3.394628   2.153351   1.082530   5.043647
    19  H    4.604580   4.880488   4.097580   2.696860   2.696449
    20  H    6.278501   6.929098   6.399456   5.043867   1.082535
    21  H    7.573097   8.531608   8.308368   7.069186   2.150386
    22  H    7.129337   8.351619   8.536633   7.562990   3.403405
    23  H    5.097315   6.435914   6.930750   6.270155   3.851275
    24  H    2.755380   4.078220   4.745639   4.412713   4.409790
    25  H    2.753781   4.075693   4.740661   4.404171   4.401066
                    6          7          8          9         10
     6  C    0.000000
     7  C    1.385972   0.000000
     8  C    2.389908   1.389973   0.000000
     9  C    4.260923   3.770902   2.483296   0.000000
    10  C    3.747870   4.254484   3.740534   2.882588   0.000000
    11  C    5.134352   4.962816   3.816981   1.491679   2.456121
    12  C    4.915037   5.130942   4.274446   2.514785   1.419704
    13  C    2.786408   2.434885   1.404791   1.475000   2.456698
    14  C    2.440724   2.832828   2.438196   2.505689   1.421668
    15  H    6.929348   6.437205   5.097526   2.688568   4.603814
    16  H    8.535540   8.353415   7.130014   4.653186   5.335918
    17  H    8.309490   8.535548   7.575834   5.365932   4.614407
    18  H    6.395781   6.928295   6.276895   4.656084   2.683802
    19  H    4.093936   4.879627   4.603345   3.963655   1.081077
    20  H    2.151186   3.394291   3.850581   4.645229   2.684011
    21  H    1.083154   2.145742   3.377160   5.344048   4.609683
    22  H    2.149389   1.079298   2.147332   4.630040   5.333758
    23  H    3.374913   2.146701   1.083231   2.667457   4.602704
    24  H    4.739147   4.073612   2.751545   1.109974   3.682593
    25  H    4.733182   4.069276   2.744594   1.097641   3.671187
                   11         12         13         14         15
    11  C    0.000000
    12  C    1.408138   0.000000
    13  C    2.527935   2.869665   0.000000
    14  C    2.870645   2.474343   1.408113   0.000000
    15  H    2.150214   3.412860   4.148653   4.896059   0.000000
    16  H    3.415260   3.916226   5.925257   6.187665   2.475654
    17  H    3.874473   3.418855   6.191182   5.875045   4.279468
    18  H    3.387484   2.146127   4.893031   4.100128   4.933772
    19  H    3.428683   2.166762   3.428931   2.167792   5.544241
    20  H    4.892344   4.098299   3.387164   2.144967   6.992140
    21  H    6.185629   5.868100   3.869419   3.411967   8.010296
    22  H    5.921666   6.183176   3.411698   3.912113   7.229023
    23  H    4.145798   4.892799   2.148411   3.411280   4.976377
    24  H    2.126298   3.253018   2.124032   3.251338   2.653135
    25  H    2.115921   3.242600   2.113094   3.241869   2.652395
                   16         17         18         19         20
    16  H    0.000000
    17  H    2.484171   0.000000
    18  H    4.291584   2.467861   0.000000
    19  H    5.945823   4.775213   2.465535   0.000000
    20  H    8.008836   7.181183   4.930675   2.465312   0.000000
    21  H    9.571521   9.218749   7.176305   4.770214   2.463555
    22  H    9.270632   9.573690   8.006439   5.943534   4.290209
    23  H    7.229473   8.012686   6.990542   5.543118   4.933755
    24  H    4.810496   5.809165   5.325573   4.739661   5.322956
    25  H    4.809088   5.803868   5.317869   4.729846   5.315685
                   21         22         23         24         25
    21  H    0.000000
    22  H    2.484187   0.000000
    23  H    4.278126   2.475270   0.000000
    24  H    5.801328   4.803832   2.649403   0.000000
    25  H    5.795623   4.800569   2.642228   1.719177   0.000000
 Stoichiometry    C14H11(1+)
 Framework group  C1[X(C14H11)]
 Deg. of freedom    69
 Full point group                 C1      NOp   1
 Largest Abelian subgroup         C1      NOp   1
 Largest concise Abelian subgroup C1      NOp   1
                         Standard orientation:                         
 ---------------------------------------------------------------------
 Center     Atomic      Atomic             Coordinates (Angstroms)
 Number     Number       Type             X           Y           Z
 ---------------------------------------------------------------------
      1          6           0        2.493898   -1.360915    0.003252
      2          6           0        3.700406   -0.672699    0.002687
      3          6           0        3.683145    0.713128    0.002028
      4          6           0        2.461593    1.407079   -0.001949
      5          6           0       -2.460168    1.408008    0.000240
      6          6           0       -3.678377    0.714523    0.003275
      7          6           0       -3.699086   -0.671294    0.002379
      8          6           0       -2.491716   -1.359956   -0.002624
      9          6           0       -0.010177   -1.453368   -0.001237
     10          6           0        0.000716    1.429199   -0.003007
     11          6           0        1.263724   -0.677300   -0.002843
     12          6           0        1.236630    0.730577   -0.002522
     13          6           0       -1.264211   -0.676822   -0.002163
     14          6           0       -1.237710    0.731039    0.000604
     15          1           0        2.489183   -2.444124   -0.000854
     16          1           0        4.636774   -1.212575    0.001484
     17          1           0        4.612425    1.271476    0.000222
     18          1           0        2.466143    2.489594    0.001631
     19          1           0        0.000696    2.510272   -0.000127
     20          1           0       -2.464530    2.490520    0.005625
     21          1           0       -4.606323    1.273218    0.003815
     22          1           0       -4.633859   -1.210815    0.001280
     23          1           0       -2.487189   -2.443163   -0.008086
     24          1           0       -0.002195   -2.150186    0.862722
     25          1           0       -0.003115   -2.141412   -0.856433
 ---------------------------------------------------------------------
 Rotational constants (GHZ):           2.1362063           0.4450405           0.3691116
 Standard basis: 6-311++G(d,p) (5D, 7F)
 There are   399 symmetry adapted cartesian basis functions of A   symmetry.
 There are   385 symmetry adapted basis functions of A   symmetry.
   385 basis functions,   603 primitive gaussians,   399 cartesian basis functions
    47 alpha electrons       47 beta electrons
       nuclear repulsion energy       781.4280491719 Hartrees.
 NAtoms=   25 NActive=   25 NUniq=   25 SFac= 1.00D+00 NAtFMM=   60 NAOKFM=F Big=F
 Integral buffers will be    131072 words long.
 Regular integral format.
 Two-electron integral symmetry is turned on.
 Nuclear repulsion after empirical dispersion term =      781.4270697582 Hartrees.
 One-electron integrals computed using PRISM.
 NBasis=   385 RedAO= T EigKep=  1.12D-06  NBF=   385
 NBsUse=   379 1.00D-06 EigRej=  8.36D-07 NBFU=   379
 ExpMin= 3.60D-02 ExpMax= 4.56D+03 ExpMxC= 6.82D+02 IAcc=3 IRadAn=         5 AccDes= 0.00D+00
 Harris functional with IExCor= 1009 and IRadAn=       5 diagonalized for initial guess.
 HarFok:  IExCor= 1009 AccDes= 0.00D+00 IRadAn=         5 IDoV= 1 UseB2=F ITyADJ=14
 ICtDFT=  3500011 ScaDFX=  1.000000  1.000000  1.000000  1.000000
 FoFCou: FMM=F IPFlag=           0 FMFlag=      100000 FMFlg1=           0
         NFxFlg=           0 DoJE=T BraDBF=F KetDBF=T FulRan=T
         wScrn=  0.000000 ICntrl=       500 IOpCl=  0 I1Cent=   200000004 NGrid=           0
         NMat0=    1 NMatS0=      1 NMatT0=    0 NMatD0=    1 NMtDS0=    0 NMtDT0=    0
 Petite list used in FoFCou.
 Requested convergence on RMS density matrix=1.00D-08 within 128 cycles.
 Requested convergence on MAX density matrix=1.00D-06.
 Requested convergence on             energy=1.00D-06.
 No special actions if energy rises.
 SCF Done:  E(RM062X) =  -539.760137392     A.U. after   15 cycles
            NFock= 15  Conv=0.48D-08     -V/T= 2.0042
 DoSCS=F DFT=T ScalE2(SS,OS)=  1.000000  1.000000
 ExpMin= 3.60D-02 ExpMax= 4.56D+03 ExpMxC= 6.82D+02 IAcc=3 IRadAn=         5 AccDes= 0.00D+00
 HarFok:  IExCor=  205 AccDes= 0.00D+00 IRadAn=         5 IDoV=-2 UseB2=F ITyADJ=14
 ICtDFT= 12500011 ScaDFX=  1.000000  1.000000  1.000000  1.000000
 Range of M.O.s used for correlation:    15   379
 NBasis=   385 NAE=    47 NBE=    47 NFC=    14 NFV=     0
 NROrb=    365 NOA=    33 NOB=    33 NVA=   332 NVB=   332

 **** Warning!!: The largest alpha MO coefficient is  0.15265940D+03

 Orbital symmetries:
       Occupied  (A) (A) (A) (A) (A) (A) (A) (A) (A) (A) (A) (A)
                 (A) (A) (A) (A) (A) (A) (A) (A) (A) (A) (A) (A)
                 (A) (A) (A) (A) (A) (A) (A) (A) (A) (A) (A) (A)
                 (A) (A) (A) (A) (A) (A) (A) (A) (A) (A) (A)
       Virtual   (A) (A) (A) (A) (A) (A) (A) (A) (A) (A) (A) (A)
                 (A) (A) (A) (A) (A) (A) (A) (A) (A) (A) (A) (A)
                 (A) (A) (A) (A) (A) (A) (A) (A) (A) (A) (A) (A)
                 (A) (A) (A) (A) (A) (A) (A) (A) (A) (A) (A) (A)
                 (A) (A) (A) (A) (A) (A) (A) (A) (A) (A) (A) (A)
                 (A) (A) (A) (A) (A) (A) (A) (A) (A) (A) (A) (A)
                 (A) (A) (A) (A) (A) (A) (A) (A) (A) (A) (A) (A)
                 (A) (A) (A) (A) (A) (A) (A) (A) (A) (A) (A) (A)
                 (A) (A) (A) (A) (A) (A) (A) (A) (A) (A) (A) (A)
                 (A) (A) (A) (A) (A) (A) (A) (A) (A) (A) (A) (A)
                 (A) (A) (A) (A) (A) (A) (A) (A) (A) (A) (A) (A)
                 (A) (A) (A) (A) (A) (A) (A) (A) (A) (A) (A) (A)
                 (A) (A) (A) (A) (A) (A) (A) (A) (A) (A) (A) (A)
                 (A) (A) (A) (A) (A) (A) (A) (A) (A) (A) (A) (A)
                 (A) (A) (A) (A) (A) (A) (A) (A) (A) (A) (A) (A)
                 (A) (A) (A) (A) (A) (A) (A) (A) (A) (A) (A) (A)
                 (A) (A) (A) (A) (A) (A) (A) (A) (A) (A) (A) (A)
                 (A) (A) (A) (A) (A) (A) (A) (A) (A) (A) (A) (A)
                 (A) (A) (A) (A) (A) (A) (A) (A) (A) (A) (A) (A)
                 (A) (A) (A) (A) (A) (A) (A) (A) (A) (A) (A) (A)
                 (A) (A) (A) (A) (A) (A) (A) (A) (A) (A) (A) (A)
                 (A) (A) (A) (A) (A) (A) (A) (A) (A) (A) (A) (A)
                 (A) (A) (A) (A) (A) (A) (A) (A) (A) (A) (A) (A)
                 (A) (A) (A) (A) (A) (A) (A) (A) (A) (A) (A) (A)
                 (A) (A) (A) (A) (A) (A) (A) (A) (A) (A) (A) (A)
                 (A) (A) (A) (A) (A) (A) (A) (A) (A) (A) (A) (A)
                 (A) (A) (A) (A) (A) (A) (A) (A) (A) (A) (A) (A)
                 (A) (A) (A) (A) (A) (A) (A) (A)
     4 initial guesses have been made.
 Convergence on wavefunction:    0.001000000000000
 Iteration     1 Dimension     4 NMult     0 NNew      4
 CISAX will form     4 AO SS matrices at one time.
 Iteration     2 Dimension     6 NMult     4 NNew      2
 Iteration     3 Dimension     8 NMult     6 NNew      2
 Iteration     4 Dimension    10 NMult     8 NNew      2
 Iteration     5 Dimension    12 NMult    10 NNew      2
 Iteration     6 Dimension    14 NMult    12 NNew      2
 ***********************************************************************
 Excited states from <AA,BB:AA,BB> singles matrix:
 ***********************************************************************
 
 Ground to excited state transition densities written to RWF  633
 Ground to excited state transition electric dipole moments (Au):
       state          X           Y           Z        Dip. S.      Osc.
         1        -0.0129     -0.6460      0.0013      0.4174      0.0289
 Ground to excited state transition velocity dipole moments (Au):
       state          X           Y           Z        Dip. S.      Osc.
         1         0.0014      0.0748     -0.0002      0.0056      0.0359
 Ground to excited state transition magnetic dipole moments (Au):
       state          X           Y           Z
         1        -0.0012      0.0009      0.0006
 Ground to excited state transition velocity quadrupole moments (Au):
       state          XX          YY          ZZ          XY          XZ          YZ
         1         0.2946      0.0357     -0.0099      0.0020     -0.0001      0.0004
 <0|del|b> * <b|rxdel|0> + <0|del|b> * <b|delr+rdel|0>
 Rotatory Strengths (R) in cgs (10**-40 erg-esu-cm/Gauss)
       state          XX          YY          ZZ    R(velocity)    E-M Angle
         1         0.2576     -0.0032      0.2153      0.1566       90.00
 1/2[<0|r|b>*<b|rxdel|0> + (<0|rxdel|b>*<b|r|0>)*]
 Rotatory Strengths (R) in cgs (10**-40 erg-esu-cm/Gauss)
       state          XX          YY          ZZ     R(length)
         1        -0.0110      0.4322     -0.0005      0.1402
  1/2[<0|del|b>*<b|r|0> + (<0|r|b>*<b|del|0>)*] (Au)
       state          X           Y           Z        Dip. S.   Osc.(frdel)
         1        -0.0000     -0.0483     -0.0000      0.0483      0.0322

 Excitation energies and oscillator strengths:
 
 Excited State   1:      Singlet-A      2.8266 eV  438.63 nm  f=0.0289  <S**2>=0.000
      47 -> 48         0.70425
 This state for optimization and/or second-order correction.
 Total Energy, E(TD-HF/TD-DFT) =  -539.656261959    
 Copying the excited state density for this state as the 1-particle RhoCI density.
 SavETr:  write IOETrn=   770 NScale= 10 NData=  16 NLR=1 NState=    1 LETran=      28.

 **********************************************************************

            Population analysis using the SCF Density.

 **********************************************************************

 Orbital symmetries:
       Occupied  (A) (A) (A) (A) (A) (A) (A) (A) (A) (A) (A) (A)
                 (A) (A) (A) (A) (A) (A) (A) (A) (A) (A) (A) (A)
                 (A) (A) (A) (A) (A) (A) (A) (A) (A) (A) (A) (A)
                 (A) (A) (A) (A) (A) (A) (A) (A) (A) (A) (A)
       Virtual   (A) (A) (A) (A) (A) (A) (A) (A) (A) (A) (A) (A)
                 (A) (A) (A) (A) (A) (A) (A) (A) (A) (A) (A) (A)
                 (A) (A) (A) (A) (A) (A) (A) (A) (A) (A) (A) (A)
                 (A) (A) (A) (A) (A) (A) (A) (A) (A) (A) (A) (A)
                 (A) (A) (A) (A) (A) (A) (A) (A) (A) (A) (A) (A)
                 (A) (A) (A) (A) (A) (A) (A) (A) (A) (A) (A) (A)
                 (A) (A) (A) (A) (A) (A) (A) (A) (A) (A) (A) (A)
                 (A) (A) (A) (A) (A) (A) (A) (A) (A) (A) (A) (A)
                 (A) (A) (A) (A) (A) (A) (A) (A) (A) (A) (A) (A)
                 (A) (A) (A) (A) (A) (A) (A) (A) (A) (A) (A) (A)
                 (A) (A) (A) (A) (A) (A) (A) (A) (A) (A) (A) (A)
                 (A) (A) (A) (A) (A) (A) (A) (A) (A) (A) (A) (A)
                 (A) (A) (A) (A) (A) (A) (A) (A) (A) (A) (A) (A)
                 (A) (A) (A) (A) (A) (A) (A) (A) (A) (A) (A) (A)
                 (A) (A) (A) (A) (A) (A) (A) (A) (A) (A) (A) (A)
                 (A) (A) (A) (A) (A) (A) (A) (A) (A) (A) (A) (A)
                 (A) (A) (A) (A) (A) (A) (A) (A) (A) (A) (A) (A)
                 (A) (A) (A) (A) (A) (A) (A) (A) (A) (A) (A) (A)
                 (A) (A) (A) (A) (A) (A) (A) (A) (A) (A) (A) (A)
                 (A) (A) (A) (A) (A) (A) (A) (A) (A) (A) (A) (A)
                 (A) (A) (A) (A) (A) (A) (A) (A) (A) (A) (A) (A)
                 (A) (A) (A) (A) (A) (A) (A) (A) (A) (A) (A) (A)
                 (A) (A) (A) (A) (A) (A) (A) (A) (A) (A) (A) (A)
                 (A) (A) (A) (A) (A) (A) (A) (A) (A) (A) (A) (A)
                 (A) (A) (A) (A) (A) (A) (A) (A) (A) (A) (A) (A)
                 (A) (A) (A) (A) (A) (A) (A) (A) (A) (A) (A) (A)
                 (A) (A) (A) (A) (A) (A) (A) (A) (A) (A) (A) (A)
                 (A) (A) (A) (A) (A) (A) (A) (A)
 The electronic state is 1-A.
 Alpha  occ. eigenvalues --  -10.77667 -10.73295 -10.73170 -10.72418 -10.72412
 Alpha  occ. eigenvalues --  -10.71376 -10.71309 -10.71000 -10.70979 -10.70978
 Alpha  occ. eigenvalues --  -10.69969 -10.69921 -10.69669 -10.69608  -1.16460
 Alpha  occ. eigenvalues --   -1.12518  -1.06973  -1.05717  -1.01365  -1.00176
 Alpha  occ. eigenvalues --   -0.95802  -0.91051  -0.86423  -0.85909  -0.83819
 Alpha  occ. eigenvalues --   -0.78404  -0.76032  -0.74429  -0.69562  -0.69236
 Alpha  occ. eigenvalues --   -0.68497  -0.68177  -0.68077  -0.64778  -0.64319
 Alpha  occ. eigenvalues --   -0.63039  -0.61827  -0.60021  -0.59716  -0.59079
 Alpha  occ. eigenvalues --   -0.56891  -0.55211  -0.54807  -0.52458  -0.46663
 Alpha  occ. eigenvalues --   -0.46054  -0.44523
 Alpha virt. eigenvalues --   -0.26093  -0.14643  -0.14092  -0.12743  -0.11179
 Alpha virt. eigenvalues --   -0.10088  -0.09234  -0.07993  -0.07966  -0.07477
 Alpha virt. eigenvalues --   -0.07203  -0.07142  -0.05642  -0.05581  -0.05327
 Alpha virt. eigenvalues --   -0.03834  -0.03653  -0.03279  -0.03132  -0.02166
 Alpha virt. eigenvalues --   -0.01371  -0.00936   0.00192   0.00579   0.00663
 Alpha virt. eigenvalues --    0.01058   0.01513   0.01947   0.02221   0.02284
 Alpha virt. eigenvalues --    0.02453   0.02665   0.02772   0.03301   0.03365
 Alpha virt. eigenvalues --    0.04238   0.04506   0.04697   0.05046   0.05367
 Alpha virt. eigenvalues --    0.06028   0.06298   0.06598   0.07044   0.07259
 Alpha virt. eigenvalues --    0.07897   0.08187   0.08360   0.08550   0.08927
 Alpha virt. eigenvalues --    0.09544   0.09556   0.10036   0.10829   0.11075
 Alpha virt. eigenvalues --    0.11119   0.12164   0.12245   0.12926   0.12960
 Alpha virt. eigenvalues --    0.13415   0.13516   0.14016   0.14411   0.16202
 Alpha virt. eigenvalues --    0.16265   0.16394   0.17338   0.17629   0.17796
 Alpha virt. eigenvalues --    0.18126   0.19093   0.19251   0.19647   0.19744
 Alpha virt. eigenvalues --    0.21576   0.21611   0.22715   0.23100   0.23555
 Alpha virt. eigenvalues --    0.23821   0.24580   0.25320   0.26919   0.27628
 Alpha virt. eigenvalues --    0.28847   0.29289   0.29861   0.31376   0.35813
 Alpha virt. eigenvalues --    0.36473   0.38197   0.39297   0.41153   0.41389
 Alpha virt. eigenvalues --    0.41971   0.42174   0.42976   0.43709   0.44284
 Alpha virt. eigenvalues --    0.45011   0.45037   0.46130   0.46156   0.47942
 Alpha virt. eigenvalues --    0.48517   0.48862   0.49015   0.50414   0.51187
 Alpha virt. eigenvalues --    0.51609   0.51709   0.52120   0.52971   0.53959
 Alpha virt. eigenvalues --    0.54078   0.54679   0.55689   0.55762   0.57455
 Alpha virt. eigenvalues --    0.58247   0.58816   0.61449   0.62198   0.62350
 Alpha virt. eigenvalues --    0.63236   0.63478   0.64960   0.65160   0.67228
 Alpha virt. eigenvalues --    0.70426   0.70596   0.71027   0.72431   0.72869
 Alpha virt. eigenvalues --    0.75776   0.76013   0.76304   0.76891   0.77089
 Alpha virt. eigenvalues --    0.77827   0.77904   0.78243   0.79912   0.80383
 Alpha virt. eigenvalues --    0.81269   0.81652   0.82145   0.83033   0.85183
 Alpha virt. eigenvalues --    0.87177   0.88164   0.88546   0.89223   0.90405
 Alpha virt. eigenvalues --    0.91061   0.91301   0.93245   0.94650   0.96436
 Alpha virt. eigenvalues --    0.96640   1.00362   1.01285   1.01718   1.02768
 Alpha virt. eigenvalues --    1.03203   1.03885   1.04752   1.05379   1.08808
 Alpha virt. eigenvalues --    1.19497   1.23257   1.24052   1.25290   1.28014
 Alpha virt. eigenvalues --    1.29785   1.31679   1.34370   1.35814   1.36035
 Alpha virt. eigenvalues --    1.39385   1.40153   1.40986   1.43090   1.43497
 Alpha virt. eigenvalues --    1.43562   1.45195   1.45398   1.46359   1.46668
 Alpha virt. eigenvalues --    1.47664   1.48106   1.51743   1.53645   1.55760
 Alpha virt. eigenvalues --    1.55873   1.56416   1.56595   1.57813   1.61490
 Alpha virt. eigenvalues --    1.63186   1.63470   1.63675   1.66137   1.68308
 Alpha virt. eigenvalues --    1.68375   1.68705   1.69736   1.74462   1.75993
 Alpha virt. eigenvalues --    1.77181   1.78068   1.80007   1.80232   1.80805
 Alpha virt. eigenvalues --    1.83143   1.83251   1.83612   1.83878   1.84131
 Alpha virt. eigenvalues --    1.84326   1.85921   1.86099   1.88247   1.91360
 Alpha virt. eigenvalues --    1.92108   1.94123   1.95188   1.97750   1.98251
 Alpha virt. eigenvalues --    1.99837   2.02412   2.04479   2.07174   2.11808
 Alpha virt. eigenvalues --    2.12123   2.14129   2.15240   2.19236   2.21258
 Alpha virt. eigenvalues --    2.22893   2.28679   2.30235   2.34614   2.34984
 Alpha virt. eigenvalues --    2.36249   2.38555   2.39425   2.42400   2.44347
 Alpha virt. eigenvalues --    2.46521   2.46594   2.49448   2.52963   2.53805
 Alpha virt. eigenvalues --    2.54233   2.56746   2.57868   2.58341   2.59662
 Alpha virt. eigenvalues --    2.59855   2.61580   2.62168   2.63557   2.63838
 Alpha virt. eigenvalues --    2.64795   2.65109   2.65291   2.65354   2.67963
 Alpha virt. eigenvalues --    2.68495   2.70988   2.71411   2.73358   2.74826
 Alpha virt. eigenvalues --    2.76329   2.78835   2.79767   2.82991   2.83094
 Alpha virt. eigenvalues --    2.85007   2.86317   2.92130   2.96995   2.99559
 Alpha virt. eigenvalues --    3.00144   3.04944   3.11254   3.11576   3.13268
 Alpha virt. eigenvalues --    3.20864   3.23837   3.26850   3.28296   3.30860
 Alpha virt. eigenvalues --    3.33041   3.33635   3.43426   3.45975   3.46830
 Alpha virt. eigenvalues --    3.48707   3.50299   3.56535   3.65725   3.66843
 Alpha virt. eigenvalues --    3.67561   3.93909   3.94611   3.94902   3.96200
 Alpha virt. eigenvalues --    4.03856   4.06873   4.07576   4.12555   4.35473
 Alpha virt. eigenvalues --    4.61285   4.69960   4.71802  23.45293  23.60337
 Alpha virt. eigenvalues --   23.82355  23.85381  23.88102  23.89397  23.90550
 Alpha virt. eigenvalues --   23.92333  23.97939  23.99891  24.00300  24.00416
 Alpha virt. eigenvalues --   24.10678  24.10978
          Condensed to atoms (all electrons):
               1          2          3          4          5          6
     1  C    8.586668   0.333991  -0.558218   1.980313  -0.034401  -0.096199
     2  C    0.333991   7.115530   0.355172  -1.059245  -0.022634  -0.014966
     3  C   -0.558218   0.355172   6.592555   0.754259  -0.121580   0.017106
     4  C    1.980313  -1.059245   0.754259  10.999785  -0.359911  -0.125876
     5  C   -0.034401  -0.022634  -0.121580  -0.359911  10.910517   0.777681
     6  C   -0.096199  -0.014966   0.017106  -0.125876   0.777681   6.600670
     7  C   -0.016597   0.002306  -0.014832  -0.020279  -1.067374   0.360429
     8  C    0.408269  -0.021716  -0.095931  -0.016597   1.923465  -0.541977
     9  C   -1.170871  -0.787975   0.294192  -0.209139  -0.265176   0.290536
    10  C   -1.273876   0.239028  -0.347995  -2.569462  -2.566508  -0.368969
    11  C    0.271042  -0.919283   1.005304  -0.237483  -1.495268  -0.181194
    12  C   -2.086234   1.326586  -1.375952  -1.630508  -0.318826  -0.197350
    13  C    0.219076  -0.224818  -0.178401  -1.516590  -0.225256   1.013297
    14  C   -1.066140  -0.195993  -0.199529  -0.352595  -1.500070  -1.409379
    15  H    0.367806  -0.105174  -0.001804   0.027027   0.005729   0.001129
    16  H   -0.017956   0.378211  -0.016700   0.014021  -0.001566  -0.000335
    17  H   -0.024263  -0.016964   0.373877  -0.067650   0.000355   0.000405
    18  H    0.050284   0.003283  -0.085369   0.457256   0.006374  -0.005129
    19  H   -0.046772  -0.007649   0.050862  -0.070387  -0.066364   0.051248
    20  H    0.007210   0.002029  -0.005034   0.006587   0.456298  -0.083959
    21  H   -0.001309  -0.000401   0.000400   0.000345  -0.067140   0.374101
    22  H    0.000665   0.000365  -0.000332  -0.001571   0.013459  -0.015829
    23  H    0.005757  -0.002631   0.001107   0.005880   0.026639  -0.001537
    24  H    0.037056   0.015247  -0.001091  -0.013273  -0.011008  -0.001755
    25  H    0.028255   0.013593  -0.002161  -0.011283  -0.012763  -0.001308
               7          8          9         10         11         12
     1  C   -0.016597   0.408269  -1.170871  -1.273876   0.271042  -2.086234
     2  C    0.002306  -0.021716  -0.787975   0.239028  -0.919283   1.326586
     3  C   -0.014832  -0.095931   0.294192  -0.347995   1.005304  -1.375952
     4  C   -0.020279  -0.016597  -0.209139  -2.569462  -0.237483  -1.630508
     5  C   -1.067374   1.923465  -0.265176  -2.566508  -1.495268  -0.318826
     6  C    0.360429  -0.541977   0.290536  -0.368969  -0.181194  -0.197350
     7  C    7.150987   0.341133  -0.789718   0.246671  -0.244156  -0.203196
     8  C    0.341133   8.583472  -1.224530  -1.270858   0.198033  -1.094817
     9  C   -0.789718  -1.224530   9.575520   0.274361   1.595564  -1.919170
    10  C    0.246671  -1.270858   0.274361   9.182569  -0.468770   2.447899
    11  C   -0.244156   0.198033   1.595564  -0.468770  14.514338  -3.775719
    12  C   -0.203196  -1.094817  -1.919170   2.447899  -3.775719  16.065809
    13  C   -0.936480   0.332916   1.636940  -0.489797   1.114013  -4.760510
    14  C    1.322287  -2.016783  -1.879020   2.409244  -4.803476   3.063544
    15  H   -0.002716   0.005796   0.091595  -0.009525  -0.030005  -0.025072
    16  H    0.000373   0.000799   0.004090  -0.009698   0.028023  -0.035848
    17  H   -0.000402  -0.001336  -0.005637   0.020452  -0.026860   0.091224
    18  H    0.002017   0.007460  -0.024993   0.013376  -0.006620  -0.055061
    19  H   -0.007684  -0.046661   0.075750   0.421821   0.073886  -0.064519
    20  H    0.002516   0.049589  -0.025451   0.013308  -0.011449  -0.014055
    21  H   -0.016239  -0.024552  -0.005666   0.020500  -0.006461   0.005319
    22  H    0.379312  -0.020340   0.003295  -0.009510   0.003155  -0.009139
    23  H   -0.105665   0.365644   0.090028  -0.009416   0.001295   0.006686
    24  H    0.013263   0.032758   0.354485   0.005332   0.013357  -0.061305
    25  H    0.015835   0.034409   0.357309   0.005051   0.012804  -0.058285
              13         14         15         16         17         18
     1  C    0.219076  -1.066140   0.367806  -0.017956  -0.024263   0.050284
     2  C   -0.224818  -0.195993  -0.105174   0.378211  -0.016964   0.003283
     3  C   -0.178401  -0.199529  -0.001804  -0.016700   0.373877  -0.085369
     4  C   -1.516590  -0.352595   0.027027   0.014021  -0.067650   0.457256
     5  C   -0.225256  -1.500070   0.005729  -0.001566   0.000355   0.006374
     6  C    1.013297  -1.409379   0.001129  -0.000335   0.000405  -0.005129
     7  C   -0.936480   1.322287  -0.002716   0.000373  -0.000402   0.002017
     8  C    0.332916  -2.016783   0.005796   0.000799  -0.001336   0.007460
     9  C    1.636940  -1.879020   0.091595   0.004090  -0.005637  -0.024993
    10  C   -0.489797   2.409244  -0.009525  -0.009698   0.020452   0.013376
    11  C    1.114013  -4.803476  -0.030005   0.028023  -0.026860  -0.006620
    12  C   -4.760510   3.063544  -0.025072  -0.035848   0.091224  -0.055061
    13  C   14.406522  -3.807530   0.001278   0.003142  -0.006174  -0.011698
    14  C   -3.807530  15.966003   0.006609  -0.009244   0.005302  -0.013867
    15  H    0.001278   0.006609   0.438836  -0.009044   0.001440   0.000182
    16  H    0.003142  -0.009244  -0.009044   0.419353  -0.006584   0.001946
    17  H   -0.006174   0.005302   0.001440  -0.006584   0.421927  -0.010161
    18  H   -0.011698  -0.013867   0.000182   0.001946  -0.010161   0.453695
    19  H    0.076909  -0.064631   0.000319  -0.000536   0.001403  -0.006211
    20  H   -0.006415  -0.053663  -0.000112   0.000015  -0.000142   0.001267
    21  H   -0.028111   0.091906   0.000014  -0.000007   0.000010  -0.000143
    22  H    0.027239  -0.033119  -0.000127   0.000008  -0.000007   0.000015
    23  H   -0.028725  -0.022871   0.000587  -0.000126   0.000013  -0.000112
    24  H    0.015943  -0.063925  -0.000762   0.000566  -0.000119   0.000155
    25  H    0.011209  -0.056199  -0.001082   0.000696  -0.000162   0.000209
              19         20         21         22         23         24
     1  C   -0.046772   0.007210  -0.001309   0.000665   0.005757   0.037056
     2  C   -0.007649   0.002029  -0.000401   0.000365  -0.002631   0.015247
     3  C    0.050862  -0.005034   0.000400  -0.000332   0.001107  -0.001091
     4  C   -0.070387   0.006587   0.000345  -0.001571   0.005880  -0.013273
     5  C   -0.066364   0.456298  -0.067140   0.013459   0.026639  -0.011008
     6  C    0.051248  -0.083959   0.374101  -0.015829  -0.001537  -0.001755
     7  C   -0.007684   0.002516  -0.016239   0.379312  -0.105665   0.013263
     8  C   -0.046661   0.049589  -0.024552  -0.020340   0.365644   0.032758
     9  C    0.075750  -0.025451  -0.005666   0.003295   0.090028   0.354485
    10  C    0.421821   0.013308   0.020500  -0.009510  -0.009416   0.005332
    11  C    0.073886  -0.011449  -0.006461   0.003155   0.001295   0.013357
    12  C   -0.064519  -0.014055   0.005319  -0.009139   0.006686  -0.061305
    13  C    0.076909  -0.006415  -0.028111   0.027239  -0.028725   0.015943
    14  C   -0.064631  -0.053663   0.091906  -0.033119  -0.022871  -0.063925
    15  H    0.000319  -0.000112   0.000014  -0.000127   0.000587  -0.000762
    16  H   -0.000536   0.000015  -0.000007   0.000008  -0.000126   0.000566
    17  H    0.001403  -0.000142   0.000010  -0.000007   0.000013  -0.000119
    18  H   -0.006211   0.001267  -0.000143   0.000015  -0.000112   0.000155
    19  H    0.442262  -0.006030   0.001400  -0.000535   0.000302   0.000596
    20  H   -0.006030   0.453587  -0.010270   0.001896   0.000188   0.000204
    21  H    0.001400  -0.010270   0.422340  -0.006638   0.001466  -0.000142
    22  H   -0.000535   0.001896  -0.006638   0.419457  -0.008988   0.000644
    23  H    0.000302   0.000188   0.001466  -0.008988   0.438875  -0.000908
    24  H    0.000596   0.000204  -0.000142   0.000644  -0.000908   0.494373
    25  H    0.000574   0.000163  -0.000143   0.000628  -0.000869  -0.079736
              25
     1  C    0.028255
     2  C    0.013593
     3  C   -0.002161
     4  C   -0.011283
     5  C   -0.012763
     6  C   -0.001308
     7  C    0.015835
     8  C    0.034409
     9  C    0.357309
    10  C    0.005051
    11  C    0.012804
    12  C   -0.058285
    13  C    0.011209
    14  C   -0.056199
    15  H   -0.001082
    16  H    0.000696
    17  H   -0.000162
    18  H    0.000209
    19  H    0.000574
    20  H    0.000163
    21  H   -0.000143
    22  H    0.000628
    23  H   -0.000869
    24  H   -0.079736
    25  H    0.493987
 Mulliken charges:
               1
     1  C    0.096446
     2  C   -0.405892
     3  C   -0.439906
     4  C    0.016376
     5  C    0.015328
     6  C   -0.440838
     7  C   -0.411793
     8  C    0.092357
     9  C   -0.336316
    10  C    0.094774
    11  C   -0.624070
    12  C    0.678498
    13  C   -0.637977
    14  C    0.683141
    15  H    0.237077
    16  H    0.256402
    17  H    0.250053
    18  H    0.221848
    19  H    0.190647
    20  H    0.221724
    21  H    0.249422
    22  H    0.255997
    23  H    0.237382
    24  H    0.250048
    25  H    0.249270
 Sum of Mulliken charges =   1.00000
 Mulliken charges with hydrogens summed into heavy atoms:
               1
     1  C    0.333524
     2  C   -0.149490
     3  C   -0.189853
     4  C    0.238224
     5  C    0.237052
     6  C   -0.191416
     7  C   -0.155796
     8  C    0.329739
     9  C    0.163003
    10  C    0.285422
    11  C   -0.624070
    12  C    0.678498
    13  C   -0.637977
    14  C    0.683141
 Electronic spatial extent (au):  <R**2>=           2853.9732
 Charge=              1.0000 electrons
 Dipole moment (field-independent basis, Debye):
    X=              0.0118    Y=              0.1865    Z=             -0.0006  Tot=              0.1868
 Quadrupole moment (field-independent basis, Debye-Ang):
   XX=            -31.1595   YY=            -56.2627   ZZ=            -84.1257
   XY=              0.0066   XZ=             -0.0110   YZ=              0.0224
 Traceless Quadrupole moment (field-independent basis, Debye-Ang):
   XX=             26.0231   YY=              0.9199   ZZ=            -26.9430
   XY=              0.0066   XZ=             -0.0110   YZ=              0.0224
 Octapole moment (field-independent basis, Debye-Ang**2):
  XXX=              0.4916  YYY=              5.2086  ZZZ=             -0.0136  XYY=             -0.0039
  XXY=             -5.3362  XXZ=              0.0410  XZZ=             -0.0606  YZZ=             -3.0894
  YYZ=              0.0421  XYZ=             -0.0552
 Hexadecapole moment (field-independent basis, Debye-Ang**3):
 XXXX=          -2121.6477 YYYY=           -609.2450 ZZZZ=            -99.2831 XXXY=              0.2801
 XXXZ=             -0.3097 YYYX=             -0.1174 YYYZ=              0.2225 ZZZX=             -0.0138
 ZZZY=              0.0189 XXYY=           -507.3770 XXZZ=           -590.2065 YYZZ=           -145.6827
 XXYZ=              0.2665 YYXZ=             -0.0010 ZZXY=              0.0055
 N-N= 7.814270697582D+02 E-N=-2.799208756057D+03  KE= 5.375206347812D+02
 Unable to Open any file for archive entry.
 1\1\GINC-GADI-CPU-CLX-0113\SP\RM062X TD-FC\6-311++G(d,p)\C14H11(1+)\TS
 1578\28-Jul-2022\0\\#n M062X/6-311++G(d,p) TD(NStates=1) EmpiricalDisp
 ersion=GD3 SP\\SP_-100\\1,1\C,0,-0.0077,2.494155,1.360431\C,0,-0.00625
 ,3.700533,0.671989\C,0,-0.0025,3.683011,-0.71383\C,0,0.003675,2.461331
 ,-1.407538\C,0,0.004125,-2.460431,-1.407538\C,0,0.0002,-3.678511,-0.71
 383\C,0,-0.001975,-3.698958,0.671989\C,0,0.00085,-2.491455,1.360431\C,
 0,-0.002075,-0.0099,1.453369\C,0,0.0061,0.00045,-1.429189\C,0,0.000575
 ,1.263855,0.677065\C,0,0.0034,1.236496,-0.730804\C,0,0.00125,-1.26408,
 0.677065\C,0,0.0016,-1.237846,-0.730804\H,0,-0.006,2.489646,2.443647\H
 ,0,-0.00675,4.637003,1.211689\H,0,0.00005,4.612187,-1.272349\H,0,0.002
 5,2.465675,-2.490059\H,0,0.005625,0.000225,-2.510266\H,0,0.00115,-2.46
 5,-2.490059\H,0,0.0014,-4.606562,-1.272349\H,0,-0.001575,-4.633628,1.2
 11689\H,0,0.0039,-2.486721,2.443647\H,0,-0.867585,-0.00225,2.148262\H,
 0,0.851585,-0.00225,2.143312\\Version=ES64L-G16RevC.01\State=1-A\HF=-5
 39.7601374\RMSD=4.772e-09\PG=C01 [X(C14H11)]\\@
 The archive entry for this job was punched.


 10 WHATSOEVER THY HAND FINDETH TO DO, DO IT WITH THY  
 MIGHT. FOR THERE IS NO WORK, NOR DEVICE, NOR KNOWLEDGE, NOR  
 WISDOM, IN THE GRAVE, WHITHER THOU GOEST.                    
 11 I RETURNED AND SAW UNDER THE SUN, THAT THE RACE IS NOT TO 
 THE SWIFT, NOR THE BATTLE TO THE STRONG, NEITHER YET BREAD TO
 THE WISE, NOR YET RICHES TO MEN OF UNDERSTANDING, NOR YET    
 FAVOR TO MEN OF SKILL. BUT TIME AND CHANCE HAPPEN TO THEM ALL.
 12 FOR MAN ALSO KNOWETH NOT HIS TIME. AS THE FISHES   
 THAT ARE TAKEN IN AN EVIL NET, AND AS THE BIRDS THAT ARE     
 CAUGHT IN THE SNARE. SO ARE THE SONS OF MEN SNARED IN AN EVIL
 TIME, WHEN IT FALLETH SUDDENLY UPON THEM.
                                         ECCLESIASTES 9
 Job cpu time:       0 days  1 hours 19 minutes 54.8 seconds.
 Elapsed time:       0 days  0 hours  1 minutes 40.1 seconds.
 File lengths (MBytes):  RWF=    460 Int=      0 D2E=      0 Chk=     15 Scr=      1
 Normal termination of Gaussian 16 at Thu Jul 28 13:35:51 2022.
