 Entering Gaussian System, Link 0=g16
 Initial command:
 /apps/gaussian/g16c01/g16/l1.exe "/jobfs/53002009.gadi-pbs/Gau-735823.inp" -scrdir="/jobfs/53002009.gadi-pbs/"
 Entering Link 1 = /apps/gaussian/g16c01/g16/l1.exe PID=    735824.
  
 Copyright (c) 1988-2019, Gaussian, Inc.  All Rights Reserved.
  
 This is part of the Gaussian(R) 16 program.  It is based on
 the Gaussian(R) 09 system (copyright 2009, Gaussian, Inc.),
 the Gaussian(R) 03 system (copyright 2003, Gaussian, Inc.),
 the Gaussian(R) 98 system (copyright 1998, Gaussian, Inc.),
 the Gaussian(R) 94 system (copyright 1995, Gaussian, Inc.),
 the Gaussian 92(TM) system (copyright 1992, Gaussian, Inc.),
 the Gaussian 90(TM) system (copyright 1990, Gaussian, Inc.),
 the Gaussian 88(TM) system (copyright 1988, Gaussian, Inc.),
 the Gaussian 86(TM) system (copyright 1986, Carnegie Mellon
 University), and the Gaussian 82(TM) system (copyright 1983,
 Carnegie Mellon University). Gaussian is a federally registered
 trademark of Gaussian, Inc.
  
 This software contains proprietary and confidential information,
 including trade secrets, belonging to Gaussian, Inc.
  
 This software is provided under written license and may be
 used, copied, transmitted, or stored only in accord with that
 written license.
  
 The following legend is applicable only to US Government
 contracts under FAR:
  
                    RESTRICTED RIGHTS LEGEND
  
 Use, reproduction and disclosure by the US Government is
 subject to restrictions as set forth in subparagraphs (a)
 and (c) of the Commercial Computer Software - Restricted
 Rights clause in FAR 52.227-19.
  
 Gaussian, Inc.
 340 Quinnipiac St., Bldg. 40, Wallingford CT 06492
  
  
 ---------------------------------------------------------------
 Warning -- This program may not be used in any manner that
 competes with the business of Gaussian, Inc. or will provide
 assistance to any competitor of Gaussian, Inc.  The licensee
 of this program is prohibited from giving any competitor of
 Gaussian, Inc. access to this program.  By using this program,
 the user acknowledges that Gaussian, Inc. is engaged in the
 business of creating and licensing software in the field of
 computational chemistry and represents and warrants to the
 licensee that it is not a competitor of Gaussian, Inc. and that
 it will not use this program in any manner prohibited above.
 ---------------------------------------------------------------
  

 Cite this work as:
 Gaussian 16, Revision C.01,
 M. J. Frisch, G. W. Trucks, H. B. Schlegel, G. E. Scuseria, 
 M. A. Robb, J. R. Cheeseman, G. Scalmani, V. Barone, 
 G. A. Petersson, H. Nakatsuji, X. Li, M. Caricato, A. V. Marenich, 
 J. Bloino, B. G. Janesko, R. Gomperts, B. Mennucci, H. P. Hratchian, 
 J. V. Ortiz, A. F. Izmaylov, J. L. Sonnenberg, D. Williams-Young, 
 F. Ding, F. Lipparini, F. Egidi, J. Goings, B. Peng, A. Petrone, 
 T. Henderson, D. Ranasinghe, V. G. Zakrzewski, J. Gao, N. Rega, 
 G. Zheng, W. Liang, M. Hada, M. Ehara, K. Toyota, R. Fukuda, 
 J. Hasegawa, M. Ishida, T. Nakajima, Y. Honda, O. Kitao, H. Nakai, 
 T. Vreven, K. Throssell, J. A. Montgomery, Jr., J. E. Peralta, 
 F. Ogliaro, M. J. Bearpark, J. J. Heyd, E. N. Brothers, K. N. Kudin, 
 V. N. Staroverov, T. A. Keith, R. Kobayashi, J. Normand, 
 K. Raghavachari, A. P. Rendell, J. C. Burant, S. S. Iyengar, 
 J. Tomasi, M. Cossi, J. M. Millam, M. Klene, C. Adamo, R. Cammi, 
 J. W. Ochterski, R. L. Martin, K. Morokuma, O. Farkas, 
 J. B. Foresman, and D. J. Fox, Gaussian, Inc., Wallingford CT, 2019.
 
 ******************************************
 Gaussian 16:  ES64L-G16RevC.01  3-Jul-2019
                28-Jul-2022 
 ******************************************
 %NProcShared=48
 Will use up to   48 processors via shared memory.
 %mem = 190GB
 ---------------------------------------------------------------
 #n M062X/6-311++G(d,p) TD(NStates=1) EmpiricalDispersion=GD3 SP
 ---------------------------------------------------------------
 1/38=1,172=1/1;
 2/12=2,17=6,18=5,40=1/2;
 3/5=4,6=6,7=1111,11=9,25=1,30=1,74=-55,124=31/1,2,3,8;
 4//1;
 5/5=2,38=5/2;
 8/6=1,10=2,108=1/1;
 9/41=1,42=1,70=2/14;
 6/7=2,8=2,9=2,10=2/1;
 99/5=1,9=1/99;
 ------
 SP_-75
 ------
 Symbolic Z-matrix:
 Charge =  1 Multiplicity = 1
 C                     0.00105   2.49325   1.36043 
 C                     0.00292   3.70371   0.67199 
 C                     0.0004    3.68821  -0.71383 
 C                    -0.00402   2.46568  -1.40754 
 C                    -0.00377  -2.46518  -1.40754 
 C                     0.0019   -3.68571  -0.71383 
 C                     0.0053   -3.70283   0.67199 
 C                     0.0058   -2.49176   1.36043 
 C                     0.00225  -0.0055    1.45337 
 C                    -0.0061    0.00025  -1.42919 
 C                    -0.0011    1.26008   0.67707 
 C                    -0.002     1.2374   -0.7308 
 C                    -0.00073  -1.26021   0.67707 
 C                    -0.003    -1.23815  -0.7308 
 H                    -0.0017    2.48877   2.44365 
 H                     0.00273   4.63913   1.21169 
 H                    -0.0011    4.61071  -1.27235 
 H                    -0.00145   2.46995  -2.49006 
 H                    -0.00563   0.00013  -2.51027 
 H                    -0.0022   -2.46958  -2.49006 
 H                    -0.00035  -4.60759  -1.27235 
 H                     0.0056   -4.63725   1.21169 
 H                     0.0038   -2.48715   2.44365 
 H                    -0.85159  -0.00125   2.14716 
 H                     0.86759  -0.00125   2.14441 
 
                          Input orientation:                          
 ---------------------------------------------------------------------
 Center     Atomic      Atomic             Coordinates (Angstroms)
 Number     Number       Type             X           Y           Z
 ---------------------------------------------------------------------
      1          6           0        0.001050    2.493255    1.360431
      2          6           0        0.002925    3.703708    0.671989
      3          6           0        0.000400    3.688211   -0.713830
      4          6           0       -0.004025    2.465681   -1.407538
      5          6           0       -0.003775   -2.465181   -1.407538
      6          6           0        0.001900   -3.685711   -0.713830
      7          6           0        0.005300   -3.702833    0.671989
      8          6           0        0.005800   -2.491755    1.360431
      9          6           0        0.002250   -0.005500    1.453369
     10          6           0       -0.006100    0.000250   -1.429189
     11          6           0       -0.001100    1.260080    0.677065
     12          6           0       -0.002000    1.237396   -0.730804
     13          6           0       -0.000725   -1.260205    0.677065
     14          6           0       -0.003000   -1.238146   -0.730804
     15          1           0       -0.001700    2.488771    2.443647
     16          1           0        0.002725    4.639128    1.211689
     17          1           0       -0.001100    4.610712   -1.272349
     18          1           0       -0.001450    2.469950   -2.490059
     19          1           0       -0.005625    0.000125   -2.510266
     20          1           0       -0.002200   -2.469575   -2.490059
     21          1           0       -0.000350   -4.607587   -1.272349
     22          1           0        0.005600   -4.637253    1.211689
     23          1           0        0.003800   -2.487146    2.443647
     24          1           0       -0.851585   -0.001250    2.147162
     25          1           0        0.867585   -0.001250    2.144412
 ---------------------------------------------------------------------
                    Distance matrix (angstroms):
                    1          2          3          4          5
     1  C    0.000000
     2  C    1.392535   0.000000
     3  C    2.393842   1.385908   0.000000
     4  C    2.768111   2.420164   1.405642   0.000000
     5  C    5.678711   6.509967   6.192373   4.930862   0.000000
     6  C    6.517836   7.518245   7.373922   6.190387   1.403908
     7  C    6.234218   7.406541   7.519844   6.509615   2.419979
     8  C    4.985012   6.233596   6.518786   5.677845   2.768113
     9  C    2.500483   3.790617   4.282552   3.780418   3.772911
    10  C    3.741270   4.258008   3.756706   2.465527   2.465527
    11  C    1.409863   2.443637   2.798287   2.408122   4.268858
    12  C    2.439355   2.837349   2.450875   1.402376   3.763914
    13  C    3.815161   4.963917   5.140176   4.269404   2.407809
    14  C    4.277456   5.137099   4.926387   3.765143   1.401280
    15  H    1.083229   2.148224   3.377621   3.851255   6.274812
    16  H    2.151023   1.079948   2.147527   3.403567   7.571763
    17  H    3.378633   2.145489   1.078403   2.149289   7.077185
    18  H    3.850561   3.394219   2.153869   1.082532   5.052462
    19  H    4.604133   4.882965   4.102340   2.700922   2.700694
    20  H    6.281398   6.935993   6.408847   5.052584   1.082531
    21  H    7.573209   8.535695   8.314578   7.074561   2.146670
    22  H    7.132061   8.358404   8.545233   7.570476   3.402695
    23  H    5.096838   6.439367   6.935756   6.273929   3.851255
    24  H    2.751088   4.078362   4.745869   4.409081   4.407452
    25  H    2.754644   4.079507   4.746965   4.411553   4.409827
                    6          7          8          9         10
     6  C    0.000000
     7  C    1.385929   0.000000
     8  C    2.393346   1.393077   0.000000
     9  C    4.270914   3.778999   2.487994   0.000000
    10  C    3.754745   4.257687   3.740616   2.882576   0.000000
    11  C    5.137650   4.962920   3.813568   1.484706   2.454282
    12  C    4.923138   5.135537   4.275499   2.513050   1.420665
    13  C    2.796011   2.442641   1.408456   1.475446   2.454604
    14  C    2.447629   2.835944   2.438212   2.507998   1.421751
    15  H    6.934977   6.440092   5.096965   2.683664   4.603435
    16  H    8.544622   8.359402   7.132435   4.650912   5.337931
    17  H    8.315202   8.537887   7.574735   5.360873   4.613132
    18  H    6.406806   6.935549   6.280513   4.656017   2.687915
    19  H    4.100320   4.882496   4.603465   3.963647   1.081077
    20  H    2.152671   3.394043   3.850562   4.649980   2.688028
    21  H    1.077870   2.144542   3.377619   5.348715   4.610509
    22  H    2.147806   1.079082   2.150648   4.638055   5.336741
    23  H    3.377310   2.148644   1.083228   2.671932   4.602836
    24  H    4.742253   4.075795   2.748940   1.100182   3.674933
    25  H    4.742806   4.075939   2.749530   1.107413   3.678852
                   11         12         13         14         15
    11  C    0.000000
    12  C    1.408052   0.000000
    13  C    2.520285   2.867073   0.000000
    14  C    2.867618   2.475542   1.408044   0.000000
    15  H    2.151858   3.412196   4.144350   4.895616   0.000000
    16  H    3.421082   3.917280   5.923509   6.189965   2.478261
    17  H    3.876461   3.416509   6.186104   5.873876   4.279166
    18  H    3.390348   2.148061   4.893335   4.104261   4.933742
    19  H    3.427329   2.167334   3.427468   2.167904   5.543882
    20  H    4.892954   4.103244   3.390170   2.147416   6.994759
    21  H    6.183020   5.870017   3.873652   3.412684   8.010426
    22  H    5.921520   6.187474   3.419110   3.915007   7.231735
    23  H    4.142769   4.893811   2.150864   3.411332   4.975920
    24  H    2.115529   3.246341   2.114265   3.245412   2.647718
    25  H    2.121008   3.249198   2.119443   3.248799   2.654318
                   16         17         18         19         20
    16  H    0.000000
    17  H    2.484203   0.000000
    18  H    4.290488   2.462860   0.000000
    19  H    5.947551   4.773884   2.469911   0.000000
    20  H    8.014775   7.184239   4.939525   2.469785   0.000000
    21  H    9.574560   9.218299   7.181528   4.771108   2.460471
    22  H    9.276381   9.575769   8.013446   5.946289   4.289735
    23  H    7.231978   8.011756   6.993875   5.543272   4.933741
    24  H    4.810204   5.804014   5.322911   4.733633   5.321457
    25  H    4.811555   5.805089   5.323568   4.735876   5.322356
                   21         22         23         24         25
    21  H    0.000000
    22  H    2.484222   0.000000
    23  H    4.278424   2.478040   0.000000
    24  H    5.799655   4.806496   2.645613   0.000000
    25  H    5.800509   4.806820   2.648650   1.719172   0.000000
 Stoichiometry    C14H11(1+)
 Framework group  C1[X(C14H11)]
 Deg. of freedom    69
 Full point group                 C1      NOp   1
 Largest Abelian subgroup         C1      NOp   1
 Largest concise Abelian subgroup C1      NOp   1
                         Standard orientation:                         
 ---------------------------------------------------------------------
 Center     Atomic      Atomic             Coordinates (Angstroms)
 Number     Number       Type             X           Y           Z
 ---------------------------------------------------------------------
      1          6           0       -2.493110   -1.360695   -0.001280
      2          6           0       -3.703635   -0.672387    0.002460
      3          6           0       -3.688285    0.713436    0.002961
      4          6           0       -2.465829    1.407282   -0.000310
      5          6           0        2.465032    1.407805   -0.001525
      6          6           0        3.685637    0.714216    0.002270
      7          6           0        3.702907   -0.671605    0.002634
      8          6           0        2.491902   -1.360176    0.001989
      9          6           0        0.005655   -1.453370   -0.001026
     10          6           0       -0.000401    1.429199   -0.003070
     11          6           0       -1.260008   -0.677195   -0.002302
     12          6           0       -1.237472    0.730675   -0.000130
     13          6           0        1.260277   -0.676928   -0.002676
     14          6           0        1.238069    0.730941   -0.001866
     15          1           0       -2.488512   -2.443902   -0.006400
     16          1           0       -4.638998   -1.212185    0.001358
     17          1           0       -4.610845    1.271859    0.002957
     18          1           0       -2.470212    2.489794    0.004634
     19          1           0       -0.000390    2.510272   -0.000231
     20          1           0        2.469313    2.490320    0.002416
     21          1           0        4.607454    1.272836    0.000967
     22          1           0        4.637384   -1.211206    0.001476
     23          1           0        2.487406   -2.443385   -0.002379
     24          1           0        0.001225   -2.145294   -0.856375
     25          1           0        0.001736   -2.146304    0.862797
 ---------------------------------------------------------------------
 Rotational constants (GHZ):           2.1362083           0.4442118           0.3685413
 Standard basis: 6-311++G(d,p) (5D, 7F)
 There are   399 symmetry adapted cartesian basis functions of A   symmetry.
 There are   385 symmetry adapted basis functions of A   symmetry.
   385 basis functions,   603 primitive gaussians,   399 cartesian basis functions
    47 alpha electrons       47 beta electrons
       nuclear repulsion energy       780.9661132328 Hartrees.
 NAtoms=   25 NActive=   25 NUniq=   25 SFac= 1.00D+00 NAtFMM=   60 NAOKFM=F Big=F
 Integral buffers will be    131072 words long.
 Regular integral format.
 Two-electron integral symmetry is turned on.
 Nuclear repulsion after empirical dispersion term =      780.9651336631 Hartrees.
 One-electron integrals computed using PRISM.
 NBasis=   385 RedAO= T EigKep=  1.13D-06  NBF=   385
 NBsUse=   379 1.00D-06 EigRej=  8.44D-07 NBFU=   379
 ExpMin= 3.60D-02 ExpMax= 4.56D+03 ExpMxC= 6.82D+02 IAcc=3 IRadAn=         5 AccDes= 0.00D+00
 Harris functional with IExCor= 1009 and IRadAn=       5 diagonalized for initial guess.
 HarFok:  IExCor= 1009 AccDes= 0.00D+00 IRadAn=         5 IDoV= 1 UseB2=F ITyADJ=14
 ICtDFT=  3500011 ScaDFX=  1.000000  1.000000  1.000000  1.000000
 FoFCou: FMM=F IPFlag=           0 FMFlag=      100000 FMFlg1=           0
         NFxFlg=           0 DoJE=T BraDBF=F KetDBF=T FulRan=T
         wScrn=  0.000000 ICntrl=       500 IOpCl=  0 I1Cent=   200000004 NGrid=           0
         NMat0=    1 NMatS0=      1 NMatT0=    0 NMatD0=    1 NMtDS0=    0 NMtDT0=    0
 Petite list used in FoFCou.
 Requested convergence on RMS density matrix=1.00D-08 within 128 cycles.
 Requested convergence on MAX density matrix=1.00D-06.
 Requested convergence on             energy=1.00D-06.
 No special actions if energy rises.
 SCF Done:  E(RM062X) =  -539.760036728     A.U. after   15 cycles
            NFock= 15  Conv=0.45D-08     -V/T= 2.0042
 DoSCS=F DFT=T ScalE2(SS,OS)=  1.000000  1.000000
 ExpMin= 3.60D-02 ExpMax= 4.56D+03 ExpMxC= 6.82D+02 IAcc=3 IRadAn=         5 AccDes= 0.00D+00
 HarFok:  IExCor=  205 AccDes= 0.00D+00 IRadAn=         5 IDoV=-2 UseB2=F ITyADJ=14
 ICtDFT= 12500011 ScaDFX=  1.000000  1.000000  1.000000  1.000000
 Range of M.O.s used for correlation:    15   379
 NBasis=   385 NAE=    47 NBE=    47 NFC=    14 NFV=     0
 NROrb=    365 NOA=    33 NOB=    33 NVA=   332 NVB=   332

 **** Warning!!: The largest alpha MO coefficient is  0.14910606D+03

 Orbital symmetries:
       Occupied  (A) (A) (A) (A) (A) (A) (A) (A) (A) (A) (A) (A)
                 (A) (A) (A) (A) (A) (A) (A) (A) (A) (A) (A) (A)
                 (A) (A) (A) (A) (A) (A) (A) (A) (A) (A) (A) (A)
                 (A) (A) (A) (A) (A) (A) (A) (A) (A) (A) (A)
       Virtual   (A) (A) (A) (A) (A) (A) (A) (A) (A) (A) (A) (A)
                 (A) (A) (A) (A) (A) (A) (A) (A) (A) (A) (A) (A)
                 (A) (A) (A) (A) (A) (A) (A) (A) (A) (A) (A) (A)
                 (A) (A) (A) (A) (A) (A) (A) (A) (A) (A) (A) (A)
                 (A) (A) (A) (A) (A) (A) (A) (A) (A) (A) (A) (A)
                 (A) (A) (A) (A) (A) (A) (A) (A) (A) (A) (A) (A)
                 (A) (A) (A) (A) (A) (A) (A) (A) (A) (A) (A) (A)
                 (A) (A) (A) (A) (A) (A) (A) (A) (A) (A) (A) (A)
                 (A) (A) (A) (A) (A) (A) (A) (A) (A) (A) (A) (A)
                 (A) (A) (A) (A) (A) (A) (A) (A) (A) (A) (A) (A)
                 (A) (A) (A) (A) (A) (A) (A) (A) (A) (A) (A) (A)
                 (A) (A) (A) (A) (A) (A) (A) (A) (A) (A) (A) (A)
                 (A) (A) (A) (A) (A) (A) (A) (A) (A) (A) (A) (A)
                 (A) (A) (A) (A) (A) (A) (A) (A) (A) (A) (A) (A)
                 (A) (A) (A) (A) (A) (A) (A) (A) (A) (A) (A) (A)
                 (A) (A) (A) (A) (A) (A) (A) (A) (A) (A) (A) (A)
                 (A) (A) (A) (A) (A) (A) (A) (A) (A) (A) (A) (A)
                 (A) (A) (A) (A) (A) (A) (A) (A) (A) (A) (A) (A)
                 (A) (A) (A) (A) (A) (A) (A) (A) (A) (A) (A) (A)
                 (A) (A) (A) (A) (A) (A) (A) (A) (A) (A) (A) (A)
                 (A) (A) (A) (A) (A) (A) (A) (A) (A) (A) (A) (A)
                 (A) (A) (A) (A) (A) (A) (A) (A) (A) (A) (A) (A)
                 (A) (A) (A) (A) (A) (A) (A) (A) (A) (A) (A) (A)
                 (A) (A) (A) (A) (A) (A) (A) (A) (A) (A) (A) (A)
                 (A) (A) (A) (A) (A) (A) (A) (A) (A) (A) (A) (A)
                 (A) (A) (A) (A) (A) (A) (A) (A) (A) (A) (A) (A)
                 (A) (A) (A) (A) (A) (A) (A) (A) (A) (A) (A) (A)
                 (A) (A) (A) (A) (A) (A) (A) (A)
     4 initial guesses have been made.
 Convergence on wavefunction:    0.001000000000000
 Iteration     1 Dimension     4 NMult     0 NNew      4
 CISAX will form     4 AO SS matrices at one time.
 Iteration     2 Dimension     6 NMult     4 NNew      2
 Iteration     3 Dimension     8 NMult     6 NNew      2
 Iteration     4 Dimension    10 NMult     8 NNew      2
 Iteration     5 Dimension    12 NMult    10 NNew      2
 Iteration     6 Dimension    14 NMult    12 NNew      2
 ***********************************************************************
 Excited states from <AA,BB:AA,BB> singles matrix:
 ***********************************************************************
 
 Ground to excited state transition densities written to RWF  633
 Ground to excited state transition electric dipole moments (Au):
       state          X           Y           Z        Dip. S.      Osc.
         1         0.0072     -0.6426      0.0009      0.4130      0.0285
 Ground to excited state transition velocity dipole moments (Au):
       state          X           Y           Z        Dip. S.      Osc.
         1        -0.0008      0.0743     -0.0001      0.0055      0.0355
 Ground to excited state transition magnetic dipole moments (Au):
       state          X           Y           Z
         1        -0.0014      0.0005     -0.0002
 Ground to excited state transition velocity quadrupole moments (Au):
       state          XX          YY          ZZ          XY          XZ          YZ
         1         0.3003      0.0345     -0.0098     -0.0011     -0.0000      0.0001
 <0|del|b> * <b|rxdel|0> + <0|del|b> * <b|delr+rdel|0>
 Rotatory Strengths (R) in cgs (10**-40 erg-esu-cm/Gauss)
       state          XX          YY          ZZ    R(velocity)    E-M Angle
         1         0.1345      0.0031      0.1230      0.0869       90.00
 1/2[<0|r|b>*<b|rxdel|0> + (<0|rxdel|b>*<b|r|0>)*]
 Rotatory Strengths (R) in cgs (10**-40 erg-esu-cm/Gauss)
       state          XX          YY          ZZ     R(length)
         1         0.0072      0.2268      0.0001      0.0781
  1/2[<0|del|b>*<b|r|0> + (<0|r|b>*<b|del|0>)*] (Au)
       state          X           Y           Z        Dip. S.   Osc.(frdel)
         1        -0.0000     -0.0477     -0.0000      0.0478      0.0318

 Excitation energies and oscillator strengths:
 
 Excited State   1:      Singlet-A      2.8187 eV  439.86 nm  f=0.0285  <S**2>=0.000
      47 -> 48         0.70426
 This state for optimization and/or second-order correction.
 Total Energy, E(TD-HF/TD-DFT) =  -539.656450158    
 Copying the excited state density for this state as the 1-particle RhoCI density.
 SavETr:  write IOETrn=   770 NScale= 10 NData=  16 NLR=1 NState=    1 LETran=      28.

 **********************************************************************

            Population analysis using the SCF Density.

 **********************************************************************

 Orbital symmetries:
       Occupied  (A) (A) (A) (A) (A) (A) (A) (A) (A) (A) (A) (A)
                 (A) (A) (A) (A) (A) (A) (A) (A) (A) (A) (A) (A)
                 (A) (A) (A) (A) (A) (A) (A) (A) (A) (A) (A) (A)
                 (A) (A) (A) (A) (A) (A) (A) (A) (A) (A) (A)
       Virtual   (A) (A) (A) (A) (A) (A) (A) (A) (A) (A) (A) (A)
                 (A) (A) (A) (A) (A) (A) (A) (A) (A) (A) (A) (A)
                 (A) (A) (A) (A) (A) (A) (A) (A) (A) (A) (A) (A)
                 (A) (A) (A) (A) (A) (A) (A) (A) (A) (A) (A) (A)
                 (A) (A) (A) (A) (A) (A) (A) (A) (A) (A) (A) (A)
                 (A) (A) (A) (A) (A) (A) (A) (A) (A) (A) (A) (A)
                 (A) (A) (A) (A) (A) (A) (A) (A) (A) (A) (A) (A)
                 (A) (A) (A) (A) (A) (A) (A) (A) (A) (A) (A) (A)
                 (A) (A) (A) (A) (A) (A) (A) (A) (A) (A) (A) (A)
                 (A) (A) (A) (A) (A) (A) (A) (A) (A) (A) (A) (A)
                 (A) (A) (A) (A) (A) (A) (A) (A) (A) (A) (A) (A)
                 (A) (A) (A) (A) (A) (A) (A) (A) (A) (A) (A) (A)
                 (A) (A) (A) (A) (A) (A) (A) (A) (A) (A) (A) (A)
                 (A) (A) (A) (A) (A) (A) (A) (A) (A) (A) (A) (A)
                 (A) (A) (A) (A) (A) (A) (A) (A) (A) (A) (A) (A)
                 (A) (A) (A) (A) (A) (A) (A) (A) (A) (A) (A) (A)
                 (A) (A) (A) (A) (A) (A) (A) (A) (A) (A) (A) (A)
                 (A) (A) (A) (A) (A) (A) (A) (A) (A) (A) (A) (A)
                 (A) (A) (A) (A) (A) (A) (A) (A) (A) (A) (A) (A)
                 (A) (A) (A) (A) (A) (A) (A) (A) (A) (A) (A) (A)
                 (A) (A) (A) (A) (A) (A) (A) (A) (A) (A) (A) (A)
                 (A) (A) (A) (A) (A) (A) (A) (A) (A) (A) (A) (A)
                 (A) (A) (A) (A) (A) (A) (A) (A) (A) (A) (A) (A)
                 (A) (A) (A) (A) (A) (A) (A) (A) (A) (A) (A) (A)
                 (A) (A) (A) (A) (A) (A) (A) (A) (A) (A) (A) (A)
                 (A) (A) (A) (A) (A) (A) (A) (A) (A) (A) (A) (A)
                 (A) (A) (A) (A) (A) (A) (A) (A) (A) (A) (A) (A)
                 (A) (A) (A) (A) (A) (A) (A) (A)
 The electronic state is 1-A.
 Alpha  occ. eigenvalues --  -10.77663 -10.73283 -10.73214 -10.72458 -10.72454
 Alpha  occ. eigenvalues --  -10.71413 -10.71376 -10.71026 -10.71014 -10.70980
 Alpha  occ. eigenvalues --  -10.70013 -10.69987 -10.69638 -10.69604  -1.16426
 Alpha  occ. eigenvalues --   -1.12413  -1.06917  -1.05749  -1.01263  -1.00190
 Alpha  occ. eigenvalues --   -0.95762  -0.91061  -0.86416  -0.85892  -0.83814
 Alpha  occ. eigenvalues --   -0.78396  -0.76024  -0.74408  -0.69564  -0.69257
 Alpha  occ. eigenvalues --   -0.68517  -0.68209  -0.68121  -0.64700  -0.64251
 Alpha  occ. eigenvalues --   -0.63096  -0.61899  -0.59985  -0.59640  -0.59106
 Alpha  occ. eigenvalues --   -0.56903  -0.55230  -0.54852  -0.52417  -0.46589
 Alpha  occ. eigenvalues --   -0.46057  -0.44478
 Alpha virt. eigenvalues --   -0.26083  -0.14697  -0.14105  -0.12805  -0.11178
 Alpha virt. eigenvalues --   -0.10085  -0.09226  -0.07983  -0.07965  -0.07474
 Alpha virt. eigenvalues --   -0.07205  -0.07148  -0.05644  -0.05582  -0.05337
 Alpha virt. eigenvalues --   -0.03818  -0.03641  -0.03280  -0.03133  -0.02164
 Alpha virt. eigenvalues --   -0.01365  -0.00925   0.00192   0.00603   0.00667
 Alpha virt. eigenvalues --    0.01053   0.01513   0.01933   0.02217   0.02287
 Alpha virt. eigenvalues --    0.02445   0.02676   0.02720   0.03325   0.03376
 Alpha virt. eigenvalues --    0.04243   0.04504   0.04693   0.05016   0.05362
 Alpha virt. eigenvalues --    0.06037   0.06294   0.06595   0.07043   0.07249
 Alpha virt. eigenvalues --    0.07886   0.08140   0.08364   0.08524   0.08930
 Alpha virt. eigenvalues --    0.09551   0.09561   0.10037   0.10844   0.11038
 Alpha virt. eigenvalues --    0.11115   0.12178   0.12252   0.12909   0.12986
 Alpha virt. eigenvalues --    0.13407   0.13529   0.14019   0.14358   0.16236
 Alpha virt. eigenvalues --    0.16258   0.16400   0.17356   0.17620   0.17785
 Alpha virt. eigenvalues --    0.18118   0.19050   0.19220   0.19627   0.19722
 Alpha virt. eigenvalues --    0.21538   0.21572   0.22731   0.23115   0.23560
 Alpha virt. eigenvalues --    0.23770   0.24569   0.25300   0.26913   0.27579
 Alpha virt. eigenvalues --    0.28844   0.29294   0.29857   0.31335   0.35815
 Alpha virt. eigenvalues --    0.36391   0.38158   0.39251   0.41160   0.41421
 Alpha virt. eigenvalues --    0.41962   0.42230   0.42993   0.43651   0.44298
 Alpha virt. eigenvalues --    0.44908   0.44983   0.46081   0.46103   0.47948
 Alpha virt. eigenvalues --    0.48544   0.48873   0.49038   0.50432   0.51142
 Alpha virt. eigenvalues --    0.51558   0.51633   0.52114   0.52842   0.53978
 Alpha virt. eigenvalues --    0.54098   0.54620   0.55687   0.55759   0.57476
 Alpha virt. eigenvalues --    0.58232   0.58806   0.61432   0.62174   0.62343
 Alpha virt. eigenvalues --    0.63175   0.63512   0.64942   0.65147   0.67251
 Alpha virt. eigenvalues --    0.70404   0.70618   0.71009   0.72381   0.72852
 Alpha virt. eigenvalues --    0.75772   0.75988   0.76259   0.76889   0.77080
 Alpha virt. eigenvalues --    0.77818   0.77829   0.78221   0.79934   0.80400
 Alpha virt. eigenvalues --    0.81223   0.81649   0.82118   0.82990   0.85159
 Alpha virt. eigenvalues --    0.87128   0.88171   0.88463   0.89179   0.90407
 Alpha virt. eigenvalues --    0.91033   0.91276   0.93150   0.94630   0.96458
 Alpha virt. eigenvalues --    0.96635   1.00426   1.01282   1.01658   1.02666
 Alpha virt. eigenvalues --    1.03175   1.03844   1.04703   1.05450   1.08746
 Alpha virt. eigenvalues --    1.19609   1.23293   1.24053   1.25271   1.27984
 Alpha virt. eigenvalues --    1.29622   1.31828   1.34218   1.35708   1.35979
 Alpha virt. eigenvalues --    1.39308   1.40179   1.40891   1.42960   1.43399
 Alpha virt. eigenvalues --    1.43500   1.45158   1.45283   1.46375   1.46695
 Alpha virt. eigenvalues --    1.47616   1.47927   1.51706   1.53612   1.55748
 Alpha virt. eigenvalues --    1.55827   1.56277   1.56549   1.57739   1.61397
 Alpha virt. eigenvalues --    1.63280   1.63622   1.63814   1.66082   1.68246
 Alpha virt. eigenvalues --    1.68391   1.68673   1.69729   1.74310   1.75979
 Alpha virt. eigenvalues --    1.77145   1.78024   1.80013   1.80030   1.80598
 Alpha virt. eigenvalues --    1.83168   1.83185   1.83601   1.83761   1.84191
 Alpha virt. eigenvalues --    1.84234   1.85849   1.86004   1.88193   1.91409
 Alpha virt. eigenvalues --    1.92015   1.94131   1.95204   1.97629   1.98056
 Alpha virt. eigenvalues --    1.99647   2.02430   2.04337   2.07337   2.11762
 Alpha virt. eigenvalues --    2.12044   2.14051   2.15198   2.18971   2.21226
 Alpha virt. eigenvalues --    2.22683   2.28570   2.30070   2.34630   2.34966
 Alpha virt. eigenvalues --    2.36185   2.38802   2.39757   2.42323   2.44490
 Alpha virt. eigenvalues --    2.46329   2.46418   2.49254   2.52839   2.53798
 Alpha virt. eigenvalues --    2.54235   2.56824   2.57819   2.58276   2.59633
 Alpha virt. eigenvalues --    2.59775   2.61622   2.62067   2.63497   2.63774
 Alpha virt. eigenvalues --    2.64745   2.65083   2.65193   2.65247   2.67929
 Alpha virt. eigenvalues --    2.68599   2.70929   2.71407   2.73335   2.74817
 Alpha virt. eigenvalues --    2.76283   2.78682   2.79682   2.82750   2.83025
 Alpha virt. eigenvalues --    2.84765   2.86278   2.92095   2.96976   2.99461
 Alpha virt. eigenvalues --    2.99978   3.05223   3.10916   3.11289   3.12827
 Alpha virt. eigenvalues --    3.20975   3.23769   3.26570   3.28124   3.30670
 Alpha virt. eigenvalues --    3.32582   3.33495   3.43388   3.45810   3.46328
 Alpha virt. eigenvalues --    3.48340   3.49978   3.56439   3.65890   3.66831
 Alpha virt. eigenvalues --    3.67422   3.94449   3.94584   3.95394   3.96265
 Alpha virt. eigenvalues --    4.04137   4.06909   4.07404   4.12536   4.35563
 Alpha virt. eigenvalues --    4.61418   4.69667   4.71458  23.45390  23.60712
 Alpha virt. eigenvalues --   23.82129  23.85649  23.87846  23.89214  23.90489
 Alpha virt. eigenvalues --   23.92251  23.97594  23.99189  23.99478  23.99931
 Alpha virt. eigenvalues --   24.10267  24.10454
          Condensed to atoms (all electrons):
               1          2          3          4          5          6
     1  C    8.573772   0.322264  -0.549252   1.983845  -0.032344  -0.094842
     2  C    0.322264   7.109098   0.352248  -1.063094  -0.018747  -0.014338
     3  C   -0.549252   0.352248   6.579812   0.743363  -0.122444   0.016803
     4  C    1.983845  -1.063094   0.743363  11.004583  -0.347925  -0.124429
     5  C   -0.032344  -0.018747  -0.122444  -0.347925  10.979057   0.757669
     6  C   -0.094842  -0.014338   0.016803  -0.124429   0.757669   6.583843
     7  C   -0.017575   0.001576  -0.014251  -0.017527  -1.073378   0.355723
     8  C    0.402810  -0.020414  -0.094654  -0.022662   1.957297  -0.540438
     9  C   -1.150755  -0.798759   0.295936  -0.208107  -0.231151   0.293598
    10  C   -1.277014   0.245179  -0.345101  -2.566731  -2.566848  -0.354726
    11  C    0.270406  -0.904836   1.016781  -0.312863  -1.503984  -0.170555
    12  C   -2.067608   1.345080  -1.385775  -1.593177  -0.315377  -0.200700
    13  C    0.205822  -0.239038  -0.168228  -1.509312  -0.303202   1.017767
    14  C   -1.065769  -0.193410  -0.201438  -0.327509  -1.540850  -1.402523
    15  H    0.367477  -0.105786  -0.001248   0.027469   0.005684   0.001100
    16  H   -0.018843   0.378809  -0.017264   0.013716  -0.001529  -0.000326
    17  H   -0.024604  -0.016875   0.375796  -0.067798   0.000281   0.000398
    18  H    0.049936   0.003567  -0.085786   0.457023   0.006567  -0.005076
    19  H   -0.046787  -0.007793   0.051359  -0.072003  -0.070457   0.051473
    20  H    0.007132   0.002029  -0.005034   0.006685   0.457250  -0.085013
    21  H   -0.001301  -0.000396   0.000395   0.000270  -0.067702   0.375932
    22  H    0.000665   0.000359  -0.000324  -0.001522   0.013395  -0.016835
    23  H    0.005687  -0.002624   0.001092   0.005722   0.027426  -0.001133
    24  H    0.031095   0.015220  -0.001425  -0.012978  -0.011757  -0.001785
    25  H    0.033603   0.013532  -0.001618  -0.011844  -0.012775  -0.001152
               7          8          9         10         11         12
     1  C   -0.017575   0.402810  -1.150755  -1.277014   0.270406  -2.067608
     2  C    0.001576  -0.020414  -0.798759   0.245179  -0.904836   1.345080
     3  C   -0.014251  -0.094654   0.295936  -0.345101   1.016781  -1.385775
     4  C   -0.017527  -0.022662  -0.208107  -2.566731  -0.312863  -1.593177
     5  C   -1.073378   1.957297  -0.231151  -2.566848  -1.503984  -0.315377
     6  C    0.355723  -0.540438   0.293598  -0.354726  -0.170555  -0.200700
     7  C    7.134029   0.322274  -0.804222   0.250171  -0.250271  -0.197047
     8  C    0.322274   8.575552  -1.176940  -1.276244   0.193619  -1.082276
     9  C   -0.804222  -1.176940   9.578179   0.253229   1.613168  -1.951980
    10  C    0.250171  -1.276244   0.253229   9.148434  -0.440041   2.416453
    11  C   -0.250271   0.193619   1.613168  -0.440041  14.545991  -3.743078
    12  C   -0.197047  -1.082276  -1.951980   2.416453  -3.743078  16.050644
    13  C   -0.913434   0.307472   1.633020  -0.443850   1.097056  -4.803359
    14  C    1.350336  -2.037673  -1.933838   2.401732  -4.827826   3.061877
    15  H   -0.002686   0.005737   0.091985  -0.009657  -0.030658  -0.025155
    16  H    0.000365   0.000739   0.003674  -0.009440   0.026668  -0.033416
    17  H   -0.000398  -0.001319  -0.005681   0.020447  -0.026974   0.091196
    18  H    0.002027   0.007274  -0.024712   0.013676  -0.008487  -0.053423
    19  H   -0.007764  -0.046779   0.075493   0.422053   0.078861  -0.065821
    20  H    0.003034   0.049735  -0.024906   0.013363  -0.012103  -0.013591
    21  H   -0.016475  -0.024914  -0.005700   0.020494  -0.006320   0.005275
    22  H    0.379399  -0.020108   0.003212  -0.009290   0.002998  -0.008970
    23  H   -0.106382   0.366367   0.091363  -0.009649   0.001631   0.006555
    24  H    0.014114   0.028671   0.359249   0.005582   0.011112  -0.055701
    25  H    0.014849   0.037012   0.354091   0.005300   0.015675  -0.064490
              13         14         15         16         17         18
     1  C    0.205822  -1.065769   0.367477  -0.018843  -0.024604   0.049936
     2  C   -0.239038  -0.193410  -0.105786   0.378809  -0.016875   0.003567
     3  C   -0.168228  -0.201438  -0.001248  -0.017264   0.375796  -0.085786
     4  C   -1.509312  -0.327509   0.027469   0.013716  -0.067798   0.457023
     5  C   -0.303202  -1.540850   0.005684  -0.001529   0.000281   0.006567
     6  C    1.017767  -1.402523   0.001100  -0.000326   0.000398  -0.005076
     7  C   -0.913434   1.350336  -0.002686   0.000365  -0.000398   0.002027
     8  C    0.307472  -2.037673   0.005737   0.000739  -0.001319   0.007274
     9  C    1.633020  -1.933838   0.091985   0.003674  -0.005681  -0.024712
    10  C   -0.443850   2.401732  -0.009657  -0.009440   0.020447   0.013676
    11  C    1.097056  -4.827826  -0.030658   0.026668  -0.026974  -0.008487
    12  C   -4.803359   3.061877  -0.025155  -0.033416   0.091196  -0.053423
    13  C   14.468332  -3.761262   0.001538   0.003020  -0.006187  -0.012033
    14  C   -3.761262  16.005314   0.006474  -0.009052   0.005257  -0.013306
    15  H    0.001538   0.006474   0.439114  -0.009028   0.001480   0.000162
    16  H    0.003020  -0.009052  -0.009028   0.419520  -0.006660   0.001939
    17  H   -0.006187   0.005257   0.001480  -0.006660   0.422685  -0.010274
    18  H   -0.012033  -0.013306   0.000162   0.001939  -0.010274   0.453623
    19  H    0.079892  -0.066147   0.000312  -0.000544   0.001430  -0.006313
    20  H   -0.008288  -0.052902  -0.000113   0.000015  -0.000143   0.001272
    21  H   -0.027565   0.091750   0.000014  -0.000007   0.000011  -0.000144
    22  H    0.026172  -0.031862  -0.000127   0.000007  -0.000007   0.000015
    23  H   -0.029877  -0.024222   0.000575  -0.000127   0.000014  -0.000114
    24  H    0.012186  -0.057211  -0.000980   0.000634  -0.000146   0.000161
    25  H    0.015315  -0.063071  -0.000853   0.000620  -0.000138   0.000201
              19         20         21         22         23         24
     1  C   -0.046787   0.007132  -0.001301   0.000665   0.005687   0.031095
     2  C   -0.007793   0.002029  -0.000396   0.000359  -0.002624   0.015220
     3  C    0.051359  -0.005034   0.000395  -0.000324   0.001092  -0.001425
     4  C   -0.072003   0.006685   0.000270  -0.001522   0.005722  -0.012978
     5  C   -0.070457   0.457250  -0.067702   0.013395   0.027426  -0.011757
     6  C    0.051473  -0.085013   0.375932  -0.016835  -0.001133  -0.001785
     7  C   -0.007764   0.003034  -0.016475   0.379399  -0.106382   0.014114
     8  C   -0.046779   0.049735  -0.024914  -0.020108   0.366367   0.028671
     9  C    0.075493  -0.024906  -0.005700   0.003212   0.091363   0.359249
    10  C    0.422053   0.013363   0.020494  -0.009290  -0.009649   0.005582
    11  C    0.078861  -0.012103  -0.006320   0.002998   0.001631   0.011112
    12  C   -0.065821  -0.013591   0.005275  -0.008970   0.006555  -0.055701
    13  C    0.079892  -0.008288  -0.027565   0.026172  -0.029877   0.012186
    14  C   -0.066147  -0.052902   0.091750  -0.031862  -0.024222  -0.057211
    15  H    0.000312  -0.000113   0.000014  -0.000127   0.000575  -0.000980
    16  H   -0.000544   0.000015  -0.000007   0.000007  -0.000127   0.000634
    17  H    0.001430  -0.000143   0.000011  -0.000007   0.000014  -0.000146
    18  H   -0.006313   0.001272  -0.000144   0.000015  -0.000114   0.000161
    19  H    0.443284  -0.006245   0.001435  -0.000546   0.000304   0.000603
    20  H   -0.006245   0.453553  -0.010351   0.001915   0.000170   0.000186
    21  H    0.001435  -0.010351   0.422954  -0.006689   0.001489  -0.000158
    22  H   -0.000546   0.001915  -0.006689   0.419559  -0.009003   0.000678
    23  H    0.000304   0.000170   0.001489  -0.009003   0.439266  -0.001085
    24  H    0.000603   0.000186  -0.000158   0.000678  -0.001085   0.493634
    25  H    0.000601   0.000174  -0.000127   0.000581  -0.000725  -0.079528
              25
     1  C    0.033603
     2  C    0.013532
     3  C   -0.001618
     4  C   -0.011844
     5  C   -0.012775
     6  C   -0.001152
     7  C    0.014849
     8  C    0.037012
     9  C    0.354091
    10  C    0.005300
    11  C    0.015675
    12  C   -0.064490
    13  C    0.015315
    14  C   -0.063071
    15  H   -0.000853
    16  H    0.000620
    17  H   -0.000138
    18  H    0.000201
    19  H    0.000601
    20  H    0.000174
    21  H   -0.000127
    22  H    0.000581
    23  H   -0.000725
    24  H   -0.079528
    25  H    0.493518
 Mulliken charges:
               1
     1  C    0.092181
     2  C   -0.402847
     3  C   -0.439741
     4  C    0.016808
     5  C    0.015845
     6  C   -0.440435
     7  C   -0.406488
     8  C    0.089862
     9  C   -0.329444
    10  C    0.092480
    11  C   -0.635971
    12  C    0.683862
    13  C   -0.641956
    14  C    0.687132
    15  H    0.237172
    16  H    0.256510
    17  H    0.248213
    18  H    0.222223
    19  H    0.190099
    20  H    0.222177
    21  H    0.247832
    22  H    0.256327
    23  H    0.237278
    24  H    0.249630
    25  H    0.251250
 Sum of Mulliken charges =   1.00000
 Mulliken charges with hydrogens summed into heavy atoms:
               1
     1  C    0.329353
     2  C   -0.146337
     3  C   -0.191528
     4  C    0.239030
     5  C    0.238022
     6  C   -0.192604
     7  C   -0.150161
     8  C    0.327141
     9  C    0.171436
    10  C    0.282579
    11  C   -0.635971
    12  C    0.683862
    13  C   -0.641956
    14  C    0.687132
 Electronic spatial extent (au):  <R**2>=           2857.8754
 Charge=              1.0000 electrons
 Dipole moment (field-independent basis, Debye):
    X=             -0.0066    Y=              0.1885    Z=              0.0004  Tot=              0.1886
 Quadrupole moment (field-independent basis, Debye-Ang):
   XX=            -31.0726   YY=            -56.2623   ZZ=            -84.1580
   XY=             -0.0037   XZ=             -0.0061   YZ=              0.0250
 Traceless Quadrupole moment (field-independent basis, Debye-Ang):
   XX=             26.0917   YY=              0.9020   ZZ=            -26.9937
   XY=             -0.0037   XZ=             -0.0061   YZ=              0.0250
 Octapole moment (field-independent basis, Debye-Ang**2):
  XXX=             -0.2744  YYY=              5.2103  ZZZ=             -0.0027  XYY=              0.0026
  XXY=             -5.0129  XXZ=              0.0426  XZZ=              0.0332  YZZ=             -3.0875
  YYZ=              0.0201  XYZ=             -0.0308
 Hexadecapole moment (field-independent basis, Debye-Ang**3):
 XXXX=          -2123.2303 YYYY=           -609.2543 ZZZZ=            -99.3830 XXXY=             -0.1555
 XXXZ=             -0.1735 YYYX=              0.0647 YYYZ=              0.2895 ZZZX=             -0.0080
 ZZZY=              0.0049 XXYY=           -508.0536 XXZZ=           -591.2995 YYZZ=           -145.7247
 XXYZ=              0.2546 YYXZ=             -0.0004 ZZXY=             -0.0031
 N-N= 7.809651336631D+02 E-N=-2.798258924871D+03  KE= 5.374911258821D+02
 Unable to Open any file for archive entry.
 1\1\GINC-GADI-CPU-CLX-0113\SP\RM062X TD-FC\6-311++G(d,p)\C14H11(1+)\TS
 1578\28-Jul-2022\0\\#n M062X/6-311++G(d,p) TD(NStates=1) EmpiricalDisp
 ersion=GD3 SP\\SP_-75\\1,1\C,0,0.00105,2.493255,1.360431\C,0,0.002925,
 3.703708,0.671989\C,0,0.0004,3.688211,-0.71383\C,0,-0.004025,2.465681,
 -1.407538\C,0,-0.003775,-2.465181,-1.407538\C,0,0.0019,-3.685711,-0.71
 383\C,0,0.0053,-3.702833,0.671989\C,0,0.0058,-2.491755,1.360431\C,0,0.
 00225,-0.0055,1.453369\C,0,-0.0061,0.00025,-1.429189\C,0,-0.0011,1.260
 08,0.677065\C,0,-0.002,1.237396,-0.730804\C,0,-0.000725,-1.260205,0.67
 7065\C,0,-0.003,-1.238146,-0.730804\H,0,-0.0017,2.488771,2.443647\H,0,
 0.002725,4.639128,1.211689\H,0,-0.0011,4.610712,-1.272349\H,0,-0.00145
 ,2.46995,-2.490059\H,0,-0.005625,0.000125,-2.510266\H,0,-0.0022,-2.469
 575,-2.490059\H,0,-0.00035,-4.607587,-1.272349\H,0,0.0056,-4.637253,1.
 211689\H,0,0.0038,-2.487146,2.443647\H,0,-0.851585,-0.00125,2.147162\H
 ,0,0.867585,-0.00125,2.144412\\Version=ES64L-G16RevC.01\State=1-A\HF=-
 539.7600367\RMSD=4.459e-09\PG=C01 [X(C14H11)]\\@
 The archive entry for this job was punched.


 THE VALUE OF PHILOSOPHY IS, IN FACT, TO BE SOUGHT LARGELY IN ITS
 VERY UNCERTAINTY.  THE MAN WHO HAS NO TINCTURE OF PHILOSOPHY GOES
 THROUGH LIFE IMPRISONED IN THE PREJUDICES DERIVED FROM COMMON SENSE,
 FROM THE HABITUAL BELIEFS OF HIS AGE OR HIS NATION, AND FROM
 CONVICTIONS WHICH HAVE GROWN UP IN HIS MIND WITHOUT THE CO-OPERATION
 OR CONSENT OF HIS DELIBERATE REASON.  TO SUCH A MAN THE WORLD TENDS
 TO BE DEFINITE, FINITE, OBVIOUS; COMMON OBJECTS ROUSE NO QUESTIONS,
 AND UNFAMILIAR POSSIBILITIES ARE CONTEMPTUOUSLY REJECTED.

                             -- BERTRAND RUSSELL
 Job cpu time:       0 days  1 hours 20 minutes  0.5 seconds.
 Elapsed time:       0 days  0 hours  1 minutes 40.2 seconds.
 File lengths (MBytes):  RWF=    460 Int=      0 D2E=      0 Chk=     15 Scr=      1
 Normal termination of Gaussian 16 at Thu Jul 28 14:02:00 2022.
