 Entering Gaussian System, Link 0=g16
 Initial command:
 /apps/gaussian/g16c01/g16/l1.exe "/jobfs/52583237.gadi-pbs/Gau-2989889.inp" -scrdir="/jobfs/52583237.gadi-pbs/"
 Entering Link 1 = /apps/gaussian/g16c01/g16/l1.exe PID=   2989890.
  
 Copyright (c) 1988-2019, Gaussian, Inc.  All Rights Reserved.
  
 This is part of the Gaussian(R) 16 program.  It is based on
 the Gaussian(R) 09 system (copyright 2009, Gaussian, Inc.),
 the Gaussian(R) 03 system (copyright 2003, Gaussian, Inc.),
 the Gaussian(R) 98 system (copyright 1998, Gaussian, Inc.),
 the Gaussian(R) 94 system (copyright 1995, Gaussian, Inc.),
 the Gaussian 92(TM) system (copyright 1992, Gaussian, Inc.),
 the Gaussian 90(TM) system (copyright 1990, Gaussian, Inc.),
 the Gaussian 88(TM) system (copyright 1988, Gaussian, Inc.),
 the Gaussian 86(TM) system (copyright 1986, Carnegie Mellon
 University), and the Gaussian 82(TM) system (copyright 1983,
 Carnegie Mellon University). Gaussian is a federally registered
 trademark of Gaussian, Inc.
  
 This software contains proprietary and confidential information,
 including trade secrets, belonging to Gaussian, Inc.
  
 This software is provided under written license and may be
 used, copied, transmitted, or stored only in accord with that
 written license.
  
 The following legend is applicable only to US Government
 contracts under FAR:
  
                    RESTRICTED RIGHTS LEGEND
  
 Use, reproduction and disclosure by the US Government is
 subject to restrictions as set forth in subparagraphs (a)
 and (c) of the Commercial Computer Software - Restricted
 Rights clause in FAR 52.227-19.
  
 Gaussian, Inc.
 340 Quinnipiac St., Bldg. 40, Wallingford CT 06492
  
  
 ---------------------------------------------------------------
 Warning -- This program may not be used in any manner that
 competes with the business of Gaussian, Inc. or will provide
 assistance to any competitor of Gaussian, Inc.  The licensee
 of this program is prohibited from giving any competitor of
 Gaussian, Inc. access to this program.  By using this program,
 the user acknowledges that Gaussian, Inc. is engaged in the
 business of creating and licensing software in the field of
 computational chemistry and represents and warrants to the
 licensee that it is not a competitor of Gaussian, Inc. and that
 it will not use this program in any manner prohibited above.
 ---------------------------------------------------------------
  

 Cite this work as:
 Gaussian 16, Revision C.01,
 M. J. Frisch, G. W. Trucks, H. B. Schlegel, G. E. Scuseria, 
 M. A. Robb, J. R. Cheeseman, G. Scalmani, V. Barone, 
 G. A. Petersson, H. Nakatsuji, X. Li, M. Caricato, A. V. Marenich, 
 J. Bloino, B. G. Janesko, R. Gomperts, B. Mennucci, H. P. Hratchian, 
 J. V. Ortiz, A. F. Izmaylov, J. L. Sonnenberg, D. Williams-Young, 
 F. Ding, F. Lipparini, F. Egidi, J. Goings, B. Peng, A. Petrone, 
 T. Henderson, D. Ranasinghe, V. G. Zakrzewski, J. Gao, N. Rega, 
 G. Zheng, W. Liang, M. Hada, M. Ehara, K. Toyota, R. Fukuda, 
 J. Hasegawa, M. Ishida, T. Nakajima, Y. Honda, O. Kitao, H. Nakai, 
 T. Vreven, K. Throssell, J. A. Montgomery, Jr., J. E. Peralta, 
 F. Ogliaro, M. J. Bearpark, J. J. Heyd, E. N. Brothers, K. N. Kudin, 
 V. N. Staroverov, T. A. Keith, R. Kobayashi, J. Normand, 
 K. Raghavachari, A. P. Rendell, J. C. Burant, S. S. Iyengar, 
 J. Tomasi, M. Cossi, J. M. Millam, M. Klene, C. Adamo, R. Cammi, 
 J. W. Ochterski, R. L. Martin, K. Morokuma, O. Farkas, 
 J. B. Foresman, and D. J. Fox, Gaussian, Inc., Wallingford CT, 2019.
 
 ******************************************
 Gaussian 16:  ES64L-G16RevC.01  3-Jul-2019
                25-Jul-2022 
 ******************************************
 %NProcShared=16
 Will use up to   16 processors via shared memory.
 %mem = 64GB
 ---------------------------------------------------------
 #n M062X/cc-pvtz TD(NStates=1) EmpiricalDispersion=GD3 SP
 ---------------------------------------------------------
 1/38=1,172=1/1;
 2/12=2,17=6,18=5,40=1/2;
 3/5=16,6=1,11=9,25=1,30=1,74=-55,124=31/1,2,3,8;
 4//1;
 5/5=2,38=5/2;
 8/6=1,10=1,108=1/1;
 9/41=1,42=1,70=2/14;
 6/7=2,8=2,9=2,10=2/1;
 99/5=1,9=1/99;
 -----
 SP_-3
 -----
 Symbolic Z-matrix:
 Charge =  1 Multiplicity = 1
 C                     2.4927    1.4081   -0.006 
 C                     3.7015    0.6987   -0.051 
 C                     3.6839   -0.7201   -0.051 
 C                     2.4632   -1.4349   -0.006 
 C                    -2.4632   -1.3629   -0.006 
 C                    -3.6839   -0.6901   -0.051 
 C                    -3.7015    0.6627   -0.051 
 C                    -2.4927    1.3301   -0.006 
 C                     0.        1.4621    0.045 
 C                     0.       -1.4205    0.045 
 C                     1.2621    0.6947    0.039 
 C                     1.2375   -0.7281    0.039 
 C                    -1.2621    0.6767    0.039 
 C                    -1.2375   -0.7161    0.039 
 H                     2.4881    2.5393   -0.006 
 H                     4.6368    1.2534   -0.078 
 H                     4.6093   -1.2937   -0.078 
 H                     2.4675   -2.5624   -0.006 
 H                     0.       -2.5016    0.048 
 H                    -2.4675   -2.4004   -0.006 
 H                    -4.6093   -1.2337   -0.078 
 H                    -4.6368    1.1874   -0.078 
 H                    -2.4881    2.3653   -0.006 
 H                     0.        2.1545   -0.8146 
 H                     0.        2.1545    0.9046 
 
                          Input orientation:                          
 ---------------------------------------------------------------------
 Center     Atomic      Atomic             Coordinates (Angstroms)
 Number     Number       Type             X           Y           Z
 ---------------------------------------------------------------------
      1          6           0        2.492700    1.408100   -0.006000
      2          6           0        3.701500    0.698700   -0.051000
      3          6           0        3.683900   -0.720100   -0.051000
      4          6           0        2.463200   -1.434900   -0.006000
      5          6           0       -2.463200   -1.362900   -0.006000
      6          6           0       -3.683900   -0.690100   -0.051000
      7          6           0       -3.701500    0.662700   -0.051000
      8          6           0       -2.492700    1.330100   -0.006000
      9          6           0        0.000000    1.462100    0.045000
     10          6           0        0.000000   -1.420500    0.045000
     11          6           0        1.262100    0.694700    0.039000
     12          6           0        1.237500   -0.728100    0.039000
     13          6           0       -1.262100    0.676700    0.039000
     14          6           0       -1.237500   -0.716100    0.039000
     15          1           0        2.488100    2.539300   -0.006000
     16          1           0        4.636800    1.253400   -0.078000
     17          1           0        4.609300   -1.293700   -0.078000
     18          1           0        2.467500   -2.562400   -0.006000
     19          1           0        0.000000   -2.501600    0.048000
     20          1           0       -2.467500   -2.400400   -0.006000
     21          1           0       -4.609300   -1.233700   -0.078000
     22          1           0       -4.636800    1.187400   -0.078000
     23          1           0       -2.488100    2.365300   -0.006000
     24          1           0        0.000000    2.154500   -0.814600
     25          1           0        0.000000    2.154500    0.904600
 ---------------------------------------------------------------------
                    Distance matrix (angstroms):
                    1          2          3          4          5
     1  C    0.000000
     2  C    1.402309   0.000000
     3  C    2.439307   1.418909   0.000000
     4  C    2.843153   2.467319   1.415299   0.000000
     5  C    5.677974   6.500442   6.180781   4.926926   0.000000
     6  C    6.523408   7.514845   7.367861   6.192220   1.394558
     7  C    6.239051   7.403088   7.513739   6.511949   2.374546
     8  C    4.986010   6.226460   6.508128   5.675048   2.693162
     9  C    2.493806   3.780621   4.282795   3.802968   3.748410
    10  C    3.770561   4.266301   3.751119   2.463770   2.464401
    11  C    1.423145   2.441063   2.806221   2.445376   4.256008
    12  C    2.478084   2.848711   2.448068   1.415603   3.755020
    13  C    3.825636   4.964465   5.140240   4.282375   2.367411
    14  C    4.292859   5.138432   4.922224   3.770130   1.386620
    15  H    1.131209   2.205034   3.472125   3.974278   6.304168
    16  H    2.150879   1.087753   2.191677   3.457843   7.567048
    17  H    3.432915   2.189632   1.089087   2.151945   7.073205
    18  H    3.970580   3.487055   2.208104   1.127508   5.074505
    19  H    4.637049   4.894162   4.093246   2.684794   2.714205
    20  H    6.253659   6.903840   6.376924   5.024340   1.037509
    21  H    7.577776   8.532543   8.309132   7.075728   2.151191
    22  H    7.133279   8.352652   8.536588   7.569124   3.351679
    23  H    5.071942   6.410205   6.900384   6.241546   3.728283
    24  H    2.724794   4.050128   4.734715   4.427751   4.369587
    25  H    2.756784   4.090676   4.769446   4.447509   4.389607
                    6          7          8          9         10
     6  C    0.000000
     7  C    1.352914   0.000000
     8  C    2.345675   1.381537   0.000000
     9  C    4.267587   3.788055   2.496713   0.000000
    10  C    3.756836   4.248534   3.712406   2.882600   0.000000
    11  C    5.136992   4.964519   3.808449   1.477104   2.463129
    12  C    4.922370   5.131875   4.260587   2.515635   1.418048
    13  C    2.782330   2.441100   1.394035   1.486535   2.447689
    14  C    2.448193   2.824975   2.400935   2.505194   1.423946
    15  H    6.965962   6.467983   5.125479   2.711753   4.676886
    16  H    8.544704   8.359241   7.130276   4.643124   5.353950
    17  H    8.315181   8.538011   7.571520   5.371704   4.612684
    18  H    6.430183   6.961311   6.305168   4.720991   2.719392
    19  H    4.106392   4.870698   4.571476   3.963701   1.081104
    20  H    2.099233   3.302630   3.730585   4.583674   2.655440
    21  H    1.073590   2.102656   3.325395   5.341172   4.614723
    22  H    2.105648   1.072765   2.150049   4.646558   5.321295
    23  H    3.281377   2.091222   1.035210   2.647454   4.530510
    24  H    4.716562   4.063207   2.747184   1.103780   3.676892
    25  H    4.751425   4.103625   2.778917   1.103780   3.676892
                   11         12         13         14         15
    11  C    0.000000
    12  C    1.423013   0.000000
    13  C    2.524264   2.867309   0.000000
    14  C    2.870254   2.475029   1.393017   0.000000
    15  H    2.215322   3.498847   4.187518   4.947701   0.000000
    16  H    3.422636   3.936403   5.928178   6.196775   2.505122
    17  H    3.895019   3.420910   6.194312   5.876426   4.381388
    18  H    3.473286   2.208977   4.940011   4.139792   5.101742
    19  H    3.436468   2.162589   3.419732   2.172440   5.621764
    20  H    4.846812   4.065174   3.305081   2.086095   6.997043
    21  H    6.181080   5.869786   3.855783   3.413303   8.038271
    22  H    5.920597   6.179824   3.415129   3.897723   7.252380
    23  H    4.105719   4.842648   2.087216   3.325816   4.979241
    24  H    2.110106   3.251065   2.122598   3.240430   2.644342
    25  H    2.114988   3.254236   2.127452   3.243611   2.677294
                   16         17         18         19         20
    16  H    0.000000
    17  H    2.547248   0.000000
    18  H    4.389918   2.490400   0.000000
    19  H    5.967899   4.766607   2.468840   0.000000
    20  H    7.989150   7.163174   4.937658   2.470165   0.000000
    21  H    9.574760   9.218795   7.200814   4.782164   2.440016
    22  H    9.273835   9.573203   8.033509   5.926594   4.193251
    23  H    7.211498   7.985396   6.988576   5.466285   4.765745
    24  H    4.780635   5.803302   5.384379   4.735330   5.243043
    25  H    4.824666   5.839626   5.400638   4.734240   5.259740
                   21         22         23         24         25
    21  H    0.000000
    22  H    2.421256   0.000000
    23  H    4.178214   2.451437   0.000000
    24  H    5.767853   4.793514   2.624674   0.000000
    25  H    5.804399   4.837427   2.657870   1.719200   0.000000
 Stoichiometry    C14H11(1+)
 Framework group  C1[X(C14H11)]
 Deg. of freedom    69
 Full point group                 C1      NOp   1
 Largest Abelian subgroup         C1      NOp   1
 Largest concise Abelian subgroup C1      NOp   1
                         Standard orientation:                         
 ---------------------------------------------------------------------
 Center     Atomic      Atomic             Coordinates (Angstroms)
 Number     Number       Type             X           Y           Z
 ---------------------------------------------------------------------
      1          6           0       -2.493713   -1.397607   -0.005989
      2          6           0       -3.701999   -0.687302   -0.050513
      3          6           0       -3.683371    0.731485   -0.049563
      4          6           0       -2.462154    1.445370   -0.004085
      5          6           0        2.464192    1.369804   -0.004135
      6          6           0        3.684405    0.696150   -0.049586
      7          6           0        3.701026   -0.656662   -0.050492
      8          6           0        2.491743   -1.323217   -0.005939
      9          6           0       -0.001052   -1.453446    0.044974
     10          6           0        0.001035    1.429153    0.046905
     11          6           0       -1.262596   -0.685128    0.039488
     12          6           0       -1.236966    0.737653    0.040441
     13          6           0        1.261616   -0.668956    0.039499
     14          6           0        1.238024    0.723861    0.040432
     15          1           0       -2.489932   -2.528810   -0.006747
     16          1           0       -4.637700   -1.241306   -0.077885
     17          1           0       -4.608356    1.305772   -0.076179
     18          1           0       -2.465638    2.572873   -0.003330
     19          1           0        0.001817    2.510250    0.050629
     20          1           0        2.469244    2.407300   -0.003440
     21          1           0        4.610198    1.239098   -0.076222
     22          1           0        4.635945   -1.182021   -0.077844
     23          1           0        2.486393   -2.358413   -0.006632
     24          1           0       -0.001554   -2.145270   -0.815090
     25          1           0       -0.001554   -2.146421    0.904110
 ---------------------------------------------------------------------
 Rotational constants (GHZ):           2.1326558           0.4445088           0.3687895
 Standard basis: CC-pVTZ (5D, 7F)
 There are   655 symmetry adapted cartesian basis functions of A   symmetry.
 There are   574 symmetry adapted basis functions of A   symmetry.
   574 basis functions,   915 primitive gaussians,   655 cartesian basis functions
    47 alpha electrons       47 beta electrons
       nuclear repulsion energy       781.1088934758 Hartrees.
 NAtoms=   25 NActive=   25 NUniq=   25 SFac= 1.00D+00 NAtFMM=   60 NAOKFM=F Big=F
 Integral buffers will be    131072 words long.
 Regular integral format.
 Two-electron integral symmetry is turned on.
 Nuclear repulsion after empirical dispersion term =      781.1079138854 Hartrees.
 One-electron integrals computed using PRISM.
 NBasis=   574 RedAO= T EigKep=  1.70D-05  NBF=   574
 NBsUse=   574 1.00D-06 EigRej= -1.00D+00 NBFU=   574
 ExpMin= 1.03D-01 ExpMax= 8.24D+03 ExpMxC= 2.81D+02 IAcc=3 IRadAn=         5 AccDes= 0.00D+00
 Harris functional with IExCor= 1009 and IRadAn=       5 diagonalized for initial guess.
 HarFok:  IExCor= 1009 AccDes= 0.00D+00 IRadAn=         5 IDoV= 1 UseB2=F ITyADJ=14
 ICtDFT=  3500011 ScaDFX=  1.000000  1.000000  1.000000  1.000000
 FoFCou: FMM=F IPFlag=           0 FMFlag=      100000 FMFlg1=           0
         NFxFlg=           0 DoJE=T BraDBF=F KetDBF=T FulRan=T
         wScrn=  0.000000 ICntrl=       500 IOpCl=  0 I1Cent=   200000004 NGrid=           0
         NMat0=    1 NMatS0=      1 NMatT0=    0 NMatD0=    1 NMtDS0=    0 NMtDT0=    0
 Petite list used in FoFCou.
 Requested convergence on RMS density matrix=1.00D-08 within 128 cycles.
 Requested convergence on MAX density matrix=1.00D-06.
 Requested convergence on             energy=1.00D-06.
 No special actions if energy rises.
 Integral accuracy reduced to 1.0D-05 until final iterations.
 Initial convergence to 1.0D-05 achieved.  Increase integral accuracy.
 SCF Done:  E(RM062X) =  -539.804549517     A.U. after   14 cycles
            NFock= 14  Conv=0.70D-08     -V/T= 2.0062
 DoSCS=F DFT=T ScalE2(SS,OS)=  1.000000  1.000000
 ExpMin= 1.03D-01 ExpMax= 8.24D+03 ExpMxC= 2.81D+02 IAcc=3 IRadAn=         5 AccDes= 0.00D+00
 HarFok:  IExCor=  205 AccDes= 0.00D+00 IRadAn=         5 IDoV=-2 UseB2=F ITyADJ=14
 ICtDFT= 12500011 ScaDFX=  1.000000  1.000000  1.000000  1.000000
 Range of M.O.s used for correlation:    15   574
 NBasis=   574 NAE=    47 NBE=    47 NFC=    14 NFV=     0
 NROrb=    560 NOA=    33 NOB=    33 NVA=   527 NVB=   527

 **** Warning!!: The largest alpha MO coefficient is  0.51201285D+02

 Orbital symmetries:
       Occupied  (A) (A) (A) (A) (A) (A) (A) (A) (A) (A) (A) (A)
                 (A) (A) (A) (A) (A) (A) (A) (A) (A) (A) (A) (A)
                 (A) (A) (A) (A) (A) (A) (A) (A) (A) (A) (A) (A)
                 (A) (A) (A) (A) (A) (A) (A) (A) (A) (A) (A)
       Virtual   (A) (A) (A) (A) (A) (A) (A) (A) (A) (A) (A) (A)
                 (A) (A) (A) (A) (A) (A) (A) (A) (A) (A) (A) (A)
                 (A) (A) (A) (A) (A) (A) (A) (A) (A) (A) (A) (A)
                 (A) (A) (A) (A) (A) (A) (A) (A) (A) (A) (A) (A)
                 (A) (A) (A) (A) (A) (A) (A) (A) (A) (A) (A) (A)
                 (A) (A) (A) (A) (A) (A) (A) (A) (A) (A) (A) (A)
                 (A) (A) (A) (A) (A) (A) (A) (A) (A) (A) (A) (A)
                 (A) (A) (A) (A) (A) (A) (A) (A) (A) (A) (A) (A)
                 (A) (A) (A) (A) (A) (A) (A) (A) (A) (A) (A) (A)
                 (A) (A) (A) (A) (A) (A) (A) (A) (A) (A) (A) (A)
                 (A) (A) (A) (A) (A) (A) (A) (A) (A) (A) (A) (A)
                 (A) (A) (A) (A) (A) (A) (A) (A) (A) (A) (A) (A)
                 (A) (A) (A) (A) (A) (A) (A) (A) (A) (A) (A) (A)
                 (A) (A) (A) (A) (A) (A) (A) (A) (A) (A) (A) (A)
                 (A) (A) (A) (A) (A) (A) (A) (A) (A) (A) (A) (A)
                 (A) (A) (A) (A) (A) (A) (A) (A) (A) (A) (A) (A)
                 (A) (A) (A) (A) (A) (A) (A) (A) (A) (A) (A) (A)
                 (A) (A) (A) (A) (A) (A) (A) (A) (A) (A) (A) (A)
                 (A) (A) (A) (A) (A) (A) (A) (A) (A) (A) (A) (A)
                 (A) (A) (A) (A) (A) (A) (A) (A) (A) (A) (A) (A)
                 (A) (A) (A) (A) (A) (A) (A) (A) (A) (A) (A) (A)
                 (A) (A) (A) (A) (A) (A) (A) (A) (A) (A) (A) (A)
                 (A) (A) (A) (A) (A) (A) (A) (A) (A) (A) (A) (A)
                 (A) (A) (A) (A) (A) (A) (A) (A) (A) (A) (A) (A)
                 (A) (A) (A) (A) (A) (A) (A) (A) (A) (A) (A) (A)
                 (A) (A) (A) (A) (A) (A) (A) (A) (A) (A) (A) (A)
                 (A) (A) (A) (A) (A) (A) (A) (A) (A) (A) (A) (A)
                 (A) (A) (A) (A) (A) (A) (A) (A) (A) (A) (A) (A)
                 (A) (A) (A) (A) (A) (A) (A) (A) (A) (A) (A) (A)
                 (A) (A) (A) (A) (A) (A) (A) (A) (A) (A) (A) (A)
                 (A) (A) (A) (A) (A) (A) (A) (A) (A) (A) (A) (A)
                 (A) (A) (A) (A) (A) (A) (A) (A) (A) (A) (A) (A)
                 (A) (A) (A) (A) (A) (A) (A) (A) (A) (A) (A) (A)
                 (A) (A) (A) (A) (A) (A) (A) (A) (A) (A) (A) (A)
                 (A) (A) (A) (A) (A) (A) (A) (A) (A) (A) (A) (A)
                 (A) (A) (A) (A) (A) (A) (A) (A) (A) (A) (A) (A)
                 (A) (A) (A) (A) (A) (A) (A) (A) (A) (A) (A) (A)
                 (A) (A) (A) (A) (A) (A) (A) (A) (A) (A) (A) (A)
                 (A) (A) (A) (A) (A) (A) (A) (A) (A) (A) (A) (A)
                 (A) (A) (A) (A) (A) (A) (A) (A) (A) (A) (A) (A)
                 (A) (A) (A) (A) (A) (A) (A) (A) (A) (A) (A) (A)
                 (A) (A) (A) (A) (A) (A) (A) (A) (A) (A) (A) (A)
                 (A) (A) (A) (A) (A) (A) (A) (A) (A) (A) (A) (A)
                 (A) (A) (A) (A) (A) (A) (A) (A) (A) (A) (A)
     4 initial guesses have been made.
 Convergence on wavefunction:    0.001000000000000
 Iteration     1 Dimension     4 NMult     0 NNew      4
 CISAX will form     4 AO SS matrices at one time.
 Iteration     2 Dimension     6 NMult     4 NNew      2
 Iteration     3 Dimension     8 NMult     6 NNew      2
 Iteration     4 Dimension    10 NMult     8 NNew      2
 Iteration     5 Dimension    12 NMult    10 NNew      2
 Iteration     6 Dimension    14 NMult    12 NNew      2
 ***********************************************************************
 Excited states from <AA,BB:AA,BB> singles matrix:
 ***********************************************************************
 
 Ground to excited state transition densities written to RWF  633
 Ground to excited state transition electric dipole moments (Au):
       state          X           Y           Z        Dip. S.      Osc.
         1        -0.1614     -0.6326      0.0145      0.4264      0.0294
 Ground to excited state transition velocity dipole moments (Au):
       state          X           Y           Z        Dip. S.      Osc.
         1         0.0172      0.0692     -0.0016      0.0051      0.0328
 Ground to excited state transition magnetic dipole moments (Au):
       state          X           Y           Z
         1         0.0266      0.0018     -0.1537
 Ground to excited state transition velocity quadrupole moments (Au):
       state          XX          YY          ZZ          XY          XZ          YZ
         1         0.2723      0.0290     -0.0079     -0.0115     -0.0007      0.0059
 <0|del|b> * <b|rxdel|0> + <0|del|b> * <b|delr+rdel|0>
 Rotatory Strengths (R) in cgs (10**-40 erg-esu-cm/Gauss)
       state          XX          YY          ZZ    R(velocity)    E-M Angle
         1         1.5145      2.6872      1.4718      1.8911       85.73
 1/2[<0|r|b>*<b|rxdel|0> + (<0|rxdel|b>*<b|r|0>)*]
 Rotatory Strengths (R) in cgs (10**-40 erg-esu-cm/Gauss)
       state          XX          YY          ZZ     R(length)
         1         3.0342      0.8193      1.5788      1.8108
  1/2[<0|del|b>*<b|r|0> + (<0|r|b>*<b|del|0>)*] (Au)
       state          X           Y           Z        Dip. S.   Osc.(frdel)
         1        -0.0028     -0.0438     -0.0000      0.0466      0.0311

 Excitation energies and oscillator strengths:
 
 Excited State   1:      Singlet-A      2.8133 eV  440.71 nm  f=0.0294  <S**2>=0.000
      47 -> 48         0.70297
 This state for optimization and/or second-order correction.
 Total Energy, E(TD-HF/TD-DFT) =  -539.701163198    
 Copying the excited state density for this state as the 1-particle RhoCI density.
 SavETr:  write IOETrn=   770 NScale= 10 NData=  16 NLR=1 NState=    1 LETran=      28.

 **********************************************************************

            Population analysis using the SCF Density.

 **********************************************************************

 Orbital symmetries:
       Occupied  (A) (A) (A) (A) (A) (A) (A) (A) (A) (A) (A) (A)
                 (A) (A) (A) (A) (A) (A) (A) (A) (A) (A) (A) (A)
                 (A) (A) (A) (A) (A) (A) (A) (A) (A) (A) (A) (A)
                 (A) (A) (A) (A) (A) (A) (A) (A) (A) (A) (A)
       Virtual   (A) (A) (A) (A) (A) (A) (A) (A) (A) (A) (A) (A)
                 (A) (A) (A) (A) (A) (A) (A) (A) (A) (A) (A) (A)
                 (A) (A) (A) (A) (A) (A) (A) (A) (A) (A) (A) (A)
                 (A) (A) (A) (A) (A) (A) (A) (A) (A) (A) (A) (A)
                 (A) (A) (A) (A) (A) (A) (A) (A) (A) (A) (A) (A)
                 (A) (A) (A) (A) (A) (A) (A) (A) (A) (A) (A) (A)
                 (A) (A) (A) (A) (A) (A) (A) (A) (A) (A) (A) (A)
                 (A) (A) (A) (A) (A) (A) (A) (A) (A) (A) (A) (A)
                 (A) (A) (A) (A) (A) (A) (A) (A) (A) (A) (A) (A)
                 (A) (A) (A) (A) (A) (A) (A) (A) (A) (A) (A) (A)
                 (A) (A) (A) (A) (A) (A) (A) (A) (A) (A) (A) (A)
                 (A) (A) (A) (A) (A) (A) (A) (A) (A) (A) (A) (A)
                 (A) (A) (A) (A) (A) (A) (A) (A) (A) (A) (A) (A)
                 (A) (A) (A) (A) (A) (A) (A) (A) (A) (A) (A) (A)
                 (A) (A) (A) (A) (A) (A) (A) (A) (A) (A) (A) (A)
                 (A) (A) (A) (A) (A) (A) (A) (A) (A) (A) (A) (A)
                 (A) (A) (A) (A) (A) (A) (A) (A) (A) (A) (A) (A)
                 (A) (A) (A) (A) (A) (A) (A) (A) (A) (A) (A) (A)
                 (A) (A) (A) (A) (A) (A) (A) (A) (A) (A) (A) (A)
                 (A) (A) (A) (A) (A) (A) (A) (A) (A) (A) (A) (A)
                 (A) (A) (A) (A) (A) (A) (A) (A) (A) (A) (A) (A)
                 (A) (A) (A) (A) (A) (A) (A) (A) (A) (A) (A) (A)
                 (A) (A) (A) (A) (A) (A) (A) (A) (A) (A) (A) (A)
                 (A) (A) (A) (A) (A) (A) (A) (A) (A) (A) (A) (A)
                 (A) (A) (A) (A) (A) (A) (A) (A) (A) (A) (A) (A)
                 (A) (A) (A) (A) (A) (A) (A) (A) (A) (A) (A) (A)
                 (A) (A) (A) (A) (A) (A) (A) (A) (A) (A) (A) (A)
                 (A) (A) (A) (A) (A) (A) (A) (A) (A) (A) (A) (A)
                 (A) (A) (A) (A) (A) (A) (A) (A) (A) (A) (A) (A)
                 (A) (A) (A) (A) (A) (A) (A) (A) (A) (A) (A) (A)
                 (A) (A) (A) (A) (A) (A) (A) (A) (A) (A) (A) (A)
                 (A) (A) (A) (A) (A) (A) (A) (A) (A) (A) (A) (A)
                 (A) (A) (A) (A) (A) (A) (A) (A) (A) (A) (A) (A)
                 (A) (A) (A) (A) (A) (A) (A) (A) (A) (A) (A) (A)
                 (A) (A) (A) (A) (A) (A) (A) (A) (A) (A) (A) (A)
                 (A) (A) (A) (A) (A) (A) (A) (A) (A) (A) (A) (A)
                 (A) (A) (A) (A) (A) (A) (A) (A) (A) (A) (A) (A)
                 (A) (A) (A) (A) (A) (A) (A) (A) (A) (A) (A) (A)
                 (A) (A) (A) (A) (A) (A) (A) (A) (A) (A) (A) (A)
                 (A) (A) (A) (A) (A) (A) (A) (A) (A) (A) (A) (A)
                 (A) (A) (A) (A) (A) (A) (A) (A) (A) (A) (A) (A)
                 (A) (A) (A) (A) (A) (A) (A) (A) (A) (A) (A) (A)
                 (A) (A) (A) (A) (A) (A) (A) (A) (A) (A) (A) (A)
                 (A) (A) (A) (A) (A) (A) (A) (A) (A) (A) (A)
 The electronic state is 1-A.
 Alpha  occ. eigenvalues --  -10.77525 -10.73843 -10.72761 -10.72395 -10.72180
 Alpha  occ. eigenvalues --  -10.71887 -10.71765 -10.70928 -10.70841 -10.70360
 Alpha  occ. eigenvalues --  -10.70281 -10.69943 -10.68742 -10.68696  -1.16300
 Alpha  occ. eigenvalues --   -1.12279  -1.06754  -1.05564  -1.01157  -1.00043
 Alpha  occ. eigenvalues --   -0.95616  -0.90862  -0.86330  -0.85696  -0.83582
 Alpha  occ. eigenvalues --   -0.78213  -0.75913  -0.74069  -0.69412  -0.69055
 Alpha  occ. eigenvalues --   -0.68320  -0.68013  -0.67955  -0.64447  -0.63980
 Alpha  occ. eigenvalues --   -0.62763  -0.61642  -0.60127  -0.59463  -0.58866
 Alpha  occ. eigenvalues --   -0.56683  -0.54963  -0.54574  -0.52411  -0.46546
 Alpha  occ. eigenvalues --   -0.46029  -0.44390
 Alpha virt. eigenvalues --   -0.25960  -0.14538  -0.13926  -0.12426  -0.06825
 Alpha virt. eigenvalues --   -0.05558  -0.05406  -0.04150  -0.02640  -0.01701
 Alpha virt. eigenvalues --   -0.00267   0.00309   0.00547   0.01842   0.02373
 Alpha virt. eigenvalues --    0.04194   0.04472   0.07325   0.07702   0.09476
 Alpha virt. eigenvalues --    0.09962   0.10333   0.12582   0.13870   0.14134
 Alpha virt. eigenvalues --    0.15462   0.15909   0.16496   0.16721   0.17153
 Alpha virt. eigenvalues --    0.17743   0.17942   0.19412   0.19794   0.20318
 Alpha virt. eigenvalues --    0.20754   0.21899   0.22502   0.22823   0.24395
 Alpha virt. eigenvalues --    0.25239   0.26288   0.26450   0.26889   0.27029
 Alpha virt. eigenvalues --    0.27659   0.28255   0.28687   0.29499   0.29589
 Alpha virt. eigenvalues --    0.30232   0.30542   0.30972   0.31418   0.32252
 Alpha virt. eigenvalues --    0.33055   0.33436   0.34478   0.34573   0.34678
 Alpha virt. eigenvalues --    0.35999   0.37046   0.38126   0.38493   0.38715
 Alpha virt. eigenvalues --    0.39218   0.39588   0.39754   0.41263   0.43084
 Alpha virt. eigenvalues --    0.43362   0.44765   0.44985   0.45828   0.46656
 Alpha virt. eigenvalues --    0.47886   0.49107   0.49472   0.49699   0.51007
 Alpha virt. eigenvalues --    0.52820   0.53257   0.55681   0.55916   0.57991
 Alpha virt. eigenvalues --    0.58238   0.58604   0.58904   0.61030   0.61534
 Alpha virt. eigenvalues --    0.62097   0.62494   0.63133   0.63483   0.65019
 Alpha virt. eigenvalues --    0.65504   0.67210   0.68224   0.69093   0.69538
 Alpha virt. eigenvalues --    0.70709   0.71224   0.71553   0.72308   0.74057
 Alpha virt. eigenvalues --    0.75012   0.75844   0.77164   0.77378   0.79711
 Alpha virt. eigenvalues --    0.79876   0.80987   0.82088   0.83811   0.84625
 Alpha virt. eigenvalues --    0.85060   0.86029   0.86204   0.86395   0.88217
 Alpha virt. eigenvalues --    0.88783   0.89043   0.89615   0.91885   0.93012
 Alpha virt. eigenvalues --    0.93336   0.94590   0.94880   0.95481   0.95892
 Alpha virt. eigenvalues --    0.96787   0.97312   0.99794   1.01207   1.02381
 Alpha virt. eigenvalues --    1.03892   1.05367   1.06059   1.06325   1.07219
 Alpha virt. eigenvalues --    1.07859   1.09356   1.09691   1.11401   1.12258
 Alpha virt. eigenvalues --    1.12650   1.14129   1.14311   1.14641   1.15994
 Alpha virt. eigenvalues --    1.16422   1.17184   1.18008   1.18509   1.20073
 Alpha virt. eigenvalues --    1.20472   1.21963   1.23142   1.23931   1.24300
 Alpha virt. eigenvalues --    1.25417   1.26354   1.27947   1.28116   1.28238
 Alpha virt. eigenvalues --    1.29246   1.30049   1.30468   1.32749   1.33441
 Alpha virt. eigenvalues --    1.34449   1.36099   1.36978   1.38164   1.38273
 Alpha virt. eigenvalues --    1.41375   1.42344   1.42984   1.44689   1.45458
 Alpha virt. eigenvalues --    1.46215   1.47098   1.48075   1.49440   1.51077
 Alpha virt. eigenvalues --    1.56043   1.57073   1.62367   1.63098   1.65808
 Alpha virt. eigenvalues --    1.68965   1.70159   1.72271   1.77142   1.80350
 Alpha virt. eigenvalues --    1.81371   1.83642   1.86076   1.86856   1.89543
 Alpha virt. eigenvalues --    1.90780   1.91214   1.92926   1.94464   1.94795
 Alpha virt. eigenvalues --    1.97719   2.00081   2.02016   2.03382   2.04371
 Alpha virt. eigenvalues --    2.05610   2.07017   2.08145   2.10316   2.11054
 Alpha virt. eigenvalues --    2.12813   2.13163   2.15707   2.16254   2.19253
 Alpha virt. eigenvalues --    2.22977   2.23301   2.23944   2.26683   2.27841
 Alpha virt. eigenvalues --    2.29095   2.29211   2.30279   2.31725   2.32622
 Alpha virt. eigenvalues --    2.33170   2.33384   2.34923   2.35127   2.35662
 Alpha virt. eigenvalues --    2.36545   2.37443   2.38441   2.38849   2.39595
 Alpha virt. eigenvalues --    2.40161   2.41953   2.44687   2.45920   2.46637
 Alpha virt. eigenvalues --    2.47483   2.50575   2.51366   2.52566   2.53036
 Alpha virt. eigenvalues --    2.54579   2.55777   2.56559   2.57262   2.57336
 Alpha virt. eigenvalues --    2.57882   2.58383   2.59266   2.59890   2.60507
 Alpha virt. eigenvalues --    2.61527   2.61818   2.64228   2.64809   2.65363
 Alpha virt. eigenvalues --    2.65577   2.66550   2.69278   2.69687   2.70716
 Alpha virt. eigenvalues --    2.72669   2.74162   2.74627   2.75150   2.75588
 Alpha virt. eigenvalues --    2.75973   2.76484   2.77200   2.79593   2.79906
 Alpha virt. eigenvalues --    2.80240   2.81117   2.81551   2.82471   2.83583
 Alpha virt. eigenvalues --    2.84384   2.84883   2.85133   2.85469   2.86330
 Alpha virt. eigenvalues --    2.87533   2.88497   2.88993   2.89340   2.90858
 Alpha virt. eigenvalues --    2.91542   2.91732   2.92508   2.92968   2.93250
 Alpha virt. eigenvalues --    2.94934   2.95456   2.96191   2.96413   2.97359
 Alpha virt. eigenvalues --    2.98385   2.98395   2.99881   3.00287   3.01387
 Alpha virt. eigenvalues --    3.01978   3.02355   3.03252   3.03494   3.04328
 Alpha virt. eigenvalues --    3.05526   3.06091   3.06261   3.07575   3.08063
 Alpha virt. eigenvalues --    3.10700   3.12566   3.13061   3.13951   3.14564
 Alpha virt. eigenvalues --    3.15628   3.15636   3.16436   3.17038   3.17717
 Alpha virt. eigenvalues --    3.19659   3.20439   3.20662   3.21417   3.21877
 Alpha virt. eigenvalues --    3.22283   3.22898   3.24168   3.24398   3.27077
 Alpha virt. eigenvalues --    3.28524   3.28660   3.28989   3.29881   3.31702
 Alpha virt. eigenvalues --    3.32909   3.33688   3.34247   3.36185   3.36678
 Alpha virt. eigenvalues --    3.39477   3.40184   3.41061   3.43696   3.44627
 Alpha virt. eigenvalues --    3.45566   3.45730   3.47644   3.49291   3.49575
 Alpha virt. eigenvalues --    3.50084   3.51765   3.53189   3.54838   3.55958
 Alpha virt. eigenvalues --    3.56859   3.57016   3.57989   3.58272   3.59586
 Alpha virt. eigenvalues --    3.59779   3.60793   3.61735   3.62974   3.64078
 Alpha virt. eigenvalues --    3.64439   3.65739   3.66494   3.66653   3.67162
 Alpha virt. eigenvalues --    3.67468   3.69447   3.69656   3.69970   3.70725
 Alpha virt. eigenvalues --    3.72086   3.75057   3.75729   3.76319   3.78577
 Alpha virt. eigenvalues --    3.78868   3.80634   3.80950   3.81695   3.82991
 Alpha virt. eigenvalues --    3.83473   3.83787   3.85716   3.86157   3.86638
 Alpha virt. eigenvalues --    3.88118   3.89856   3.91029   3.93056   3.93454
 Alpha virt. eigenvalues --    3.94169   3.94857   3.95617   3.96721   3.97298
 Alpha virt. eigenvalues --    3.97863   4.00368   4.01066   4.01558   4.02477
 Alpha virt. eigenvalues --    4.03337   4.03767   4.04535   4.04751   4.07353
 Alpha virt. eigenvalues --    4.07654   4.08401   4.09132   4.09791   4.11531
 Alpha virt. eigenvalues --    4.11995   4.13188   4.13970   4.14487   4.15690
 Alpha virt. eigenvalues --    4.16505   4.17257   4.18829   4.20002   4.22498
 Alpha virt. eigenvalues --    4.23119   4.24644   4.24829   4.28351   4.28633
 Alpha virt. eigenvalues --    4.31116   4.31991   4.33350   4.34132   4.37906
 Alpha virt. eigenvalues --    4.41543   4.43209   4.44301   4.46463   4.49043
 Alpha virt. eigenvalues --    4.50669   4.51479   4.52901   4.53231   4.53808
 Alpha virt. eigenvalues --    4.57714   4.58296   4.59246   4.60226   4.63303
 Alpha virt. eigenvalues --    4.64487   4.67595   4.68638   4.69805   4.70865
 Alpha virt. eigenvalues --    4.72651   4.76163   4.77771   4.78210   4.80005
 Alpha virt. eigenvalues --    4.82674   4.83517   4.84974   4.90034   4.90755
 Alpha virt. eigenvalues --    4.91377   4.91847   4.97583   4.99425   5.01810
 Alpha virt. eigenvalues --    5.02979   5.04044   5.04358   5.05655   5.10830
 Alpha virt. eigenvalues --    5.12322   5.17417   5.17930   5.20263   5.22941
 Alpha virt. eigenvalues --    5.25808   5.28890   5.31024   5.36281   5.38402
 Alpha virt. eigenvalues --    5.46181   5.49579   5.54333   5.57160   5.60101
 Alpha virt. eigenvalues --    5.64103   5.66292   5.69022   5.69383   5.73668
 Alpha virt. eigenvalues --    5.78230   5.89638   5.92544   6.01420   6.07356
 Alpha virt. eigenvalues --    6.18716   6.41701   6.68020   8.15606   9.54589
 Alpha virt. eigenvalues --   11.37217  12.15673  12.24022  12.50781  12.59157
 Alpha virt. eigenvalues --   13.09750  13.35857  13.63280  14.40264  14.65721
 Alpha virt. eigenvalues --   14.92925  15.88888
          Condensed to atoms (all electrons):
               1          2          3          4          5          6
     1  C    4.929634   0.504248  -0.062790  -0.014137   0.000045   0.000001
     2  C    0.504248   4.816622   0.474754  -0.061181  -0.000004  -0.000000
     3  C   -0.062790   0.474754   4.891590   0.527794   0.000012   0.000000
     4  C   -0.014137  -0.061181   0.527794   4.914265  -0.000254   0.000011
     5  C    0.000045  -0.000004   0.000012  -0.000254   4.927560   0.509579
     6  C    0.000001  -0.000000   0.000000   0.000011   0.509579   4.917204
     7  C    0.000005  -0.000000  -0.000000  -0.000003  -0.066677   0.468192
     8  C   -0.000056   0.000006   0.000001   0.000045  -0.029903  -0.062812
     9  C   -0.063693   0.004344  -0.001311   0.004768   0.006346  -0.001562
    10  C    0.005403  -0.001504   0.007235  -0.041006  -0.042971   0.007824
    11  C    0.481887  -0.041682  -0.037658  -0.069859  -0.002562   0.000177
    12  C   -0.052890  -0.023330  -0.047901   0.414341   0.008284  -0.000394
    13  C    0.007747  -0.000127   0.000157  -0.001372  -0.075965  -0.041751
    14  C   -0.001034  -0.000059  -0.000469   0.006735   0.410159  -0.039072
    15  H    0.422287  -0.032438   0.004534  -0.000641  -0.000001   0.000000
    16  H   -0.043778   0.431251  -0.037482   0.004761   0.000000  -0.000000
    17  H    0.004826  -0.037941   0.429405  -0.041337  -0.000000   0.000000
    18  H   -0.000507   0.004095  -0.027642   0.431069  -0.000006   0.000001
    19  H   -0.000160   0.000033   0.000214  -0.001260  -0.001123   0.000127
    20  H   -0.000000  -0.000000   0.000001  -0.000009   0.448752  -0.035226
    21  H    0.000000   0.000000   0.000000  -0.000000  -0.041246   0.441330
    22  H   -0.000000   0.000000  -0.000000   0.000000   0.007058  -0.051640
    23  H    0.000012   0.000001   0.000000  -0.000000  -0.001093   0.006727
    24  H   -0.009145  -0.000054   0.000026   0.000161   0.000259   0.000015
    25  H   -0.010015  -0.000091   0.000030   0.000082   0.000144   0.000028
               7          8          9         10         11         12
     1  C    0.000005  -0.000056  -0.063693   0.005403   0.481887  -0.052890
     2  C   -0.000000   0.000006   0.004344  -0.001504  -0.041682  -0.023330
     3  C   -0.000000   0.000001  -0.001311   0.007235  -0.037658  -0.047901
     4  C   -0.000003   0.000045   0.004768  -0.041006  -0.069859   0.414341
     5  C   -0.066677  -0.029903   0.006346  -0.042971  -0.002562   0.008284
     6  C    0.468192  -0.062812  -0.001562   0.007824   0.000177  -0.000394
     7  C    4.834121   0.492327   0.004596  -0.001671  -0.000136  -0.000044
     8  C    0.492327   4.958234  -0.067607   0.007655   0.009635  -0.001871
     9  C    0.004596  -0.067607   5.048286  -0.023361   0.310601  -0.037729
    10  C   -0.001671   0.007655  -0.023361   4.873932  -0.032473   0.466904
    11  C   -0.000136   0.009635   0.310601  -0.032473   5.094729   0.355156
    12  C   -0.000044  -0.001871  -0.037729   0.466904   0.355156   5.026592
    13  C   -0.039150   0.479861   0.338404  -0.045393  -0.001842  -0.047406
    14  C   -0.024116  -0.057410  -0.043800   0.474099  -0.050689  -0.046431
    15  H    0.000001   0.000019   0.002682  -0.000065  -0.050798   0.006994
    16  H    0.000000  -0.000000  -0.000243   0.000040   0.006924  -0.000629
    17  H    0.000000   0.000000   0.000053  -0.000296  -0.000402   0.006403
    18  H   -0.000000  -0.000001  -0.000083  -0.000396   0.004276  -0.057624
    19  H    0.000044  -0.000167  -0.000197   0.417502   0.004763  -0.038320
    20  H    0.005528  -0.000711  -0.000148  -0.001203  -0.000059   0.000725
    21  H   -0.051133   0.006966   0.000060  -0.000275  -0.000005   0.000014
    22  H    0.443508  -0.044340  -0.000200   0.000037   0.000008  -0.000001
    23  H   -0.043106   0.438984   0.000830  -0.000073   0.000252  -0.000002
    24  H   -0.000078  -0.009624   0.415564  -0.002217  -0.042112   0.006976
    25  H   -0.000112  -0.010571   0.411912  -0.002377  -0.039094   0.007637
              13         14         15         16         17         18
     1  C    0.007747  -0.001034   0.422287  -0.043778   0.004826  -0.000507
     2  C   -0.000127  -0.000059  -0.032438   0.431251  -0.037941   0.004095
     3  C    0.000157  -0.000469   0.004534  -0.037482   0.429405  -0.027642
     4  C   -0.001372   0.006735  -0.000641   0.004761  -0.041337   0.431069
     5  C   -0.075965   0.410159  -0.000001   0.000000  -0.000000  -0.000006
     6  C   -0.041751  -0.039072   0.000000  -0.000000   0.000000   0.000001
     7  C   -0.039150  -0.024116   0.000001   0.000000   0.000000  -0.000000
     8  C    0.479861  -0.057410   0.000019  -0.000000   0.000000  -0.000001
     9  C    0.338404  -0.043800   0.002682  -0.000243   0.000053  -0.000083
    10  C   -0.045393   0.474099  -0.000065   0.000040  -0.000296  -0.000396
    11  C   -0.001842  -0.050689  -0.050798   0.006924  -0.000402   0.004276
    12  C   -0.047406  -0.046431   0.006994  -0.000629   0.006403  -0.057624
    13  C    5.115004   0.326571   0.000359   0.000009  -0.000005  -0.000058
    14  C    0.326571   5.058640  -0.000008  -0.000001   0.000015   0.000930
    15  H    0.000359  -0.000008   0.511615  -0.005556  -0.000161   0.000030
    16  H    0.000009  -0.000001  -0.005556   0.494609  -0.004995  -0.000128
    17  H   -0.000005   0.000015  -0.000161  -0.004995   0.500204  -0.005884
    18  H   -0.000058   0.000930   0.000030  -0.000128  -0.005884   0.512878
    19  H    0.005042  -0.032010   0.000010  -0.000001  -0.000027   0.002720
    20  H    0.006038  -0.070902   0.000000   0.000000   0.000000   0.000003
    21  H   -0.000782   0.006542  -0.000000   0.000000  -0.000000  -0.000000
    22  H    0.007311  -0.001184  -0.000000  -0.000000   0.000000   0.000000
    23  H   -0.064262   0.010085   0.000011  -0.000000  -0.000000   0.000000
    24  H   -0.039100   0.007987   0.000289  -0.000011  -0.000000   0.000012
    25  H   -0.036236   0.008471   0.000297  -0.000007  -0.000000   0.000011
              19         20         21         22         23         24
     1  C   -0.000160  -0.000000   0.000000  -0.000000   0.000012  -0.009145
     2  C    0.000033  -0.000000   0.000000   0.000000   0.000001  -0.000054
     3  C    0.000214   0.000001   0.000000  -0.000000   0.000000   0.000026
     4  C   -0.001260  -0.000009  -0.000000   0.000000  -0.000000   0.000161
     5  C   -0.001123   0.448752  -0.041246   0.007058  -0.001093   0.000259
     6  C    0.000127  -0.035226   0.441330  -0.051640   0.006727   0.000015
     7  C    0.000044   0.005528  -0.051133   0.443508  -0.043106  -0.000078
     8  C   -0.000167  -0.000711   0.006966  -0.044340   0.438984  -0.009624
     9  C   -0.000197  -0.000148   0.000060  -0.000200   0.000830   0.415564
    10  C    0.417502  -0.001203  -0.000275   0.000037  -0.000073  -0.002217
    11  C    0.004763  -0.000059  -0.000005   0.000008   0.000252  -0.042112
    12  C   -0.038320   0.000725   0.000014  -0.000001  -0.000002   0.006976
    13  C    0.005042   0.006038  -0.000782   0.007311  -0.064262  -0.039100
    14  C   -0.032010  -0.070902   0.006542  -0.001184   0.010085   0.007987
    15  H    0.000010   0.000000  -0.000000  -0.000000   0.000011   0.000289
    16  H   -0.000001   0.000000   0.000000  -0.000000  -0.000000  -0.000011
    17  H   -0.000027   0.000000  -0.000000   0.000000  -0.000000  -0.000000
    18  H    0.002720   0.000003  -0.000000   0.000000   0.000000   0.000012
    19  H    0.480130   0.002636  -0.000027  -0.000002   0.000012   0.000015
    20  H    0.002636   0.523298  -0.006941  -0.000179   0.000036   0.000015
    21  H   -0.000027  -0.006941   0.517249  -0.007029  -0.000232  -0.000001
    22  H   -0.000002  -0.000179  -0.007029   0.512571  -0.006684  -0.000011
    23  H    0.000012   0.000036  -0.000232  -0.006684   0.521253   0.000581
    24  H    0.000015   0.000015  -0.000001  -0.000011   0.000581   0.501640
    25  H    0.000018   0.000013  -0.000000  -0.000007   0.000536  -0.032278
              25
     1  C   -0.010015
     2  C   -0.000091
     3  C    0.000030
     4  C    0.000082
     5  C    0.000144
     6  C    0.000028
     7  C   -0.000112
     8  C   -0.010571
     9  C    0.411912
    10  C   -0.002377
    11  C   -0.039094
    12  C    0.007637
    13  C   -0.036236
    14  C    0.008471
    15  H    0.000297
    16  H   -0.000007
    17  H   -0.000000
    18  H    0.000011
    19  H    0.000018
    20  H    0.000013
    21  H   -0.000000
    22  H   -0.000007
    23  H    0.000536
    24  H   -0.032278
    25  H    0.497045
 Mulliken charges:
               1
     1  C   -0.097889
     2  C   -0.036942
     3  C   -0.120500
     4  C   -0.072972
     5  C   -0.056393
     6  C   -0.118758
     7  C   -0.022096
     8  C   -0.108661
     9  C   -0.308512
    10  C   -0.065347
    11  C    0.100963
    12  C    0.054545
    13  C    0.106947
    14  C    0.056948
    15  H    0.140542
    16  H    0.155239
    17  H    0.150141
    18  H    0.136306
    19  H    0.160028
    20  H    0.128333
    21  H    0.135509
    22  H    0.140784
    23  H    0.136131
    24  H    0.201089
    25  H    0.204566
 Sum of Mulliken charges =   1.00000
 Mulliken charges with hydrogens summed into heavy atoms:
               1
     1  C    0.042652
     2  C    0.118297
     3  C    0.029640
     4  C    0.063334
     5  C    0.071940
     6  C    0.016751
     7  C    0.118688
     8  C    0.027470
     9  C    0.097142
    10  C    0.094681
    11  C    0.100963
    12  C    0.054545
    13  C    0.106947
    14  C    0.056948
 Electronic spatial extent (au):  <R**2>=           2856.1385
 Charge=              1.0000 electrons
 Dipole moment (field-independent basis, Debye):
    X=             -0.3566    Y=              0.1925    Z=             -0.0501  Tot=              0.4083
 Quadrupole moment (field-independent basis, Debye-Ang):
   XX=            -30.9562   YY=            -56.3416   ZZ=            -83.3610
   XY=              0.2287   XZ=              0.0135   YZ=              0.0618
 Traceless Quadrupole moment (field-independent basis, Debye-Ang):
   XX=             25.9301   YY=              0.5447   ZZ=            -26.4747
   XY=              0.2287   XZ=              0.0135   YZ=              0.0618
 Octapole moment (field-independent basis, Debye-Ang**2):
  XXX=             -0.3300  YYY=              5.2088  ZZZ=              0.2198  XYY=             -4.2358
  XXY=             -5.1457  XXZ=             -4.3298  XZZ=              1.6100  YZZ=             -2.9670
  YYZ=              0.1216  XYZ=             -0.0060
 Hexadecapole moment (field-independent basis, Debye-Ang**3):
 XXXX=          -2121.1376 YYYY=           -608.7104 ZZZZ=            -98.4241 XXXY=              2.9753
 XXXZ=              0.2575 YYYX=              0.0675 YYYZ=              0.3796 ZZZX=             -0.1111
 ZZZY=             -0.2328 XXYY=           -507.7574 XXZZ=           -584.4208 YYZZ=           -144.5444
 XXYZ=              0.5256 YYXZ=              0.1440 ZZXY=              0.2420
 N-N= 7.811079138854D+02 E-N=-2.797726676512D+03  KE= 5.364544802871D+02
 Unable to Open any file for archive entry.
 1\1\GINC-GADI-CPU-CLX-2114\SP\RM062X TD-FC\CC-pVTZ\C14H11(1+)\TS1578\2
 5-Jul-2022\0\\#n M062X/cc-pvtz TD(NStates=1) EmpiricalDispersion=GD3 S
 P\\SP_-3\\1,1\C,0,2.4927,1.4081,-0.006\C,0,3.7015,0.6987,-0.051\C,0,3.
 6839,-0.7201,-0.051\C,0,2.4632,-1.4349,-0.006\C,0,-2.4632,-1.3629,-0.0
 06\C,0,-3.6839,-0.6901,-0.051\C,0,-3.7015,0.6627,-0.051\C,0,-2.4927,1.
 3301,-0.006\C,0,0.,1.4621,0.045\C,0,0.,-1.4205,0.045\C,0,1.2621,0.6947
 ,0.039\C,0,1.2375,-0.7281,0.039\C,0,-1.2621,0.6767,0.039\C,0,-1.2375,-
 0.7161,0.039\H,0,2.4881,2.5393,-0.006\H,0,4.6368,1.2534,-0.078\H,0,4.6
 093,-1.2937,-0.078\H,0,2.4675,-2.5624,-0.006\H,0,0.,-2.5016,0.048\H,0,
 -2.4675,-2.4004,-0.006\H,0,-4.6093,-1.2337,-0.078\H,0,-4.6368,1.1874,-
 0.078\H,0,-2.4881,2.3653,-0.006\H,0,0.,2.1545,-0.8146\H,0,0.,2.1545,0.
 9046\\Version=ES64L-G16RevC.01\State=1-A\HF=-539.8045495\RMSD=6.974e-0
 9\PG=C01 [X(C14H11)]\\@
 The archive entry for this job was punched.


 I am not a vegetarian because I love animals;
 I am a vegetarian because I hate plants.
                               -- A. Whitney Brown
 Job cpu time:       0 days  2 hours 25 minutes 40.5 seconds.
 Elapsed time:       0 days  0 hours  9 minutes 37.7 seconds.
 File lengths (MBytes):  RWF=    723 Int=      0 D2E=      0 Chk=     32 Scr=      1
 Normal termination of Gaussian 16 at Mon Jul 25 20:21:50 2022.
