                  Welcome to Q-Chem
     A Quantum Leap Into The Future Of Chemistry


 Q-Chem 5.3 (devel), Q-Chem, Inc., Pleasanton, CA (2020)

 Yihan Shao,  Zhengting Gan,  E. Epifanovsky,  A. T. B. Gilbert,  M. Wormit,  
 J. Kussmann,  A. W. Lange,  A. Behn,  Jia Deng,  Xintian Feng,  D. Ghosh,  
 M. Goldey,  P. R. Horn,  L. D. Jacobson,  I. Kaliman,  T. Kus,  A. Landau,  
 Jie Liu,  E. I. Proynov,  R. M. Richard,  R. P. Steele,  E. J. Sundstrom,  
 H. L. Woodcock III,  P. M. Zimmerman,  D. Zuev,  B. Alam,  B. Albrecht,  
 A. Aldossary,  E. Alguire,  S. A. Baeppler,  D. Barton,  Z. Benda,  
 Y. A. Bernard,  E. J. Berquist,  K. B. Bravaya,  H. Burton,  K. Carter-Fenk,  
 D. Casanova,  Chun-Min Chang,  Yunqing Chen,  A. Chien,  K. D. Closser,  
 M. P. Coons,  S. Coriani,  S. Dasgupta,  A. L. Dempwolff,  M. Diedenhofen,  
 Hainam Do,  R. G. Edgar,  Po-Tung Fang,  S. Faraji,  S. Fatehi,  
 Qingguo Feng,  J. Fosso-Tande,  J. Gayvert,  Qinghui Ge,  A. Ghysels,  
 G. Gidofalvi,  J. Gomes,  J. Gonthier,  S. Gulania,  A. Gunina,  D. Hait,  
 M. W. D. Hanson-Heine,  S. Hammes-Schiffer,  P. H. P. Harbach,  
 A. W. Hauser,  M. F. Herbst,  J. E. Herr,  E. G. Hohenstein,  Z. C. Holden,  
 S. Houck,  Kerwin Hui,  B. C. Huynh,  M. Ivanov,  T.-C. Jagau,  Hyunjun Ji,  
 B. Kaduk,  K. Khistyaev,  Jaehoon Kim,  P. Klunzinger,  K. Koh,  
 D. Kosenkov,  L. Koulias,  T. Kowalczyk,  C. M. Krauter,  A. Kunitsa,  
 Ka Un Lao,  A. Laurent,  K. V. Lawler,  Joonho Lee,  D. Lefrancois,  
 S. Lehtola,  D. S. Levine,  Yi-Pei Li,  You-Sheng Lin,  Fenglai Liu,  
 Kuan-Yu Liu,  E. Livshits,  M. Loipersberger,  A. Luenser,  A. Manjanath,  
 P. Manohar,  E. Mansoor,  S. F. Manzer,  Shan-Ping Mao,  Yuezhi Mao,  
 N. Mardirossian,  A. V. Marenich,  T. Markovich,  L. A. Martinez-Martinez,  
 S. A. Maurer,  N. J. Mayhall,  S. C. McKenzie,  J.-M. Mewes,  P. Morgante,  
 A. F. Morrison,  J. W. Mullinax,  K. Nanda,  T. S. Nguyen-Beck,  
 R. Olivares-Amaya,  K. J. Oosterbaan,  J. A. Parkhill,  S. K. Paul,  
 F. Pavosevic,  Zheng Pei,  T. M. Perrine,  F. Plasser,  P. Pokhilko,  
 S. Prager,  A. Prociuk,  E. Ramos,  B. Rana,  D. R. Rehn,  F. Rob,  
 E. Rossomme,  M. Scheurer,  M. Schneider,  N. Sergueev,  S. M. Sharada,  
 S. Sharma,  W. Skomorowski,  D. W. Small,  T. Stauch,  C. J. Stein,  
 T. Stein,  Yu-Chuan Su,  S. P. Veccham,  Zhen Tao,  A. J. W. Thom,  
 A. Tkatchenko,  T. Tsuchimochi,  N. M. Tubman,  L. Vogt,  M. L. Vidal,  
 O. Vydrov,  M. A. Watson,  J. Wenzel,  M. de Wergifosse,  T. A. Wesolowski,  
 A. White,  J. Witte,  A. Yamada,  Jun Yang,  K. Yao,  S. Yeganeh,  
 S. R. Yost,  Zhi-Qiang You,  A. Zech,  Igor Ying Zhang,  Xing Zhang,  
 Yan Zhao,  Ying Zhu,  B. R. Brooks,  G. K. L. Chan,  C. J. Cramer,  
 M. S. Gordon,  W. J. Hehre,  A. Klamt,  M. W. Schmidt,  C. D. Sherrill,  
 D. G. Truhlar,  A. Aspuru-Guzik,  R. Baer,  A. T. Bell,  N. A. Besley,  
 Jeng-Da Chai,  A. E. DePrince, III,  R. A. DiStasio Jr.,  A. Dreuw,  
 B. D. Dunietz,  T. R. Furlani,  Chao-Ping Hsu,  Yousung Jung,  Jing Kong,  
 D. S. Lambrecht,  WanZhen Liang,  C. Ochsenfeld,  V. A. Rassolov,  
 L. V. Slipchenko,  J. E. Subotnik,  T. Van Voorhis,  J. M. Herbert,  
 A. I. Krylov,  P. M. W. Gill,  M. Head-Gordon

 Contributors to earlier versions of Q-Chem not listed above: 
 R. D. Adamson,  B. Austin,  J. Baker,  G. J. O. Beran,  K. Brandhorst,  
 S. T. Brown,  E. F. C. Byrd,  A. K. Chakraborty,  C.-L. Cheng,  
 Siu Hung Chien,  D. M. Chipman,  D. L. Crittenden,  H. Dachsel,  
 R. J. Doerksen,  A. D. Dutoi,  L. Fusti-Molnar,  W. A. Goddard III,  
 A. Golubeva-Zadorozhnaya,  S. R. Gwaltney,  G. Hawkins,  A. Heyden,  
 S. Hirata,  G. Kedziora,  F. J. Keil,  C. Kelley,  Jihan Kim,  R. A. King,  
 R. Z. Khaliullin,  P. P. Korambath,  W. Kurlancheek,  A. M. Lee,  M. S. Lee,  
 S. V. Levchenko,  Ching Yeh Lin,  D. Liotard,  R. C. Lochan,  I. Lotan,  
 P. E. Maslen,  N. Nair,  D. P. O'Neill,  D. Neuhauser,  E. Neuscamman,  
 C. M. Oana,  R. Olson,  B. Peters,  R. Peverati,  P. A. Pieniazek,  
 Y. M. Rhee,  J. Ritchie,  M. A. Rohrdanz,  E. Rosta,  N. J. Russ,  
 H. F. Schaefer III,  N. E. Schultz,  N. Shenvi,  A. C. Simmonett,  A. Sodt,  
 D. Stuck,  K. S. Thanthiriwatte,  V. Vanovschi,  Tao Wang,  A. Warshel,  
 C. F. Williams,  Q. Wu,  X. Xu,  W. Zhang

 Please cite Q-Chem as follows:
 Y. Shao et al., Mol. Phys. 113, 184-215 (2015)
 DOI: 10.1080/00268976.2014.952696

 Q-Chem 5.3.2 for Intel X86 EM64T Linux

 Parts of Q-Chem use Armadillo 9.800.1 (Horizon Scraper).
 http://arma.sourceforge.net/

 Q-Chem begins on Tue Aug  2 12:00:42 2022  

Host: gadi-cpu-clx-1642.gadi.nci.org.au
0

     Scratch files written to /jobfs/53805734.gadi-pbs/qchem1069245//
Processing $rem in /apps/qchem/5.3.2/config/preferences:
Processing $rem in /home/561/ts1578/.qchemrc:

Checking the input file for inconsistencies... 	...done.

--------------------------------------------------------------
User input:
--------------------------------------------------------------
$molecule
1 1
  C   -0.0000000    2.4926549    1.3604310
  C   -0.0000000    3.7015080    0.6719886
  C   -0.0000000    3.6838611   -0.7138298
  C   -0.0000000    2.4631562   -1.4075381
  C   -0.0000000   -2.4631562   -1.4075381
  C   -0.0000000   -3.6838611   -0.7138298
  C   -0.0000000   -3.7015080    0.6719886
  C   -0.0000000   -2.4926549    1.3604310
  C    0.0000000   -0.0000000    1.4533694
  C    0.0000000    0.0000000   -1.4291887
  C   -0.0000000    1.2620555    0.6770653
  C   -0.0000000    1.2374709   -0.7308044
  C   -0.0000000   -1.2620555    0.6770653
  C   -0.0000000   -1.2374709   -0.7308044
  H   -0.0000000    2.4880712    2.4436473
  H   -0.0000000    4.6367530    1.2116887
  H   -0.0000000    4.6092621   -1.2723489
  H   -0.0000000    2.4675498   -2.4900588
  H    0.0000000    0.0000000   -2.5102663
  H   -0.0000000   -2.4675498   -2.4900588
  H   -0.0000000   -4.6092621   -1.2723489
  H   -0.0000000   -4.6367530    1.2116887
  H   -0.0000000   -2.4880712    2.4436473
  H   -0.8595855    0.0000000    2.1457874
  H    0.8595855   -0.0000000    2.1457874
$end

$rem
   BASIS  =  6-311++G(d,p)
   EXCHANGE  =  M06-2X
   CIS_N_ROOTS = 2
   CIS_TRIPLETS = FALSE
   MAKE_CUBE_FILES = TRUE
   PLOTS = TRUE 
$end

$plots
 grid_range  (-8,8) (-8,8) (-8,8)
 grid_points 40 40 40
 total_density 0-2
 transition_density 1-2
$end

--------------------------------------------------------------
 ----------------------------------------------------------------
             Standard Nuclear Orientation (Angstroms)
    I     Atom           X                Y                Z
 ----------------------------------------------------------------
    1      C       2.4926549000     0.0000000000     1.3604309947
    2      C       3.7015080000     0.0000000000     0.6719885947
    3      C       3.6838611000    -0.0000000000    -0.7138298053
    4      C       2.4631562000    -0.0000000000    -1.4075381053
    5      C      -2.4631562000    -0.0000000000    -1.4075381053
    6      C      -3.6838611000    -0.0000000000    -0.7138298053
    7      C      -3.7015080000     0.0000000000     0.6719885947
    8      C      -2.4926549000     0.0000000000     1.3604309947
    9      C      -0.0000000000     0.0000000000     1.4533693947
   10      C       0.0000000000    -0.0000000000    -1.4291887053
   11      C       1.2620555000     0.0000000000     0.6770652947
   12      C       1.2374709000    -0.0000000000    -0.7308044053
   13      C      -1.2620555000     0.0000000000     0.6770652947
   14      C      -1.2374709000    -0.0000000000    -0.7308044053
   15      H       2.4880712000     0.0000000000     2.4436472947
   16      H       4.6367530000     0.0000000000     1.2116886947
   17      H       4.6092621000    -0.0000000000    -1.2723489053
   18      H       2.4675498000    -0.0000000000    -2.4900588053
   19      H       0.0000000000    -0.0000000000    -2.5102663053
   20      H      -2.4675498000    -0.0000000000    -2.4900588053
   21      H      -4.6092621000    -0.0000000000    -1.2723489053
   22      H      -4.6367530000     0.0000000000     1.2116886947
   23      H      -2.4880712000     0.0000000000     2.4436472947
   24      H       0.0000000000     0.8595855000     2.1457873947
   25      H      -0.0000000000    -0.8595855000     2.1457873947
 ----------------------------------------------------------------
 Molecular Point Group                 C2v   NOp =  4
 Largest Abelian Subgroup              C2v   NOp =  4
 Nuclear Repulsion Energy =         781.19748824 hartrees
 There are       47 alpha and       47 beta electrons
 Requested basis set is 6-311++G(d,p)
 There are 139 shells and 385 basis functions

 Total QAlloc Memory Limit   2000 MB
 Mega-Array Size       188 MB
 MEM_STATIC part       192 MB
 A cutoff of  1.0D-11 yielded   8043 shell pairs
 There are     63491 function pairs (     67992 Cartesian)
 Smallest overlap matrix eigenvalue = 7.64E-08

 Q-Chem warning in module stvman/mkSTV.C, line 318:

 Overlap eigenvalue is smaller than square root of threshold
 Use THRESH >= 12 to get rid of this warning

 Linear dependence detected in AO basis
 Tighter screening thresholds may be required for diffuse basis sets
 Use S2THRESH > 14 and THRESH = 14 in case of SCF convergence issues
 Number of orthogonalized atomic orbitals = 379
 Maximum deviation from orthogonality = 1.337E-09

 Scale SEOQF with 1.000000e-01/1.000000e-01/1.000000e-01

 Standard Electronic Orientation quadrupole field applied
 Nucleus-field energy     =     0.0000000073 hartrees
 Guess from superposition of atomic densities
 Warning:  Energy on first SCF cycle will be non-variational
 SAD guess density has 95.000000 electrons

 -----------------------------------------------------------------------
  General SCF calculation program by
  Eric Jon Sundstrom, Paul Horn, Yuezhi Mao, Dmitri Zuev, Alec White,
  David Stuck, Shaama M.S., Shane Yost, Joonho Lee, David Small,
  Daniel Levine, Susi Lehtola, Hugh Burton, Evgeny Epifanovsky,
  Bang C. Huynh
 -----------------------------------------------------------------------
 Exchange:     0.5400 Hartree-Fock + 1.0000 M06-2X
 Correlation:  1.0000 M06-2X
 Using SG-3 standard quadrature grid
 using 24 threads for integral computing
 -------------------------------------------------------
 OpenMP Integral computing Module                
 Release: version 2.0, May 2017, Q-Chem Inc. Pleasanton 
 -------------------------------------------------------
 A restricted SCF calculation will be
 performed using DIIS
 SCF converges when DIIS error is below 1.0e-08
 ---------------------------------------
  Cycle       Energy         DIIS error
 ---------------------------------------
    1    -544.9966378504      3.49e-02  
    2    -539.6691261716      2.11e-03  
    3    -539.6844220127      1.94e-03  
    4    -539.7494790298      6.29e-04  
    5    -539.7566862430      2.11e-04  
    6    -539.7575338210      5.18e-05  
    7    -539.7575811595      1.36e-05  
    8    -539.7575846542      2.71e-06  
    9    -539.7575848798      1.75e-06  
   10    -539.7575849753      4.32e-07  
   11    -539.7575850007      3.74e-07  
   12    -539.7575850239      6.15e-08  
   13    -539.7575849892      2.79e-08  
   14    -539.7575849884      1.14e-08  
   15    -539.7575850116      3.04e-09  Convergence criterion met
 ---------------------------------------
 SCF time:   CPU 548.02s  wall 23.00s 
 SCF   energy in the final basis set =     -539.7575850116
 Total energy in the final basis set =     -539.7575850116

 Q-Chem warning in module 0, line  198:

 OriOrb: Failure to resolve orbital degeneracies.


 Q-Chem warning in module 0, line  198:

 OriOrb: Failure to resolve orbital degeneracies.

 
 Direct TDDFT/TDA calculation will be performed
 Exchange:     0.5400 Hartree-Fock + 1.0000 M06-2X
 Correlation:  1.0000 M06-2X
 Using SG-3 standard quadrature grid
 Singlet excitation energies requested
 CIS energy converged when residual is below 10e- 6
 ---------------------------------------------------
 Iter    Rts Conv    Rts Left    Ttl Dev     Max Dev
 ---------------------------------------------------
   1         0           2      0.001518    0.000810
   2         0           2      0.000290    0.000178
   3         0           2      0.000145    0.000106
   4         0           2      0.000245    0.000231
   5         0           2      0.000170    0.000166
   6         0           2      0.000051    0.000049
   7         1           1      0.000017    0.000017
   8         1           1      0.000006    0.000006
   9         1           1      0.000003    0.000002
  10         2           0      0.000001    0.000001    Roots Converged
 ---------------------------------------------------
 
 ---------------------------------------------------
         TDDFT/TDA Excitation Energies              
 ---------------------------------------------------

 Excited state   1: excitation energy (eV) =    2.9687
 Total energy for state  1:                  -539.64848659 au
    Multiplicity: Singlet
    Trans. Mom.: -0.0000 X   0.0000 Y  -0.7815 Z
    Strength   :     0.0444172575
    D(   47) --> V(    1) amplitude =  0.9835

 Excited state   2: excitation energy (eV) =    3.3879
 Total energy for state  2:                  -539.63308286 au
    Multiplicity: Singlet
    Trans. Mom.: -0.0954 X  -0.0000 Y   0.0000 Z
    Strength   :     0.0007555341
    D(   45) --> V(    1) amplitude = -0.9170
    D(   46) --> V(    1) amplitude =  0.3604
 
 ---------------------------------------------------
  SETman timing summary (seconds)
  CPU time               847.42s
  System time              0.00s
  Wall time               46.80s
 
 --------------------------------------------------------------
             Orbital Energies (a.u.) and Symmetries
 --------------------------------------------------------------
 
 Alpha MOs, Restricted
 -- Occupied --                  
-10.777 -10.732 -10.732 -10.724 -10.724 -10.714 -10.714 -10.710
  1 A1    1 B1    2 A1    2 B1    3 A1    3 B1    4 A1    4 B1                 
-10.710 -10.710 -10.700 -10.700 -10.696 -10.696  -1.164  -1.125
  5 A1    6 A1    5 B1    7 A1    6 B1    8 A1    9 A1    7 B1                 
 -1.069  -1.057  -1.013  -1.002  -0.958  -0.911  -0.864  -0.859
 10 A1   11 A1    8 B1    9 B1   12 A1   13 A1   14 A1   10 B1                 
 -0.838  -0.784  -0.760  -0.744  -0.696  -0.692  -0.685  -0.682
 11 B1   15 A1   12 B1   16 A1   17 A1   13 B1   18 A1   14 B1                 
 -0.681  -0.647  -0.643  -0.631  -0.619  -0.600  -0.597  -0.591
  1 B2   15 B1   19 A1   16 B1   20 A1    2 B2    1 A2   21 A1                 
 -0.569  -0.552  -0.548  -0.524  -0.466  -0.461  -0.445
 17 B1   22 A1   18 B1    3 B2    2 A2    3 A2    4 B2                         
 -- Virtual --                   
 -0.261  -0.147  -0.141  -0.128  -0.112  -0.101  -0.092  -0.080
  5 B2    6 B2    4 A2    5 A2   23 A1   24 A1   19 B1   25 A1                 
 -0.080  -0.075  -0.072  -0.071  -0.056  -0.056  -0.053  -0.038
  7 B2   20 B1   26 A1    8 B2   21 B1   27 A1    9 B2   22 B1                 
 -0.036  -0.033  -0.031  -0.022  -0.013  -0.009   0.002   0.006
  6 A2   28 A1   23 B1   29 A1   10 B2    7 A2   30 A1   31 A1                 
  0.007   0.011   0.015   0.020   0.022   0.023   0.025   0.027
 24 B1   11 B2   32 A1   12 B2   25 B1   33 A1    8 A2   26 B1                 
  0.027   0.033   0.034   0.042   0.045   0.047   0.051   0.054
  9 A2   27 B1   34 A1   28 B1   29 B1   35 A1   13 B2   36 A1                 
  0.061   0.063   0.066   0.071   0.073   0.079   0.082   0.084
 10 A2   37 A1   30 B1   14 B2   15 B2   38 A1   11 A2   39 A1                 
  0.086   0.089   0.096   0.096   0.100   0.109   0.110   0.111
 16 B2   31 B1   32 B1   40 A1   41 A1   42 A1   33 B1   17 B2                 
  0.122   0.123   0.129   0.130   0.134   0.135   0.140   0.144
 34 B1   43 A1   44 A1   35 B1   45 A1   12 A2   36 B1   46 A1                 
  0.162   0.163   0.164   0.174   0.176   0.178   0.181   0.191
 37 B1   47 A1   18 B2   48 A1   38 B1   39 B1   49 A1   40 B1                 
  0.192   0.196   0.197   0.216   0.216   0.227   0.231   0.236
 50 A1   51 A1   41 B1   52 A1   42 B1   43 B1   53 A1   54 A1                 
  0.238   0.246   0.253   0.269   0.276   0.289   0.293   0.299
 44 B1   55 A1   45 B1   46 B1   56 A1   57 A1   47 B1   58 A1                 
  0.314   0.358   0.364   0.382   0.393   0.412   0.414   0.420
 48 B1   59 A1   49 B1   60 A1   50 B1   61 A1   19 B2   62 A1                 
  0.422   0.430   0.437   0.443   0.450   0.450   0.461   0.461
 20 B2   13 A2   51 B1   21 B2   63 A1   52 B1   64 A1   53 B1                 
  0.480   0.485   0.489   0.490   0.504   0.512   0.516   0.517
 22 B2   14 A2   65 A1   15 A2   23 B2   54 B1   66 A1   55 B1                 
  0.521   0.529   0.540   0.541   0.547   0.557   0.558   0.575
 24 B2   56 B1   67 A1   16 A2   68 A1   17 A2   57 B1   25 B2                 
  0.582   0.588   0.614   0.622   0.623   0.632   0.635   0.650
 26 B2   69 A1   18 A2   58 B1   70 A1   71 A1   27 B2   59 B1                 
  0.652   0.673   0.704   0.706   0.710   0.724   0.729   0.758
 72 A1   60 B1   73 A1   61 B1   74 A1   75 A1   76 A1   77 A1                 
  0.760   0.763   0.769   0.771   0.778   0.779   0.782   0.799
 62 B1   63 B1   78 A1   64 B1   79 A1   65 B1   66 B1   19 A2                 
  0.804   0.812   0.817   0.821   0.830   0.852   0.872   0.882
 80 A1   67 B1   68 B1   81 A1   69 B1   82 A1   70 B1   71 B1                 
  0.886   0.891   0.904   0.911   0.912   0.932   0.946   0.964
 28 B2   83 A1   20 A2   84 A1   29 B2   21 A2   85 A1   30 B2                 
  0.966   1.004   1.013   1.017   1.027   1.032   1.039   1.047
 22 A2   72 B1   86 A1   31 B2   23 A2   24 A2   73 B1   32 B2                 
  1.054   1.088   1.195   1.233   1.240   1.253   1.280   1.297
 87 A1   74 B1   88 A1   89 A1   75 B1   33 B2   25 A2   90 A1                 
  1.317   1.343   1.357   1.360   1.393   1.401   1.409   1.430
 76 B1   77 B1   91 A1   34 B2   92 A1   78 B1   93 A1   35 B2                 
  1.435   1.435   1.452   1.453   1.463   1.467   1.476   1.480
 79 B1   26 A2   80 B1   94 A1   27 A2   36 B2   28 A2   95 A1                 
  1.517   1.536   1.558   1.558   1.563   1.565   1.577   1.614
 96 A1   37 B2   97 A1   38 B2   81 B1   82 B1   98 A1   83 B1                 
  1.632   1.635   1.637   1.661   1.683   1.683   1.687   1.697
 39 B2   29 A2   40 B2   99 A1   84 B1   30 A2   85 B1   41 B2                 
  1.744   1.760   1.771   1.781   1.800   1.801   1.807   1.831
100 A1  101 A1  102 A1   31 A2   86 B1   32 A2   42 B2   87 B1                 
  1.832   1.836   1.838   1.842   1.842   1.859   1.860   1.882
 33 A2  103 A1  104 A1   43 B2   88 B1  105 A1   89 B1   90 B1                 
  1.914   1.920   1.941   1.952   1.977   1.981   1.997   2.024
 44 B2   91 B1  106 A1   92 B1   34 A2   45 B2  107 A1  108 A1                 
  2.044   2.073   2.117   2.120   2.141   2.152   2.191   2.212
 93 B1   35 A2  109 A1   94 B1   95 B1   46 B2   36 A2  110 A1                 
  2.228   2.285   2.301   2.347   2.348   2.360   2.386   2.395
 47 B2  111 A1   96 B1   37 A2   97 B1  112 A1  113 A1   98 B1                 
  2.422   2.447   2.462   2.464   2.491   2.528   2.537   2.544
114 A1  115 A1   48 B2   99 B1  100 B1  116 A1  101 B1   49 B2                 
  2.569   2.578   2.579   2.594   2.597   2.612   2.620   2.629
 50 B2   38 A2  117 A1  118 A1  102 B1  119 A1  120 A1  103 B1                 
  2.636   2.640   2.647   2.652   2.652   2.672   2.685   2.710
121 A1  104 B1  122 A1  105 B1   51 B2  123 A1  106 B1   39 A2                 
  2.713   2.734   2.748   2.763   2.786   2.797   2.825   2.831
124 A1   52 B2   40 A2   53 B2  107 B1   54 B2  125 A1   41 A2                 
  2.846   2.863   2.921   2.971   2.995   3.001   3.051   3.109
108 B1   42 A2   55 B2  126 A1   56 B2   43 A2  109 B1  127 A1                 
  3.114   3.130   3.210   3.237   3.267   3.282   3.307   3.328
128 A1  110 B1  111 B1  129 A1  112 B1  130 A1  131 A1  113 B1                 
  3.335   3.434   3.458   3.464   3.483   3.501   3.564   3.660
132 A1  133 A1  114 B1  115 B1  134 A1  116 B1  135 A1   57 B2                 
  3.667   3.673   3.941   3.944   3.951   3.961   4.039   4.068
136 A1  117 B1  137 A1  138 A1  118 B1  119 B1  139 A1  140 A1                 
  4.072   4.124   4.355   4.614   4.698   4.716  23.454  23.606
120 B1  141 A1  121 B1  122 B1  123 B1  142 A1  143 A1  124 B1                 
 23.823  23.856  23.879  23.893  23.905  23.923  23.978  23.997
144 A1  145 A1  125 B1  126 B1  146 A1  147 A1  127 B1  148 A1                 
 23.999  24.001  24.106  24.107
128 B1  149 A1  150 A1  129 B1                                                 
 
 Beta MOs, Restricted
 -- Occupied --                  
-10.777 -10.732 -10.732 -10.724 -10.724 -10.714 -10.714 -10.710
  1 A1    1 B1    2 A1    2 B1    3 A1    3 B1    4 A1    4 B1                 
-10.710 -10.710 -10.700 -10.700 -10.696 -10.696  -1.164  -1.125
  5 A1    6 A1    5 B1    7 A1    6 B1    8 A1    9 A1    7 B1                 
 -1.069  -1.057  -1.013  -1.002  -0.958  -0.911  -0.864  -0.859
 10 A1   11 A1    8 B1    9 B1   12 A1   13 A1   14 A1   10 B1                 
 -0.838  -0.784  -0.760  -0.744  -0.696  -0.692  -0.685  -0.682
 11 B1   15 A1   12 B1   16 A1   17 A1   13 B1   18 A1   14 B1                 
 -0.681  -0.647  -0.643  -0.631  -0.619  -0.600  -0.597  -0.591
  1 B2   15 B1   19 A1   16 B1   20 A1    2 B2    1 A2   21 A1                 
 -0.569  -0.552  -0.548  -0.524  -0.466  -0.461  -0.445
 17 B1   22 A1   18 B1    3 B2    2 A2    3 A2    4 B2                         
 -- Virtual --                   
 -0.261  -0.147  -0.141  -0.128  -0.112  -0.101  -0.092  -0.080
  5 B2    6 B2    4 A2    5 A2   23 A1   24 A1   19 B1   25 A1                 
 -0.080  -0.075  -0.072  -0.071  -0.056  -0.056  -0.053  -0.038
  7 B2   20 B1   26 A1    8 B2   21 B1   27 A1    9 B2   22 B1                 
 -0.036  -0.033  -0.031  -0.022  -0.013  -0.009   0.002   0.006
  6 A2   28 A1   23 B1   29 A1   10 B2    7 A2   30 A1   31 A1                 
  0.007   0.011   0.015   0.020   0.022   0.023   0.025   0.027
 24 B1   11 B2   32 A1   12 B2   25 B1   33 A1    8 A2   26 B1                 
  0.027   0.033   0.034   0.042   0.045   0.047   0.051   0.054
  9 A2   27 B1   34 A1   28 B1   29 B1   35 A1   13 B2   36 A1                 
  0.061   0.063   0.066   0.071   0.073   0.079   0.082   0.084
 10 A2   37 A1   30 B1   14 B2   15 B2   38 A1   11 A2   39 A1                 
  0.086   0.089   0.096   0.096   0.100   0.109   0.110   0.111
 16 B2   31 B1   32 B1   40 A1   41 A1   42 A1   33 B1   17 B2                 
  0.122   0.123   0.129   0.130   0.134   0.135   0.140   0.144
 34 B1   43 A1   44 A1   35 B1   45 A1   12 A2   36 B1   46 A1                 
  0.162   0.163   0.164   0.174   0.176   0.178   0.181   0.191
 37 B1   47 A1   18 B2   48 A1   38 B1   39 B1   49 A1   40 B1                 
  0.192   0.196   0.197   0.216   0.216   0.227   0.231   0.236
 50 A1   51 A1   41 B1   52 A1   42 B1   43 B1   53 A1   54 A1                 
  0.238   0.246   0.253   0.269   0.276   0.289   0.293   0.299
 44 B1   55 A1   45 B1   46 B1   56 A1   57 A1   47 B1   58 A1                 
  0.314   0.358   0.364   0.382   0.393   0.412   0.414   0.420
 48 B1   59 A1   49 B1   60 A1   50 B1   61 A1   19 B2   62 A1                 
  0.422   0.430   0.437   0.443   0.450   0.450   0.461   0.461
 20 B2   13 A2   51 B1   21 B2   63 A1   52 B1   64 A1   53 B1                 
  0.480   0.485   0.489   0.490   0.504   0.512   0.516   0.517
 22 B2   14 A2   65 A1   15 A2   23 B2   54 B1   66 A1   55 B1                 
  0.521   0.529   0.540   0.541   0.547   0.557   0.558   0.575
 24 B2   56 B1   67 A1   16 A2   68 A1   17 A2   57 B1   25 B2                 
  0.582   0.588   0.614   0.622   0.623   0.632   0.635   0.650
 26 B2   69 A1   18 A2   58 B1   70 A1   71 A1   27 B2   59 B1                 
  0.652   0.673   0.704   0.706   0.710   0.724   0.729   0.758
 72 A1   60 B1   73 A1   61 B1   74 A1   75 A1   76 A1   77 A1                 
  0.760   0.763   0.769   0.771   0.778   0.779   0.782   0.799
 62 B1   63 B1   78 A1   64 B1   79 A1   65 B1   66 B1   19 A2                 
  0.804   0.812   0.817   0.821   0.830   0.852   0.872   0.882
 80 A1   67 B1   68 B1   81 A1   69 B1   82 A1   70 B1   71 B1                 
  0.886   0.891   0.904   0.911   0.912   0.932   0.946   0.964
 28 B2   83 A1   20 A2   84 A1   29 B2   21 A2   85 A1   30 B2                 
  0.966   1.004   1.013   1.017   1.027   1.032   1.039   1.047
 22 A2   72 B1   86 A1   31 B2   23 A2   24 A2   73 B1   32 B2                 
  1.054   1.088   1.195   1.233   1.240   1.253   1.280   1.297
 87 A1   74 B1   88 A1   89 A1   75 B1   33 B2   25 A2   90 A1                 
  1.317   1.343   1.357   1.360   1.393   1.401   1.409   1.430
 76 B1   77 B1   91 A1   34 B2   92 A1   78 B1   93 A1   35 B2                 
  1.435   1.435   1.452   1.453   1.463   1.467   1.476   1.480
 79 B1   26 A2   80 B1   94 A1   27 A2   36 B2   28 A2   95 A1                 
  1.517   1.536   1.558   1.558   1.563   1.565   1.577   1.614
 96 A1   37 B2   97 A1   38 B2   81 B1   82 B1   98 A1   83 B1                 
  1.632   1.635   1.637   1.661   1.683   1.683   1.687   1.697
 39 B2   29 A2   40 B2   99 A1   84 B1   30 A2   85 B1   41 B2                 
  1.744   1.760   1.771   1.781   1.800   1.801   1.807   1.831
100 A1  101 A1  102 A1   31 A2   86 B1   32 A2   42 B2   87 B1                 
  1.832   1.836   1.838   1.842   1.842   1.859   1.860   1.882
 33 A2  103 A1  104 A1   43 B2   88 B1  105 A1   89 B1   90 B1                 
  1.914   1.920   1.941   1.952   1.977   1.981   1.997   2.024
 44 B2   91 B1  106 A1   92 B1   34 A2   45 B2  107 A1  108 A1                 
  2.044   2.073   2.117   2.120   2.141   2.152   2.191   2.212
 93 B1   35 A2  109 A1   94 B1   95 B1   46 B2   36 A2  110 A1                 
  2.228   2.285   2.301   2.347   2.348   2.360   2.386   2.395
 47 B2  111 A1   96 B1   37 A2   97 B1  112 A1  113 A1   98 B1                 
  2.422   2.447   2.462   2.464   2.491   2.528   2.537   2.544
114 A1  115 A1   48 B2   99 B1  100 B1  116 A1  101 B1   49 B2                 
  2.569   2.578   2.579   2.594   2.597   2.612   2.620   2.629
 50 B2   38 A2  117 A1  118 A1  102 B1  119 A1  120 A1  103 B1                 
  2.636   2.640   2.647   2.652   2.652   2.672   2.685   2.710
121 A1  104 B1  122 A1  105 B1   51 B2  123 A1  106 B1   39 A2                 
  2.713   2.734   2.748   2.763   2.786   2.797   2.825   2.831
124 A1   52 B2   40 A2   53 B2  107 B1   54 B2  125 A1   41 A2                 
  2.846   2.863   2.921   2.971   2.995   3.001   3.051   3.109
108 B1   42 A2   55 B2  126 A1   56 B2   43 A2  109 B1  127 A1                 
  3.114   3.130   3.210   3.237   3.267   3.282   3.307   3.328
128 A1  110 B1  111 B1  129 A1  112 B1  130 A1  131 A1  113 B1                 
  3.335   3.434   3.458   3.464   3.483   3.501   3.564   3.660
132 A1  133 A1  114 B1  115 B1  134 A1  116 B1  135 A1   57 B2                 
  3.667   3.673   3.941   3.944   3.951   3.961   4.039   4.068
136 A1  117 B1  137 A1  138 A1  118 B1  119 B1  139 A1  140 A1                 
  4.072   4.124   4.355   4.614   4.698   4.716  23.454  23.606
120 B1  141 A1  121 B1  122 B1  123 B1  142 A1  143 A1  124 B1                 
 23.823  23.856  23.879  23.893  23.905  23.923  23.978  23.997
144 A1  145 A1  125 B1  126 B1  146 A1  147 A1  127 B1  148 A1                 
 23.999  24.001  24.106  24.107
128 B1  149 A1  150 A1  129 B1                                                 
 --------------------------------------------------------------
 
          Ground-State Mulliken Net Atomic Charges

     Atom                 Charge (a.u.)
  ----------------------------------------
      1 C                     0.093941
      2 C                    -0.406620
      3 C                    -0.440665
      4 C                     0.012377
      5 C                     0.012377
      6 C                    -0.440665
      7 C                    -0.406620
      8 C                     0.093941
      9 C                    -0.336355
     10 C                     0.093977
     11 C                    -0.637277
     12 C                     0.689279
     13 C                    -0.637277
     14 C                     0.689279
     15 H                     0.237646
     16 H                     0.255917
     17 H                     0.248496
     18 H                     0.222522
     19 H                     0.190411
     20 H                     0.222522
     21 H                     0.248496
     22 H                     0.255917
     23 H                     0.237646
     24 H                     0.250367
     25 H                     0.250367
  ----------------------------------------
  Sum of atomic charges =     1.000000

 -----------------------------------------------------------------
                    Cartesian Multipole Moments
 -----------------------------------------------------------------
    Charge (ESU x 10^10)
                 4.8032
    Dipole Moment (Debye)
         X      -0.0000      Y       0.0000      Z      -0.1863
       Tot       0.1863
    Quadrupole Moments (Debye-Ang)
        XX     -31.0997     XY       0.0000     YY     -84.1409
        XZ       0.0000     YZ       0.0000     ZZ     -56.2735
    Octopole Moments (Debye-Ang^2)
       XXX      -0.0000    XXY       0.0000    XYY      -0.0000
       YYY       0.0000    XXZ       5.1736    XYZ      -0.0000
       YYZ       3.0916    XZZ       0.0000    YZZ       0.0000
       ZZZ      -5.1974
    Hexadecapole Moments (Debye-Ang^3)
      XXXX   -2121.9458   XXXY       0.0000   XXYY    -590.7404
      XYYY       0.0000   YYYY     -99.3166   XXXZ       0.0000
      XXYZ       0.0000   XYYZ       0.0000   YYYZ       0.0000
      XXZZ    -507.7232   XYZZ       0.0000   YYZZ    -145.7164
      XZZZ       0.0000   YZZZ       0.0000   ZZZZ    -609.3841
 -----------------------------------------------------------------
Grid information in Angstroms:
 x:         40  min =  -8.000000 max =   8.000000
 y:         40  min =  -8.000000 max =   8.000000
 z:         40  min =  -8.000000 max =   8.000000
 Plotting total densities:  0 1 2
 Created directory /jobfs/53805734.gadi-pbs/qchem1069245/plots
 Plotting transition densities:  1 2
Archival summary:
1\1\gadi-cpu-clx-1642.gadi.nci.org.au\SP\ProcedureUnspecified\BasisUnspecified\1411(1+,1)\ts1578\TueAug212:01:582022TueAug212:01:582022\0\\#,ProcedureUnspecified,BasisUnspecified,\\1,1\C\C,1,1.40761\H,2,1.08323,1,118.801\C,2,1.39114,1,121.295,3,-180,0\H,4,1.0798,2,120.351,1,-180,0\C,4,1.38593,2,118.932,1,-0,0\H,6,1.08088,4,120.383,2,180,0\C,6,1.40405,4,120.338,2,0,0\H,8,1.08253,6,119.376,4,-180,0\C,8,1.4001,6,121.487,4,-0,0\C,10,1.42094,8,121.657,6,-180,0\H,11,1.08108,10,119.439,8,0,0\C,11,1.42094,10,121.122,8,-180,0\C,13,1.4001,11,121.657,10,-180,0\H,14,1.08253,13,119.137,11,-0,0\C,14,1.40405,13,121.487,11,-180,0\H,16,1.08088,14,119.278,13,180,0\C,16,1.38593,14,120.338,13,-0,0\H,18,1.0798,16,120.717,14,-180,0\C,18,1.39114,16,118.932,14,-0,0\H,20,1.08323,18,119.904,16,-180,0\C,20,1.40761,18,121.295,16,0,0\C,22,1.4817,20,119.36,18,180,0\H,23,1.10378,22,109.188,20,55.5453,0\H,23,1.10378,22,109.188,20,-55.5453,0\\\@

 Total job time:  75.92s(wall), 1534.94s(cpu) 
 Tue Aug  2 12:01:58 2022

        *************************************************************
        *                                                           *
        *  Thank you very much for using Q-Chem.  Have a nice day.  *
        *                                                           *
        *************************************************************


