 argument  1 = 6-31G.nw



============================== echo of input deck ==============================
echo

start molecule
memory stack 12000 mb heap 1000 mb global 6000 mb

title "Title"
charge 1

geometry units angstroms print xyz autosym
   C        3.66511       -0.78612       -0.00006
   C        2.45321       -1.43882       -0.00007
   C        1.24264       -0.69315       -0.00002
   C        1.27792        0.73302        0.00003
   C        2.51500        1.36722        0.00005
   C        3.69109        0.61879        0.00001
   C        0.00000       -1.35058        0.00003
   C        0.00000        1.51851        0.00005
   C       -1.27792        0.73302        0.00001
   C       -1.24264       -0.69315        0.00006
   C       -2.45321       -1.43882        0.00006
   H       -2.40689       -2.52195        0.00010
   C       -3.66511       -0.78612        0.00002
   C       -3.69109        0.61879       -0.00007
   C       -2.51500        1.36722       -0.00008
   H        0.00000       -2.43780        0.00003
   H        4.59227       -1.34508       -0.00010
   H        2.40689       -2.52195       -0.00013
   H        2.56929        2.45018        0.00009
   H        4.64555        1.13283        0.00003
   H       -0.00001        2.19342        0.86739
   H       -4.59227       -1.34508        0.00003
   H       -4.64555        1.13283       -0.00014
   H       -2.56929        2.45018       -0.00016
   H        0.00001        2.19350       -0.86725
end

basis
  * library 6-31+G
end

dft
  xc b3lyp
  mult 1
end

tddft
  cis
  nroots 3
  notriplet
  target 1
  civecs
  grad
    root 1
  end
end

task tddft optimize

================================================================================


                                         
                                         


             Northwest Computational Chemistry Package (NWChem) 7.0.0
             --------------------------------------------------------


                    Environmental Molecular Sciences Laboratory
                       Pacific Northwest National Laboratory
                                Richland, WA 99352

                              Copyright (c) 1994-2019
                       Pacific Northwest National Laboratory
                            Battelle Memorial Institute

             NWChem is an open-source computational chemistry package
                        distributed under the terms of the
                      Educational Community License (ECL) 2.0
             A copy of the license is included with this distribution
                              in the LICENSE.TXT file

                                  ACKNOWLEDGMENT
                                  --------------

            This software and its documentation were developed at the
            EMSL at Pacific Northwest National Laboratory, a multiprogram
            national laboratory, operated for the U.S. Department of Energy
            by Battelle under Contract Number DE-AC05-76RL01830. Support
            for this work was provided by the Department of Energy Office
            of Biological and Environmental Research, Office of Basic
            Energy Sciences, and the Office of Advanced Scientific Computing.


           Job information
           ---------------

    hostname        = etalon
    program         = nwchem
    date            = Thu Aug  5 14:59:48 2021

    compiled        = Mon_Mar_09_19:57:00_2020
    source          = /build/nwchem-24Ysn1/nwchem-7.0.0
    nwchem branch   = 7.0.0
    nwchem revision = N/A
    ga revision     = 5.7.1
    use scalapack   = T
    input           = 6-31G.nw
    prefix          = molecule.
    data base       = ./molecule.db
    status          = startup
    nproc           =        1
    time left       =     -1s



           Memory information
           ------------------

    heap     =  131071996 doubles =   1000.0 Mbytes
    stack    = 1572864001 doubles =  12000.0 Mbytes
    global   =  786432000 doubles =   6000.0 Mbytes (distinct from heap & stack)
    total    = 2490367997 doubles =  19000.0 Mbytes
    verify   = yes
    hardfail = no 


           Directory information
           ---------------------

  0 permanent = .
  0 scratch   = .




                                NWChem Input Module
                                -------------------


                                       Title
                                       -----

 Scaling coordinates for geometry "geometry" by  1.889725989
 (inverse scale =  0.529177249)

 C2V symmetry detected

          ------
          auto-z
          ------
  no constraints, skipping    0.0000000000000000     
  no constraints, skipping    0.0000000000000000     


                             Geometry "geometry" -> ""
                             -------------------------

 Output coordinates in angstroms (scale by  1.889725989 to convert to a.u.)

  No.       Tag          Charge          X              Y              Z
 ---- ---------------- ---------- -------------- -------------- --------------
    1 C                    6.0000    -3.66511000     0.00000000    -0.78611937
    2 C                    6.0000    -2.45321000     0.00000000    -1.43881937
    3 C                    6.0000    -1.24264000     0.00000000    -0.69314937
    4 C                    6.0000    -1.27792000     0.00000000     0.73302063
    5 C                    6.0000    -2.51500000     0.00000000     1.36722063
    6 C                    6.0000    -3.69109000     0.00000000     0.61879063
    7 C                    6.0000     0.00000000     0.00000000    -1.35057937
    8 C                    6.0000     0.00000000     0.00000000     1.51851063
    9 C                    6.0000     1.27792000     0.00000000     0.73302063
   10 C                    6.0000     1.24264000     0.00000000    -0.69314937
   11 C                    6.0000     2.45321000     0.00000000    -1.43881937
   12 H                    1.0000     2.40689000     0.00000000    -2.52194937
   13 C                    6.0000     3.66511000     0.00000000    -0.78611937
   14 C                    6.0000     3.69109000     0.00000000     0.61879063
   15 C                    6.0000     2.51500000     0.00000000     1.36722063
   16 H                    1.0000     0.00000000     0.00000000    -2.43779937
   17 H                    1.0000    -4.59227000     0.00000000    -1.34507937
   18 H                    1.0000    -2.40689000     0.00000000    -2.52194937
   19 H                    1.0000    -2.56929000     0.00000000     2.45018063
   20 H                    1.0000    -4.64555000     0.00000000     1.13283063
   21 H                    1.0000     0.00000000     0.86732000     2.19346063
   22 H                    1.0000     4.59227000     0.00000000    -1.34507937
   23 H                    1.0000     4.64555000     0.00000000     1.13283063
   24 H                    1.0000     2.56929000     0.00000000     2.45018063
   25 H                    1.0000     0.00000000    -0.86732000     2.19346063

      Atomic Mass 
      ----------- 

      C                 12.000000
      H                  1.007825


 Effective nuclear repulsion energy (a.u.)     779.7166615061

            Nuclear Dipole moment (a.u.) 
            ----------------------------
        X                 Y               Z
 ---------------- ---------------- ----------------
     0.0000000000     0.0000000000     0.0000000000

      Symmetry information
      --------------------

 Group name             C2v       
 Group number             16
 Group order               4
 No. of unique centers    14

      Symmetry unique atoms

     1    2    3    4    5    6    7    8   12   16   17   19   20   21



                                Z-matrix (autoz)
                                -------- 

 Units are Angstrom for bonds and degrees for angles

      Type          Name      I     J     K     L     M      Value
      ----------- --------  ----- ----- ----- ----- ----- ----------
    1 Stretch                  1     2                       1.37649
    2 Stretch                  1     6                       1.40515
    3 Stretch                  1    17                       1.08262
    4 Stretch                  2     3                       1.42180
    5 Stretch                  2    18                       1.08412
    6 Stretch                  3     4                       1.42661
    7 Stretch                  3     7                       1.40583
    8 Stretch                  4     5                       1.39017
    9 Stretch                  4     8                       1.50002
   10 Stretch                  5     6                       1.39404
   11 Stretch                  5    19                       1.08432
   12 Stretch                  6    20                       1.08408
   13 Stretch                  7    10                       1.40583
   14 Stretch                  7    16                       1.08722
   15 Stretch                  8     9                       1.50002
   16 Stretch                  8    21                       1.09900
   17 Stretch                  8    25                       1.09900
   18 Stretch                  9    10                       1.42661
   19 Stretch                  9    15                       1.39017
   20 Stretch                 10    11                       1.42180
   21 Stretch                 11    12                       1.08412
   22 Stretch                 11    13                       1.37649
   23 Stretch                 13    14                       1.40515
   24 Stretch                 13    22                       1.08262
   25 Stretch                 14    15                       1.39404
   26 Stretch                 14    23                       1.08408
   27 Stretch                 15    24                       1.08432
   28 Bend                     1     2     3               120.06251
   29 Bend                     1     2    18               120.75459
   30 Bend                     1     6     5               121.41210
   31 Bend                     1     6    20               119.36482
   32 Bend                     2     1     6               119.36524
   33 Bend                     2     1    17               120.60952
   34 Bend                     2     3     4               120.21459
   35 Bend                     2     3     7               120.48686
   36 Bend                     3     2    18               119.18290
   37 Bend                     3     4     5               118.55942
   38 Bend                     3     4     8               120.16043
   39 Bend                     3     7    10               124.23703
   40 Bend                     3     7    16               117.88149
   41 Bend                     4     3     7               119.29856
   42 Bend                     4     5     6               120.38615
   43 Bend                     4     5    19               120.01225
   44 Bend                     4     8     9               116.84500
   45 Bend                     4     8    21               108.75972
   46 Bend                     4     8    25               108.75972
   47 Bend                     5     4     8               121.28015
   48 Bend                     5     6    20               119.22308
   49 Bend                     6     1    17               120.02524
   50 Bend                     6     5    19               119.60161
   51 Bend                     7    10     9               119.29856
   52 Bend                     7    10    11               120.48686
   53 Bend                     8     9    10               120.16043
   54 Bend                     8     9    15               121.28015
   55 Bend                     9     8    21               108.75972
   56 Bend                     9     8    25               108.75972
   57 Bend                     9    10    11               120.21459
   58 Bend                     9    15    14               120.38615
   59 Bend                     9    15    24               120.01225
   60 Bend                    10     7    16               117.88149
   61 Bend                    10     9    15               118.55942
   62 Bend                    10    11    12               119.18290
   63 Bend                    10    11    13               120.06251
   64 Bend                    11    13    14               119.36524
   65 Bend                    11    13    22               120.60952
   66 Bend                    12    11    13               120.75459
   67 Bend                    13    14    15               121.41210
   68 Bend                    13    14    23               119.36482
   69 Bend                    14    13    22               120.02524
   70 Bend                    14    15    24               119.60161
   71 Bend                    15    14    23               119.22308
   72 Bend                    21     8    25               104.21976
   73 Torsion                  1     2     3     4           0.00000
   74 Torsion                  1     2     3     7         180.00000
   75 Torsion                  1     6     5     4           0.00000
   76 Torsion                  1     6     5    19         180.00000
   77 Torsion                  2     1     6     5           0.00000
   78 Torsion                  2     1     6    20         180.00000
   79 Torsion                  2     3     4     5           0.00000
   80 Torsion                  2     3     4     8         180.00000
   81 Torsion                  2     3     7    10         180.00000
   82 Torsion                  2     3     7    16           0.00000
   83 Torsion                  3     2     1     6           0.00000
   84 Torsion                  3     2     1    17         180.00000
   85 Torsion                  3     4     5     6          -0.00000
   86 Torsion                  3     4     5    19         180.00000
   87 Torsion                  3     4     8     9           0.00000
   88 Torsion                  3     4     8    21         123.54340
   89 Torsion                  3     4     8    25        -123.54340
   90 Torsion                  3     7    10     9           0.00000
   91 Torsion                  3     7    10    11         180.00000
   92 Torsion                  4     3     2    18         180.00000
   93 Torsion                  4     3     7    10           0.00000
   94 Torsion                  4     3     7    16         180.00000
   95 Torsion                  4     5     6    20         180.00000
   96 Torsion                  4     8     9    10           0.00000
   97 Torsion                  4     8     9    15         180.00000
   98 Torsion                  5     4     3     7         180.00000
   99 Torsion                  5     4     8     9         180.00000
  100 Torsion                  5     4     8    21         -56.45660
  101 Torsion                  5     4     8    25          56.45660
  102 Torsion                  5     6     1    17         180.00000
  103 Torsion                  6     1     2    18         180.00000
  104 Torsion                  6     5     4     8         180.00000
  105 Torsion                  7     3     2    18           0.00000
  106 Torsion                  7     3     4     8           0.00000
  107 Torsion                  7    10     9     8           0.00000
  108 Torsion                  7    10     9    15         180.00000
  109 Torsion                  7    10    11    12           0.00000
  110 Torsion                  7    10    11    13         180.00000
  111 Torsion                  8     4     5    19           0.00000
  112 Torsion                  8     9    10    11         180.00000
  113 Torsion                  8     9    15    14         180.00000
  114 Torsion                  8     9    15    24           0.00000
  115 Torsion                  9    10     7    16         180.00000
  116 Torsion                  9    10    11    12         180.00000
  117 Torsion                  9    10    11    13          -0.00000
  118 Torsion                  9    15    14    13           0.00000
  119 Torsion                  9    15    14    23         180.00000
  120 Torsion                 10     9     8    21        -123.54340
  121 Torsion                 10     9     8    25         123.54340
  122 Torsion                 10     9    15    14           0.00000
  123 Torsion                 10     9    15    24         180.00000
  124 Torsion                 10    11    13    14           0.00000
  125 Torsion                 10    11    13    22         180.00000
  126 Torsion                 11    10     7    16           0.00000
  127 Torsion                 11    10     9    15           0.00000
  128 Torsion                 11    13    14    15           0.00000
  129 Torsion                 11    13    14    23         180.00000
  130 Torsion                 12    11    13    14         180.00000
  131 Torsion                 12    11    13    22           0.00000
  132 Torsion                 13    14    15    24         180.00000
  133 Torsion                 15     9     8    21          56.45660
  134 Torsion                 15     9     8    25         -56.45660
  135 Torsion                 15    14    13    22         180.00000
  136 Torsion                 17     1     2    18           0.00000
  137 Torsion                 17     1     6    20           0.00000
  138 Torsion                 19     5     6    20           0.00000
  139 Torsion                 22    13    14    23           0.00000
  140 Torsion                 23    14    15    24           0.00000


            XYZ format geometry
            -------------------
    25
 geometry
 C                    -3.66511000     0.00000000    -0.78611937
 C                    -2.45321000     0.00000000    -1.43881937
 C                    -1.24264000     0.00000000    -0.69314937
 C                    -1.27792000     0.00000000     0.73302063
 C                    -2.51500000     0.00000000     1.36722063
 C                    -3.69109000     0.00000000     0.61879063
 C                     0.00000000     0.00000000    -1.35057937
 C                     0.00000000     0.00000000     1.51851063
 C                     1.27792000     0.00000000     0.73302063
 C                     1.24264000     0.00000000    -0.69314937
 C                     2.45321000     0.00000000    -1.43881937
 H                     2.40689000     0.00000000    -2.52194937
 C                     3.66511000     0.00000000    -0.78611937
 C                     3.69109000     0.00000000     0.61879063
 C                     2.51500000     0.00000000     1.36722063
 H                     0.00000000     0.00000000    -2.43779937
 H                    -4.59227000     0.00000000    -1.34507937
 H                    -2.40689000     0.00000000    -2.52194937
 H                    -2.56929000     0.00000000     2.45018063
 H                    -4.64555000     0.00000000     1.13283063
 H                     0.00000000     0.86732000     2.19346063
 H                     4.59227000     0.00000000    -1.34507937
 H                     4.64555000     0.00000000     1.13283063
 H                     2.56929000     0.00000000     2.45018063
 H                     0.00000000    -0.86732000     2.19346063

 ==============================================================================
                                internuclear distances
 ------------------------------------------------------------------------------
       center one      |      center two      | atomic units |  angstroms
 ------------------------------------------------------------------------------
    2 C                |   1 C                |     2.60118  |     1.37649
    3 C                |   2 C                |     2.68680  |     1.42180
    4 C                |   3 C                |     2.69590  |     1.42661
    5 C                |   4 C                |     2.62704  |     1.39017
    6 C                |   1 C                |     2.65535  |     1.40515
    6 C                |   5 C                |     2.63435  |     1.39404
    7 C                |   3 C                |     2.65664  |     1.40583
    8 C                |   4 C                |     2.83464  |     1.50002
    9 C                |   8 C                |     2.83464  |     1.50002
   10 C                |   7 C                |     2.65664  |     1.40583
   10 C                |   9 C                |     2.69590  |     1.42661
   11 C                |  10 C                |     2.68680  |     1.42180
   12 H                |  11 C                |     2.04869  |     1.08412
   13 C                |  11 C                |     2.60118  |     1.37649
   14 C                |  13 C                |     2.65535  |     1.40515
   15 C                |   9 C                |     2.62704  |     1.39017
   15 C                |  14 C                |     2.63435  |     1.39404
   16 H                |   7 C                |     2.05455  |     1.08722
   17 H                |   1 C                |     2.04585  |     1.08262
   18 H                |   2 C                |     2.04869  |     1.08412
   19 H                |   5 C                |     2.04907  |     1.08432
   20 H                |   6 C                |     2.04862  |     1.08408
   21 H                |   8 C                |     2.07681  |     1.09900
   22 H                |  13 C                |     2.04585  |     1.08262
   23 H                |  14 C                |     2.04862  |     1.08408
   24 H                |  15 C                |     2.04907  |     1.08432
   25 H                |   8 C                |     2.07681  |     1.09900
 ------------------------------------------------------------------------------
                         number of included internuclear distances:         27
 ==============================================================================



 ==============================================================================
                                 internuclear angles
 ------------------------------------------------------------------------------
        center 1       |       center 2       |       center 3       |  degrees
 ------------------------------------------------------------------------------
    2 C                |   1 C                |   6 C                |   119.37
    2 C                |   1 C                |  17 H                |   120.61
    6 C                |   1 C                |  17 H                |   120.03
    1 C                |   2 C                |   3 C                |   120.06
    1 C                |   2 C                |  18 H                |   120.75
    3 C                |   2 C                |  18 H                |   119.18
    2 C                |   3 C                |   4 C                |   120.21
    2 C                |   3 C                |   7 C                |   120.49
    4 C                |   3 C                |   7 C                |   119.30
    3 C                |   4 C                |   5 C                |   118.56
    3 C                |   4 C                |   8 C                |   120.16
    5 C                |   4 C                |   8 C                |   121.28
    4 C                |   5 C                |   6 C                |   120.39
    4 C                |   5 C                |  19 H                |   120.01
    6 C                |   5 C                |  19 H                |   119.60
    1 C                |   6 C                |   5 C                |   121.41
    1 C                |   6 C                |  20 H                |   119.36
    5 C                |   6 C                |  20 H                |   119.22
    3 C                |   7 C                |  10 C                |   124.24
    3 C                |   7 C                |  16 H                |   117.88
   10 C                |   7 C                |  16 H                |   117.88
    4 C                |   8 C                |   9 C                |   116.85
    4 C                |   8 C                |  21 H                |   108.76
    4 C                |   8 C                |  25 H                |   108.76
    9 C                |   8 C                |  21 H                |   108.76
    9 C                |   8 C                |  25 H                |   108.76
   21 H                |   8 C                |  25 H                |   104.22
    8 C                |   9 C                |  10 C                |   120.16
    8 C                |   9 C                |  15 C                |   121.28
   10 C                |   9 C                |  15 C                |   118.56
    7 C                |  10 C                |   9 C                |   119.30
    7 C                |  10 C                |  11 C                |   120.49
    9 C                |  10 C                |  11 C                |   120.21
   10 C                |  11 C                |  12 H                |   119.18
   10 C                |  11 C                |  13 C                |   120.06
   12 H                |  11 C                |  13 C                |   120.75
   11 C                |  13 C                |  14 C                |   119.37
   11 C                |  13 C                |  22 H                |   120.61
   14 C                |  13 C                |  22 H                |   120.03
   13 C                |  14 C                |  15 C                |   121.41
   13 C                |  14 C                |  23 H                |   119.36
   15 C                |  14 C                |  23 H                |   119.22
    9 C                |  15 C                |  14 C                |   120.39
    9 C                |  15 C                |  24 H                |   120.01
   14 C                |  15 C                |  24 H                |   119.60
 ------------------------------------------------------------------------------
                            number of included internuclear angles:         45
 ==============================================================================





 Summary of "ao basis" -> "" (cartesian)
 ------------------------------------------------------------------------------
       Tag                 Description            Shells   Functions and Types
 ---------------- ------------------------------  ------  ---------------------
 *                           6-31+G                   on all atoms 


 tddft_input: filename not found; default name will be used


                           NWChem Geometry Optimization
                           ----------------------------




                                       Title


  no constraints, skipping    0.0000000000000000     
 maximum gradient threshold         (gmax) =   0.000450
 rms gradient threshold             (grms) =   0.000300
 maximum cartesian step threshold   (xmax) =   0.001800
 rms cartesian step threshold       (xrms) =   0.001200
 fixed trust radius                (trust) =   0.300000
 maximum step size to saddle      (sadstp) =   0.100000
 energy precision                  (eprec) =   1.0D-07
 maximum number of steps          (nptopt) =   20
 initial hessian option           (inhess) =    0
 line search option               (linopt) =    1
 hessian update option            (modupd) =    1
 saddle point option              (modsad) =    0
 initial eigen-mode to follow     (moddir) =    0
 initial variable to follow       (vardir) =    0
 follow first negative mode     (firstneg) =    T
 apply conjugacy                    (opcg) =    F
 source of zmatrix                         =   autoz   


          -------------------
          Energy Minimization
          -------------------


 Names of Z-matrix variables 
    1              2              3              4              5         
    6              7              8              9             10         
   11             12             13             14             15         
   16             17             18             19             20         
   21             22             23             24             25         
   26             27             28             29             30         
   31             32             33             34             35         
   36             37             38             39             40         
   41             42             43             44             45         
   46             47             48             49             50         
   51             52             53             54             55         
   56             57             58             59             60         
   61             62             63             64             65         
   66             67             68             69             70         
   71             72             73             74             75         
   76             77             78             79             80         
   81             82             83             84             85         
   86             87             88             89             90         
   91             92             93             94             95         
   96             97             98             99            100         
  101            102            103            104            105         
  106            107            108            109            110         
  111            112            113            114            115         
  116            117            118            119            120         
  121            122            123            124            125         
  126            127            128            129            130         
  131            132            133            134            135         
  136            137            138            139            140         

 Variables with the same non-blank name are constrained to be equal


 Using old Hessian from previous optimization

          --------
          Step   0
          --------


                         Geometry "geometry" -> "geometry"
                         ---------------------------------

 Output coordinates in angstroms (scale by  1.889725989 to convert to a.u.)

  No.       Tag          Charge          X              Y              Z
 ---- ---------------- ---------- -------------- -------------- --------------
    1 C                    6.0000    -3.66511000     0.00000000    -0.78611937
    2 C                    6.0000    -2.45321000     0.00000000    -1.43881937
    3 C                    6.0000    -1.24264000     0.00000000    -0.69314937
    4 C                    6.0000    -1.27792000     0.00000000     0.73302063
    5 C                    6.0000    -2.51500000     0.00000000     1.36722063
    6 C                    6.0000    -3.69109000     0.00000000     0.61879063
    7 C                    6.0000     0.00000000     0.00000000    -1.35057937
    8 C                    6.0000     0.00000000     0.00000000     1.51851063
    9 C                    6.0000     1.27792000     0.00000000     0.73302063
   10 C                    6.0000     1.24264000     0.00000000    -0.69314937
   11 C                    6.0000     2.45321000     0.00000000    -1.43881937
   12 H                    1.0000     2.40689000     0.00000000    -2.52194937
   13 C                    6.0000     3.66511000     0.00000000    -0.78611937
   14 C                    6.0000     3.69109000     0.00000000     0.61879063
   15 C                    6.0000     2.51500000     0.00000000     1.36722063
   16 H                    1.0000     0.00000000     0.00000000    -2.43779937
   17 H                    1.0000    -4.59227000     0.00000000    -1.34507937
   18 H                    1.0000    -2.40689000     0.00000000    -2.52194937
   19 H                    1.0000    -2.56929000     0.00000000     2.45018063
   20 H                    1.0000    -4.64555000     0.00000000     1.13283063
   21 H                    1.0000     0.00000000     0.86732000     2.19346063
   22 H                    1.0000     4.59227000     0.00000000    -1.34507937
   23 H                    1.0000     4.64555000     0.00000000     1.13283063
   24 H                    1.0000     2.56929000     0.00000000     2.45018063
   25 H                    1.0000     0.00000000    -0.86732000     2.19346063

      Atomic Mass 
      ----------- 

      C                 12.000000
      H                  1.007825


 Effective nuclear repulsion energy (a.u.)     779.7166615061

            Nuclear Dipole moment (a.u.) 
            ----------------------------
        X                 Y               Z
 ---------------- ---------------- ----------------
     0.0000000000     0.0000000000     0.0000000000

      Symmetry information
      --------------------

 Group name             C2v       
 Group number             16
 Group order               4
 No. of unique centers    14

      Symmetry unique atoms

     1    2    3    4    5    6    7    8   12   16   17   19   20   21


                                 NWChem DFT Module
                                 -----------------


                                       Title


                      Basis "ao basis" -> "ao basis" (cartesian)
                      -----
  C (Carbon)
  ----------
            Exponent  Coefficients 
       -------------- ---------------------------------------------------------
  1 S  3.04752490E+03  0.001835
  1 S  4.57369510E+02  0.014037
  1 S  1.03948690E+02  0.068843
  1 S  2.92101550E+01  0.232184
  1 S  9.28666300E+00  0.467941
  1 S  3.16392700E+00  0.362312

  2 S  7.86827240E+00 -0.119332
  2 S  1.88128850E+00 -0.160854
  2 S  5.44249300E-01  1.143456

  3 P  7.86827240E+00  0.068999
  3 P  1.88128850E+00  0.316424
  3 P  5.44249300E-01  0.744308

  4 S  1.68714400E-01  1.000000

  5 P  1.68714400E-01  1.000000

  6 S  4.38000000E-02  1.000000

  7 P  4.38000000E-02  1.000000

  H (Hydrogen)
  ------------
            Exponent  Coefficients 
       -------------- ---------------------------------------------------------
  1 S  1.87311370E+01  0.033495
  1 S  2.82539370E+00  0.234727
  1 S  6.40121700E-01  0.813757

  2 S  1.61277800E-01  1.000000



 Summary of "ao basis" -> "ao basis" (cartesian)
 ------------------------------------------------------------------------------
       Tag                 Description            Shells   Functions and Types
 ---------------- ------------------------------  ------  ---------------------
 C                           6-31+G                  7       13   4s3p
 H                           6-31+G                  2        2   2s




 Summary of "ao basis" -> "ao basis" (cartesian)
 ------------------------------------------------------------------------------
       Tag                 Description            Shells   Functions and Types
 ---------------- ------------------------------  ------  ---------------------
 C                           6-31+G                  7       13   4s3p
 H                           6-31+G                  2        2   2s


      Symmetry analysis of basis
      --------------------------

        a1         86
        a2         18
        b1         74
        b2         26

  Caching 1-el integrals 

            General Information
            -------------------
          SCF calculation type: DFT
          Wavefunction type:  closed shell.
          No. of atoms     :    25
          No. of electrons :    94
           Alpha electrons :    47
            Beta electrons :    47
          Charge           :     1
          Spin multiplicity:     1
          Use of symmetry is: off; symmetry adaption is: on 
          Maximum number of iterations:  30
          AO basis - number of functions:   204
                     number of shells:   120
          Convergence on energy requested:  1.00D-06
          Convergence on density requested:  1.00D-05
          Convergence on gradient requested:  5.00D-04

              XC Information
              --------------
                         B3LYP Method XC Potential
                     Hartree-Fock (Exact) Exchange  0.200          
                        Slater Exchange Functional  0.800 local    
                    Becke 1988 Exchange Functional  0.720 non-local
              Lee-Yang-Parr Correlation Functional  0.810          
                  VWN I RPA Correlation Functional  0.190 local    

             Grid Information
             ----------------
          Grid used for XC integration:  medium    
          Radial quadrature: Mura-Knowles        
          Angular quadrature: Lebedev. 
          Tag              B.-S. Rad. Rad. Pts. Rad. Cut. Ang. Pts.
          ---              ---------- --------- --------- ---------
          C                   0.70       49          19.0       434
          H                   0.35       45          20.0       434
          Grid pruning is: on 
          Number of quadrature shells:  1181
          Spatial weights used:  Erf1

          Convergence Information
          -----------------------
          Convergence aids based upon iterative change in 
          total energy or number of iterations. 
          Levelshifting, if invoked, occurs when the 
          HOMO/LUMO gap drops below (HL_TOL):  1.00D-02
          DIIS, if invoked, will attempt to extrapolate 
          using up to (NFOCK): 10 stored Fock matrices.

                    Damping( 0%)  Levelshifting(0.5)       DIIS
                  --------------- ------------------- ---------------
          dE  on:    start            ASAP                start   
          dE off:    2 iters         30 iters            30 iters 


      Screening Tolerance Information
      -------------------------------
          Density screening/tol_rho:  1.00D-10
          AO Gaussian exp screening on grid/accAOfunc:  14
          CD Gaussian exp screening on grid/accCDfunc:  20
          XC Gaussian exp screening on grid/accXCfunc:  20
          Schwarz screening/accCoul:  1.00D-08


 WARNING : Found    10 linear dependencies 
 S eigenvalue threshold:     1.00000E-05
 Smallest S eigenvalue :     1.20832E-07
 Largest  S eigenvalue :     7.35020E-06


 !! The overlap matrix has  10 vectors deemed linearly dependent with
    eigenvalues:
 1.21D-07 1.46D-07 5.17D-07 8.04D-07 9.35D-07 1.40D-06 2.78D-06 4.62D-06
 7.32D-06 7.35D-06


      Superposition of Atomic Density Guess
      -------------------------------------

 Sum of atomic energies:        -532.76944081

 Renormalizing density from      95.00 to     94

      Non-variational initial energy
      ------------------------------

 Total energy =    -539.265428
 1-e energy   =   -2237.967450
 2-e energy   =     918.985361
 HOMO         =      -0.476226
 LUMO         =      -0.336301


      Symmetry analysis of molecular orbitals - initial
      -------------------------------------------------

  Numbering of irreducible representations: 

     1 a1          2 a2          3 b1          4 b2      

  Orbital symmetries:

     1 a1          2 b1          3 a1          4 b1          5 a1      
     6 a1          7 b1          8 a1          9 b1         10 a1      
    11 b1         12 a1         13 b1         14 a1         15 a1      
    16 b1         17 a1         18 a1         19 b1         20 b1      
    21 a1         22 a1         23 b1         24 a1         25 b1      
    26 a1         27 b1         28 a1         29 b1         30 b2      
    31 a1         32 a1         33 b1         34 b1         35 a1      
    36 b1         37 a2         38 b2         39 a1         40 a1      
    41 b1         42 b2         43 b1         44 a1         45 a2      
    46 a2         47 b2         48 b2         49 a2         50 b2      
    51 a2         52 b2         53 a1         54 b1         55 a1      
    56 a1         57 b2      

   Time after variat. SCF:     33.5
   Time prior to 1st pass:     33.5

 Integral file          = ./molecule.aoints.0
 Record size in doubles =  65536        No. of integs per rec  =  43688
 Max. records in memory =   2191        Max. records in file   =  19197
 No. of bits per label  =      8        No. of bits per value  =     64


 #quartets = 1.960D+07 #integrals = 9.752D+07 #direct =  0.0% #cached =100.0%


 Grid_pts file          = ./molecule.gridpts.0
 Record size in doubles =  12289        No. of grid_pts per rec  =   3070
 Max. records in memory =    185        Max. recs in file   =    102166

 Grid integrated density:      95.709983540886
 Requested integration accuracy:   0.10E-05

 !! scf_movecs_sym_adapt:  154 vectors were symmetry contaminated

  Symmetry fudging

 !! scf_movecs_sym_adapt:   65 vectors were symmetry contaminated


           Memory utilization after 1st SCF pass: 
           Heap Space remaining (MW):        0.00                  18
          Stack Space remaining (MW):     1572.86          1572862036

   convergence    iter        energy       DeltaE   RMS-Dens  Diis-err    time
 ---------------- ----- ----------------- --------- --------- ---------  ------
 d= 0,ls=0.0,diis     1   -540.3893073714 -1.32D+03  4.02D-02  5.28D+00    71.8

 !! scf_movecs_sym_adapt:  151 vectors were symmetry contaminated

  Symmetry fudging

 !! scf_movecs_sym_adapt:   52 vectors were symmetry contaminated

 d= 0,ls=0.0,diis     2   -539.4831248124  9.06D-01  2.59D-02  1.49D+00    82.4

 !! scf_movecs_sym_adapt:  151 vectors were symmetry contaminated

  Symmetry fudging

 !! scf_movecs_sym_adapt:   52 vectors were symmetry contaminated

 d= 0,ls=0.0,diis     3   -539.3757626813  1.07D-01  1.27D-02  2.52D+00    93.0

 !! scf_movecs_sym_adapt:  151 vectors were symmetry contaminated

  Symmetry fudging

 !! scf_movecs_sym_adapt:   60 vectors were symmetry contaminated

 d= 0,ls=0.0,diis     4   -539.7673343062 -3.92D-01  2.36D-03  6.27D-02   103.5

 !! scf_movecs_sym_adapt:  151 vectors were symmetry contaminated

  Symmetry fudging

 !! scf_movecs_sym_adapt:   59 vectors were symmetry contaminated

 d= 0,ls=0.0,diis     5   -539.7740784668 -6.74D-03  1.20D-03  1.49D-02   112.5

 !! scf_movecs_sym_adapt:  144 vectors were symmetry contaminated

  Symmetry fudging

 !! scf_movecs_sym_adapt:   41 vectors were symmetry contaminated

  Resetting Diis
 d= 0,ls=0.0,diis     6   -539.7762535504 -2.18D-03  5.72D-04  1.10D-03   124.7

 !! scf_movecs_sym_adapt:   10 vectors were symmetry contaminated

  Symmetry fudging
 d= 0,ls=0.0,diis     7   -539.7763980653 -1.45D-04  4.17D-04  1.14D-04   136.5

 !! scf_movecs_sym_adapt:   10 vectors were symmetry contaminated

  Symmetry fudging
 d= 0,ls=0.0,diis     8   -539.7763733915  2.47D-05  1.07D-04  2.88D-04   148.8

 !! scf_movecs_sym_adapt:   10 vectors were symmetry contaminated

  Symmetry fudging
 d= 0,ls=0.0,diis     9   -539.7764128721 -3.95D-05  2.36D-05  8.41D-06   160.8

 !! scf_movecs_sym_adapt:   10 vectors were symmetry contaminated

  Symmetry fudging
 d= 0,ls=0.0,diis    10   -539.7764141552 -1.28D-06  6.89D-06  4.18D-07   173.0

 !! scf_movecs_sym_adapt:   10 vectors were symmetry contaminated

  Symmetry fudging
 d= 0,ls=0.0,diis    11   -539.7764142140 -5.87D-08  2.37D-06  5.38D-08   185.1


         Total DFT energy =     -539.776414213984
      One electron energy =    -2257.988311795316
           Coulomb energy =     1018.315265724755
    Exchange-Corr. energy =      -79.820029649492
 Nuclear repulsion energy =      779.716661506069

 Numeric. integr. density =       94.000029345046

     Total iterative time =    151.6s



                  Occupations of the irreducible representations
                  ----------------------------------------------

                     irrep           alpha         beta
                     --------     --------     --------
                     a1               22.0         22.0
                     a2                3.0          3.0
                     b1               18.0         18.0
                     b2                4.0          4.0


                       DFT Final Molecular Orbital Analysis
                       ------------------------------------

 Vector    1  Occ=2.000000D+00  E=-1.040495D+01  Symmetry=a1
              MO Center=  2.4D-14,  1.3D-16, -1.4D+00, r^2= 2.8D-02
   Bfn.  Coefficient  Atom+Function         Bfn.  Coefficient  Atom+Function  
  ----- ------------  ---------------      ----- ------------  ---------------
    79      0.995444   7 C  s                84     -0.049103   7 C  s         
    75     -0.041088   6 C  s               168     -0.041088  14 C  s         
    80      0.038848   7 C  s         

 Vector    2  Occ=2.000000D+00  E=-1.038017D+01  Symmetry=b1
              MO Center=  6.3D-15, -8.9D-29,  7.3D-01, r^2= 1.7D+00
   Bfn.  Coefficient  Atom+Function         Bfn.  Coefficient  Atom+Function  
  ----- ------------  ---------------      ----- ------------  ---------------
    40      0.703695   4 C  s               105     -0.703695   9 C  s         
    49      0.062387   4 C  s               114     -0.062387   9 C  s         
    63     -0.041821   5 C  px              182     -0.041821  15 C  px        
    24      0.040669   2 C  px              141      0.040669  11 C  px        
    39      0.039178   3 C  pz              130     -0.039178  10 C  pz        

 Vector    3  Occ=2.000000D+00  E=-1.038016D+01  Symmetry=a1
              MO Center= -3.7D-13,  1.1D-15,  7.3D-01, r^2= 1.7D+00
   Bfn.  Coefficient  Atom+Function         Bfn.  Coefficient  Atom+Function  
  ----- ------------  ---------------      ----- ------------  ---------------
    40      0.703686   4 C  s               105      0.703686   9 C  s         
    45     -0.036069   4 C  s               110     -0.036069   9 C  s         
    41      0.027282   4 C  s               106      0.027282   9 C  s         

 Vector    4  Occ=2.000000D+00  E=-1.037232D+01  Symmetry=b1
              MO Center=  4.1D-13,  1.4D-24, -6.9D-01, r^2= 1.6D+00
   Bfn.  Coefficient  Atom+Function         Bfn.  Coefficient  Atom+Function  
  ----- ------------  ---------------      ----- ------------  ---------------
    27      0.703614   3 C  s               118     -0.703614  10 C  s         
    24     -0.058145   2 C  px              141     -0.058145  11 C  px        
    36      0.050697   3 C  s               127     -0.050697  10 C  s         
    13      0.034390   1 C  pz               32     -0.034432   3 C  s         
   123      0.034432  10 C  s               158     -0.034390  13 C  pz        

 Vector    5  Occ=2.000000D+00  E=-1.037230D+01  Symmetry=a1
              MO Center= -1.3D-16,  2.1D-22, -6.9D-01, r^2= 1.6D+00
   Bfn.  Coefficient  Atom+Function         Bfn.  Coefficient  Atom+Function  
  ----- ------------  ---------------      ----- ------------  ---------------
    27      0.703598   3 C  s               118      0.703598  10 C  s         
    32     -0.037975   3 C  s               123     -0.037975  10 C  s         
    28      0.027593   3 C  s               119      0.027593  10 C  s         

 Vector    6  Occ=2.000000D+00  E=-1.035942D+01  Symmetry=b1
              MO Center=  1.4D-13, -6.7D-26,  6.2D-01, r^2= 1.4D+01
   Bfn.  Coefficient  Atom+Function         Bfn.  Coefficient  Atom+Function  
  ----- ------------  ---------------      ----- ------------  ---------------
    66      0.703217   6 C  s               159     -0.703217  14 C  s         
    75      0.033288   6 C  s               168     -0.033288  14 C  s         
    71     -0.031667   6 C  s               164      0.031667  14 C  s         
    49     -0.028362   4 C  s               114      0.028362   9 C  s         
    67      0.027033   6 C  s               160     -0.027033  14 C  s         

 Vector    7  Occ=2.000000D+00  E=-1.035942D+01  Symmetry=a1
              MO Center=  5.5D-16,  4.2D-23,  6.2D-01, r^2= 1.4D+01
   Bfn.  Coefficient  Atom+Function         Bfn.  Coefficient  Atom+Function  
  ----- ------------  ---------------      ----- ------------  ---------------
    66      0.703289   6 C  s               159      0.703289  14 C  s         
    71     -0.031439   6 C  s               164     -0.031439  14 C  s         
    67      0.026921   6 C  s                75      0.026875   6 C  s         
   160      0.026921  14 C  s               168      0.026875  14 C  s         
    10     -0.026728   1 C  s               155     -0.026728  13 C  s         

 Vector    8  Occ=2.000000D+00  E=-1.035915D+01  Symmetry=b1
              MO Center=  4.8D-15, -1.6D-27, -1.4D+00, r^2= 6.1D+00
   Bfn.  Coefficient  Atom+Function         Bfn.  Coefficient  Atom+Function  
  ----- ------------  ---------------      ----- ------------  ---------------
    14      0.703267   2 C  s               131     -0.703267  11 C  s         
    89      0.048356   7 C  px               10     -0.043612   1 C  s         
   155      0.043612  13 C  s                19     -0.034493   2 C  s         
   136      0.034493  11 C  s                15      0.027373   2 C  s         
   132     -0.027373  11 C  s         

 Vector    9  Occ=2.000000D+00  E=-1.035915D+01  Symmetry=a1
              MO Center=  3.0D-16, -2.2D-22, -1.4D+00, r^2= 6.1D+00
   Bfn.  Coefficient  Atom+Function         Bfn.  Coefficient  Atom+Function  
  ----- ------------  ---------------      ----- ------------  ---------------
    14      0.703300   2 C  s               131      0.703300  11 C  s         
    19     -0.033303   2 C  s               136     -0.033303  11 C  s         
    10     -0.032727   1 C  s               155     -0.032727  13 C  s         
    15      0.027272   2 C  s               132      0.027272  11 C  s         

 Vector   10  Occ=2.000000D+00  E=-1.035862D+01  Symmetry=a1
              MO Center= -1.6D-18,  3.9D-20,  1.5D+00, r^2= 3.1D-02
   Bfn.  Coefficient  Atom+Function         Bfn.  Coefficient  Atom+Function  
  ----- ------------  ---------------      ----- ------------  ---------------
    92      0.995593   8 C  s                97     -0.058891   8 C  s         
    62      0.049807   5 C  s                88     -0.049598   7 C  s         
   181      0.049807  15 C  s               101     -0.046867   8 C  s         
    93      0.041352   8 C  s                23      0.032404   2 C  s         
   140      0.032404  11 C  s                36     -0.027228   3 C  s         

 Vector   11  Occ=2.000000D+00  E=-1.034745D+01  Symmetry=b1
              MO Center= -1.2D-13, -3.7D-28,  1.4D+00, r^2= 6.4D+00
   Bfn.  Coefficient  Atom+Function         Bfn.  Coefficient  Atom+Function  
  ----- ------------  ---------------      ----- ------------  ---------------
    53      0.703720   5 C  s               172     -0.703720  15 C  s         
   102      0.037833   8 C  px               58     -0.036219   5 C  s         
   177      0.036219  15 C  s                63      0.030746   5 C  px        
   182      0.030746  15 C  px               75     -0.028919   6 C  s         
   168      0.028919  14 C  s                50     -0.028392   4 C  px        

 Vector   12  Occ=2.000000D+00  E=-1.034745D+01  Symmetry=a1
              MO Center= -1.8D-16,  2.3D-22,  1.4D+00, r^2= 6.4D+00
   Bfn.  Coefficient  Atom+Function         Bfn.  Coefficient  Atom+Function  
  ----- ------------  ---------------      ----- ------------  ---------------
    53      0.703702   5 C  s               172      0.703702  15 C  s         
    75     -0.051925   6 C  s               168     -0.051925  14 C  s         
    23      0.036120   2 C  s               140      0.036120  11 C  s         
    58     -0.033865   5 C  s               177     -0.033865  15 C  s         
    54      0.027434   5 C  s               173      0.027434  15 C  s         

 Vector   13  Occ=2.000000D+00  E=-1.034448D+01  Symmetry=b1
              MO Center=  3.9D-14,  3.7D-26, -7.9D-01, r^2= 1.3D+01
   Bfn.  Coefficient  Atom+Function         Bfn.  Coefficient  Atom+Function  
  ----- ------------  ---------------      ----- ------------  ---------------
     1      0.703651   1 C  s               146     -0.703651  13 C  s         
    10      0.049603   1 C  s               155     -0.049603  13 C  s         
     6     -0.033033   1 C  s               151      0.033033  13 C  s         
     2      0.027294   1 C  s               147     -0.027294  13 C  s         
    36     -0.026359   3 C  s               127      0.026359  10 C  s         

 Vector   14  Occ=2.000000D+00  E=-1.034448D+01  Symmetry=a1
              MO Center=  2.2D-15,  3.2D-23, -7.9D-01, r^2= 1.3D+01
   Bfn.  Coefficient  Atom+Function         Bfn.  Coefficient  Atom+Function  
  ----- ------------  ---------------      ----- ------------  ---------------
     1      0.703645   1 C  s               146      0.703645  13 C  s         
     6     -0.033301   1 C  s               151     -0.033301  13 C  s         
    75     -0.031279   6 C  s               168     -0.031279  14 C  s         
     2      0.027206   1 C  s               147      0.027206  13 C  s         

 Vector   15  Occ=2.000000D+00  E=-1.061633D+00  Symmetry=a1
              MO Center= -2.7D-10, -7.1D-12, -1.2D-01, r^2= 4.2D+00
   Bfn.  Coefficient  Atom+Function         Bfn.  Coefficient  Atom+Function  
  ----- ------------  ---------------      ----- ------------  ---------------
    28      0.177938   3 C  s               119      0.177938  10 C  s         
    80      0.162413   7 C  s                41      0.157283   4 C  s         
   106      0.157283   9 C  s                84      0.141992   7 C  s         
   101      0.112530   8 C  s                93      0.108749   8 C  s         
    97      0.107186   8 C  s                15      0.093061   2 C  s         

 Vector   16  Occ=2.000000D+00  E=-1.027309D+00  Symmetry=b1
              MO Center=  4.0D-10, -1.9D-12, -4.7D-02, r^2= 7.8D+00
   Bfn.  Coefficient  Atom+Function         Bfn.  Coefficient  Atom+Function  
  ----- ------------  ---------------      ----- ------------  ---------------
    28      0.136091   3 C  s               119     -0.136091  10 C  s         
    41      0.133138   4 C  s               106     -0.133138   9 C  s         
    15      0.129533   2 C  s               132     -0.129533  11 C  s         
    54      0.126549   5 C  s               173     -0.126549  15 C  s         
    67      0.121527   6 C  s               160     -0.121527  14 C  s         

 Vector   17  Occ=2.000000D+00  E=-9.748555D-01  Symmetry=a1
              MO Center= -9.9D-11, -1.3D-21, -1.7D-01, r^2= 8.8D+00
   Bfn.  Coefficient  Atom+Function         Bfn.  Coefficient  Atom+Function  
  ----- ------------  ---------------      ----- ------------  ---------------
    80      0.207714   7 C  s                67     -0.166439   6 C  s         
   160     -0.166439  14 C  s                 2     -0.140370   1 C  s         
   147     -0.140370  13 C  s                54     -0.123142   5 C  s         
   173     -0.123142  15 C  s                71     -0.115250   6 C  s         
   164     -0.115250  14 C  s                84      0.103879   7 C  s         

 Vector   18  Occ=2.000000D+00  E=-9.632489D-01  Symmetry=a1
              MO Center= -2.0D-10, -3.8D-12,  2.5D-01, r^2= 5.4D+00
   Bfn.  Coefficient  Atom+Function         Bfn.  Coefficient  Atom+Function  
  ----- ------------  ---------------      ----- ------------  ---------------
    93      0.227185   8 C  s                97      0.227672   8 C  s         
    62     -0.206925   5 C  s               181     -0.206925  15 C  s         
   101      0.194714   8 C  s                88      0.188823   7 C  s         
    23     -0.167189   2 C  s               140     -0.167189  11 C  s         
    41      0.148760   4 C  s               106      0.148760   9 C  s         

 Vector   19  Occ=2.000000D+00  E=-9.223017D-01  Symmetry=b1
              MO Center=  1.8D-10,  1.3D-22, -3.4D-02, r^2= 8.3D+00
   Bfn.  Coefficient  Atom+Function         Bfn.  Coefficient  Atom+Function  
  ----- ------------  ---------------      ----- ------------  ---------------
    54     -0.181370   5 C  s               173      0.181370  15 C  s         
    15      0.180418   2 C  s               132     -0.180418  11 C  s         
    58     -0.134094   5 C  s               177      0.134094  15 C  s         
    19      0.131449   2 C  s               136     -0.131449  11 C  s         
    41     -0.104378   4 C  s               106      0.104378   9 C  s         

 Vector   20  Occ=2.000000D+00  E=-9.135716D-01  Symmetry=b1
              MO Center= -9.2D-12, -1.8D-23, -8.5D-02, r^2= 9.3D+00
   Bfn.  Coefficient  Atom+Function         Bfn.  Coefficient  Atom+Function  
  ----- ------------  ---------------      ----- ------------  ---------------
     2      0.167340   1 C  s               147     -0.167340  13 C  s         
    67      0.164301   6 C  s               160     -0.164301  14 C  s         
    28     -0.163355   3 C  s               119      0.163355  10 C  s         
    41     -0.153980   4 C  s               106      0.153980   9 C  s         
    32     -0.132196   3 C  s               123      0.132196  10 C  s         

 Vector   21  Occ=2.000000D+00  E=-8.753636D-01  Symmetry=a1
              MO Center= -6.5D-11,  5.3D-12,  1.3D-01, r^2= 8.9D+00
   Bfn.  Coefficient  Atom+Function         Bfn.  Coefficient  Atom+Function  
  ----- ------------  ---------------      ----- ------------  ---------------
    97      0.201354   8 C  s                93      0.177554   8 C  s         
    15      0.153583   2 C  s               132      0.153583  11 C  s         
    54     -0.149318   5 C  s               173     -0.149318  15 C  s         
    80     -0.144175   7 C  s                58     -0.127733   5 C  s         
   177     -0.127733  15 C  s                19      0.119462   2 C  s         

 Vector   22  Occ=2.000000D+00  E=-8.251507D-01  Symmetry=a1
              MO Center= -2.7D-10,  5.8D-12,  5.7D-02, r^2= 8.7D+00
   Bfn.  Coefficient  Atom+Function         Bfn.  Coefficient  Atom+Function  
  ----- ------------  ---------------      ----- ------------  ---------------
    97      0.193395   8 C  s                80      0.166896   7 C  s         
    93      0.154922   8 C  s                84      0.142323   7 C  s         
    67      0.137289   6 C  s               160      0.137289  14 C  s         
    29      0.133151   3 C  px              120     -0.133151  10 C  px        
    71      0.125927   6 C  s               164      0.125927  14 C  s         

 Vector   23  Occ=2.000000D+00  E=-7.844426D-01  Symmetry=b1
              MO Center= -7.0D-11,  2.7D-12, -7.3D-02, r^2= 9.4D+00
   Bfn.  Coefficient  Atom+Function         Bfn.  Coefficient  Atom+Function  
  ----- ------------  ---------------      ----- ------------  ---------------
    81      0.183696   7 C  px               55      0.145598   5 C  px        
    67     -0.146074   6 C  s               160      0.146074  14 C  s         
   174      0.145598  15 C  px               16     -0.139847   2 C  px        
   133     -0.139847  11 C  px               28     -0.132516   3 C  s         
   119      0.132516  10 C  s                32     -0.120058   3 C  s         

 Vector   24  Occ=2.000000D+00  E=-7.826039D-01  Symmetry=a1
              MO Center= -5.2D-10, -6.5D-12, -1.0D-01, r^2= 6.5D+00
   Bfn.  Coefficient  Atom+Function         Bfn.  Coefficient  Atom+Function  
  ----- ------------  ---------------      ----- ------------  ---------------
    31      0.166550   3 C  pz              122      0.166550  10 C  pz        
    97     -0.162128   8 C  s                44     -0.151469   4 C  pz        
   109     -0.151469   9 C  pz               83      0.145853   7 C  pz        
    54     -0.114043   5 C  s               173     -0.114043  15 C  s         
    96     -0.105524   8 C  pz              185     -0.105079  16 H  s         

 Vector   25  Occ=2.000000D+00  E=-7.599535D-01  Symmetry=b1
              MO Center=  7.0D-10,  2.5D-22, -4.5D-02, r^2= 9.8D+00
   Bfn.  Coefficient  Atom+Function         Bfn.  Coefficient  Atom+Function  
  ----- ------------  ---------------      ----- ------------  ---------------
    58      0.151561   5 C  s               177     -0.151561  15 C  s         
    54      0.148470   5 C  s               173     -0.148470  15 C  s         
    19      0.147652   2 C  s               136     -0.147652  11 C  s         
    15      0.146295   2 C  s               132     -0.146295  11 C  s         
    31     -0.133012   3 C  pz              122      0.133012  10 C  pz        

 Vector   26  Occ=2.000000D+00  E=-7.108646D-01  Symmetry=a1
              MO Center= -1.7D-10,  5.8D-12, -1.0D-01, r^2= 1.1D+01
   Bfn.  Coefficient  Atom+Function         Bfn.  Coefficient  Atom+Function  
  ----- ------------  ---------------      ----- ------------  ---------------
    84      0.209172   7 C  s                97     -0.201330   8 C  s         
    16     -0.158488   2 C  px              133      0.158488  11 C  px        
    55      0.148634   5 C  px              174     -0.148634  15 C  px        
     6      0.132950   1 C  s               151      0.132950  13 C  s         
     2      0.131742   1 C  s               147      0.131742  13 C  s         

 Vector   27  Occ=2.000000D+00  E=-6.900319D-01  Symmetry=b1
              MO Center=  4.0D-10, -1.3D-13, -6.8D-02, r^2= 9.7D+00
   Bfn.  Coefficient  Atom+Function         Bfn.  Coefficient  Atom+Function  
  ----- ------------  ---------------      ----- ------------  ---------------
    81      0.197121   7 C  px               94      0.157129   8 C  px        
    29     -0.141940   3 C  px              120     -0.141940  10 C  px        
     3      0.140660   1 C  px              148      0.140660  13 C  px        
    68      0.134699   6 C  px              161      0.134699  14 C  px        
    57     -0.123500   5 C  pz              176      0.123500  15 C  pz        

 Vector   28  Occ=2.000000D+00  E=-6.735624D-01  Symmetry=a1
              MO Center=  1.5D-10, -5.2D-12, -2.3D-01, r^2= 9.6D+00
   Bfn.  Coefficient  Atom+Function         Bfn.  Coefficient  Atom+Function  
  ----- ------------  ---------------      ----- ------------  ---------------
    62      0.253390   5 C  s               181      0.253390  15 C  s         
    23      0.228218   2 C  s               140      0.228218  11 C  s         
    75     -0.224370   6 C  s               168     -0.224370  14 C  s         
    83      0.203036   7 C  pz               70      0.151003   6 C  pz        
   163      0.151003  14 C  pz                5     -0.142636   1 C  pz        

 Vector   29  Occ=2.000000D+00  E=-6.308633D-01  Symmetry=a1
              MO Center=  1.4D-09, -2.3D-11, -1.8D-01, r^2= 1.2D+01
   Bfn.  Coefficient  Atom+Function         Bfn.  Coefficient  Atom+Function  
  ----- ------------  ---------------      ----- ------------  ---------------
    62      0.416359   5 C  s               181      0.416359  15 C  s         
    23      0.340609   2 C  s               140      0.340609  11 C  s         
    75     -0.242733   6 C  s               168     -0.242733  14 C  s         
    10     -0.227530   1 C  s               155     -0.227530  13 C  s         
    68      0.204694   6 C  px              161     -0.204694  14 C  px        

 Vector   30  Occ=2.000000D+00  E=-6.249943D-01  Symmetry=b1
              MO Center= -1.4D-09,  1.7D-12, -1.5D-01, r^2= 1.1D+01
   Bfn.  Coefficient  Atom+Function         Bfn.  Coefficient  Atom+Function  
  ----- ------------  ---------------      ----- ------------  ---------------
    81      0.210303   7 C  px               31      0.170683   3 C  pz        
   122     -0.170683  10 C  pz               70      0.160797   6 C  pz        
   163     -0.160797  14 C  pz               45      0.147071   4 C  s         
   110     -0.147071   9 C  s               193      0.125697  20 H  s         
   199     -0.125697  23 H  s                18     -0.118629   2 C  pz        

 Vector   31  Occ=2.000000D+00  E=-6.191178D-01  Symmetry=b1
              MO Center= -8.2D-10,  9.8D-14, -8.0D-03, r^2= 1.0D+01
   Bfn.  Coefficient  Atom+Function         Bfn.  Coefficient  Atom+Function  
  ----- ------------  ---------------      ----- ------------  ---------------
     5      0.186179   1 C  pz              150     -0.186179  13 C  pz        
    44      0.180629   4 C  pz              109     -0.180629   9 C  pz        
    94     -0.149419   8 C  px               16      0.147791   2 C  px        
    32     -0.148480   3 C  s               123      0.148480  10 C  s         
   133      0.147791  11 C  px               31     -0.125281   3 C  pz        

 Vector   32  Occ=2.000000D+00  E=-6.147506D-01  Symmetry=a1
              MO Center=  9.8D-10, -1.7D-09, -4.1D-02, r^2= 8.4D+00
   Bfn.  Coefficient  Atom+Function         Bfn.  Coefficient  Atom+Function  
  ----- ------------  ---------------      ----- ------------  ---------------
    23      0.240167   2 C  s               140      0.240167  11 C  s         
    62      0.233620   5 C  s               181      0.233620  15 C  s         
    83     -0.214605   7 C  pz               75     -0.203977   6 C  s         
   168     -0.203977  14 C  s                96     -0.201621   8 C  pz        
    32     -0.176775   3 C  s               123     -0.176775  10 C  s         

 Vector   33  Occ=2.000000D+00  E=-6.145952D-01  Symmetry=b2
              MO Center=  3.7D-17,  1.7D-09,  1.2D+00, r^2= 2.8D+00
   Bfn.  Coefficient  Atom+Function         Bfn.  Coefficient  Atom+Function  
  ----- ------------  ---------------      ----- ------------  ---------------
    95      0.370886   8 C  py               99      0.183567   8 C  py        
   195      0.176817  21 H  s               203     -0.176817  25 H  s         
    43      0.169178   4 C  py              108      0.169178   9 C  py        
    30      0.107926   3 C  py              121      0.107926  10 C  py        
   196      0.098549  21 H  s               204     -0.098549  25 H  s         

 Vector   34  Occ=2.000000D+00  E=-5.888642D-01  Symmetry=b1
              MO Center= -1.1D-10,  1.0D-23,  6.1D-02, r^2= 1.0D+01
   Bfn.  Coefficient  Atom+Function         Bfn.  Coefficient  Atom+Function  
  ----- ------------  ---------------      ----- ------------  ---------------
    57      0.230837   5 C  pz              176     -0.230837  15 C  pz        
    18      0.221132   2 C  pz              135     -0.221132  11 C  pz        
    68     -0.131156   6 C  px              161     -0.131156  14 C  px        
    29     -0.127931   3 C  px              120     -0.127931  10 C  px        
   191      0.125173  19 H  s               201     -0.125173  24 H  s         

 Vector   35  Occ=2.000000D+00  E=-5.811393D-01  Symmetry=a1
              MO Center=  7.7D-11, -1.8D-12, -1.3D-01, r^2= 7.9D+00
   Bfn.  Coefficient  Atom+Function         Bfn.  Coefficient  Atom+Function  
  ----- ------------  ---------------      ----- ------------  ---------------
    83      0.241413   7 C  pz               18     -0.195681   2 C  pz        
   135     -0.195681  11 C  pz               57     -0.191685   5 C  pz        
    96      0.191678   8 C  pz              176     -0.191685  15 C  pz        
   185     -0.143559  16 H  s                42     -0.140600   4 C  px        
   107      0.140600   9 C  px               87      0.128510   7 C  pz        

 Vector   36  Occ=2.000000D+00  E=-5.750316D-01  Symmetry=b1
              MO Center=  1.3D-10,  3.8D-13, -7.1D-02, r^2= 9.1D+00
   Bfn.  Coefficient  Atom+Function         Bfn.  Coefficient  Atom+Function  
  ----- ------------  ---------------      ----- ------------  ---------------
    94      0.229422   8 C  px                3     -0.202758   1 C  px        
    42     -0.203707   4 C  px              107     -0.203707   9 C  px        
   148     -0.202758  13 C  px               29     -0.189877   3 C  px        
   120     -0.189877  10 C  px               81      0.180762   7 C  px        
    16      0.156796   2 C  px              133      0.156796  11 C  px        

 Vector   37  Occ=2.000000D+00  E=-5.598292D-01  Symmetry=a1
              MO Center= -2.9D-10,  5.8D-18,  1.1D-01, r^2= 1.0D+01
   Bfn.  Coefficient  Atom+Function         Bfn.  Coefficient  Atom+Function  
  ----- ------------  ---------------      ----- ------------  ---------------
    62      0.316276   5 C  s               181      0.316276  15 C  s         
    23      0.268803   2 C  s               140      0.268803  11 C  s         
    96      0.218005   8 C  pz                5     -0.207555   1 C  pz        
    88     -0.207345   7 C  s               150     -0.207555  13 C  pz        
    70      0.194855   6 C  pz              163      0.194855  14 C  pz        

 Vector   38  Occ=2.000000D+00  E=-5.386779D-01  Symmetry=b2
              MO Center= -1.0D-09,  1.7D-11, -1.8D-01, r^2= 5.7D+00
   Bfn.  Coefficient  Atom+Function         Bfn.  Coefficient  Atom+Function  
  ----- ------------  ---------------      ----- ------------  ---------------
    82      0.234052   7 C  py               95     -0.232742   8 C  py        
    30      0.215190   3 C  py              121      0.215190  10 C  py        
    17      0.151319   2 C  py              134      0.151319  11 C  py        
   195     -0.130476  21 H  s               203      0.130476  25 H  s         
    99     -0.127178   8 C  py               34      0.119904   3 C  py        

 Vector   39  Occ=2.000000D+00  E=-5.337079D-01  Symmetry=a1
              MO Center=  2.2D-10,  2.6D-12,  7.3D-02, r^2= 1.5D+01
   Bfn.  Coefficient  Atom+Function         Bfn.  Coefficient  Atom+Function  
  ----- ------------  ---------------      ----- ------------  ---------------
    84      0.217195   7 C  s                68     -0.214426   6 C  px        
   161      0.214426  14 C  px                3      0.202156   1 C  px        
   148     -0.202156  13 C  px               16     -0.176023   2 C  px        
   133      0.176023  11 C  px               97     -0.164457   8 C  s         
    55      0.159931   5 C  px              174     -0.159931  15 C  px        

 Vector   40  Occ=2.000000D+00  E=-5.309016D-01  Symmetry=a2
              MO Center=  1.1D-09,  1.0D-12, -1.4D-02, r^2= 8.6D+00
   Bfn.  Coefficient  Atom+Function         Bfn.  Coefficient  Atom+Function  
  ----- ------------  ---------------      ----- ------------  ---------------
    43      0.172993   4 C  py              108     -0.172993   9 C  py        
    30      0.170792   3 C  py              121     -0.170792  10 C  py        
    56      0.162088   5 C  py              175     -0.162088  15 C  py        
    17      0.159472   2 C  py              134     -0.159472  11 C  py        
    69      0.154464   6 C  py              162     -0.154464  14 C  py        

 Vector   41  Occ=2.000000D+00  E=-5.129275D-01  Symmetry=b1
              MO Center=  3.7D-10, -3.2D-22,  8.0D-02, r^2= 1.2D+01
   Bfn.  Coefficient  Atom+Function         Bfn.  Coefficient  Atom+Function  
  ----- ------------  ---------------      ----- ------------  ---------------
     5      0.203958   1 C  pz               70     -0.204240   6 C  pz        
   150     -0.203958  13 C  pz              163      0.204240  14 C  pz        
    57      0.165104   5 C  pz              176     -0.165104  15 C  pz        
    18     -0.158116   2 C  pz              135      0.158116  11 C  pz        
    44     -0.140353   4 C  pz              109      0.140353   9 C  pz        

 Vector   42  Occ=2.000000D+00  E=-4.974097D-01  Symmetry=b1
              MO Center= -6.1D-10,  5.2D-23,  7.4D-02, r^2= 1.1D+01
   Bfn.  Coefficient  Atom+Function         Bfn.  Coefficient  Atom+Function  
  ----- ------------  ---------------      ----- ------------  ---------------
    94      0.236666   8 C  px               55      0.196278   5 C  px        
   174      0.196278  15 C  px               42     -0.188248   4 C  px        
   107     -0.188248   9 C  px               16     -0.181706   2 C  px        
   133     -0.181706  11 C  px               68     -0.176933   6 C  px        
   161     -0.176933  14 C  px               29      0.165916   3 C  px        

 Vector   43  Occ=2.000000D+00  E=-4.953455D-01  Symmetry=a1
              MO Center= -1.6D-11,  2.4D-13,  7.9D-02, r^2= 8.4D+00
   Bfn.  Coefficient  Atom+Function         Bfn.  Coefficient  Atom+Function  
  ----- ------------  ---------------      ----- ------------  ---------------
    31      0.218797   3 C  pz              122      0.218797  10 C  pz        
    44     -0.215362   4 C  pz              109     -0.215362   9 C  pz        
    96      0.186062   8 C  pz               70     -0.145908   6 C  pz        
   163     -0.145908  14 C  pz               57      0.145114   5 C  pz        
   176      0.145114  15 C  pz                5      0.141158   1 C  pz        

 Vector   44  Occ=2.000000D+00  E=-4.682323D-01  Symmetry=b2
              MO Center= -9.2D-11,  1.1D-12, -3.9D-02, r^2= 1.0D+01
   Bfn.  Coefficient  Atom+Function         Bfn.  Coefficient  Atom+Function  
  ----- ------------  ---------------      ----- ------------  ---------------
    82     -0.253207   7 C  py               69      0.234175   6 C  py        
   162      0.234175  14 C  py                4      0.175896   1 C  py        
   149      0.175896  13 C  py               56      0.172495   5 C  py        
   175      0.172495  15 C  py               86     -0.164370   7 C  py        
    30     -0.146699   3 C  py              121     -0.146699  10 C  py        

 Vector   45  Occ=2.000000D+00  E=-4.210444D-01  Symmetry=a2
              MO Center= -3.4D-11, -2.5D-13, -7.0D-02, r^2= 9.0D+00
   Bfn.  Coefficient  Atom+Function         Bfn.  Coefficient  Atom+Function  
  ----- ------------  ---------------      ----- ------------  ---------------
    17      0.235193   2 C  py              134     -0.235193  11 C  py        
    56     -0.221257   5 C  py              175      0.221257  15 C  py        
    43     -0.200833   4 C  py              108      0.200833   9 C  py        
     4      0.187885   1 C  py              149     -0.187885  13 C  py        
    21      0.149294   2 C  py              138     -0.149294  11 C  py        

 Vector   46  Occ=2.000000D+00  E=-4.100439D-01  Symmetry=a2
              MO Center=  1.5D-10, -3.3D-12, -2.4D-02, r^2= 9.3D+00
   Bfn.  Coefficient  Atom+Function         Bfn.  Coefficient  Atom+Function  
  ----- ------------  ---------------      ----- ------------  ---------------
    30      0.256826   3 C  py              121     -0.256826  10 C  py        
    69     -0.246522   6 C  py              162      0.246522  14 C  py        
    34      0.180050   3 C  py              125     -0.180050  10 C  py        
    73     -0.158888   6 C  py              166      0.158888  14 C  py        
     4     -0.157999   1 C  py              149      0.157999  13 C  py        

 Vector   47  Occ=2.000000D+00  E=-4.048287D-01  Symmetry=b2
              MO Center= -5.3D-11, -2.2D-12,  9.2D-02, r^2= 9.2D+00
   Bfn.  Coefficient  Atom+Function         Bfn.  Coefficient  Atom+Function  
  ----- ------------  ---------------      ----- ------------  ---------------
    56      0.222641   5 C  py              175      0.222641  15 C  py        
    17     -0.218558   2 C  py              134     -0.218558  11 C  py        
     4     -0.199954   1 C  py              149     -0.199954  13 C  py        
    43      0.184277   4 C  py              108      0.184277   9 C  py        
    21     -0.150544   2 C  py              138     -0.150544  11 C  py        

 Vector   48  Occ=0.000000D+00  E=-2.794708D-01  Symmetry=b2
              MO Center=  5.1D-12, -2.6D-12, -3.4D-01, r^2= 7.1D+00
   Bfn.  Coefficient  Atom+Function         Bfn.  Coefficient  Atom+Function  
  ----- ------------  ---------------      ----- ------------  ---------------
    82      0.388882   7 C  py               86      0.342015   7 C  py        
    43     -0.213290   4 C  py               69      0.213088   6 C  py        
   108     -0.213290   9 C  py              162      0.213088  14 C  py        
    17     -0.185741   2 C  py              134     -0.185741  11 C  py        
    47     -0.183261   4 C  py              112     -0.183261   9 C  py        

 Vector   49  Occ=0.000000D+00  E=-1.729963D-01  Symmetry=a2
              MO Center= -5.6D-10, -1.4D-11, -5.9D-02, r^2= 9.6D+00
   Bfn.  Coefficient  Atom+Function         Bfn.  Coefficient  Atom+Function  
  ----- ------------  ---------------      ----- ------------  ---------------
    38      0.432041   3 C  py              129     -0.432041  10 C  py        
    51     -0.358371   4 C  py              116      0.358371   9 C  py        
    34      0.325945   3 C  py              125     -0.325945  10 C  py        
    30      0.277155   3 C  py               73      0.277514   6 C  py        
   121     -0.277155  10 C  py              166     -0.277514  14 C  py        

 Vector   50  Occ=0.000000D+00  E=-1.714511D-01  Symmetry=b2
              MO Center=  4.4D-10,  1.9D-12,  2.6D-01, r^2= 1.0D+01
   Bfn.  Coefficient  Atom+Function         Bfn.  Coefficient  Atom+Function  
  ----- ------------  ---------------      ----- ------------  ---------------
    51      0.373287   4 C  py              116      0.373287   9 C  py        
    64     -0.356073   5 C  py              183     -0.356073  15 C  py        
    60     -0.280117   5 C  py              179     -0.280117  15 C  py        
    21     -0.265418   2 C  py              138     -0.265418  11 C  py        
   196     -0.260013  21 H  s               204      0.260013  25 H  s         

 Vector   51  Occ=0.000000D+00  E=-1.572759D-01  Symmetry=a2
              MO Center= -4.7D-11, -7.9D-12, -1.7D-02, r^2= 1.0D+01
   Bfn.  Coefficient  Atom+Function         Bfn.  Coefficient  Atom+Function  
  ----- ------------  ---------------      ----- ------------  ---------------
    64      0.332218   5 C  py              183     -0.332218  15 C  py        
    60      0.302646   5 C  py              179     -0.302646  15 C  py        
    25      0.297632   2 C  py              142     -0.297632  11 C  py        
    21      0.293177   2 C  py              138     -0.293177  11 C  py        
    51     -0.274585   4 C  py              116      0.274585   9 C  py        

 Vector   52  Occ=0.000000D+00  E=-1.123965D-01  Symmetry=a1
              MO Center= -1.5D-09,  6.6D-11, -2.5D-01, r^2= 1.7D+01
   Bfn.  Coefficient  Atom+Function         Bfn.  Coefficient  Atom+Function  
  ----- ------------  ---------------      ----- ------------  ---------------
    62      1.692189   5 C  s               181      1.692189  15 C  s         
    23      1.505982   2 C  s               140      1.505982  11 C  s         
    75     -1.396021   6 C  s               168     -1.396021  14 C  s         
    88     -1.034876   7 C  s                10     -0.998470   1 C  s         
   155     -0.998470  13 C  s               101     -0.925803   8 C  s         

 Vector   53  Occ=0.000000D+00  E=-1.095092D-01  Symmetry=b2
              MO Center=  2.0D-10,  2.1D-11, -4.2D-01, r^2= 1.1D+01
   Bfn.  Coefficient  Atom+Function         Bfn.  Coefficient  Atom+Function  
  ----- ------------  ---------------      ----- ------------  ---------------
    90      0.932242   7 C  py               38     -0.808475   3 C  py        
   129     -0.808475  10 C  py               77     -0.428681   6 C  py        
   170     -0.428681  14 C  py               51      0.387346   4 C  py        
   116      0.387345   9 C  py               12      0.373355   1 C  py        
    86      0.374430   7 C  py              157      0.373355  13 C  py        

[...]
   22 Stretch                 11    13                       1.41469    0.03820
   23 Stretch                 13    14                       1.40005   -0.00510
   24 Stretch                 13    22                       1.08415    0.00153
   25 Stretch                 14    15                       1.40397    0.00993
   26 Stretch                 14    23                       1.08365   -0.00043
   27 Stretch                 15    24                       1.08618    0.00186
   28 Bend                     1     2     3               121.54389    1.48138
   29 Bend                     1     2    18               119.29483   -1.45976
   30 Bend                     1     6     5               119.21109   -2.20101
   31 Bend                     1     6    20               120.55652    1.19170
   32 Bend                     2     1     6               120.02953    0.66429
   33 Bend                     2     1    17               119.54346   -1.06606
   34 Bend                     2     3     4               118.16392   -2.05067
   35 Bend                     2     3     7               121.50114    1.01428
   36 Bend                     3     2    18               119.16128   -0.02162
   37 Bend                     3     4     5               119.83617    1.27675
   38 Bend                     3     4     8               120.78164    0.62121
   39 Bend                     3     7    10               121.14434   -3.09269
   40 Bend                     3     7    16               119.42783    1.54635
   41 Bend                     4     3     7               120.33495    1.03639
   42 Bend                     4     5     6               121.21540    0.82926
   43 Bend                     4     5    19               119.10024   -0.91200
   44 Bend                     4     8     9               116.62250   -0.22250
   45 Bend                     4     8    21               109.02284    0.26312
   46 Bend                     4     8    25               109.02284    0.26312
   47 Bend                     5     4     8               119.38219   -1.89796
   48 Bend                     5     6    20               120.23239    1.00931
   49 Bend                     6     1    17               120.42701    0.40176
   50 Bend                     6     5    19               119.68436    0.08275
   51 Bend                     7    10     9               120.33495    1.03639
   52 Bend                     7    10    11               121.50114    1.01428
   53 Bend                     8     9    10               120.78164    0.62121
   54 Bend                     8     9    15               119.38219   -1.89796
   55 Bend                     9     8    21               109.02284    0.26312
   56 Bend                     9     8    25               109.02284    0.26312
   57 Bend                     9    10    11               118.16392   -2.05067
   58 Bend                     9    15    14               121.21540    0.82926
   59 Bend                     9    15    24               119.10024   -0.91200
   60 Bend                    10     7    16               119.42783    1.54635
   61 Bend                    10     9    15               119.83617    1.27675
   62 Bend                    10    11    12               119.16128   -0.02162
   63 Bend                    10    11    13               121.54389    1.48138
   64 Bend                    11    13    14               120.02953    0.66429
   65 Bend                    11    13    22               119.54346   -1.06606
   66 Bend                    12    11    13               119.29483   -1.45976
   67 Bend                    13    14    15               119.21109   -2.20101
   68 Bend                    13    14    23               120.55652    1.19170
   69 Bend                    14    13    22               120.42701    0.40176
   70 Bend                    14    15    24               119.68436    0.08275
   71 Bend                    15    14    23               120.23239    1.00931
   72 Bend                    21     8    25               103.29650   -0.92326
   73 Torsion                  1     2     3     4           0.00000    0.00000
   74 Torsion                  1     2     3     7         180.00000    0.00000
   75 Torsion                  1     6     5     4           0.00000    0.00000
   76 Torsion                  1     6     5    19         180.00000    0.00000
   77 Torsion                  2     1     6     5           0.00000    0.00000
   78 Torsion                  2     1     6    20         180.00000    0.00000
   79 Torsion                  2     3     4     5           0.00000    0.00000
   80 Torsion                  2     3     4     8         180.00000    0.00000
   81 Torsion                  2     3     7    10         180.00000    0.00000
   82 Torsion                  2     3     7    16           0.00000    0.00000
   83 Torsion                  3     2     1     6           0.00000    0.00000
   84 Torsion                  3     2     1    17         180.00000    0.00000
   85 Torsion                  3     4     5     6          -0.00000    0.00000
   86 Torsion                  3     4     5    19         180.00000    0.00000
   87 Torsion                  3     4     8     9           0.00000    0.00000
   88 Torsion                  3     4     8    21         123.95082    0.40742
   89 Torsion                  3     4     8    25        -123.95082   -0.40742
   90 Torsion                  3     7    10     9           0.00000    0.00000
   91 Torsion                  3     7    10    11         180.00000    0.00000
   92 Torsion                  4     3     2    18         180.00000    0.00000
   93 Torsion                  4     3     7    10           0.00000    0.00000
   94 Torsion                  4     3     7    16         180.00000    0.00000
   95 Torsion                  4     5     6    20         180.00000    0.00000
   96 Torsion                  4     8     9    10           0.00000    0.00000
   97 Torsion                  4     8     9    15         180.00000    0.00000
   98 Torsion                  5     4     3     7         180.00000    0.00000
   99 Torsion                  5     4     8     9         180.00000    0.00000
  100 Torsion                  5     4     8    21         -56.04918    0.40742
  101 Torsion                  5     4     8    25          56.04918   -0.40742
  102 Torsion                  5     6     1    17         180.00000    0.00000
  103 Torsion                  6     1     2    18         180.00000    0.00000
  104 Torsion                  6     5     4     8         180.00000    0.00000
  105 Torsion                  7     3     2    18           0.00000    0.00000
  106 Torsion                  7     3     4     8           0.00000    0.00000
  107 Torsion                  7    10     9     8           0.00000    0.00000
  108 Torsion                  7    10     9    15         180.00000    0.00000
  109 Torsion                  7    10    11    12           0.00000    0.00000
  110 Torsion                  7    10    11    13         180.00000    0.00000
  111 Torsion                  8     4     5    19           0.00000    0.00000
  112 Torsion                  8     9    10    11         180.00000    0.00000
  113 Torsion                  8     9    15    14         180.00000    0.00000
  114 Torsion                  8     9    15    24           0.00000    0.00000
  115 Torsion                  9    10     7    16         180.00000    0.00000
  116 Torsion                  9    10    11    12         180.00000    0.00000
  117 Torsion                  9    10    11    13          -0.00000    0.00000
  118 Torsion                  9    15    14    13           0.00000    0.00000
  119 Torsion                  9    15    14    23         180.00000    0.00000
  120 Torsion                 10     9     8    21        -123.95082   -0.40742
  121 Torsion                 10     9     8    25         123.95082    0.40742
  122 Torsion                 10     9    15    14           0.00000    0.00000
  123 Torsion                 10     9    15    24         180.00000    0.00000
  124 Torsion                 10    11    13    14           0.00000    0.00000
  125 Torsion                 10    11    13    22         180.00000    0.00000
  126 Torsion                 11    10     7    16           0.00000    0.00000
  127 Torsion                 11    10     9    15           0.00000    0.00000
  128 Torsion                 11    13    14    15           0.00000    0.00000
  129 Torsion                 11    13    14    23         180.00000    0.00000
  130 Torsion                 12    11    13    14         180.00000    0.00000
  131 Torsion                 12    11    13    22           0.00000    0.00000
  132 Torsion                 13    14    15    24         180.00000    0.00000
  133 Torsion                 15     9     8    21          56.04918   -0.40742
  134 Torsion                 15     9     8    25         -56.04918    0.40742
  135 Torsion                 15    14    13    22         180.00000    0.00000
  136 Torsion                 17     1     2    18           0.00000    0.00000
  137 Torsion                 17     1     6    20           0.00000    0.00000
  138 Torsion                 19     5     6    20           0.00000    0.00000
  139 Torsion                 22    13    14    23           0.00000    0.00000
  140 Torsion                 23    14    15    24           0.00000    0.00000

 ==============================================================================
                                internuclear distances
 ------------------------------------------------------------------------------
       center one      |      center two      | atomic units |  angstroms
 ------------------------------------------------------------------------------
    2 C                |   1 C                |     2.67337  |     1.41469
    3 C                |   2 C                |     2.67376  |     1.41489
    4 C                |   3 C                |     2.67894  |     1.41764
    5 C                |   4 C                |     2.68810  |     1.42248
    6 C                |   1 C                |     2.64572  |     1.40005
    6 C                |   5 C                |     2.65312  |     1.40397
    7 C                |   3 C                |     2.71857  |     1.43860
    8 C                |   4 C                |     2.83250  |     1.49890
    9 C                |   8 C                |     2.83250  |     1.49890
   10 C                |   7 C                |     2.71857  |     1.43860
   10 C                |   9 C                |     2.67894  |     1.41764
   11 C                |  10 C                |     2.67376  |     1.41489
   12 H                |  11 C                |     2.05222  |     1.08599
   13 C                |  11 C                |     2.67337  |     1.41469
   14 C                |  13 C                |     2.64572  |     1.40005
   15 C                |   9 C                |     2.68810  |     1.42248
   15 C                |  14 C                |     2.65312  |     1.40397
   16 H                |   7 C                |     2.04798  |     1.08374
   17 H                |   1 C                |     2.04874  |     1.08415
   18 H                |   2 C                |     2.05222  |     1.08599
   19 H                |   5 C                |     2.05259  |     1.08618
   20 H                |   6 C                |     2.04781  |     1.08365
   21 H                |   8 C                |     2.09323  |     1.10769
   22 H                |  13 C                |     2.04874  |     1.08415
   23 H                |  14 C                |     2.04781  |     1.08365
   24 H                |  15 C                |     2.05259  |     1.08618
   25 H                |   8 C                |     2.09323  |     1.10769
 ------------------------------------------------------------------------------
                         number of included internuclear distances:         27
 ==============================================================================



 ==============================================================================
                                 internuclear angles
 ------------------------------------------------------------------------------
        center 1       |       center 2       |       center 3       |  degrees
 ------------------------------------------------------------------------------
    2 C                |   1 C                |   6 C                |   120.03
    2 C                |   1 C                |  17 H                |   119.54
    6 C                |   1 C                |  17 H                |   120.43
    1 C                |   2 C                |   3 C                |   121.54
    1 C                |   2 C                |  18 H                |   119.29
    3 C                |   2 C                |  18 H                |   119.16
    2 C                |   3 C                |   4 C                |   118.16
    2 C                |   3 C                |   7 C                |   121.50
    4 C                |   3 C                |   7 C                |   120.33
    3 C                |   4 C                |   5 C                |   119.84
    3 C                |   4 C                |   8 C                |   120.78
    5 C                |   4 C                |   8 C                |   119.38
    4 C                |   5 C                |   6 C                |   121.22
    4 C                |   5 C                |  19 H                |   119.10
    6 C                |   5 C                |  19 H                |   119.68
    1 C                |   6 C                |   5 C                |   119.21
    1 C                |   6 C                |  20 H                |   120.56
    5 C                |   6 C                |  20 H                |   120.23
    3 C                |   7 C                |  10 C                |   121.14
    3 C                |   7 C                |  16 H                |   119.43
   10 C                |   7 C                |  16 H                |   119.43
    4 C                |   8 C                |   9 C                |   116.62
    4 C                |   8 C                |  21 H                |   109.02
    4 C                |   8 C                |  25 H                |   109.02
    9 C                |   8 C                |  21 H                |   109.02
    9 C                |   8 C                |  25 H                |   109.02
   21 H                |   8 C                |  25 H                |   103.30
    8 C                |   9 C                |  10 C                |   120.78
    8 C                |   9 C                |  15 C                |   119.38
   10 C                |   9 C                |  15 C                |   119.84
    7 C                |  10 C                |   9 C                |   120.33
    7 C                |  10 C                |  11 C                |   121.50
    9 C                |  10 C                |  11 C                |   118.16
   10 C                |  11 C                |  12 H                |   119.16
   10 C                |  11 C                |  13 C                |   121.54
   12 H                |  11 C                |  13 C                |   119.29
   11 C                |  13 C                |  14 C                |   120.03
   11 C                |  13 C                |  22 H                |   119.54
   14 C                |  13 C                |  22 H                |   120.43
   13 C                |  14 C                |  15 C                |   119.21
   13 C                |  14 C                |  23 H                |   120.56
   15 C                |  14 C                |  23 H                |   120.23
    9 C                |  15 C                |  14 C                |   121.22
    9 C                |  15 C                |  24 H                |   119.10
   14 C                |  15 C                |  24 H                |   119.68
 ------------------------------------------------------------------------------
                            number of included internuclear angles:         45
 ==============================================================================




 Task  times  cpu:    35102.0s     wall:    16005.2s
 Summary of allocated global arrays
-----------------------------------
  No active global arrays



                         GA Statistics for process    0
                         ------------------------------

       create   destroy   get      put      acc     scatter   gather  read&inc
calls: 6939     6939     1.25e+08 4.07e+06 1.21e+08 1385        0     7.70e+04 
number of processes/call 0.00e+00 0.00e+00 0.00e+00 0.00e+00 0.00e+00
bytes total:             1.13e+11 2.72e+09 1.19e+11 3.33e+05 0.00e+00 6.16e+05
bytes remote:            0.00e+00 0.00e+00 0.00e+00 0.00e+00 0.00e+00 0.00e+00
Max memory consumed for GA by this process: 517324344 bytes
MA_summarize_allocated_blocks: starting scan ...
MA_summarize_allocated_blocks: scan completed: 0 heap blocks, 0 stack blocks
MA usage statistics:

	allocation statistics:
					      heap	     stack
					      ----	     -----
	current number of blocks	         0	         0
	maximum number of blocks	        23	       105
	current total bytes		         0	         0
	maximum total bytes		1166983696	  50228520
	maximum total K-bytes		   1166984	     50229
	maximum total M-bytes		      1167	        51


                                NWChem Input Module
                                -------------------





                                     CITATION
                                     --------
                Please cite the following reference when publishing
                           results obtained with NWChem:

                 M. Valiev, E.J. Bylaska, N. Govind, K. Kowalski,
              T.P. Straatsma, H.J.J. van Dam, D. Wang, J. Nieplocha,
                        E. Apra, T.L. Windus, W.A. de Jong
                 "NWChem: a comprehensive and scalable open-source
                  solution for large scale molecular simulations"
                      Comput. Phys. Commun. 181, 1477 (2010)
                           doi:10.1016/j.cpc.2010.04.018

                                      AUTHORS
                                      -------
     E. Apra, E. J. Bylaska, N. Govind, K. Kowalski, M. Valiev, W. A. de Jong,
      T. P. Straatsma, H. J. J. van Dam, D. Wang, T. L. Windus, N. P. Bauman,
       A. Panyala, J. Hammond, J. Autschbach, K. Bhaskaran-Nair, J. Brabec,
    K. Lopata, S. A. Fischer, S. Krishnamoorthy, M. Jacquelin, W. Ma, M. Klemm,
       O. Villa, Y. Chen, V. Anisimov, F. Aquino, S. Hirata, M. T. Hackler,
           Eric Hermes, L. Jensen, J. E. Moore, J. C. Becca, V. Konjkov,
            D. Mejia-Rodriguez, T. Risthaus, M. Malagoli, A. Marenich,
   A. Otero-de-la-Roza, J. Mullin, P. Nichols, R. Peverati, J. Pittner, Y. Zhao,
        P.-D. Fan, A. Fonari, M. J. Williamson, R. J. Harrison, J. R. Rehr,
      M. Dupuis, D. Silverstein, D. M. A. Smith, J. Nieplocha, V. Tipparaju,
      M. Krishnan, B. E. Van Kuiken, A. Vazquez-Mayagoitia, M. Swart, Q. Wu,
   T. Van Voorhis, A. A. Auer, M. Nooijen, L. D. Crosby, E. Brown, G. Cisneros,
     G. I. Fann, H. Fruchtl, J. Garza, K. Hirao, R. A. Kendall, J. A. Nichols,
       K. Tsemekhman, K. Wolinski, J. Anchell, D. E. Bernholdt, P. Borowski,
       T. Clark, D. Clerc, H. Dachsel, M. J. O. Deegan, K. Dyall, D. Elwood,
      E. Glendening, M. Gutowski, A. C. Hess, J. Jaffe, B. G. Johnson, J. Ju,
        R. Kobayashi, R. Kutteh, Z. Lin, R. Littlefield, X. Long, B. Meng,
      T. Nakajima, S. Niu, L. Pollack, M. Rosing, K. Glaesemann, G. Sandrone,
      M. Stave, H. Taylor, G. Thomas, J. H. van Lenthe, A. T. Wong, Z. Zhang.

 Total times  cpu:    35102.2s     wall:    16005.3s
