                   25
 energy=  -539.66372689577724     
C           3.688988   -0.715250   -0.000010
C           2.466479   -1.408959    0.000000
C           1.239069   -0.731810    0.000010
C           1.264439    0.677450    0.000010
C           2.496369    1.361859    0.000000
C           3.707148    0.672890   -0.000010
C           0.000000   -1.430269    0.000010
C           0.000000    1.456189    0.000020
C          -1.264439    0.677450    0.000000
C          -1.239069   -0.731810    0.000010
C          -2.466479   -1.408959    0.000000
H          -2.469789   -2.494389    0.000010
C          -3.688988   -0.715250   -0.000010
C          -3.707148    0.672890   -0.000020
C          -2.496369    1.361859   -0.000010
H           0.000000   -2.514059    0.000020
H           4.616298   -1.275849   -0.000020
H           2.469789   -2.494389   -0.000010
H           2.490989    2.447849    0.000010
H           4.644568    1.213939   -0.000010
H           0.000000    2.150679    0.861660
H          -4.616298   -1.275849   -0.000010
H          -4.644568    1.213939   -0.000030
H          -2.490989    2.447849   -0.000020
H           0.000000    2.150729   -0.861580
                   25
 energy=  -539.66418588310523     
C           3.688718   -0.720838   -0.000029
C           2.465833   -1.413586    0.000008
C           1.239294   -0.730941    0.000029
C           1.263973    0.681174    0.000022
C           2.497153    1.365315   -0.000025
C           3.706915    0.672049   -0.000046
C          -0.000000   -1.432175    0.000040
C          -0.000000    1.465295    0.000073
C          -1.263973    0.681174    0.000013
C          -1.239294   -0.730941    0.000028
C          -2.465833   -1.413586    0.000008
H          -2.465817   -2.497590    0.000025
C          -3.688718   -0.720838   -0.000030
C          -3.706915    0.672049   -0.000056
C          -2.497153    1.365315   -0.000035
H          -0.000000   -2.514039    0.000053
H           4.614675   -1.279872   -0.000051
H           2.465817   -2.497590    0.000008
H           2.493732    2.449544   -0.000027
H           4.644243    1.210748   -0.000066
H          -0.000000    2.156197    0.863372
H          -4.614675   -1.279872   -0.000044
H          -4.644243    1.210748   -0.000084
H          -2.493732    2.449544   -0.000053
H           0.000000    2.156332   -0.863117
                   25
 energy=  -539.66413822778725     
C           3.685112   -0.725559   -0.000055
C           2.463098   -1.416471    0.000019
C           1.238543   -0.729824    0.000054
C           1.263785    0.685097    0.000037
C           2.497311    1.366292   -0.000058
C           3.704132    0.669400   -0.000093
C           0.000000   -1.430755    0.000078
C          -0.000000    1.473524    0.000142
C          -1.263785    0.685097    0.000030
C          -1.238543   -0.729824    0.000052
C          -2.463098   -1.416471    0.000017
H          -2.460339   -2.500576    0.000045
C          -3.685112   -0.725559   -0.000057
C          -3.704132    0.669400   -0.000102
C          -2.497311    1.366292   -0.000066
H          -0.000000   -2.512722    0.000095
H           4.611132   -1.284395   -0.000093
H           2.460339   -2.500576    0.000032
H           2.496989    2.450480   -0.000074
H           4.642585    1.205934   -0.000139
H          -0.000000    2.162936    0.864584
H          -4.611132   -1.284395   -0.000089
H          -4.642585    1.205934   -0.000155
H          -2.496989    2.450480   -0.000095
H           0.000000    2.163182   -0.864100
                   25
 energy=  -539.66397585683319     
C           3.681592   -0.730026   -0.000079
C           2.460475   -1.419154    0.000029
C           1.237809   -0.728795    0.000078
C           1.263638    0.688851    0.000052
C           2.497453    1.367145   -0.000089
C           3.701408    0.666857   -0.000137
C           0.000000   -1.429325    0.000115
C          -0.000000    1.481322    0.000209
C          -1.263638    0.688851    0.000046
C          -1.237809   -0.728795    0.000075
C          -2.460475   -1.419154    0.000026
H          -2.455108   -2.503398    0.000065
C          -3.681592   -0.730026   -0.000082
C          -3.701408    0.666857   -0.000147
C          -2.497453    1.367145   -0.000096
H           0.000000   -2.511442    0.000136
H           4.607723   -1.288693   -0.000132
H           2.455108   -2.503398    0.000055
H           2.500087    2.451346   -0.000120
H           4.640978    1.201331   -0.000209
H          -0.000000    2.169352    0.865719
H          -4.607723   -1.288693   -0.000132
H          -4.640978    1.201331   -0.000222
H          -2.500087    2.451346   -0.000136
H           0.000000    2.169704   -0.865017
                   25
 energy=  -539.66372600504224     
C           3.678127   -0.734416   -0.000102
C           2.457905   -1.421781    0.000040
C           1.237102   -0.727802    0.000102
C           1.263487    0.692531    0.000067
C           2.497604    1.367979   -0.000120
C           3.698741    0.664367   -0.000181
C          -0.000000   -1.427919    0.000151
C           0.000000    1.488983    0.000274
C          -1.263487    0.692531    0.000062
C          -1.237102   -0.727802    0.000097
C          -2.457905   -1.421781    0.000035
H          -2.449979   -2.506158    0.000083
C          -3.678127   -0.734416   -0.000107
C          -3.698741    0.664367   -0.000191
C          -2.497604    1.367979   -0.000126
H           0.000000   -2.510190    0.000176
H           4.604383   -1.292909   -0.000171
H           2.449979   -2.506158    0.000077
H           2.503126    2.452204   -0.000165
H           4.639400    1.196816   -0.000277
H          -0.000000    2.175643    0.866830
H          -4.604383   -1.292909   -0.000175
H          -4.639400    1.196816   -0.000288
H          -2.503126    2.452204   -0.000176
H           0.000000    2.176098   -0.865913
                   25
 energy=  -539.66339232967130     
C           3.674710   -0.738744   -0.000126
C           2.455373   -1.424375    0.000050
C           1.236399   -0.726823    0.000125
C           1.263348    0.696169    0.000082
C           2.497747    1.368801   -0.000150
C           3.696104    0.661905   -0.000224
C          -0.000000   -1.426536    0.000186
C          -0.000000    1.496552    0.000338
C          -1.263348    0.696169    0.000077
C          -1.236399   -0.726823    0.000119
C          -2.455373   -1.424375    0.000044
H          -2.444916   -2.508885    0.000102
C          -3.674710   -0.738744   -0.000132
C          -3.696104    0.661905   -0.000234
C          -2.497747    1.368801   -0.000155
H           0.000000   -2.508951    0.000216
H           4.601087   -1.297070   -0.000209
H           2.444916   -2.508885    0.000100
H           2.506127    2.453045   -0.000209
H           4.637844    1.192361   -0.000345
H          -0.000000    2.181853    0.867927
H          -4.601087   -1.297070   -0.000216
H          -4.637844    1.192361   -0.000353
H          -2.506127    2.453045   -0.000216
H           0.000000    2.182411   -0.866799
                   25
 energy=  -539.66288222064657     
C           3.670702   -0.743819   -0.000153
C           2.452492   -1.427384    0.000061
C           1.235608   -0.725775    0.000152
C           1.263241    0.700438    0.000098
C           2.497901    1.369741   -0.000185
C           3.692991    0.659116   -0.000274
C          -0.000000   -1.424935    0.000227
C           0.000000    1.505422    0.000412
C          -1.263241    0.700438    0.000095
C          -1.235608   -0.725775    0.000145
C          -2.452492   -1.427384    0.000054
H          -2.439079   -2.512034    0.000124
C          -3.670702   -0.743819   -0.000160
C          -3.692991    0.659116   -0.000284
C          -2.497901    1.369741   -0.000189
H           0.000000   -2.507527    0.000261
H           4.597285   -1.301876   -0.000253
H           2.439079   -2.512034    0.000125
H           2.509586    2.454013   -0.000260
H           4.636043    1.187225   -0.000423
H          -0.000000    2.189022    0.869199
H          -4.597285   -1.301876   -0.000264
H          -4.636043    1.187225   -0.000429
H          -2.509586    2.454013   -0.000261
H           0.000000    2.189698   -0.867828
                   25
 energy=  -539.66224227358987     
C           3.666693   -0.748739   -0.000179
C           2.449690   -1.430346    0.000073
C           1.234854   -0.724841    0.000178
C           1.263196    0.704620    0.000115
C           2.498026    1.370638   -0.000220
C           3.689807    0.656425   -0.000323
C          -0.000000   -1.423322    0.000266
C          -0.000000    1.514169    0.000485
C          -1.263196    0.704620    0.000113
C          -1.234854   -0.724841    0.000170
C          -2.449690   -1.430346    0.000064
H          -2.433439   -2.515041    0.000144
C          -3.666693   -0.748739   -0.000188
C          -3.689807    0.656425   -0.000332
C          -2.498026    1.370638   -0.000221
H          -0.000000   -2.506131    0.000305
H           4.593569   -1.306519   -0.000296
H           2.433439   -2.515041    0.000150
H           2.512914    2.454884   -0.000309
H           4.634255    1.182250   -0.000498
H          -0.000000    2.195957    0.870427
H          -4.593569   -1.306519   -0.000311
H          -4.634255    1.182250   -0.000501
H          -2.512914    2.454884   -0.000305
H           0.000000    2.196747   -0.868821
                   25
 energy=  -539.66115333898142     
C           3.661639   -0.754399   -0.000205
C           2.447084   -1.433567    0.000085
C           1.234235   -0.724732    0.000204
C           1.263715    0.709436    0.000130
C           2.497879    1.371415   -0.000255
C           3.685512    0.654202   -0.000370
C          -0.000000   -1.421447    0.000304
C          -0.000000    1.524436    0.000559
C          -1.263715    0.709436    0.000129
C          -1.234235   -0.724732    0.000194
C          -2.447084   -1.433567    0.000075
H          -2.427863   -2.517858    0.000165
C          -3.661639   -0.754399   -0.000215
C          -3.685512    0.654202   -0.000379
C          -2.497879    1.371415   -0.000256
H           0.000000   -2.504586    0.000349
H           4.589573   -1.311076   -0.000338
H           2.427863   -2.517858    0.000174
H           2.516115    2.455438   -0.000358
H           4.632146    1.177244   -0.000572
H           0.000000    2.202866    0.871671
H          -4.589573   -1.311076   -0.000357
H          -4.632146    1.177244   -0.000573
H          -2.516115    2.455438   -0.000349
H          -0.000000    2.203769   -0.869832
                   25
 energy=  -539.65831712095985     
C           3.655128   -0.760470   -0.000210
C           2.448319   -1.434159    0.000090
C           1.234689   -0.729260    0.000210
C           1.267309    0.714610    0.000130
C           2.496659    1.369879   -0.000270
C           3.679448    0.656690   -0.000380
C           0.000000   -1.419399    0.000310
C           0.000000    1.533729    0.000590
C          -1.267309    0.714610    0.000130
C          -1.234689   -0.729260    0.000200
C          -2.448319   -1.434159    0.000080
H          -2.426439   -2.518239    0.000170
C          -3.655128   -0.760470   -0.000220
C          -3.679448    0.656690   -0.000390
C          -2.496659    1.369879   -0.000270
H           0.000000   -2.503909    0.000360
H           4.587768   -1.312179   -0.000350
H           2.426439   -2.518239    0.000180
H           2.516609    2.454879   -0.000370
H           4.630788    1.175839   -0.000590
H           0.000000    2.204469    0.871870
H          -4.587768   -1.312179   -0.000370
H          -4.630788    1.175839   -0.000590
H          -2.516609    2.454879   -0.000360
H           0.000000    2.205399   -0.869970
