                   25
 energy=  -539.66372689577724     
C           3.688988   -0.715250   -0.000010
C           2.466479   -1.408959    0.000000
C           1.239069   -0.731810    0.000010
C           1.264439    0.677450    0.000010
C           2.496369    1.361859    0.000000
C           3.707148    0.672890   -0.000010
C           0.000000   -1.430269    0.000010
C           0.000000    1.456189    0.000020
C          -1.264439    0.677450    0.000000
C          -1.239069   -0.731810    0.000010
C          -2.466479   -1.408959    0.000000
H          -2.469789   -2.494389    0.000010
C          -3.688988   -0.715250   -0.000010
C          -3.707148    0.672890   -0.000020
C          -2.496369    1.361859   -0.000010
H           0.000000   -2.514059    0.000020
H           4.616298   -1.275849   -0.000020
H           2.469789   -2.494389   -0.000010
H           2.490989    2.447849    0.000010
H           4.644568    1.213939   -0.000010
H           0.000000    2.150679    0.861660
H          -4.616298   -1.275849   -0.000010
H          -4.644568    1.213939   -0.000030
H          -2.490989    2.447849   -0.000020
H           0.000000    2.150729   -0.861580
                   25
 energy=  -539.66447237813486     
C           3.692120   -0.720514   -0.000023
C           2.468009   -1.414309    0.000004
C           1.240294   -0.731313    0.000022
C           1.264175    0.680655    0.000017
C           2.498171    1.366827   -0.000015
C           3.709589    0.673296   -0.000033
C          -0.000000   -1.434492    0.000031
C          -0.000000    1.464809    0.000054
C          -1.264175    0.680655    0.000010
C          -1.240294   -0.731313    0.000021
C          -2.468009   -1.414309    0.000005
H          -2.467589   -2.498152    0.000020
C          -3.692120   -0.720514   -0.000024
C          -3.709589    0.673296   -0.000043
C          -2.498171    1.366827   -0.000026
H          -0.000000   -2.516009    0.000041
H           4.617561   -1.279582   -0.000040
H           2.467589   -2.498152    0.000002
H           2.493358    2.450860   -0.000014
H           4.646277    1.212718   -0.000047
H          -0.000000    2.154989    0.863930
H          -4.617561   -1.279582   -0.000033
H          -4.646277    1.212718   -0.000066
H          -2.493358    2.450860   -0.000041
H           0.000000    2.155095   -0.863735
                   25
 energy=  -539.66447123176067     
C           3.689175   -0.725520   -0.000052
C           2.465099   -1.417516    0.000016
C           1.239496   -0.729640    0.000051
C           1.263729    0.684771    0.000036
C           2.498788    1.368234   -0.000051
C           3.707551    0.670185   -0.000087
C          -0.000000   -1.433324    0.000076
C          -0.000000    1.473245    0.000131
C          -1.263729    0.684771    0.000029
C          -1.239496   -0.729640    0.000048
C          -2.465099   -1.417516    0.000016
H          -2.461351   -2.501637    0.000043
C          -3.689175   -0.725520   -0.000054
C          -3.707551    0.670185   -0.000097
C          -2.498788    1.368234   -0.000060
H          -0.000000   -2.514827    0.000090
H           4.614136   -1.284914   -0.000087
H           2.461351   -2.501637    0.000030
H           2.497227    2.452286   -0.000069
H           4.645081    1.207462   -0.000131
H          -0.000000    2.162490    0.865227
H          -4.614136   -1.284914   -0.000084
H          -4.645081    1.207462   -0.000147
H          -2.497227    2.452286   -0.000090
H           0.000000    2.162725   -0.864772
                   25
 energy=  -539.66432909193054     
C           3.685521   -0.730018   -0.000081
C           2.461744   -1.420050    0.000028
C           1.238445   -0.727923    0.000079
C           1.263283    0.688562    0.000054
C           2.499070    1.368938   -0.000086
C           3.704984    0.666908   -0.000140
C           0.000000   -1.431452    0.000120
C          -0.000000    1.480743    0.000206
C          -1.263283    0.688561    0.000048
C          -1.238445   -0.727923    0.000075
C          -2.461744   -1.420050    0.000025
H          -2.455134   -2.504583    0.000065
C          -3.685521   -0.730018   -0.000084
C          -3.704984    0.666908   -0.000150
C          -2.499070    1.368938   -0.000094
H           0.000000   -2.513141    0.000138
H           4.610194   -1.289850   -0.000133
H           2.455134   -2.504583    0.000056
H           2.500901    2.453162   -0.000122
H           4.643444    1.202077   -0.000214
H          -0.000000    2.169642    0.866164
H          -4.610194   -1.289850   -0.000134
H          -4.643444    1.202077   -0.000227
H          -2.500901    2.453162   -0.000138
H           0.000000    2.170001   -0.865453
                   25
 energy=  -539.66414695917342     
C           3.682163   -0.734139   -0.000107
C           2.458659   -1.422385    0.000038
C           1.237494   -0.726355    0.000105
C           1.262857    0.692022    0.000071
C           2.499352    1.369597   -0.000118
C           3.702638    0.663879   -0.000189
C          -0.000000   -1.429740    0.000161
C           0.000000    1.487635    0.000276
C          -1.262857    0.692022    0.000066
C          -1.237494   -0.726355    0.000101
C          -2.458659   -1.422385    0.000034
H          -2.449426   -2.507267    0.000086
C          -3.682163   -0.734139   -0.000112
C          -3.702638    0.663879   -0.000198
C          -2.499352    1.369597   -0.000124
H          -0.000000   -2.511593    0.000182
H           4.606572   -1.294383   -0.000175
H           2.449426   -2.507267    0.000081
H           2.504279    2.453980   -0.000171
H           4.641939    1.197128   -0.000289
H          -0.000000    2.176214    0.867025
H          -4.606572   -1.294383   -0.000180
H          -4.641939    1.197128   -0.000300
H          -2.504279    2.453980   -0.000182
H           0.000000    2.176689   -0.866080
                   25
 energy=  -539.66387369340612     
C           3.678540   -0.738568   -0.000135
C           2.455322   -1.424909    0.000050
C           1.236463   -0.724652    0.000133
C           1.262400    0.695763    0.000089
C           2.499646    1.370303   -0.000153
C           3.700090    0.660598   -0.000241
C          -0.000000   -1.427890    0.000204
C           0.000000    1.495079    0.000351
C          -1.262400    0.695763    0.000086
C          -1.236463   -0.724652    0.000128
C          -2.455322   -1.424909    0.000044
H          -2.443270   -2.510179    0.000109
C          -3.678540   -0.738568   -0.000142
C          -3.700090    0.660598   -0.000250
C          -2.499646    1.370303   -0.000158
H           0.000000   -2.509919    0.000230
H           4.602657   -1.299273   -0.000221
H           2.443270   -2.510179    0.000107
H           2.507924    2.454843   -0.000224
H           4.640298    1.191781   -0.000371
H          -0.000000    2.183327    0.867967
H          -4.602657   -1.299273   -0.000229
H          -4.640298    1.191781   -0.000379
H          -2.507924    2.454843   -0.000229
H           0.000000    2.183925   -0.866769
                   25
 energy=  -539.66349348021367     
C           3.674588   -0.743303   -0.000165
C           2.451786   -1.427636    0.000062
C           1.235388   -0.722923    0.000163
C           1.261939    0.699772    0.000109
C           2.499907    1.371054   -0.000190
C           3.697260    0.657151   -0.000297
C          -0.000000   -1.425919    0.000250
C           0.000000    1.503134    0.000430
C          -1.261939    0.699772    0.000106
C          -1.235388   -0.722923    0.000157
C          -2.451786   -1.427636    0.000055
H          -2.436792   -2.513267    0.000132
C          -3.674588   -0.743304   -0.000174
C          -3.697260    0.657151   -0.000306
C          -2.499906    1.371053   -0.000193
H          -0.000000   -2.508130    0.000280
H           4.598458   -1.304413   -0.000269
H           2.436792   -2.513267    0.000135
H           2.511746    2.455721   -0.000280
H           4.638464    1.186115   -0.000457
H          -0.000000    2.190879    0.869004
H          -4.598458   -1.304413   -0.000282
H          -4.638464    1.186115   -0.000462
H          -2.511746    2.455721   -0.000280
H           0.000000    2.191608   -0.867541
                   25
 energy=  -539.66292502753947     
C           3.669849   -0.748467   -0.000196
C           2.447962   -1.430793    0.000076
C           1.234268   -0.721332    0.000194
C           1.261498    0.704183    0.000129
C           2.499923    1.371880   -0.000230
C           3.693622    0.653574   -0.000354
C          -0.000000   -1.423758    0.000297
C           0.000000    1.512361    0.000514
C          -1.261498    0.704183    0.000127
C          -1.234268   -0.721332    0.000186
C          -2.447962   -1.430793    0.000067
H          -2.430076   -2.516529    0.000157
C          -3.669849   -0.748467   -0.000207
C          -3.693622    0.653574   -0.000363
C          -2.499922    1.371880   -0.000231
H          -0.000000   -2.506116    0.000332
H           4.593697   -1.309672   -0.000319
H           2.430076   -2.516529    0.000164
H           2.515608    2.456441   -0.000338
H           4.636056    1.180079   -0.000545
H          -0.000000    2.198952    0.870265
H          -4.593697   -1.309672   -0.000336
H          -4.636056    1.180079   -0.000548
H          -2.515608    2.456441   -0.000332
H           0.000000    2.199816   -0.868525
                   25
 energy=  -539.66187680612620     
C           3.663356   -0.754502   -0.000225
C           2.444295   -1.434595    0.000090
C           1.233301   -0.720893    0.000223
C           1.261580    0.709396    0.000146
C           2.499230    1.372653   -0.000272
C           3.687998    0.650600   -0.000407
C          -0.000000   -1.421349    0.000337
C           0.000000    1.524009    0.000599
C          -1.261580    0.709396    0.000145
C          -1.233301   -0.720893    0.000214
C          -2.444295   -1.434595    0.000079
H          -2.423811   -2.519757    0.000180
C          -3.663356   -0.754502   -0.000236
C          -3.687998    0.650600   -0.000415
C          -2.499230    1.372653   -0.000271
H          -0.000000   -2.503898    0.000381
H           4.588261   -1.314453   -0.000367
H           2.423811   -2.519757    0.000191
H           2.518936    2.456687   -0.000392
H           4.632571    1.174094   -0.000627
H           0.000000    2.207079    0.871921
H          -4.588261   -1.314453   -0.000388
H          -4.632571    1.174094   -0.000627
H          -2.518936    2.456687   -0.000380
H          -0.000000    2.208067   -0.869918
                   25
 energy=  -539.65831712095985     
C           3.655128   -0.760470   -0.000210
C           2.448319   -1.434159    0.000090
C           1.234689   -0.729260    0.000210
C           1.267309    0.714610    0.000130
C           2.496659    1.369879   -0.000270
C           3.679448    0.656690   -0.000380
C           0.000000   -1.419399    0.000310
C           0.000000    1.533729    0.000590
C          -1.267309    0.714610    0.000130
C          -1.234689   -0.729260    0.000200
C          -2.448319   -1.434159    0.000080
H          -2.426439   -2.518239    0.000170
C          -3.655128   -0.760470   -0.000220
C          -3.679448    0.656690   -0.000390
C          -2.496659    1.369879   -0.000270
H           0.000000   -2.503909    0.000360
H           4.587768   -1.312179   -0.000350
H           2.426439   -2.518239    0.000180
H           2.516609    2.454879   -0.000370
H           4.630788    1.175839   -0.000590
H           0.000000    2.204469    0.871870
H          -4.587768   -1.312179   -0.000370
H          -4.630788    1.175839   -0.000590
H          -2.516609    2.454879   -0.000360
H           0.000000    2.205399   -0.869970
