                   25
 energy=  -539.66372689577724     
C           3.688988   -0.715250   -0.000010
C           2.466479   -1.408959    0.000000
C           1.239069   -0.731810    0.000010
C           1.264439    0.677450    0.000010
C           2.496369    1.361859    0.000000
C           3.707148    0.672890   -0.000010
C           0.000000   -1.430269    0.000010
C           0.000000    1.456189    0.000020
C          -1.264439    0.677450    0.000000
C          -1.239069   -0.731810    0.000010
C          -2.466479   -1.408959    0.000000
H          -2.469789   -2.494389    0.000010
C          -3.688988   -0.715250   -0.000010
C          -3.707148    0.672890   -0.000020
C          -2.496369    1.361859   -0.000010
H           0.000000   -2.514059    0.000020
H           4.616298   -1.275849   -0.000020
H           2.469789   -2.494389   -0.000010
H           2.490989    2.447849    0.000010
H           4.644568    1.213939   -0.000010
H           0.000000    2.150679    0.861660
H          -4.616298   -1.275849   -0.000010
H          -4.644568    1.213939   -0.000030
H          -2.490989    2.447849   -0.000020
H           0.000000    2.150729   -0.861580
                   25
 energy=  -539.66465240416983     
C           3.694835   -0.720243   -0.000017
C           2.469918   -1.414824    0.000001
C           1.241185   -0.731783    0.000016
C           1.264538    0.680219    0.000014
C           2.499025    1.367942   -0.000007
C           3.711704    0.674434   -0.000022
C          -0.000000   -1.436289    0.000023
C           0.000000    1.464405    0.000037
C          -1.264538    0.680219    0.000006
C          -1.241185   -0.731783    0.000015
C          -2.469918   -1.414824    0.000003
H          -2.469274   -2.498515    0.000015
C          -3.694835   -0.720243   -0.000017
C          -3.711704    0.674434   -0.000032
C          -2.499025    1.367942   -0.000019
H          -0.000000   -2.517591    0.000031
H           4.620045   -1.279213   -0.000030
H           2.469274   -2.498515   -0.000003
H           2.493060    2.451831   -0.000003
H           4.647968    1.214414   -0.000030
H          -0.000000    2.153912    0.864364
H          -4.620045   -1.279213   -0.000022
H          -4.647968    1.214414   -0.000049
H          -2.493060    2.451831   -0.000031
H           0.000000    2.153992   -0.864224
                   25
 energy=  -539.66472247726756     
C           3.692977   -0.725362   -0.000049
C           2.467407   -1.418242    0.000013
C           1.240619   -0.729915    0.000047
C           1.264224    0.684505    0.000034
C           2.500376    1.369748   -0.000043
C           3.710726    0.671116   -0.000080
C          -0.000000   -1.435467    0.000072
C          -0.000000    1.472958    0.000118
C          -1.264224    0.684505    0.000028
C          -1.240619   -0.729915    0.000044
C          -2.467407   -1.418242    0.000014
H          -2.462728   -2.502584    0.000039
C          -3.692977   -0.725362   -0.000051
C          -3.710726    0.671116   -0.000090
C          -2.500376    1.369748   -0.000054
H          -0.000000   -2.517060    0.000084
H           4.617552   -1.285335   -0.000080
H           2.462728   -2.502584    0.000026
H           2.497510    2.454043   -0.000061
H           4.647836    1.209212   -0.000121
H          -0.000000    2.161870    0.865838
H          -4.617552   -1.285335   -0.000076
H          -4.647836    1.209212   -0.000137
H          -2.497510    2.454043   -0.000083
H           0.000001    2.162090   -0.865420
                   25
 energy=  -539.66458879668062     
C           3.689180   -0.730023   -0.000082
C           2.463398   -1.420599    0.000026
C           1.239288   -0.727628    0.000080
C           1.263573    0.688411    0.000056
C           2.500863    1.370305   -0.000082
C           3.708347    0.667210   -0.000142
C           0.000000   -1.433154    0.000125
C          -0.000000    1.480232    0.000203
C          -1.263573    0.688410    0.000050
C          -1.239288   -0.727628    0.000076
C          -2.463398   -1.420599    0.000024
H          -2.455432   -2.505495    0.000066
C          -3.689180   -0.730023   -0.000086
C          -3.708347    0.667210   -0.000151
C          -2.500864    1.370306   -0.000090
H           0.000000   -2.514903    0.000140
H           4.613090   -1.290959   -0.000133
H           2.455432   -2.505495    0.000057
H           2.501812    2.454863   -0.000123
H           4.646310    1.203038   -0.000217
H          -0.000000    2.169644    0.866470
H          -4.613090   -1.290960   -0.000134
H          -4.646310    1.203038   -0.000230
H          -2.501812    2.454863   -0.000139
H           0.000000    2.170010   -0.865757
                   25
 energy=  -539.66439933643335     
C           3.685546   -0.734424   -0.000114
C           2.459619   -1.422813    0.000038
C           1.238042   -0.725469    0.000111
C           1.262985    0.692095    0.000076
C           2.501294    1.370804   -0.000119
C           3.706051    0.663524   -0.000200
C          -0.000000   -1.430963    0.000174
C           0.000000    1.487132    0.000284
C          -1.262985    0.692095    0.000072
C          -1.238042   -0.725470    0.000107
C          -2.459620   -1.422813    0.000034
H          -2.448569   -2.508228    0.000090
C          -3.685546   -0.734424   -0.000119
C          -3.706051    0.663524   -0.000209
C          -2.501294    1.370804   -0.000125
H          -0.000000   -2.512874    0.000192
H           4.608857   -1.296247   -0.000183
H           2.448569   -2.508228    0.000086
H           2.505862    2.455622   -0.000181
H           4.644834    1.197204   -0.000307
H          -0.000000    2.176979    0.867065
H          -4.608857   -1.296247   -0.000188
H          -4.644834    1.197204   -0.000318
H          -2.505862    2.455622   -0.000191
H           0.000000    2.177483   -0.866075
                   25
 energy=  -539.66414001458929     
C           3.681740   -0.738977   -0.000147
C           2.455667   -1.425127    0.000051
C           1.236754   -0.723231    0.000144
C           1.262339    0.695907    0.000098
C           2.501743    1.371323   -0.000157
C           3.703642    0.659668   -0.000261
C          -0.000000   -1.428672    0.000225
C           0.000000    1.494319    0.000368
C          -1.262339    0.695907    0.000094
C          -1.236754   -0.723231    0.000138
C          -2.455667   -1.425127    0.000045
H          -2.441445   -2.511059    0.000116
C          -3.681740   -0.738977   -0.000154
C          -3.703642    0.659668   -0.000269
C          -2.501742    1.371323   -0.000162
H          -0.000000   -2.510742    0.000247
H           4.604428   -1.301726   -0.000235
H           2.441445   -2.511059    0.000116
H           2.510062    2.456386   -0.000242
H           4.643253    1.191126   -0.000401
H          -0.000000    2.184629    0.867699
H          -4.604428   -1.301726   -0.000245
H          -4.643253    1.191126   -0.000409
H          -2.510062    2.456386   -0.000245
H           0.000000    2.185275   -0.866421
                   25
 energy=  -539.66376543328454     
C           3.677358   -0.743919   -0.000182
C           2.451292   -1.427833    0.000065
C           1.235343   -0.720858    0.000179
C           1.261584    0.700092    0.000122
C           2.502064    1.371943   -0.000199
C           3.700677    0.655454   -0.000326
C          -0.000000   -1.426189    0.000279
C           0.000000    1.502468    0.000458
C          -1.261585    0.700093    0.000119
C          -1.235342   -0.720858    0.000172
C          -2.451293   -1.427833    0.000057
H          -2.433835   -2.514216    0.000143
C          -3.677358   -0.743919   -0.000192
C          -3.700677    0.655454   -0.000334
C          -2.502063    1.371943   -0.000201
H          -0.000000   -2.508393    0.000306
H           4.599434   -1.307550   -0.000291
H           2.433835   -2.514216    0.000149
H           2.514486    2.457137   -0.000307
H           4.641209    1.184515   -0.000502
H          -0.000000    2.193038    0.868551
H          -4.599434   -1.307550   -0.000305
H          -4.641209    1.184515   -0.000506
H          -2.514486    2.457137   -0.000304
H           0.000000    2.193838   -0.866965
                   25
 energy=  -539.66317191588178     
C           3.671722   -0.749276   -0.000217
C           2.446410   -1.431193    0.000080
C           1.233797   -0.718676    0.000214
C           1.260658    0.704713    0.000144
C           2.501791    1.372666   -0.000245
C           3.696337    0.651062   -0.000390
C          -0.000000   -1.423493    0.000331
C           0.000000    1.512192    0.000553
C          -1.260659    0.704713    0.000142
C          -1.233797   -0.718676    0.000206
C          -2.446410   -1.431193    0.000070
H          -2.426175   -2.517721    0.000171
C          -3.671722   -0.749276   -0.000229
C          -3.696337    0.651062   -0.000398
C          -2.501791    1.372666   -0.000244
H          -0.000000   -2.505741    0.000364
H           4.593474   -1.313227   -0.000347
H           2.426175   -2.517721    0.000181
H           2.518667    2.457644   -0.000372
H           4.637936    1.177495   -0.000601
H           0.000000    2.202139    0.869888
H          -4.593474   -1.313227   -0.000367
H          -4.637936    1.177495   -0.000602
H          -2.518667    2.457644   -0.000362
H           0.000000    2.203089   -0.867990
                   25
 energy=  -539.66200580315490     
C           3.663268   -0.755766   -0.000247
C           2.441506   -1.435712    0.000097
C           1.232360   -0.718046    0.000244
C           1.260179    0.710417    0.000161
C           2.500159    1.373408   -0.000293
C           3.688751    0.647417   -0.000446
C          -0.000000   -1.420524    0.000372
C          -0.000000    1.525587    0.000646
C          -1.260179    0.710417    0.000161
C          -1.232360   -0.718046    0.000234
C          -2.441506   -1.435712    0.000085
H          -2.419384   -2.521467    0.000196
C          -3.663268   -0.755766   -0.000259
C          -3.688751    0.647417   -0.000454
C          -2.500159    1.373408   -0.000291
H          -0.000000   -2.502792    0.000415
H           4.586199   -1.317950   -0.000399
H           2.419384   -2.521467    0.000210
H           2.521782    2.457488   -0.000430
H           4.632444    1.170530   -0.000687
H           0.000000    2.211545    0.872104
H          -4.586199   -1.317950   -0.000423
H          -4.632444    1.170530   -0.000685
H          -2.521782    2.457488   -0.000414
H          -0.000000    2.212622   -0.869924
                   25
 energy=  -539.65831712095985     
C           3.655128   -0.760470   -0.000210
C           2.448319   -1.434159    0.000090
C           1.234689   -0.729260    0.000210
C           1.267309    0.714610    0.000130
C           2.496659    1.369879   -0.000270
C           3.679448    0.656690   -0.000380
C           0.000000   -1.419399    0.000310
C           0.000000    1.533729    0.000590
C          -1.267309    0.714610    0.000130
C          -1.234689   -0.729260    0.000200
C          -2.448319   -1.434159    0.000080
H          -2.426439   -2.518239    0.000170
C          -3.655128   -0.760470   -0.000220
C          -3.679448    0.656690   -0.000390
C          -2.496659    1.369879   -0.000270
H           0.000000   -2.503909    0.000360
H           4.587768   -1.312179   -0.000350
H           2.426439   -2.518239    0.000180
H           2.516609    2.454879   -0.000370
H           4.630788    1.175839   -0.000590
H           0.000000    2.204469    0.871870
H          -4.587768   -1.312179   -0.000370
H          -4.630788    1.175839   -0.000590
H          -2.516609    2.454879   -0.000360
H           0.000000    2.205399   -0.869970
