 argument  1 = end.nw



============================== echo of input deck ==============================
echo

start molecule

title "Title"
charge 1

geometry units angstroms print xyz autosym
    C        0.000000    3.717380    0.691216
    C        0.000000    2.456935    1.385869
    C        0.000000    1.233897    0.713242
    C       -0.000000    1.267414   -0.674155
    C       -0.000000    2.538267   -1.371635
    C        0.000000    3.750912   -0.691246
    C       -0.000000   -0.050964    1.427248
    C       -0.000000    0.014437   -1.481799
    C        0.000000   -1.276108   -0.703076
    C       -0.000000   -1.259061    0.733202
    C       -0.000000   -2.508561    1.423492
    H       -0.000000   -2.504220    2.507368
    C        0.000000   -3.701473    0.731244
    C       -0.000000   -3.700179   -0.671493
    C       -0.000000   -2.489752   -1.373087
    H       -0.000000   -0.043871    2.509203
    H        0.000000    4.631455    1.272483
    H        0.000000    2.473257    2.470804
    H       -0.000000    2.524915   -2.456389
    H        0.000000    4.688708   -1.230523
    H       -0.866173    0.047317   -2.162831
    H       -0.000000   -4.640849    1.270377
    H       -0.000000   -4.636793   -1.215072
    H       -0.000000   -2.505604   -2.457932
    H        0.866173    0.047317   -2.162831
end

basis
  * library 6-31G
end

dft
  xc b3lyp
  mult 1
end

tddft
  cis
  nroots 5
  notriplet
  target 1
  maxiter 2000
end


task tddft energy
================================================================================


                                         
                                         


              Northwest Computational Chemistry Package (NWChem) 6.8
              ------------------------------------------------------


                    Environmental Molecular Sciences Laboratory
                       Pacific Northwest National Laboratory
                                Richland, WA 99352

                              Copyright (c) 1994-2017
                       Pacific Northwest National Laboratory
                            Battelle Memorial Institute

             NWChem is an open-source computational chemistry package
                        distributed under the terms of the
                      Educational Community License (ECL) 2.0
             A copy of the license is included with this distribution
                              in the LICENSE.TXT file

                                  ACKNOWLEDGMENT
                                  --------------

            This software and its documentation were developed at the
            EMSL at Pacific Northwest National Laboratory, a multiprogram
            national laboratory, operated for the U.S. Department of Energy
            by Battelle under Contract Number DE-AC05-76RL01830. Support
            for this work was provided by the Department of Energy Office
            of Biological and Environmental Research, Office of Basic
            Energy Sciences, and the Office of Advanced Scientific Computing.


           Job information
           ---------------

    hostname        = wang
    program         = nwchem
    date            = Thu Aug  5 17:34:22 2021

    compiled        = Tue_Jul_24_14:45:34_2018
    source          = /home/stg121/Software/nwchem-6.8.1
    nwchem branch   = 6.8.1
    nwchem revision = v6.8-143-gdb0d96486
    ga revision     = 5.6.5
    use scalapack   = F
    input           = end.nw
    prefix          = molecule.
    data base       = ./molecule.db
    status          = startup
    nproc           =        1
    time left       =     -1s



           Memory information
           ------------------

    heap     =   13107194 doubles =    100.0 Mbytes
    stack    =   13107199 doubles =    100.0 Mbytes
    global   =   26214400 doubles =    200.0 Mbytes (distinct from heap & stack)
    total    =   52428793 doubles =    400.0 Mbytes
    verify   = yes
    hardfail = no 


           Directory information
           ---------------------

  0 permanent = .
  0 scratch   = .




                                NWChem Input Module
                                -------------------


                                       Title
                                       -----

 Scaling coordinates for geometry "geometry" by  1.889725989
 (inverse scale =  0.529177249)

 CS  symmetry detected

          ------
          auto-z
          ------


                             Geometry "geometry" -> ""
                             -------------------------

 Output coordinates in angstroms (scale by  1.889725989 to convert to a.u.)

  No.       Tag          Charge          X              Y              Z
 ---- ---------------- ---------- -------------- -------------- --------------
    1 C                    6.0000     0.73029609    -3.71109379     0.00000000
    2 C                    6.0000     1.41459682    -2.44499865     0.00000000
    3 C                    6.0000     0.73196999    -1.22751368     0.00000000
    4 C                    6.0000    -0.65510576    -1.27239883     0.00000000
    5 C                    6.0000    -1.34214811    -2.54892479     0.00000000
    6 C                    6.0000    -0.65184471    -3.75595350     0.00000000
    7 C                    6.0000     1.43542299     0.06315523     0.00000000
    8 C                    6.0000    -1.47299040    -0.02608229     0.00000000
    9 C                    6.0000    -0.70486915     1.27080076     0.00000000
   10 C                    6.0000     0.73150032     1.26552418     0.00000000
   11 C                    6.0000     1.41152788     2.52063893     0.00000000
   12 H                    1.0000     2.49540306     2.52518010     0.00000000
   13 C                    6.0000     0.70952759     3.70783813     0.00000000
   14 C                    6.0000    -0.69315171     3.69504918     0.00000000
   15 C                    6.0000    -1.38480308     2.47891348     0.00000000
   16 H                    1.0000     2.51739978     0.06492875     0.00000000
   17 H                    1.0000     1.31903413    -4.62037480     0.00000000
   18 H                    1.0000     2.49962914    -2.45242940     0.00000000
   19 H                    1.0000    -2.42697510    -2.54446246     0.00000000
   20 H                    1.0000    -1.18341866    -4.69813722     0.00000000
   21 H                    1.0000    -2.15373009    -0.06454203    -0.86617300
   22 H                    1.0000     1.24094460     4.65160061     0.00000000
   23 H                    1.0000    -1.24438771     4.62717728     0.00000000
   24 H                    1.0000    -2.46974156     2.48587499     0.00000000
   25 H                    1.0000    -2.15373009    -0.06454203     0.86617300

      Atomic Mass 
      ----------- 

      C                 12.000000
      H                  1.007825


 Effective nuclear repulsion energy (a.u.)     776.6375989077

            Nuclear Dipole moment (a.u.) 
            ----------------------------
        X                 Y               Z
 ---------------- ---------------- ----------------
    -0.0000000000    -0.0000000000     0.0000000000

      Symmetry information
      --------------------

 Group name             Cs        
 Group number              2
 Group order               2
 No. of unique centers    24

      Symmetry unique atoms

     1    2    3    4    5    6    7    8    9   10   11   12   13   14   15
    16   17   18   19   20   21   22   23   24



                                Z-matrix (autoz)
                                -------- 

 Units are Angstrom for bonds and degrees for angles

      Type          Name      I     J     K     L     M      Value
      ----------- --------  ----- ----- ----- ----- ----- ----------
    1 Stretch                  1     2                       1.43919
    2 Stretch                  1     6                       1.38287
    3 Stretch                  1    17                       1.08324
    4 Stretch                  2     3                       1.39580
    5 Stretch                  2    18                       1.08506
    6 Stretch                  3     4                       1.38780
    7 Stretch                  3     7                       1.46992
    8 Stretch                  4     5                       1.44967
    9 Stretch                  4     8                       1.49072
   10 Stretch                  5     6                       1.39048
   11 Stretch                  5    19                       1.08484
   12 Stretch                  6    20                       1.08180
   13 Stretch                  7    10                       1.39327
   14 Stretch                  7    16                       1.08198
   15 Stretch                  8     9                       1.50729
   16 Stretch                  8    21                       1.10233
   17 Stretch                  8    25                       1.10233
   18 Stretch                  9    10                       1.43638
   19 Stretch                  9    15                       1.38631
   20 Stretch                 10    11                       1.42750
   21 Stretch                 11    12                       1.08388
   22 Stretch                 11    13                       1.37922
   23 Stretch                 13    14                       1.40274
   24 Stretch                 13    22                       1.08309
   25 Stretch                 14    15                       1.39906
   26 Stretch                 14    23                       1.08292
   27 Stretch                 15    24                       1.08496
   28 Bend                     1     2     3               122.33087
   29 Bend                     1     2    18               117.99801
   30 Bend                     1     6     5               117.90639
   31 Bend                     1     6    20               121.29039
   32 Bend                     2     1     6               120.24937
   33 Bend                     2     1    17               118.68750
   34 Bend                     2     3     4               117.42532
   35 Bend                     2     3     7               122.12956
   36 Bend                     3     2    18               119.67112
   37 Bend                     3     4     5               120.14312
   38 Bend                     3     4     8               121.42113
   39 Bend                     3     7    10               121.06161
   40 Bend                     3     7    16               118.68562
   41 Bend                     4     3     7               120.44512
   42 Bend                     4     5     6               121.94493
   43 Bend                     4     5    19               118.05402
   44 Bend                     4     8     9               116.08793
   45 Bend                     4     8    21               108.03796
   46 Bend                     4     8    25               108.03796
   47 Bend                     5     4     8               118.43576
   48 Bend                     5     6    20               120.80322
   49 Bend                     6     1    17               121.06313
   50 Bend                     6     5    19               120.00105
   51 Bend                     7    10     9               120.55717
   52 Bend                     7    10    11               121.20425
   53 Bend                     8     9    10               120.42704
   54 Bend                     8     9    15               119.99138
   55 Bend                     9     8    21               110.16485
   56 Bend                     9     8    25               110.16485
   57 Bend                     9    10    11               118.23858
   58 Bend                     9    15    14               121.00076
   59 Bend                     9    15    24               119.73873
   60 Bend                    10     7    16               120.25277
   61 Bend                    10     9    15               119.58158
   62 Bend                    10    11    12               118.68911
   63 Bend                    10    11    13               120.95478
   64 Bend                    11    13    14               120.07378
   65 Bend                    11    13    22               120.02070
   66 Bend                    12    11    13               120.35611
   67 Bend                    13    14    15               120.15052
   68 Bend                    13    14    23               120.07657
   69 Bend                    14    13    22               119.90552
   70 Bend                    14    15    24               119.26050
   71 Bend                    15    14    23               119.77291
   72 Bend                    21     8    25               103.58249
   73 Torsion                  1     2     3     4           0.00000
   74 Torsion                  1     2     3     7         180.00000
   75 Torsion                  1     6     5     4          -0.00000
   76 Torsion                  1     6     5    19         180.00000
   77 Torsion                  2     1     6     5           0.00000
   78 Torsion                  2     1     6    20         180.00000
   79 Torsion                  2     3     4     5           0.00000
   80 Torsion                  2     3     4     8         180.00000
   81 Torsion                  2     3     7    10         180.00000
   82 Torsion                  2     3     7    16           0.00000
   83 Torsion                  3     2     1     6           0.00000
   84 Torsion                  3     2     1    17         180.00000
   85 Torsion                  3     4     5     6           0.00000
   86 Torsion                  3     4     5    19         180.00000
   87 Torsion                  3     4     8     9          -0.00000
   88 Torsion                  3     4     8    21         124.27160
   89 Torsion                  3     4     8    25        -124.27160
   90 Torsion                  3     7    10     9           0.00000
   91 Torsion                  3     7    10    11         180.00000
   92 Torsion                  4     3     2    18         180.00000
   93 Torsion                  4     3     7    10           0.00000
   94 Torsion                  4     3     7    16         180.00000
   95 Torsion                  4     5     6    20         180.00000
   96 Torsion                  4     8     9    10           0.00000
   97 Torsion                  4     8     9    15         180.00000
   98 Torsion                  5     4     3     7         180.00000
   99 Torsion                  5     4     8     9         180.00000
  100 Torsion                  5     4     8    21         -55.72840
  101 Torsion                  5     4     8    25          55.72840
  102 Torsion                  5     6     1    17         180.00000
  103 Torsion                  6     1     2    18         180.00000
  104 Torsion                  6     5     4     8         180.00000
  105 Torsion                  7     3     2    18           0.00000
  106 Torsion                  7     3     4     8           0.00000
  107 Torsion                  7    10     9     8           0.00000
  108 Torsion                  7    10     9    15         180.00000
  109 Torsion                  7    10    11    12           0.00000
  110 Torsion                  7    10    11    13         180.00000
  111 Torsion                  8     4     5    19           0.00000
  112 Torsion                  8     9    10    11         180.00000
  113 Torsion                  8     9    15    14         180.00000
  114 Torsion                  8     9    15    24           0.00000
  115 Torsion                  9    10     7    16         180.00000
  116 Torsion                  9    10    11    12         180.00000
  117 Torsion                  9    10    11    13           0.00000
  118 Torsion                  9    15    14    13           0.00000
  119 Torsion                  9    15    14    23         180.00000
  120 Torsion                 10     9     8    21        -123.16790
  121 Torsion                 10     9     8    25         123.16790
  122 Torsion                 10     9    15    14           0.00000
  123 Torsion                 10     9    15    24         180.00000
  124 Torsion                 10    11    13    14           0.00000
  125 Torsion                 10    11    13    22         180.00000
  126 Torsion                 11    10     7    16           0.00000
  127 Torsion                 11    10     9    15          -0.00000
  128 Torsion                 11    13    14    15           0.00000
  129 Torsion                 11    13    14    23         180.00000
  130 Torsion                 12    11    13    14         180.00000
  131 Torsion                 12    11    13    22          -0.00000
  132 Torsion                 13    14    15    24         180.00000
  133 Torsion                 15     9     8    21          56.83210
  134 Torsion                 15     9     8    25         -56.83210
  135 Torsion                 15    14    13    22         180.00000
  136 Torsion                 17     1     2    18           0.00000
  137 Torsion                 17     1     6    20           0.00000
  138 Torsion                 19     5     6    20          -0.00000
  139 Torsion                 22    13    14    23           0.00000
  140 Torsion                 23    14    15    24           0.00000


            XYZ format geometry
            -------------------
    25
 geometry
 C                     0.73029609    -3.71109379     0.00000000
 C                     1.41459682    -2.44499865     0.00000000
 C                     0.73196999    -1.22751368     0.00000000
 C                    -0.65510576    -1.27239883     0.00000000
 C                    -1.34214811    -2.54892479     0.00000000
 C                    -0.65184471    -3.75595350     0.00000000
 C                     1.43542299     0.06315523     0.00000000
 C                    -1.47299040    -0.02608229     0.00000000
 C                    -0.70486915     1.27080076     0.00000000
 C                     0.73150032     1.26552418     0.00000000
 C                     1.41152788     2.52063893     0.00000000
 H                     2.49540306     2.52518010     0.00000000
 C                     0.70952759     3.70783813     0.00000000
 C                    -0.69315171     3.69504918     0.00000000
 C                    -1.38480308     2.47891348     0.00000000
 H                     2.51739978     0.06492875     0.00000000
 H                     1.31903413    -4.62037480     0.00000000
 H                     2.49962914    -2.45242940     0.00000000
 H                    -2.42697510    -2.54446246     0.00000000
 H                    -1.18341866    -4.69813722     0.00000000
 H                    -2.15373009    -0.06454203    -0.86617300
 H                     1.24094460     4.65160061     0.00000000
 H                    -1.24438771     4.62717728     0.00000000
 H                    -2.46974156     2.48587499     0.00000000
 H                    -2.15373009    -0.06454203     0.86617300

 ==============================================================================
                                internuclear distances
 ------------------------------------------------------------------------------
       center one      |      center two      | atomic units |  angstroms
 ------------------------------------------------------------------------------
    2 C                |   1 C                |     2.71967  |     1.43919
    3 C                |   2 C                |     2.63767  |     1.39580
    4 C                |   3 C                |     2.62257  |     1.38780
    5 C                |   4 C                |     2.73948  |     1.44967
    6 C                |   1 C                |     2.61324  |     1.38287
    6 C                |   5 C                |     2.62763  |     1.39048
    7 C                |   3 C                |     2.77775  |     1.46992
    8 C                |   4 C                |     2.81705  |     1.49072
    9 C                |   8 C                |     2.84836  |     1.50729
   10 C                |   7 C                |     2.63290  |     1.39327
   10 C                |   9 C                |     2.71436  |     1.43638
   11 C                |  10 C                |     2.69758  |     1.42750
   12 H                |  11 C                |     2.04825  |     1.08388
   13 C                |  11 C                |     2.60635  |     1.37922
   14 C                |  13 C                |     2.65079  |     1.40274
   15 C                |   9 C                |     2.61974  |     1.38631
   15 C                |  14 C                |     2.64384  |     1.39906
   16 H                |   7 C                |     2.04464  |     1.08198
   17 H                |   1 C                |     2.04702  |     1.08324
   18 H                |   2 C                |     2.05046  |     1.08506
   19 H                |   5 C                |     2.05004  |     1.08484
   20 H                |   6 C                |     2.04430  |     1.08180
   21 H                |   8 C                |     2.08311  |     1.10233
   22 H                |  13 C                |     2.04675  |     1.08309
   23 H                |  14 C                |     2.04643  |     1.08292
   24 H                |  15 C                |     2.05028  |     1.08496
   25 H                |   8 C                |     2.08311  |     1.10233
 ------------------------------------------------------------------------------
                         number of included internuclear distances:         27
 ==============================================================================



 ==============================================================================
                                 internuclear angles
 ------------------------------------------------------------------------------
        center 1       |       center 2       |       center 3       |  degrees
 ------------------------------------------------------------------------------
    2 C                |   1 C                |   6 C                |   120.25
    2 C                |   1 C                |  17 H                |   118.69
    6 C                |   1 C                |  17 H                |   121.06
    1 C                |   2 C                |   3 C                |   122.33
    1 C                |   2 C                |  18 H                |   118.00
    3 C                |   2 C                |  18 H                |   119.67
    2 C                |   3 C                |   4 C                |   117.43
    2 C                |   3 C                |   7 C                |   122.13
    4 C                |   3 C                |   7 C                |   120.45
    3 C                |   4 C                |   5 C                |   120.14
    3 C                |   4 C                |   8 C                |   121.42
    5 C                |   4 C                |   8 C                |   118.44
    4 C                |   5 C                |   6 C                |   121.94
    4 C                |   5 C                |  19 H                |   118.05
    6 C                |   5 C                |  19 H                |   120.00
    1 C                |   6 C                |   5 C                |   117.91
    1 C                |   6 C                |  20 H                |   121.29
    5 C                |   6 C                |  20 H                |   120.80
    3 C                |   7 C                |  10 C                |   121.06
    3 C                |   7 C                |  16 H                |   118.69
   10 C                |   7 C                |  16 H                |   120.25
    4 C                |   8 C                |   9 C                |   116.09
    4 C                |   8 C                |  21 H                |   108.04
    4 C                |   8 C                |  25 H                |   108.04
    9 C                |   8 C                |  21 H                |   110.16
    9 C                |   8 C                |  25 H                |   110.16
   21 H                |   8 C                |  25 H                |   103.58
    8 C                |   9 C                |  10 C                |   120.43
    8 C                |   9 C                |  15 C                |   119.99
   10 C                |   9 C                |  15 C                |   119.58
    7 C                |  10 C                |   9 C                |   120.56
    7 C                |  10 C                |  11 C                |   121.20
    9 C                |  10 C                |  11 C                |   118.24
   10 C                |  11 C                |  12 H                |   118.69
   10 C                |  11 C                |  13 C                |   120.95
   12 H                |  11 C                |  13 C                |   120.36
   11 C                |  13 C                |  14 C                |   120.07
   11 C                |  13 C                |  22 H                |   120.02
   14 C                |  13 C                |  22 H                |   119.91
   13 C                |  14 C                |  15 C                |   120.15
   13 C                |  14 C                |  23 H                |   120.08
   15 C                |  14 C                |  23 H                |   119.77
    9 C                |  15 C                |  14 C                |   121.00
    9 C                |  15 C                |  24 H                |   119.74
   14 C                |  15 C                |  24 H                |   119.26
 ------------------------------------------------------------------------------
                            number of included internuclear angles:         45
 ==============================================================================





 Summary of "ao basis" -> "" (cartesian)
 ------------------------------------------------------------------------------
       Tag                 Description            Shells   Functions and Types
 ---------------- ------------------------------  ------  ---------------------
 *                           6-31G                    on all atoms 



                                 NWChem DFT Module
                                 -----------------


                                       Title


                      Basis "ao basis" -> "ao basis" (cartesian)
                      -----
  C (Carbon)
  ----------
            Exponent  Coefficients 
       -------------- ---------------------------------------------------------
  1 S  3.04752490E+03  0.001835
  1 S  4.57369510E+02  0.014037
  1 S  1.03948690E+02  0.068843
  1 S  2.92101550E+01  0.232184
  1 S  9.28666300E+00  0.467941
  1 S  3.16392700E+00  0.362312

  2 S  7.86827240E+00 -0.119332
  2 S  1.88128850E+00 -0.160854
  2 S  5.44249300E-01  1.143456

  3 P  7.86827240E+00  0.068999
  3 P  1.88128850E+00  0.316424
  3 P  5.44249300E-01  0.744308

  4 S  1.68714400E-01  1.000000

  5 P  1.68714400E-01  1.000000

  H (Hydrogen)
  ------------
            Exponent  Coefficients 
       -------------- ---------------------------------------------------------
  1 S  1.87311370E+01  0.033495
  1 S  2.82539370E+00  0.234727
  1 S  6.40121700E-01  0.813757

  2 S  1.61277800E-01  1.000000



 Summary of "ao basis" -> "ao basis" (cartesian)
 ------------------------------------------------------------------------------
       Tag                 Description            Shells   Functions and Types
 ---------------- ------------------------------  ------  ---------------------
 C                           6-31G                   5        9   3s2p
 H                           6-31G                   2        2   2s




 Summary of "ao basis" -> "ao basis" (cartesian)
 ------------------------------------------------------------------------------
       Tag                 Description            Shells   Functions and Types
 ---------------- ------------------------------  ------  ---------------------
 C                           6-31G                   5        9   3s2p
 H                           6-31G                   2        2   2s


      Symmetry analysis of basis
      --------------------------

        a'        118
        a"         30

  Caching 1-el integrals 

            General Information
            -------------------
          SCF calculation type: DFT
          Wavefunction type:  closed shell.
          No. of atoms     :    25
          No. of electrons :    94
           Alpha electrons :    47
            Beta electrons :    47
          Charge           :     1
          Spin multiplicity:     1
          Use of symmetry is: off; symmetry adaption is: on 
          Maximum number of iterations:  30
          AO basis - number of functions:   148
                     number of shells:    92
          Convergence on energy requested:  1.00D-06
          Convergence on density requested:  1.00D-05
          Convergence on gradient requested:  5.00D-04

              XC Information
              --------------
                         B3LYP Method XC Potential
                     Hartree-Fock (Exact) Exchange  0.200          
                        Slater Exchange Functional  0.800 local    
                    Becke 1988 Exchange Functional  0.720 non-local
              Lee-Yang-Parr Correlation Functional  0.810          
                  VWN I RPA Correlation Functional  0.190 local    

             Grid Information
             ----------------
          Grid used for XC integration:  medium    
          Radial quadrature: Mura-Knowles        
          Angular quadrature: Lebedev. 
          Tag              B.-S. Rad. Rad. Pts. Rad. Cut. Ang. Pts.
          ---              ---------- --------- --------- ---------
          C                   0.70       49          14.0       434
          H                   0.35       45          14.0       434
          Grid pruning is: on 
          Number of quadrature shells:  1181
          Spatial weights used:  Erf1

          Convergence Information
          -----------------------
          Convergence aids based upon iterative change in 
          total energy or number of iterations. 
          Levelshifting, if invoked, occurs when the 
          HOMO/LUMO gap drops below (HL_TOL):  1.00D-02
          DIIS, if invoked, will attempt to extrapolate 
          using up to (NFOCK): 10 stored Fock matrices.

                    Damping( 0%)  Levelshifting(0.5)       DIIS
                  --------------- ------------------- ---------------
          dE  on:    start            ASAP                start   
          dE off:    2 iters         30 iters            30 iters 


      Screening Tolerance Information
      -------------------------------
          Density screening/tol_rho:  1.00D-10
          AO Gaussian exp screening on grid/accAOfunc:  14
          CD Gaussian exp screening on grid/accCDfunc:  20
          XC Gaussian exp screening on grid/accXCfunc:  20
          Schwarz screening/accCoul:  1.00D-08


      Superposition of Atomic Density Guess
      -------------------------------------

 Sum of atomic energies:        -532.72411601

 Renormalizing density from      95.00 to     94

      Non-variational initial energy
      ------------------------------

 Total energy =    -538.725342
 1-e energy   =   -2234.201926
 2-e energy   =     918.838985
 HOMO         =      -0.441351
 LUMO         =      -0.318460


      Symmetry analysis of molecular orbitals - initial
      -------------------------------------------------

  Numbering of irreducible representations: 

     1 a'          2 a"      

  Orbital symmetries:

     1 a'          2 a'          3 a'          4 a'          5 a'      
     6 a'          7 a'          8 a'          9 a'         10 a'      
    11 a'         12 a'         13 a'         14 a'         15 a'      
    16 a'         17 a'         18 a'         19 a'         20 a'      
    21 a'         22 a'         23 a'         24 a'         25 a'      
    26 a'         27 a'         28 a'         29 a'         30 a'      
    31 a"         32 a'         33 a'         34 a'         35 a'      
    36 a'         37 a"         38 a'         39 a"         40 a'      
    41 a'         42 a'         43 a"         44 a'         45 a"      
    46 a"         47 a"         48 a"         49 a"         50 a"      
    51 a"         52 a"         53 a'         54 a'         55 a'      
    56 a"         57 a"      

   Time after variat. SCF:      4.4
   Time prior to 1st pass:      4.4

 Integral file          = ./molecule.aoints.0
 Record size in doubles =  65536        No. of integs per rec  =  43688
 Max. records in memory =      0        Max. records in file   =   2993
 No. of bits per label  =      8        No. of bits per value  =     64


 #quartets = 4.735D+06 #integrals = 1.956D+07 #direct =  0.0% #cached =100.0%


 Grid_pts file          = ./molecule.gridpts.0
 Record size in doubles =  12289        No. of grid_pts per rec  =   3070
 Max. records in memory =    185        Max. recs in file   =     13567


 !! scf_movecs_sym_adapt:   16 vectors were symmetry contaminated

  Symmetry fudging

           Memory utilization after 1st SCF pass: 
           Heap Space remaining (MW):       10.83            10826570
          Stack Space remaining (MW):       13.11            13105548

   convergence    iter        energy       DeltaE   RMS-Dens  Diis-err    time
 ---------------- ----- ----------------- --------- --------- ---------  ------
 d= 0,ls=0.0,diis     1   -539.6229588690 -1.32D+03  1.10D-02  1.08D+00    26.2

 !! scf_movecs_sym_adapt:   14 vectors were symmetry contaminated

  Symmetry fudging
 d= 0,ls=0.0,diis     2   -539.7199567666 -9.70D-02  6.55D-03  2.31D-01    33.6

 !! scf_movecs_sym_adapt:   21 vectors were symmetry contaminated

  Symmetry fudging
 d= 0,ls=0.0,diis     3   -539.7120870311  7.87D-03  3.68D-03  2.70D-01    39.2

 !! scf_movecs_sym_adapt:   12 vectors were symmetry contaminated

  Symmetry fudging
 d= 0,ls=0.0,diis     4   -539.7527076239 -4.06D-02  9.38D-04  1.14D-02    45.6

 !! scf_movecs_sym_adapt:    3 vectors were symmetry contaminated

  Symmetry fudging
 d= 0,ls=0.0,diis     5   -539.7543729904 -1.67D-03  2.39D-04  1.32D-03    52.4
  Resetting Diis
 d= 0,ls=0.0,diis     6   -539.7545530272 -1.80D-04  8.15D-05  1.50D-04    59.2
 d= 0,ls=0.0,diis     7   -539.7545728053 -1.98D-05  7.12D-05  9.29D-06    65.7
 d= 0,ls=0.0,diis     8   -539.7545680722  4.73D-06  4.40D-05  4.06D-05    72.5
 d= 0,ls=0.0,diis     9   -539.7545742669 -6.19D-06  3.40D-06  2.07D-07    79.2
 d= 0,ls=0.0,diis    10   -539.7545742922 -2.53D-08  1.75D-06  3.21D-08    86.1


         Total DFT energy =     -539.754574292204
      One electron energy =    -2252.330228167712
           Coulomb energy =     1015.737290513286
    Exchange-Corr. energy =      -79.799235545439
 Nuclear repulsion energy =      776.637598907661

 Numeric. integr. density =       94.000016715683

     Total iterative time =     81.8s



                  Occupations of the irreducible representations
                  ----------------------------------------------

                     irrep           alpha         beta
                     --------     --------     --------
                     a'               40.0         40.0
                     a"                7.0          7.0


                       DFT Final Molecular Orbital Analysis
                       ------------------------------------

 Vector    1  Occ=2.000000D+00  E=-1.041132D+01  Symmetry=a'
              MO Center=  1.4D+00,  6.3D-02, -1.9D-13, r^2= 2.8D-02
   Bfn.  Coefficient  Atom+Function         Bfn.  Coefficient  Atom+Function  
  ----- ------------  ---------------      ----- ------------  ---------------
    55      0.995304   7 C  s                60     -0.038181   7 C  s         
    56      0.036404   7 C  s         

 Vector    2  Occ=2.000000D+00  E=-1.038104D+01  Symmetry=a'
              MO Center= -7.0D-01,  1.3D+00, -8.0D-14, r^2= 2.9D-02
   Bfn.  Coefficient  Atom+Function         Bfn.  Coefficient  Atom+Function  
  ----- ------------  ---------------      ----- ------------  ---------------
    73      0.995081   9 C  s                78     -0.042475   9 C  s         
    74      0.036876   9 C  s         

 Vector    3  Occ=2.000000D+00  E=-1.037400D+01  Symmetry=a'
              MO Center=  7.3D-01,  1.3D+00,  3.3D-13, r^2= 2.9D-02
   Bfn.  Coefficient  Atom+Function         Bfn.  Coefficient  Atom+Function  
  ----- ------------  ---------------      ----- ------------  ---------------
    82      0.994967  10 C  s                87     -0.044338  10 C  s         
    83      0.037224  10 C  s         

 Vector    4  Occ=2.000000D+00  E=-1.036809D+01  Symmetry=a'
              MO Center= -6.4D-01, -1.3D+00, -8.7D-14, r^2= 4.2D-02
   Bfn.  Coefficient  Atom+Function         Bfn.  Coefficient  Atom+Function  
  ----- ------------  ---------------      ----- ------------  ---------------
    28      0.991652   4 C  s                19      0.084989   3 C  s         
    33     -0.042095   4 C  s                29      0.036627   4 C  s         

 Vector    5  Occ=2.000000D+00  E=-1.036528D+01  Symmetry=a'
              MO Center=  7.2D-01, -1.2D+00,  1.4D-14, r^2= 4.2D-02
   Bfn.  Coefficient  Atom+Function         Bfn.  Coefficient  Atom+Function  
  ----- ------------  ---------------      ----- ------------  ---------------
    19      0.991577   3 C  s                28     -0.085342   4 C  s         
    24     -0.045628   3 C  s                20      0.037271   3 C  s         

 Vector    6  Occ=2.000000D+00  E=-1.036255D+01  Symmetry=a'
              MO Center= -6.9D-01,  3.7D+00,  7.4D-14, r^2= 2.8D-02
   Bfn.  Coefficient  Atom+Function         Bfn.  Coefficient  Atom+Function  
  ----- ------------  ---------------      ----- ------------  ---------------
   111      0.995103  14 C  s               116     -0.039896  14 C  s         
   112      0.036525  14 C  s         

 Vector    7  Occ=2.000000D+00  E=-1.036132D+01  Symmetry=a'
              MO Center=  1.4D+00,  2.5D+00,  3.7D-14, r^2= 2.9D-02
   Bfn.  Coefficient  Atom+Function         Bfn.  Coefficient  Atom+Function  
  ----- ------------  ---------------      ----- ------------  ---------------
    91      0.995056  11 C  s                96     -0.040471  11 C  s         
    92      0.036627  11 C  s         

 Vector    8  Occ=2.000000D+00  E=-1.035291D+01  Symmetry=a'
              MO Center= -1.5D+00, -2.6D-02, -2.1D-21, r^2= 2.8D-02
   Bfn.  Coefficient  Atom+Function         Bfn.  Coefficient  Atom+Function  
  ----- ------------  ---------------      ----- ------------  ---------------
    64      0.995546   8 C  s                69     -0.047860   8 C  s         
    65      0.039739   8 C  s         

 Vector    9  Occ=2.000000D+00  E=-1.034829D+01  Symmetry=a'
              MO Center=  1.4D+00, -2.4D+00,  3.4D-14, r^2= 2.8D-02
   Bfn.  Coefficient  Atom+Function         Bfn.  Coefficient  Atom+Function  
  ----- ------------  ---------------      ----- ------------  ---------------
    10      0.995127   2 C  s                15     -0.039353   2 C  s         
    11      0.036466   2 C  s         

 Vector   10  Occ=2.000000D+00  E=-1.034710D+01  Symmetry=a'
              MO Center= -1.4D+00,  2.5D+00,  2.0D-13, r^2= 2.8D-02
   Bfn.  Coefficient  Atom+Function         Bfn.  Coefficient  Atom+Function  
  ----- ------------  ---------------      ----- ------------  ---------------
   120      0.995148  15 C  s               125     -0.042613  15 C  s         
   121      0.036902  15 C  s         

 Vector   11  Occ=2.000000D+00  E=-1.034502D+01  Symmetry=a'
              MO Center=  7.1D-01,  3.7D+00,  2.9D-13, r^2= 2.8D-02
   Bfn.  Coefficient  Atom+Function         Bfn.  Coefficient  Atom+Function  
  ----- ------------  ---------------      ----- ------------  ---------------
   102      0.995077  13 C  s               107     -0.041948  13 C  s         
   103      0.036874  13 C  s         

 Vector   12  Occ=2.000000D+00  E=-1.034259D+01  Symmetry=a'
              MO Center= -6.5D-01, -3.8D+00,  6.3D-14, r^2= 3.9D-02
   Bfn.  Coefficient  Atom+Function         Bfn.  Coefficient  Atom+Function  
  ----- ------------  ---------------      ----- ------------  ---------------
    46      0.992254   6 C  s                37      0.067606   5 C  s         
    51     -0.039475   6 C  s                 1      0.036869   1 C  s         
    47      0.036402   6 C  s         

 Vector   13  Occ=2.000000D+00  E=-1.033912D+01  Symmetry=a'
              MO Center= -1.3D+00, -2.6D+00,  1.1D-14, r^2= 3.7D-02
   Bfn.  Coefficient  Atom+Function         Bfn.  Coefficient  Atom+Function  
  ----- ------------  ---------------      ----- ------------  ---------------
    37      0.992976   5 C  s                46     -0.067844   6 C  s         
    42     -0.041025   5 C  s                38      0.036588   5 C  s         

 Vector   14  Occ=2.000000D+00  E=-1.033587D+01  Symmetry=a'
              MO Center=  7.3D-01, -3.7D+00,  2.8D-13, r^2= 3.1D-02
   Bfn.  Coefficient  Atom+Function         Bfn.  Coefficient  Atom+Function  
  ----- ------------  ---------------      ----- ------------  ---------------
     1      0.994518   1 C  s                 6     -0.040600   1 C  s         
    46     -0.037486   6 C  s                 2      0.036619   1 C  s         

 Vector   15  Occ=2.000000D+00  E=-1.055320D+00  Symmetry=a'
              MO Center=  1.5D-01,  5.4D-01,  3.3D-19, r^2= 4.0D+00
   Bfn.  Coefficient  Atom+Function         Bfn.  Coefficient  Atom+Function  
  ----- ------------  ---------------      ----- ------------  ---------------
    83      0.203142  10 C  s                74      0.178191   9 C  s         
    56      0.160603   7 C  s                20      0.157736   3 C  s         
    29      0.137794   4 C  s                92      0.113494  11 C  s         
    69      0.111590   8 C  s                60      0.110830   7 C  s         
    65      0.108823   8 C  s               121      0.104886  15 C  s         

 Vector   16  Occ=2.000000D+00  E=-1.018677D+00  Symmetry=a'
              MO Center=  6.0D-02, -1.6D-01,  2.4D-10, r^2= 7.6D+00
   Bfn.  Coefficient  Atom+Function         Bfn.  Coefficient  Atom+Function  
  ----- ------------  ---------------      ----- ------------  ---------------
    20      0.177240   3 C  s                29      0.162532   4 C  s         
    11      0.134074   2 C  s               112     -0.126484  14 C  s         
   103     -0.124668  13 C  s                38      0.122677   5 C  s         
    92     -0.123175  11 C  s               121     -0.121225  15 C  s         
    47      0.116054   6 C  s                 2      0.111144   1 C  s         

 Vector   17  Occ=2.000000D+00  E=-9.681331D-01  Symmetry=a'
              MO Center=  1.4D-01,  7.7D-02,  2.8D-10, r^2= 9.1D+00
   Bfn.  Coefficient  Atom+Function         Bfn.  Coefficient  Atom+Function  
  ----- ------------  ---------------      ----- ------------  ---------------
    56      0.206864   7 C  s               112     -0.174634  14 C  s         
    47     -0.168104   6 C  s                 2     -0.137195   1 C  s         
    83      0.137654  10 C  s               103     -0.136975  13 C  s         
   121     -0.127494  15 C  s                38     -0.126133   5 C  s         
   116     -0.115706  14 C  s                60      0.109397   7 C  s         

 Vector   18  Occ=2.000000D+00  E=-9.557375D-01  Symmetry=a'
              MO Center= -2.5D-01,  4.4D-01,  9.6D-11, r^2= 5.4D+00
   Bfn.  Coefficient  Atom+Function         Bfn.  Coefficient  Atom+Function  
  ----- ------------  ---------------      ----- ------------  ---------------
    65      0.231529   8 C  s                69      0.200599   8 C  s         
    74      0.172523   9 C  s                92     -0.154973  11 C  s         
    56     -0.125049   7 C  s                64     -0.121649   8 C  s         
    29      0.115671   4 C  s               103     -0.114890  13 C  s         
    11     -0.104420   2 C  s               121      0.102821  15 C  s         

 Vector   19  Occ=2.000000D+00  E=-9.150366D-01  Symmetry=a'
              MO Center=  6.5D-02, -5.2D-01, -2.7D-11, r^2= 8.7D+00
   Bfn.  Coefficient  Atom+Function         Bfn.  Coefficient  Atom+Function  
  ----- ------------  ---------------      ----- ------------  ---------------
    20      0.208365   3 C  s                47     -0.197531   6 C  s         
   112      0.165864  14 C  s                83     -0.160875  10 C  s         
    24      0.154966   3 C  s                51     -0.143429   6 C  s         
    38     -0.142593   5 C  s                11      0.126838   2 C  s         
   116      0.126892  14 C  s                87     -0.123970  10 C  s         

 Vector   20  Occ=2.000000D+00  E=-9.064779D-01  Symmetry=a'
              MO Center= -4.4D-02,  3.1D-01, -2.0D-10, r^2= 8.7D+00
   Bfn.  Coefficient  Atom+Function         Bfn.  Coefficient  Atom+Function  
  ----- ------------  ---------------      ----- ------------  ---------------
    29      0.192322   4 C  s               103      0.184011  13 C  s         
   121     -0.157882  15 C  s                74     -0.156909   9 C  s         
     2     -0.155679   1 C  s                92      0.150546  11 C  s         
    33      0.140151   4 C  s               107      0.137982  13 C  s         
    78     -0.124123   9 C  s                11     -0.118229   2 C  s         

 Vector   21  Occ=2.000000D+00  E=-8.632931D-01  Symmetry=a'
              MO Center=  7.7D-02, -3.4D-01, -3.6D-20, r^2= 9.2D+00
   Bfn.  Coefficient  Atom+Function         Bfn.  Coefficient  Atom+Function  
  ----- ------------  ---------------      ----- ------------  ---------------
    11      0.188641   2 C  s                38     -0.171860   5 C  s         
    56     -0.162705   7 C  s                69      0.143906   8 C  s         
    92      0.144005  11 C  s               112     -0.142235  14 C  s         
    15      0.134606   2 C  s                65      0.133052   8 C  s         
    42     -0.130572   5 C  s                60     -0.127480   7 C  s         

 Vector   22  Occ=2.000000D+00  E=-8.229176D-01  Symmetry=a'
              MO Center= -1.1D-01,  1.2D-01, -6.9D-11, r^2= 8.4D+00
   Bfn.  Coefficient  Atom+Function         Bfn.  Coefficient  Atom+Function  
  ----- ------------  ---------------      ----- ------------  ---------------
    69      0.201556   8 C  s                65      0.174332   8 C  s         
    56      0.162741   7 C  s                60      0.140203   7 C  s         
     2      0.137976   1 C  s                85     -0.133298  10 C  py        
   112      0.131929  14 C  s                76     -0.130453   9 C  py        
    31      0.118541   4 C  py              116      0.117859  14 C  s         

 Vector   23  Occ=2.000000D+00  E=-7.794457D-01  Symmetry=a'
              MO Center=  1.3D-01,  4.1D-01, -1.4D-10, r^2= 6.6D+00
   Bfn.  Coefficient  Atom+Function         Bfn.  Coefficient  Atom+Function  
  ----- ------------  ---------------      ----- ------------  ---------------
    84     -0.174120  10 C  px               75      0.165249   9 C  px        
    21     -0.147898   3 C  px               57     -0.144719   7 C  px        
    69     -0.139851   8 C  s                30      0.132923   4 C  px        
   121     -0.131748  15 C  s                92     -0.122088  11 C  s         
   129     -0.104188  16 H  s                66      0.102995   8 C  px        

 Vector   24  Occ=2.000000D+00  E=-7.737817D-01  Symmetry=a'
              MO Center=  9.6D-02,  1.2D-01, -1.4D-10, r^2= 9.6D+00
   Bfn.  Coefficient  Atom+Function         Bfn.  Coefficient  Atom+Function  
  ----- ------------  ---------------      ----- ------------  ---------------
    58      0.171209   7 C  py               94     -0.158375  11 C  py        
   123      0.149426  15 C  py               47     -0.139383   6 C  s         
    40      0.135705   5 C  py               83      0.135261  10 C  s         
   103     -0.133569  13 C  s               112      0.133249  14 C  s         
    87      0.126659  10 C  s                13     -0.121966   2 C  py        

 Vector   25  Occ=2.000000D+00  E=-7.553542D-01  Symmetry=a'
              MO Center=  4.8D-02, -4.8D-01, -1.6D-20, r^2= 9.5D+00
   Bfn.  Coefficient  Atom+Function         Bfn.  Coefficient  Atom+Function  
  ----- ------------  ---------------      ----- ------------  ---------------
    11      0.166595   2 C  s                15      0.166015   2 C  s         
    38      0.162165   5 C  s                21      0.149755   3 C  px        
    42      0.149216   5 C  s               125     -0.142940  15 C  s         
   121     -0.134133  15 C  s                30     -0.131665   4 C  px        
    96     -0.131820  11 C  s                92     -0.129625  11 C  s         

 Vector   26  Occ=2.000000D+00  E=-7.047449D-01  Symmetry=a'
              MO Center=  2.1D-02, -2.2D-01, -2.6D-10, r^2= 1.1D+01
   Bfn.  Coefficient  Atom+Function         Bfn.  Coefficient  Atom+Function  
  ----- ------------  ---------------      ----- ------------  ---------------
    60      0.194161   7 C  s                69     -0.186973   8 C  s         
    13     -0.164074   2 C  py               40      0.152521   5 C  py        
    94      0.144184  11 C  py               47     -0.141047   6 C  s         
   123     -0.141708  15 C  py               51     -0.134160   6 C  s         
   107      0.131425  13 C  s                 2      0.127537   1 C  s         

 Vector   27  Occ=2.000000D+00  E=-6.834687D-01  Symmetry=a'
              MO Center=  9.4D-02,  7.4D-01,  3.9D-20, r^2= 9.3D+00
   Bfn.  Coefficient  Atom+Function         Bfn.  Coefficient  Atom+Function  
  ----- ------------  ---------------      ----- ------------  ---------------
    58      0.190974   7 C  py              114      0.158536  14 C  py        
   105      0.157052  13 C  py               67      0.154453   8 C  py        
    93      0.148546  11 C  px              122     -0.147030  15 C  px        
    85     -0.143333  10 C  py               22     -0.125462   3 C  py        
    76     -0.116975   9 C  py                4      0.115969   1 C  py        

 Vector   28  Occ=2.000000D+00  E=-6.682748D-01  Symmetry=a'
              MO Center=  2.9D-01, -1.2D-01, -4.1D-10, r^2= 9.4D+00
   Bfn.  Coefficient  Atom+Function         Bfn.  Coefficient  Atom+Function  
  ----- ------------  ---------------      ----- ------------  ---------------
    57      0.210621   7 C  px              113      0.154844  14 C  px        
   104     -0.150452  13 C  px               22     -0.140149   3 C  py        
    12     -0.139435   2 C  px               39      0.135241   5 C  px        
     3     -0.132855   1 C  px              129      0.126900  16 H  s         
    48      0.120923   6 C  px               69      0.120097   8 C  s         

 Vector   29  Occ=2.000000D+00  E=-6.277222D-01  Symmetry=a'
              MO Center=  1.5D-01,  1.0D+00,  8.8D-10, r^2= 1.0D+01
   Bfn.  Coefficient  Atom+Function         Bfn.  Coefficient  Atom+Function  
  ----- ------------  ---------------      ----- ------------  ---------------
   114      0.223383  14 C  py               57      0.186877   7 C  px        
    78      0.186031   9 C  s                93      0.159107  11 C  px        
   105      0.152682  13 C  py                4     -0.148851   1 C  py        
    85      0.149326  10 C  py               60     -0.140312   7 C  s         
   143      0.138584  23 H  s                94     -0.132722  11 C  py        

 Vector   30  Occ=2.000000D+00  E=-6.219050D-01  Symmetry=a'
              MO Center=  3.3D-02, -1.7D-01,  4.6D-11, r^2= 1.2D+01
   Bfn.  Coefficient  Atom+Function         Bfn.  Coefficient  Atom+Function  
  ----- ------------  ---------------      ----- ------------  ---------------
    49      0.201271   6 C  py               84     -0.184408  10 C  px        
    58     -0.181650   7 C  py              113     -0.167764  14 C  px        
   137     -0.154967  20 H  s               123      0.138895  15 C  py        
    48      0.137096   6 C  px               33     -0.127616   4 C  s         
    76     -0.122656   9 C  py               94      0.120945  11 C  py        

 Vector   31  Occ=2.000000D+00  E=-6.128972D-01  Symmetry=a'
              MO Center= -2.8D-02, -3.5D-01, -5.4D-10, r^2= 9.6D+00
   Bfn.  Coefficient  Atom+Function         Bfn.  Coefficient  Atom+Function  
  ----- ------------  ---------------      ----- ------------  ---------------
    87      0.232741  10 C  s                13      0.201990   2 C  py        
    40      0.190318   5 C  py               21      0.185205   3 C  px        
    48      0.169439   6 C  px               30     -0.165783   4 C  px        
     3     -0.155610   1 C  px               66     -0.132386   8 C  px        
    75      0.133044   9 C  px              122     -0.126375  15 C  px        

 Vector   32  Occ=2.000000D+00  E=-6.095309D-01  Symmetry=a'
              MO Center=  7.5D-02, -8.3D-01,  1.2D-18, r^2= 8.9D+00
   Bfn.  Coefficient  Atom+Function         Bfn.  Coefficient  Atom+Function  
  ----- ------------  ---------------      ----- ------------  ---------------
    24      0.196702   3 C  s                57     -0.182170   7 C  px        
    66     -0.157141   8 C  px               39     -0.141114   5 C  px        
   135      0.129442  19 H  s                67      0.127248   8 C  py        
   104     -0.121523  13 C  px               20      0.119652   3 C  s         
   129     -0.119121  16 H  s                15     -0.118487   2 C  s         

 Vector   33  Occ=2.000000D+00  E=-6.079428D-01  Symmetry=a"
              MO Center= -1.1D+00,  3.6D-02,  2.9D-11, r^2= 2.8D+00
   Bfn.  Coefficient  Atom+Function         Bfn.  Coefficient  Atom+Function  
  ----- ------------  ---------------      ----- ------------  ---------------
    68      0.368841   8 C  pz               72      0.178734   8 C  pz        
   139     -0.174693  21 H  s               147      0.174693  25 H  s         
    77      0.173673   9 C  pz               32      0.163795   4 C  pz        
    86      0.114007  10 C  pz              140     -0.111824  21 H  s         
   148      0.111824  25 H  s                23      0.106120   3 C  pz        

 Vector   34  Occ=2.000000D+00  E=-5.861958D-01  Symmetry=a'
              MO Center=  4.7D-02,  1.9D+00, -3.2D-19, r^2= 5.9D+00
   Bfn.  Coefficient  Atom+Function         Bfn.  Coefficient  Atom+Function  
  ----- ------------  ---------------      ----- ------------  ---------------
   122      0.306169  15 C  px               93      0.301223  11 C  px        
    85     -0.202423  10 C  py              145     -0.176078  24 H  s         
   100      0.173543  12 H  s               114     -0.162310  14 C  py        
    57     -0.139381   7 C  px               97      0.135374  11 C  px        
    76      0.129893   9 C  py              126      0.127637  15 C  px        

 Vector   35  Occ=2.000000D+00  E=-5.755691D-01  Symmetry=a'
              MO Center=  2.5D-01, -9.8D-01, -2.2D-10, r^2= 8.0D+00
   Bfn.  Coefficient  Atom+Function         Bfn.  Coefficient  Atom+Function  
  ----- ------------  ---------------      ----- ------------  ---------------
    22      0.249934   3 C  py               12      0.213365   2 C  px        
    39      0.199452   5 C  px               49      0.175446   6 C  py        
    76      0.172408   9 C  py               57     -0.160047   7 C  px        
    58     -0.151160   7 C  py               94     -0.136701  11 C  py        
   123     -0.136782  15 C  py              133      0.129736  18 H  s         

 Vector   36  Occ=2.000000D+00  E=-5.637777D-01  Symmetry=a'
              MO Center=  2.2D-01, -9.5D-02, -5.0D-10, r^2= 9.9D+00
   Bfn.  Coefficient  Atom+Function         Bfn.  Coefficient  Atom+Function  
  ----- ------------  ---------------      ----- ------------  ---------------
   105      0.200333  13 C  py               31      0.198188   4 C  py        
    12     -0.187696   2 C  px                4      0.176824   1 C  py        
    67     -0.177012   8 C  py               40     -0.171202   5 C  py        
    76      0.168361   9 C  py              141      0.148698  22 H  s         
    13     -0.142997   2 C  py               85      0.135499  10 C  py        

 Vector   37  Occ=2.000000D+00  E=-5.527278D-01  Symmetry=a'
              MO Center= -5.8D-01, -8.0D-01,  3.0D-18, r^2= 8.5D+00
   Bfn.  Coefficient  Atom+Function         Bfn.  Coefficient  Atom+Function  
  ----- ------------  ---------------      ----- ------------  ---------------
    66      0.262498   8 C  px               31      0.209006   4 C  py        
    39     -0.199773   5 C  px                3     -0.169913   1 C  px        
   113      0.161960  14 C  px              104     -0.155795  13 C  px        
    48      0.152730   6 C  px               30     -0.149055   4 C  px        
     4      0.139862   1 C  py               70      0.131205   8 C  px        

 Vector   38  Occ=2.000000D+00  E=-5.345162D-01  Symmetry=a"
              MO Center=  1.3D-01,  1.3D+00,  4.3D-10, r^2= 4.6D+00
   Bfn.  Coefficient  Atom+Function         Bfn.  Coefficient  Atom+Function  
  ----- ------------  ---------------      ----- ------------  ---------------
    86      0.271099  10 C  pz               68     -0.212582   8 C  pz        
    95      0.209221  11 C  pz               59      0.202768   7 C  pz        
   106      0.167380  13 C  pz               90      0.157805  10 C  pz        
   115      0.142746  14 C  pz              124      0.124451  15 C  pz        
   139      0.118602  21 H  s               147     -0.118602  25 H  s         

 Vector   39  Occ=2.000000D+00  E=-5.294157D-01  Symmetry=a'
              MO Center= -3.8D-02,  7.6D-01,  3.6D-20, r^2= 1.4D+01
   Bfn.  Coefficient  Atom+Function         Bfn.  Coefficient  Atom+Function  
  ----- ------------  ---------------      ----- ------------  ---------------
   114      0.237837  14 C  py              105     -0.214827  13 C  py        
   123     -0.206239  15 C  py                4      0.203633   1 C  py        
    60      0.200352   7 C  s                94      0.187040  11 C  py        
   143      0.174846  23 H  s                49     -0.167580   6 C  py        
    76      0.160174   9 C  py               69     -0.145544   8 C  s         

 Vector   40  Occ=2.000000D+00  E=-5.211302D-01  Symmetry=a"
              MO Center=  9.0D-02, -1.1D+00,  5.5D-11, r^2= 6.4D+00
   Bfn.  Coefficient  Atom+Function         Bfn.  Coefficient  Atom+Function  
  ----- ------------  ---------------      ----- ------------  ---------------
    23      0.268592   3 C  pz               14      0.206970   2 C  pz        
    32      0.180274   4 C  pz                5      0.167431   1 C  pz        
    50      0.160838   6 C  pz               41      0.156640   5 C  pz        
    27      0.154901   3 C  pz               77     -0.128711   9 C  pz        
   124     -0.125174  15 C  pz               59      0.119178   7 C  pz        

 Vector   41  Occ=2.000000D+00  E=-5.086696D-01  Symmetry=a'
              MO Center= -7.7D-02,  6.4D-01,  1.9D-19, r^2= 1.1D+01
   Bfn.  Coefficient  Atom+Function         Bfn.  Coefficient  Atom+Function  
  ----- ------------  ---------------      ----- ------------  ---------------
   113     -0.221317  14 C  px              104      0.219999  13 C  px        
    84      0.199536  10 C  px              122      0.194917  15 C  px        
    75     -0.187258   9 C  px               93     -0.178537  11 C  px        
    48      0.171276   6 C  px                3     -0.169123   1 C  px        
   145     -0.145140  24 H  s               100     -0.138654  12 H  s         

 Vector   42  Occ=2.000000D+00  E=-4.934836D-01  Symmetry=a'
              MO Center= -4.5D-02, -1.6D+00,  1.8D-18, r^2= 7.2D+00
   Bfn.  Coefficient  Atom+Function         Bfn.  Coefficient  Atom+Function  
  ----- ------------  ---------------      ----- ------------  ---------------
    21      0.224279   3 C  px               30     -0.220096   4 C  px        
    48     -0.199672   6 C  px                3      0.194082   1 C  px        
    39      0.174941   5 C  px               12     -0.168696   2 C  px        
    66      0.162103   8 C  px              131      0.139065  17 H  s         
   136     -0.133368  19 H  s               135     -0.132431  19 H  s         

 Vector   43  Occ=2.000000D+00  E=-4.868274D-01  Symmetry=a'
              MO Center= -9.9D-02, -4.0D-01,  4.2D-19, r^2= 9.8D+00
   Bfn.  Coefficient  Atom+Function         Bfn.  Coefficient  Atom+Function  
  ----- ------------  ---------------      ----- ------------  ---------------
    40      0.206886   5 C  py               67      0.196413   8 C  py        
    31     -0.185198   4 C  py               49     -0.174529   6 C  py        
    13     -0.165229   2 C  py               58     -0.165827   7 C  py        
     4      0.162623   1 C  py               94     -0.162648  11 C  py        
    76     -0.161533   9 C  py               22      0.144384   3 C  py        

 Vector   44  Occ=2.000000D+00  E=-4.630574D-01  Symmetry=a"
              MO Center=  1.3D-02,  1.2D-01, -6.0D-12, r^2= 1.1D+01
   Bfn.  Coefficient  Atom+Function         Bfn.  Coefficient  Atom+Function  
  ----- ------------  ---------------      ----- ------------  ---------------
   115      0.244548  14 C  pz               59     -0.243108   7 C  pz        
    50      0.227915   6 C  pz              106      0.178859  13 C  pz        
     5      0.177683   1 C  pz               86     -0.178057  10 C  pz        
   124      0.171892  15 C  pz               41      0.168318   5 C  pz        
    63     -0.168904   7 C  pz              119      0.150877  14 C  pz        

 Vector   45  Occ=2.000000D+00  E=-4.146458D-01  Symmetry=a"
              MO Center=  1.3D-03,  1.9D+00,  3.4D-10, r^2= 5.2D+00
   Bfn.  Coefficient  Atom+Function         Bfn.  Coefficient  Atom+Function  
  ----- ------------  ---------------      ----- ------------  ---------------
    95      0.308171  11 C  pz              124     -0.299978  15 C  pz        
    77     -0.262192   9 C  pz              106      0.255047  13 C  pz        
    99      0.215819  11 C  pz              128     -0.205522  15 C  pz        
    81     -0.187592   9 C  pz              110      0.171518  13 C  pz        
    14     -0.110001   2 C  pz               41      0.095070   5 C  pz        

 Vector   46  Occ=2.000000D+00  E=-4.099022D-01  Symmetry=a"
              MO Center=  2.7D-03, -4.6D-01, -4.2D-11, r^2= 9.3D+00
   Bfn.  Coefficient  Atom+Function         Bfn.  Coefficient  Atom+Function  
  ----- ------------  ---------------      ----- ------------  ---------------
    50     -0.268986   6 C  pz               23      0.265591   3 C  pz        
    86     -0.233768  10 C  pz              115      0.219050  14 C  pz        
    27      0.187654   3 C  pz               54     -0.180860   6 C  pz        
    90     -0.169279  10 C  pz                5     -0.161608   1 C  pz        
   106      0.158781  13 C  pz               77     -0.154632   9 C  pz        

 Vector   47  Occ=2.000000D+00  E=-3.854653D-01  Symmetry=a"
              MO Center= -4.8D-02, -2.0D+00, -1.1D-10, r^2= 5.1D+00
   Bfn.  Coefficient  Atom+Function         Bfn.  Coefficient  Atom+Function  
  ----- ------------  ---------------      ----- ------------  ---------------
    14      0.297793   2 C  pz               41     -0.293284   5 C  pz        
     5      0.270212   1 C  pz               32     -0.269543   4 C  pz        
    18      0.223055   2 C  pz               45     -0.208810   5 C  pz        
    36     -0.201412   4 C  pz                9      0.191322   1 C  pz        
    68      0.110332   8 C  pz              124     -0.098053  15 C  pz        

 Vector   48  Occ=0.000000D+00  E=-2.798333D-01  Symmetry=a"
              MO Center=  4.3D-01,  3.9D-01, -1.2D-10, r^2= 6.5D+00
   Bfn.  Coefficient  Atom+Function         Bfn.  Coefficient  Atom+Function  
  ----- ------------  ---------------      ----- ------------  ---------------
    59      0.402451   7 C  pz               63      0.372794   7 C  pz        
   115      0.232449  14 C  pz               77     -0.226310   9 C  pz        
   119      0.207087  14 C  pz               81     -0.203330   9 C  pz        
    95     -0.203879  11 C  pz               32     -0.186171   4 C  pz        
    99     -0.172745  11 C  pz               50      0.166850   6 C  pz        

 Vector   49  Occ=0.000000D+00  E=-1.654410D-01  Symmetry=a"
              MO Center= -2.3D-01,  1.9D-01,  4.7D-10, r^2= 9.4D+00
   Bfn.  Coefficient  Atom+Function         Bfn.  Coefficient  Atom+Function  
  ----- ------------  ---------------      ----- ------------  ---------------
   128      0.336346  15 C  pz               99      0.314083  11 C  pz        
   140     -0.311773  21 H  s               148      0.311773  25 H  s         
    45      0.299212   5 C  pz               18      0.282232   2 C  pz        
   110     -0.270722  13 C  pz               81     -0.253772   9 C  pz        
   124      0.248250  15 C  pz                9     -0.231504   1 C  pz        

 Vector   50  Occ=0.000000D+00  E=-1.619826D-01  Symmetry=a"
              MO Center=  5.6D-02,  2.3D-01,  1.0D-10, r^2= 9.1D+00
   Bfn.  Coefficient  Atom+Function         Bfn.  Coefficient  Atom+Function  
  ----- ------------  ---------------      ----- ------------  ---------------
    90      0.371943  10 C  pz              119      0.317367  14 C  pz        
    36      0.306239   4 C  pz               27     -0.299427   3 C  pz        
    86      0.292143  10 C  pz               81     -0.278789   9 C  pz        
    54     -0.272573   6 C  pz              110     -0.269451  13 C  pz        
   115      0.251080  14 C  pz                9      0.235044   1 C  pz        

 Vector   51  Occ=0.000000D+00  E=-1.521044D-01  Symmetry=a"
              MO Center=  2.2D-02, -1.9D-01,  4.4D-11, r^2= 9.7D+00
   Bfn.  Coefficient  Atom+Function         Bfn.  Coefficient  Atom+Function  
  ----- ------------  ---------------      ----- ------------  ---------------
    18      0.343188   2 C  pz               45      0.341008   5 C  pz        
   128     -0.337986  15 C  pz               99     -0.326786  11 C  pz        
    14      0.275728   2 C  pz               41      0.270383   5 C  pz        
   124     -0.261458  15 C  pz               95     -0.250989  11 C  pz        
     9     -0.222238   1 C  pz               81      0.203244   9 C  pz        

 Vector   52  Occ=0.000000D+00  E=-1.009647D-01  Symmetry=a"
              MO Center=  1.8D-01, -4.3D-01,  1.3D-10, r^2= 1.0D+01
   Bfn.  Coefficient  Atom+Function         Bfn.  Coefficient  Atom+Function  
  ----- ------------  ---------------      ----- ------------  ---------------
    54      0.407075   6 C  pz               63     -0.408476   7 C  pz        
    27      0.380635   3 C  pz              119      0.338825  14 C  pz        
    90      0.308437  10 C  pz                9     -0.298244   1 C  pz        
    50      0.286315   6 C  pz               59     -0.286477   7 C  pz        
    23      0.274132   3 C  pz              110     -0.273605  13 C  pz        

 Vector   53  Occ=0.000000D+00  E=-4.054557D-02  Symmetry=a'
              MO Center=  1.7D+00,  1.8D+00, -8.4D-19, r^2= 9.1D+00
   Bfn.  Coefficient  Atom+Function         Bfn.  Coefficient  Atom+Function  
  ----- ------------  ---------------      ----- ------------  ---------------
   130      1.211577  16 H  s               101      1.007426  12 H  s         
    61     -0.764026   7 C  px              142      0.646801  22 H  s         
   144      0.597374  23 H  s                96     -0.573983  11 C  s         
    60     -0.560288   7 C  s                97     -0.555915  11 C  px        
    87     -0.474197  10 C  s               107     -0.439069  13 C  s         

 Vector   54  Occ=0.000000D+00  E=-3.384117D-02  Symmetry=a'
              MO Center= -2.8D-01,  8.9D-01, -8.0D-17, r^2= 1.3D+01
   Bfn.  Coefficient  Atom+Function         Bfn.  Coefficient  Atom+Function  
  ----- ------------  ---------------      ----- ------------  ---------------
   146      0.974450  24 H  s               130     -0.838285  16 H  s         
    69     -0.749099   8 C  s               134     -0.715028  18 H  s         
   144      0.602894  23 H  s                60      0.576582   7 C  s         
   140      0.568451  21 H  s               148      0.568451  25 H  s         
   126      0.514162  15 C  px              125     -0.510609  15 C  s         

 Vector   55  Occ=0.000000D+00  E=-3.115749D-02  Symmetry=a'
              MO Center= -1.2D+00, -1.7D+00, -1.5D-16, r^2= 9.8D+00
   Bfn.  Coefficient  Atom+Function         Bfn.  Coefficient  Atom+Function  
  ----- ------------  ---------------      ----- ------------  ---------------
    69      1.237628   8 C  s               136     -0.914836  19 H  s         
   140     -0.832054  21 H  s               148     -0.832054  25 H  s         
   138     -0.619847  20 H  s               132     -0.550565  17 H  s         
    43     -0.517577   5 C  px               70     -0.480608   8 C  px        
   134     -0.471871  18 H  s                51      0.464799   6 C  s         

 Vector   56  Occ=0.000000D+00  E=-1.303785D-02  Symmetry=a'
              MO Center= -1.5D-01, -5.1D-01,  2.1D-17, r^2= 1.4D+01
   Bfn.  Coefficient  Atom+Function         Bfn.  Coefficient  Atom+Function  
  ----- ------------  ---------------      ----- ------------  ---------------
    69      1.473005   8 C  s                60      0.933818   7 C  s         
   130     -0.869210  16 H  s               140     -0.747791  21 H  s         
   148     -0.747791  25 H  s               138      0.608308  20 H  s         
   132      0.590676  17 H  s                51     -0.557221   6 C  s         
   144      0.551209  23 H  s               116     -0.533167  14 C  s         

 Vector   57  Occ=0.000000D+00  E=-1.195471D-02  Symmetry=a"
              MO Center= -4.4D-01,  9.2D-01, -2.2D-10, r^2= 7.3D+00
   Bfn.  Coefficient  Atom+Function         Bfn.  Coefficient  Atom+Function  
  ----- ------------  ---------------      ----- ------------  ---------------
   140      0.877107  21 H  s               148     -0.877107  25 H  s         
    72      0.735980   8 C  pz               90     -0.449482  10 C  pz        
    99      0.429783  11 C  pz              110     -0.395493  13 C  pz        
    63      0.342389   7 C  pz              119      0.325903  14 C  pz        
    86     -0.297601  10 C  pz               27     -0.270815   3 C  pz        

 Vector   58  Occ=0.000000D+00  E= 1.337409D-03  Symmetry=a"
              MO Center= -6.3D-02, -8.7D-01, -1.6D-10, r^2= 9.4D+00
   Bfn.  Coefficient  Atom+Function         Bfn.  Coefficient  Atom+Function  
  ----- ------------  ---------------      ----- ------------  ---------------
     9      0.442078   1 C  pz               54     -0.436990   6 C  pz        
    18     -0.427084   2 C  pz               27      0.410907   3 C  pz        
    45      0.384109   5 C  pz               81      0.335200   9 C  pz        
   128     -0.326156  15 C  pz               36     -0.318916   4 C  pz        
   140     -0.311088  21 H  s               148      0.311088  25 H  s         

 Vector   59  Occ=0.000000D+00  E= 1.176647D-02  Symmetry=a'
              MO Center=  2.2D-01,  5.5D-01, -1.1D-18, r^2= 1.5D+01
   Bfn.  Coefficient  Atom+Function         Bfn.  Coefficient  Atom+Function  
  ----- ------------  ---------------      ----- ------------  ---------------
   101      1.096613  12 H  s               146     -1.013102  24 H  s         
   134     -0.934175  18 H  s               136      0.868478  19 H  s         
    96     -0.691182  11 C  s               126     -0.585149  15 C  px        
    97     -0.577747  11 C  px               16      0.559109   2 C  px        
   125      0.547166  15 C  s                42     -0.532958   5 C  s         

 Vector   60  Occ=0.000000D+00  E= 2.579645D-02  Symmetry=a'
              MO Center= -3.7D-01,  5.7D-01,  8.5D-18, r^2= 1.9D+01
   Bfn.  Coefficient  Atom+Function         Bfn.  Coefficient  Atom+Function  
  ----- ------------  ---------------      ----- ------------  ---------------
   138     -0.963295  20 H  s               116     -0.924736  14 C  s         
    51      0.915384   6 C  s               142      0.857228  22 H  s         
   144      0.859019  23 H  s                96      0.782211  11 C  s         
   107     -0.755000  13 C  s               146     -0.704721  24 H  s         
    71     -0.690631   8 C  py              125      0.685816  15 C  s         

 Vector   61  Occ=0.000000D+00  E= 3.206165D-02  Symmetry=a'
              MO Center=  1.9D-01,  1.0D+00,  3.6D-17, r^2= 1.7D+01
   Bfn.  Coefficient  Atom+Function         Bfn.  Coefficient  Atom+Function  
  ----- ------------  ---------------      ----- ------------  ---------------
   116      1.134374  14 C  s               144     -1.033519  23 H  s         
   107     -0.965779  13 C  s                60      0.925091   7 C  s         
    87      0.828440  10 C  s                69     -0.778690   8 C  s         
   142      0.782559  22 H  s                78     -0.744582   9 C  s         
   134      0.681858  18 H  s                96     -0.612958  11 C  s         

 Vector   62  Occ=0.000000D+00  E= 4.218041D-02  Symmetry=a'
              MO Center=  7.7D-02, -1.6D+00, -1.6D-18, r^2= 1.4D+01
   Bfn.  Coefficient  Atom+Function         Bfn.  Coefficient  Atom+Function  
  ----- ------------  ---------------      ----- ------------  ---------------
     6      1.699240   1 C  s                87      1.230080  10 C  s         
   132     -1.197531  17 H  s                33      1.060933   4 C  s         
    24     -1.032931   3 C  s                42     -0.925445   5 C  s         
    62     -0.846916   7 C  py              136      0.843102  19 H  s         
   116      0.707229  14 C  s                78     -0.701949   9 C  s         

 Vector   63  Occ=0.000000D+00  E= 4.581348D-02  Symmetry=a'
              MO Center=  4.3D-04, -2.2D-01,  1.6D-18, r^2= 1.7D+01
   Bfn.  Coefficient  Atom+Function         Bfn.  Coefficient  Atom+Function  
  ----- ------------  ---------------      ----- ------------  ---------------
    15      1.211762   2 C  s                96      1.107015  11 C  s         
    78     -1.067975   9 C  s               107     -1.047209  13 C  s         
    51     -1.009135   6 C  s               125      0.975884  15 C  s         
   138      0.946766  20 H  s                42      0.872925   5 C  s         
   101     -0.813974  12 H  s               142      0.797573  22 H  s         

 Vector   64  Occ=0.000000D+00  E= 5.998226D-02  Symmetry=a'
              MO Center= -1.0D-02, -3.4D-02,  2.7D-17, r^2= 1.6D+01
   Bfn.  Coefficient  Atom+Function         Bfn.  Coefficient  Atom+Function  
  ----- ------------  ---------------      ----- ------------  ---------------
    80      1.279157   9 C  py               69      1.263805   8 C  s         
    70      1.157861   8 C  px               35     -1.042335   4 C  py        
   132     -0.932835  17 H  s               142     -0.908518  22 H  s         
   146     -0.838369  24 H  s               101      0.822684  12 H  s         
   126     -0.817836  15 C  px               97     -0.777004  11 C  px        

 Vector   65  Occ=0.000000D+00  E= 7.560264D-02  Symmetry=a"
              MO Center= -1.2D+00, -1.7D-01, -8.7D-12, r^2= 5.9D+00
   Bfn.  Coefficient  Atom+Function         Bfn.  Coefficient  Atom+Function  
  ----- ------------  ---------------      ----- ------------  ---------------
    72      1.153157   8 C  pz              140      1.156497  21 H  s         
   148     -1.156497  25 H  s                36     -0.557133   4 C  pz        
    81     -0.532921   9 C  pz               68      0.416398   8 C  pz        
    27      0.405499   3 C  pz               90      0.371681  10 C  pz        
    45      0.303027   5 C  pz               63     -0.296713   7 C  pz        

 Vector   66  Occ=0.000000D+00  E= 7.694364D-02  Symmetry=a'
              MO Center= -2.7D-02, -1.2D+00,  1.4D-17, r^2= 1.2D+01
   Bfn.  Coefficient  Atom+Function         Bfn.  Coefficient  Atom+Function  
  ----- ------------  ---------------      ----- ------------  ---------------
    78      1.265284   9 C  s               138      1.120058  20 H  s         
    53      1.061789   6 C  py               24      0.903008   3 C  s         
    60     -0.894598   7 C  s                43     -0.880749   5 C  px        
   136     -0.849499  19 H  s                69     -0.733769   8 C  s         
    96     -0.736524  11 C  s                26      0.688018   3 C  py        

 Vector   67  Occ=0.000000D+00  E= 8.168513D-02  Symmetry=a'
              MO Center= -4.6D-01,  7.8D-01, -1.9D-17, r^2= 1.4D+01
   Bfn.  Coefficient  Atom+Function         Bfn.  Coefficient  Atom+Function  
  ----- ------------  ---------------      ----- ------------  ---------------
    33      1.252654   4 C  s                87      1.229727  10 C  s         
   144      1.223562  23 H  s               118     -1.144319  14 C  py        
    69     -1.031647   8 C  s               132      0.856235  17 H  s         
     8      0.812106   1 C  py               71      0.794703   8 C  py        
   126     -0.785361  15 C  px              146     -0.784871  24 H  s         

 Vector   68  Occ=0.000000D+00  E= 1.123109D-01  Symmetry=a'
              MO Center=  1.8D-02,  8.2D-02,  3.8D-17, r^2= 1.1D+01
   Bfn.  Coefficient  Atom+Function         Bfn.  Coefficient  Atom+Function  
  ----- ------------  ---------------      ----- ------------  ---------------
   125     -1.244052  15 C  s                15      1.193400   2 C  s         
   107      1.179276  13 C  s                51     -1.113681   6 C  s         
    96      0.926459  11 C  s               117     -0.904329  14 C  px        
    60      0.879693   7 C  s                69     -0.857656   8 C  s         
    79     -0.857484   9 C  px               88     -0.808520  10 C  px        

 Vector   69  Occ=0.000000D+00  E= 1.389156D-01  Symmetry=a'
              MO Center= -2.2D-01,  5.4D-01, -1.2D-17, r^2= 1.2D+01
   Bfn.  Coefficient  Atom+Function         Bfn.  Coefficient  Atom+Function  
  ----- ------------  ---------------      ----- ------------  ---------------
    80      1.557451   9 C  py              116     -1.391915  14 C  s         
    33      1.354766   4 C  s                42     -1.230503   5 C  s         
    87     -1.218138  10 C  s               127      1.030063  15 C  py        
    96      0.997828  11 C  s               108     -0.921201  13 C  px        
    69      0.909325   8 C  s                71      0.897245   8 C  py        

 Vector   70  Occ=0.000000D+00  E= 1.454056D-01  Symmetry=a'
              MO Center=  3.0D-01, -7.4D-01,  3.3D-10, r^2= 9.6D+00
   Bfn.  Coefficient  Atom+Function         Bfn.  Coefficient  Atom+Function  
  ----- ------------  ---------------      ----- ------------  ---------------
    87      1.605647  10 C  s                62     -1.515151   7 C  py        
    78      1.515785   9 C  s                35     -1.428587   4 C  py        
[...]
   126      3.140379  15 C  px               80     -2.704121   9 C  py        
    78     -2.604411   9 C  s                87     -2.585225  10 C  s         
    43      2.199099   5 C  px               24     -2.028669   3 C  s         
    97     -1.992125  11 C  px               42      1.925215   5 C  s         

 Vector  141  Occ=0.000000D+00  E= 1.340362D+00  Symmetry=a'
              MO Center=  3.8D-01,  1.6D+00,  7.5D-17, r^2= 7.9D+00
   Bfn.  Coefficient  Atom+Function         Bfn.  Coefficient  Atom+Function  
  ----- ------------  ---------------      ----- ------------  ---------------
    88      6.386870  10 C  px               79      4.649110   9 C  px        
    60     -4.468845   7 C  s                89     -3.823059  10 C  py        
    97     -3.521311  11 C  px              125      3.495695  15 C  s         
    24      3.470023   3 C  s                87     -3.250923  10 C  s         
    78      2.995223   9 C  s                42     -2.599815   5 C  s         

 Vector  142  Occ=0.000000D+00  E= 1.357714D+00  Symmetry=a'
              MO Center=  1.2D-01, -3.9D-01,  5.4D-18, r^2= 1.1D+01
   Bfn.  Coefficient  Atom+Function         Bfn.  Coefficient  Atom+Function  
  ----- ------------  ---------------      ----- ------------  ---------------
    78      5.526916   9 C  s                88      5.308037  10 C  px        
    96     -3.923328  11 C  s                43      3.240645   5 C  px        
    79      3.139127   9 C  px               42      3.068619   5 C  s         
    16     -3.022267   2 C  px               15      2.948955   2 C  s         
    60     -2.889527   7 C  s                26      2.248175   3 C  py        

 Vector  143  Occ=0.000000D+00  E= 1.361594D+00  Symmetry=a'
              MO Center=  2.0D-01, -1.9D+00,  4.0D-17, r^2= 6.8D+00
   Bfn.  Coefficient  Atom+Function         Bfn.  Coefficient  Atom+Function  
  ----- ------------  ---------------      ----- ------------  ---------------
    25      8.812571   3 C  px               34      7.125594   4 C  px        
    33      6.828121   4 C  s                24     -4.091604   3 C  s         
    79     -3.789842   9 C  px               62      3.359896   7 C  py        
    60     -2.751405   7 C  s                88     -2.763449  10 C  px        
    26      2.531412   3 C  py               71     -2.413205   8 C  py        

 Vector  144  Occ=0.000000D+00  E= 1.383989D+00  Symmetry=a'
              MO Center=  2.0D-02, -8.3D-03,  4.2D-19, r^2= 5.2D+00
   Bfn.  Coefficient  Atom+Function         Bfn.  Coefficient  Atom+Function  
  ----- ------------  ---------------      ----- ------------  ---------------
    89     -5.083616  10 C  py               35      5.026053   4 C  py        
    80      4.406934   9 C  py               26     -4.351663   3 C  py        
    25      4.293033   3 C  px               79     -3.704683   9 C  px        
    34      3.619635   4 C  px               88     -3.457296  10 C  px        
    96      2.921927  11 C  s                42      2.739704   5 C  s         

 Vector  145  Occ=0.000000D+00  E= 1.450569D+00  Symmetry=a'
              MO Center=  4.4D-01,  5.7D-02, -7.1D-16, r^2= 6.7D+00
   Bfn.  Coefficient  Atom+Function         Bfn.  Coefficient  Atom+Function  
  ----- ------------  ---------------      ----- ------------  ---------------
    60     10.511932   7 C  s                61     -7.282633   7 C  px        
    87     -7.109125  10 C  s                26     -6.756041   3 C  py        
    89      6.070891  10 C  py               24     -6.012990   3 C  s         
    15     -4.517975   2 C  s                96     -4.462349  11 C  s         
    69      3.740081   8 C  s                79      3.679843   9 C  px        

 Vector  146  Occ=0.000000D+00  E= 1.783007D+00  Symmetry=a'
              MO Center= -7.1D-04,  2.7D+00, -4.7D-17, r^2= 5.6D+00
   Bfn.  Coefficient  Atom+Function         Bfn.  Coefficient  Atom+Function  
  ----- ------------  ---------------      ----- ------------  ---------------
   125     13.435557  15 C  s                96    -12.909502  11 C  s         
   107     12.664368  13 C  s               116    -12.474872  14 C  s         
    78    -12.196559   9 C  s                87     11.242582  10 C  s         
    80     -8.509111   9 C  py               89      8.251854  10 C  py        
   126      8.263516  15 C  px               97      8.034996  11 C  px        

 Vector  147  Occ=0.000000D+00  E= 1.788806D+00  Symmetry=a'
              MO Center=  3.8D-02, -2.7D+00,  2.1D-18, r^2= 5.5D+00
   Bfn.  Coefficient  Atom+Function         Bfn.  Coefficient  Atom+Function  
  ----- ------------  ---------------      ----- ------------  ---------------
    15    -13.058142   2 C  s                51    -13.023791   6 C  s         
    42     12.754294   5 C  s                 6     12.376375   1 C  s         
    24     12.194808   3 C  s                33    -11.601594   4 C  s         
    26     -9.886097   3 C  py               35      8.727794   4 C  py        
    16      8.176717   2 C  px               43      8.031130   5 C  px        

 Vector  148  Occ=0.000000D+00  E= 1.871742D+00  Symmetry=a'
              MO Center= -6.7D-01,  5.9D-02,  2.1D-15, r^2= 5.3D+00
   Bfn.  Coefficient  Atom+Function         Bfn.  Coefficient  Atom+Function  
  ----- ------------  ---------------      ----- ------------  ---------------
    69     17.170111   8 C  s                60    -13.968914   7 C  s         
    89    -10.503646  10 C  py               80      9.561935   9 C  py        
    26      9.405055   3 C  py               35     -8.705597   4 C  py        
    61      6.656776   7 C  px               96      6.374927  11 C  s         
    33     -5.898258   4 C  s                15      5.088984   2 C  s         


------------------------------------------------------------
EAF file 0: "./molecule.aoints.0" size=234881024 bytes
------------------------------------------------------------
               write      read    awrite     aread      wait
               -----      ----    ------     -----      ----
     calls:      448         9         0      4023      4023
   data(b): 2.35e+08  4.72e+06  0.00e+00  2.11e+09
   time(s): 0.00e+00  0.00e+00  0.00e+00  0.00e+00  0.00e+00
rate(mb/s): 0.00e+00  0.00e+00
------------------------------------------------------------


 center of mass
 --------------
 x =   0.01632792 y =   0.00093939 z =   0.00000000

 moments of inertia (a.u.)
 ------------------
        4117.895621680393           0.000000000000           0.000000000000
           0.000000000000         852.589990975318           0.000000000000
           0.000000000000           0.000000000000        4959.684908410462

     Multipole analysis of the density
     ---------------------------------

     L   x y z        total         alpha         beta         nuclear
     -   - - -        -----         -----         ----         -------
     0   0 0 0      1.000000    -47.000000    -47.000000     95.000000

     1   1 0 0      0.055101      0.027550      0.027550     -0.000000
     1   0 1 0      0.425363      0.212682      0.212682     -0.000000
     1   0 0 1      0.000000      0.000000      0.000000      0.000000

     2   2 0 0    -42.163936   -273.910197   -273.910197    505.656458
     2   1 1 0      0.144425     -0.042144     -0.042144      0.228713
     2   1 0 1      0.000000      0.000000      0.000000      0.000000
     2   0 2 0    -23.034088  -1138.428306  -1138.428306   2253.822524
     2   0 1 1     -0.000000     -0.000000     -0.000000      0.000000
     2   0 0 2    -61.201994    -33.280208    -33.280208      5.358422


 Parallel integral file used     448 records with       0 large values

                                NWChem TDDFT Module
                                -------------------


                                       Title


            General Information
            -------------------
           No. of orbitals :     296
            Alpha orbitals :     148
             Beta orbitals :     148
        Alpha frozen cores :       0
         Beta frozen cores :       0
     Alpha frozen virtuals :       0
      Beta frozen virtuals :       0
         Spin multiplicity :       1
    Number of AO functions :     148
        Use of symmetry is : off
      Symmetry adaption is : on 
         Schwarz screening :  0.10D-07

              XC Information
              --------------
                  B3LYP Method XC Potential
              Hartree-Fock (Exact) Exchange   0.20          
                 Slater Exchange Functional   0.80 local    
             Becke 1988 Exchange Functional   0.72 non-local
       Lee-Yang-Parr Correlation Functional   0.81          
           VWN I RPA Correlation Functional   0.19 local    

             TDDFT Information
             -----------------
          Calculation type : Tamm-Dancoff TDDFT
         Wavefunction type : Restricted singlets
          No. of electrons :      94
           Alpha electrons :      47
            Beta electrons :      47
              No. of roots :       5
          Max subspacesize :  100000
            Max iterations :    2000
               Target root :       1
           Target symmetry : none
      Symmetry restriction : off
                 Algorithm : Optimal
        Davidson threshold :  0.10D-03

            Memory Information
            ------------------
          Available GA space size is          26192496 doubles
          Available MA space size is          26207164 doubles
          Length of a trial vector is         4747
          Algorithm : Incore multiple tensor contraction
          Max subspace size reduced from    100000 to     1594
          Estimated peak GA usage is          23665761 doubles
          Estimated peak MA usage is             13000 doubles

    5 smallest eigenvalue differences (eV) 
--------------------------------------------------------
  No. Spin  Occ  Vir  Irrep   E(Occ)    E(Vir)   E(Diff)
--------------------------------------------------------
    1    1   47   48 a'       -0.385    -0.280     2.874
    2    1   46   48 a'       -0.410    -0.280     3.539
    3    1   45   48 a'       -0.415    -0.280     3.668
    4    1   44   48 a'       -0.463    -0.280     4.986
    5    1   43   48 a"       -0.487    -0.280     5.633
--------------------------------------------------------

  Entering Davidson iterations
  Restricted singlet excited states

  Iter   NTrls   NConv    DeltaV     DeltaE      Time   
  ----  ------  ------  ---------  ---------  --------- 
    1      5       0     0.18E+00   0.10+100       71.5
    2     10       0     0.95E-01   0.22E-01       78.1
    3     15       0     0.63E-01   0.17E-01       79.5
    4     20       0     0.21E-01   0.80E-02       79.4
    5     25       0     0.47E-02   0.53E-03       79.7
    6     30       2     0.15E-02   0.49E-04       79.4
    7     33       4     0.49E-03   0.28E-05       59.9
    8     34       5     0.10E-03   0.37E-06       39.2
  ----  ------  ------  ---------  ---------  --------- 
  Convergence criterion met

  Ground state a'       -539.754574292204 a.u.

  ----------------------------------------------------------------------------
  Root   1 singlet a'             0.086456452 a.u.                2.3526 eV 
  ----------------------------------------------------------------------------
     Transition Moments    X -0.56376   Y  0.06273   Z  0.00000
     Transition Moments   XX -0.27035  XY  0.83417  XZ  0.00000
     Transition Moments   YY -2.21070  YZ -0.00000  ZZ  0.06963
     Dipole Oscillator Strength                    0.0185452800
     Electric Quadrupole                           0.0000000076
     Magnetic Dipole                               0.0000000000
     Total Oscillator Strength                     0.0185452876

     Occ.   45  a"  ---  Virt.   48  a"       0.09128
     Occ.   46  a"  ---  Virt.   51  a"      -0.06708
     Occ.   47  a"  ---  Virt.   48  a"      -0.98320
  ----------------------------------------------------------------------------
  Root   2 singlet a'             0.116079078 a.u.                3.1587 eV 
  ----------------------------------------------------------------------------
     Transition Moments    X  0.46877   Y  0.18444   Z  0.00000
     Transition Moments   XX  0.23151  XY  1.98052  XZ  0.00000
     Transition Moments   YY  1.96240  YZ  0.00000  ZZ -0.05404
     Dipole Oscillator Strength                    0.0196381090
     Electric Quadrupole                           0.0000000426
     Magnetic Dipole                               0.0000000941
     Total Oscillator Strength                     0.0196382456

     Occ.   45  a"  ---  Virt.   48  a"       0.96409
     Occ.   45  a"  ---  Virt.   50  a"      -0.06523
     Occ.   46  a"  ---  Virt.   48  a"       0.17240
     Occ.   46  a"  ---  Virt.   49  a"      -0.08146
     Occ.   46  a"  ---  Virt.   51  a"       0.05492
     Occ.   47  a"  ---  Virt.   48  a"       0.07546
  ----------------------------------------------------------------------------
  Root   3 singlet a'             0.134670648 a.u.                3.6646 eV 
  ----------------------------------------------------------------------------
     Transition Moments    X -0.07002   Y -2.90445   Z  0.00000
     Transition Moments   XX -0.18738  XY  1.53286  XZ  0.00000
     Transition Moments   YY  0.20627  YZ -0.00000  ZZ -0.01022
     Dipole Oscillator Strength                    0.7578126002
     Electric Quadrupole                           0.0000000311
     Magnetic Dipole                               0.0000007756
     Total Oscillator Strength                     0.7578134069

     Occ.   44  a"  ---  Virt.   48  a"      -0.08819
     Occ.   45  a"  ---  Virt.   48  a"      -0.16109
     Occ.   45  a"  ---  Virt.   50  a"       0.05194
     Occ.   46  a"  ---  Virt.   48  a"       0.95291
     Occ.   46  a"  ---  Virt.   49  a"       0.06621
     Occ.   47  a"  ---  Virt.   48  a"      -0.05587
     Occ.   47  a"  ---  Virt.   50  a"       0.13292
  ----------------------------------------------------------------------------
  Root   4 singlet a"             0.168625799 a.u.                4.5885 eV 
  ----------------------------------------------------------------------------
     Transition Moments    X -0.00000   Y  0.00000   Z  0.02696
     Transition Moments   XX -0.00000  XY -0.00000  XZ -0.18315
     Transition Moments   YY  0.00000  YZ  0.10953  ZZ -0.00000
     Dipole Oscillator Strength                    0.0000817085
     Electric Quadrupole                           0.0000000012
     Magnetic Dipole                               0.0000000060
     Total Oscillator Strength                     0.0000817156

     Occ.   39  a'  ---  Virt.   48  a"      -0.05064
     Occ.   43  a'  ---  Virt.   48  a"       0.99323
  ----------------------------------------------------------------------------
  Root   5 singlet a'             0.178658213 a.u.                4.8615 eV 
  ----------------------------------------------------------------------------
     Transition Moments    X -0.43999   Y  0.68684   Z  0.00000
     Transition Moments   XX -1.35228  XY -0.81372  XZ -0.00000
     Transition Moments   YY  6.09027  YZ -0.00000  ZZ -0.01408
     Dipole Oscillator Strength                    0.0792455534
     Electric Quadrupole                           0.0000004981
     Magnetic Dipole                               0.0000001378
     Total Oscillator Strength                     0.0792461893

     Occ.   38  a"  ---  Virt.   48  a"      -0.15324
     Occ.   40  a"  ---  Virt.   48  a"      -0.15817
     Occ.   44  a"  ---  Virt.   48  a"      -0.89228
     Occ.   45  a"  ---  Virt.   49  a"      -0.09247
     Occ.   45  a"  ---  Virt.   50  a"      -0.11337
     Occ.   45  a"  ---  Virt.   51  a"       0.08414
     Occ.   46  a"  ---  Virt.   48  a"      -0.08222
     Occ.   46  a"  ---  Virt.   50  a"       0.20258
     Occ.   46  a"  ---  Virt.   51  a"       0.07741
     Occ.   47  a"  ---  Virt.   49  a"      -0.22892
     Occ.   47  a"  ---  Virt.   51  a"      -0.06344

              Target root =      1
          Target symmetry = none
      Ground state energy =   -539.754574292204
        Excitation energy =      0.086456451674
     Excited state energy =   -539.668117840530

  stored tddft:energy   -539.66811784052993     

 Task  times  cpu:      627.9s     wall:      655.0s
 Summary of allocated global arrays
-----------------------------------
  No active global arrays



                         GA Statistics for process    0
                         ------------------------------

       create   destroy   get      put      acc     scatter   gather  read&inc
calls:  675      675     7.45e+06 4.32e+05 6.49e+06  151        0     4973     
number of processes/call 1.00e+00 1.00e+00 1.00e+00 0.00e+00 0.00e+00
bytes total:             3.80e+09 2.91e+08 4.05e+09 1.75e+05 0.00e+00 3.98e+04
bytes remote:            0.00e+00 0.00e+00 0.00e+00 0.00e+00 0.00e+00 0.00e+00
Max memory consumed for GA by this process: 128266648 bytes
MA_summarize_allocated_blocks: starting scan ...
MA_summarize_allocated_blocks: scan completed: 0 heap blocks, 0 stack blocks
MA usage statistics:

	allocation statistics:
					      heap	     stack
					      ----	     -----
	current number of blocks	         0	         0
	maximum number of blocks	        21	        51
	current total bytes		         0	         0
	maximum total bytes		  18244768	  22522392
	maximum total K-bytes		     18245	     22523
	maximum total M-bytes		        19	        23


                                NWChem Input Module
                                -------------------





                                     CITATION
                                     --------
                Please cite the following reference when publishing
                           results obtained with NWChem:

                 M. Valiev, E.J. Bylaska, N. Govind, K. Kowalski,
              T.P. Straatsma, H.J.J. van Dam, D. Wang, J. Nieplocha,
                        E. Apra, T.L. Windus, W.A. de Jong
                 "NWChem: a comprehensive and scalable open-source
                  solution for large scale molecular simulations"
                      Comput. Phys. Commun. 181, 1477 (2010)
                           doi:10.1016/j.cpc.2010.04.018

                                      AUTHORS
                                      -------
          E. Apra, E. J. Bylaska, W. A. de Jong, N. Govind, K. Kowalski,
       T. P. Straatsma, M. Valiev, H. J. J. van Dam, D. Wang, T. L. Windus,
        J. Hammond, J. Autschbach, K. Bhaskaran-Nair, J. Brabec, K. Lopata,
    S. A. Fischer, S. Krishnamoorthy, M. Jacquelin, W. Ma, M. Klemm, O. Villa,
      Y. Chen, V. Anisimov, F. Aquino, S. Hirata, M. T. Hackler, V. Konjkov,
            D. Mejia-Rodriguez, T. Risthaus, M. Malagoli, A. Marenich,
   A. Otero-de-la-Roza, J. Mullin, P. Nichols, R. Peverati, J. Pittner, Y. Zhao,
        P.-D. Fan, A. Fonari, M. J. Williamson, R. J. Harrison, J. R. Rehr,
      M. Dupuis, D. Silverstein, D. M. A. Smith, J. Nieplocha, V. Tipparaju,
    M. Krishnan, B. E. Van Kuiken, A. Vazquez-Mayagoitia, L. Jensen, M. Swart,
      Q. Wu, T. Van Voorhis, A. A. Auer, M. Nooijen, L. D. Crosby, E. Brown,
      G. Cisneros, G. I. Fann, H. Fruchtl, J. Garza, K. Hirao, R. A. Kendall,
      J. A. Nichols, K. Tsemekhman, K. Wolinski, J. Anchell, D. E. Bernholdt,
      P. Borowski, T. Clark, D. Clerc, H. Dachsel, M. J. O. Deegan, K. Dyall,
    D. Elwood, E. Glendening, M. Gutowski, A. C. Hess, J. Jaffe, B. G. Johnson,
     J. Ju, R. Kobayashi, R. Kutteh, Z. Lin, R. Littlefield, X. Long, B. Meng,
      T. Nakajima, S. Niu, L. Pollack, M. Rosing, K. Glaesemann, G. Sandrone,
      M. Stave, H. Taylor, G. Thomas, J. H. van Lenthe, A. T. Wong, Z. Zhang.

 Total times  cpu:      629.0s     wall:      655.7s
