 Entering Gaussian System, Link 0=g16
 Initial command:
 /apps/gaussian/g16c01/g16/l1.exe "/jobfs/51138811.gadi-pbs/Gau-1809042.inp" -scrdir="/jobfs/51138811.gadi-pbs/"
 Entering Link 1 = /apps/gaussian/g16c01/g16/l1.exe PID=   1809043.
  
 Copyright (c) 1988-2019, Gaussian, Inc.  All Rights Reserved.
  
 This is part of the Gaussian(R) 16 program.  It is based on
 the Gaussian(R) 09 system (copyright 2009, Gaussian, Inc.),
 the Gaussian(R) 03 system (copyright 2003, Gaussian, Inc.),
 the Gaussian(R) 98 system (copyright 1998, Gaussian, Inc.),
 the Gaussian(R) 94 system (copyright 1995, Gaussian, Inc.),
 the Gaussian 92(TM) system (copyright 1992, Gaussian, Inc.),
 the Gaussian 90(TM) system (copyright 1990, Gaussian, Inc.),
 the Gaussian 88(TM) system (copyright 1988, Gaussian, Inc.),
 the Gaussian 86(TM) system (copyright 1986, Carnegie Mellon
 University), and the Gaussian 82(TM) system (copyright 1983,
 Carnegie Mellon University). Gaussian is a federally registered
 trademark of Gaussian, Inc.
  
 This software contains proprietary and confidential information,
 including trade secrets, belonging to Gaussian, Inc.
  
 This software is provided under written license and may be
 used, copied, transmitted, or stored only in accord with that
 written license.
  
 The following legend is applicable only to US Government
 contracts under FAR:
  
                    RESTRICTED RIGHTS LEGEND
  
 Use, reproduction and disclosure by the US Government is
 subject to restrictions as set forth in subparagraphs (a)
 and (c) of the Commercial Computer Software - Restricted
 Rights clause in FAR 52.227-19.
  
 Gaussian, Inc.
 340 Quinnipiac St., Bldg. 40, Wallingford CT 06492
  
  
 ---------------------------------------------------------------
 Warning -- This program may not be used in any manner that
 competes with the business of Gaussian, Inc. or will provide
 assistance to any competitor of Gaussian, Inc.  The licensee
 of this program is prohibited from giving any competitor of
 Gaussian, Inc. access to this program.  By using this program,
 the user acknowledges that Gaussian, Inc. is engaged in the
 business of creating and licensing software in the field of
 computational chemistry and represents and warrants to the
 licensee that it is not a competitor of Gaussian, Inc. and that
 it will not use this program in any manner prohibited above.
 ---------------------------------------------------------------
  

 Cite this work as:
 Gaussian 16, Revision C.01,
 M. J. Frisch, G. W. Trucks, H. B. Schlegel, G. E. Scuseria, 
 M. A. Robb, J. R. Cheeseman, G. Scalmani, V. Barone, 
 G. A. Petersson, H. Nakatsuji, X. Li, M. Caricato, A. V. Marenich, 
 J. Bloino, B. G. Janesko, R. Gomperts, B. Mennucci, H. P. Hratchian, 
 J. V. Ortiz, A. F. Izmaylov, J. L. Sonnenberg, D. Williams-Young, 
 F. Ding, F. Lipparini, F. Egidi, J. Goings, B. Peng, A. Petrone, 
 T. Henderson, D. Ranasinghe, V. G. Zakrzewski, J. Gao, N. Rega, 
 G. Zheng, W. Liang, M. Hada, M. Ehara, K. Toyota, R. Fukuda, 
 J. Hasegawa, M. Ishida, T. Nakajima, Y. Honda, O. Kitao, H. Nakai, 
 T. Vreven, K. Throssell, J. A. Montgomery, Jr., J. E. Peralta, 
 F. Ogliaro, M. J. Bearpark, J. J. Heyd, E. N. Brothers, K. N. Kudin, 
 V. N. Staroverov, T. A. Keith, R. Kobayashi, J. Normand, 
 K. Raghavachari, A. P. Rendell, J. C. Burant, S. S. Iyengar, 
 J. Tomasi, M. Cossi, J. M. Millam, M. Klene, C. Adamo, R. Cammi, 
 J. W. Ochterski, R. L. Martin, K. Morokuma, O. Farkas, 
 J. B. Foresman, and D. J. Fox, Gaussian, Inc., Wallingford CT, 2019.
 
 ******************************************
 Gaussian 16:  ES64L-G16RevC.01  3-Jul-2019
                14-Jul-2022 
 ******************************************
 %NProcShared=8
 Will use up to    8 processors via shared memory.
 %mem = 32GB
 %Chk=check_sp_9
 ----------------------------------------------
 #n M062X/6-311++G(d,p) TD SP pop=reg formcheck
 ----------------------------------------------
 1/38=1,172=1/1;
 2/12=2,17=6,18=5,40=1/2;
 3/5=4,6=6,7=1111,11=9,25=1,30=1,74=-55/1,2,3,8;
 4//1;
 5/5=2,38=5/2;
 8/6=1,10=2/1;
 9/42=1,70=2/14;
 6//1;
 99/5=1,9=1/99;
 -----
 SP_-9
 -----
 Symbolic Z-matrix:
 Charge =  1 Multiplicity = 1
 C                     2.48178   1.37262   0. 
 C                     3.69214   0.67495   0. 
 C                     3.6829   -0.72234   0. 
 C                     2.48876  -1.41016   0. 
 C                    -2.44906  -1.39483   0. 
 C                    -3.70192  -0.6916    0. 
 C                    -3.72759   0.68916   0. 
 C                    -2.51474   1.37298   0. 
 C                    -0.00766   1.46603   0. 
 C                     0.0289   -1.42444   0. 
 C                     1.27422   0.69887   0. 
 C                     1.24785  -0.7254    0. 
 C                    -1.25493   0.67607   0. 
 C                    -1.23336  -0.72143   0. 
 H                     2.48985   2.45767   0. 
 H                     4.63006   1.21628   0. 
 H                     4.61792  -1.26834   0. 
 H                     2.48338  -2.49415   0. 
 H                     0.02465  -2.50739   0. 
 H                    -2.4638   -2.47994   0. 
 H                    -4.62161  -1.26465   0. 
 H                    -4.66394   1.22939   0. 
 H                    -2.50019   2.4585    0. 
 H                    -0.04256   2.15677  -0.86349 
 H                    -0.04265   2.15677   0.86349 
 
                          Input orientation:                          
 ---------------------------------------------------------------------
 Center     Atomic      Atomic             Coordinates (Angstroms)
 Number     Number       Type             X           Y           Z
 ---------------------------------------------------------------------
      1          6           0        2.481779    1.372615    0.000000
      2          6           0        3.692141    0.674946    0.000000
      3          6           0        3.682898   -0.722344    0.000000
      4          6           0        2.488760   -1.410161    0.000000
      5          6           0       -2.449060   -1.394835    0.000000
      6          6           0       -3.701917   -0.691599    0.000000
      7          6           0       -3.727594    0.689164    0.000000
      8          6           0       -2.514739    1.372985    0.000000
      9          6           0       -0.007663    1.466034    0.000000
     10          6           0        0.028898   -1.424438    0.000000
     11          6           0        1.274222    0.698871    0.000000
     12          6           0        1.247854   -0.725399    0.000000
     13          6           0       -1.254926    0.676066    0.000000
     14          6           0       -1.233359   -0.721429    0.000000
     15          1           0        2.489850    2.457668    0.000000
     16          1           0        4.630060    1.216282    0.000000
     17          1           0        4.617921   -1.268344    0.000000
     18          1           0        2.483377   -2.494154    0.000000
     19          1           0        0.024651   -2.507385    0.000000
     20          1           0       -2.463803   -2.479936    0.000000
     21          1           0       -4.621614   -1.264651    0.000000
     22          1           0       -4.663943    1.229393    0.000000
     23          1           0       -2.500190    2.458499    0.000000
     24          1           0       -0.042563    2.156772   -0.863493
     25          1           0       -0.042655    2.156772    0.863493
 ---------------------------------------------------------------------
                    Distance matrix (angstroms):
                    1          2          3          4          5
     1  C    0.000000
     2  C    1.397039   0.000000
     3  C    2.414858   1.397321   0.000000
     4  C    2.782785   2.407446   1.378063   0.000000
     5  C    5.654374   6.480613   6.168724   4.937844   0.000000
     6  C    6.519132   7.519278   7.384879   6.232240   1.436730
     7  C    6.246873   7.419749   7.543723   6.561268   2.444934
     8  C    4.996518   6.246009   6.542256   5.725461   2.768598
     9  C    2.491194   3.783434   4.290599   3.808494   3.760982
    10  C    3.720232   4.222175   3.720840   2.459903   2.478135
    11  C    1.382796   2.418037   2.796707   2.433746   4.271584
    12  C    2.433975   2.817003   2.435046   1.417303   3.757035
    13  C    3.801071   4.947067   5.132022   4.285735   2.390520
    14  C    4.264653   5.119610   4.916257   3.785303   1.389750
    15  H    1.085083   2.150256   3.396446   3.867829   6.263753
    16  H    2.153961   1.082929   2.157635   3.388712   7.545321
    17  H    3.396729   2.152544   1.082767   2.133879   7.068113
    18  H    3.866770   3.391800   2.139665   1.084007   5.053458
    19  H    4.592590   4.855689   4.070521   2.697357   2.712382
    20  H    6.269046   6.917292   6.393048   5.066785   1.085202
    21  H    7.577161   8.537011   8.322200   7.111863   2.176451
    22  H    7.147157   8.374459   8.571992   7.624199   3.433989
    23  H    5.098937   6.444069   6.953297   6.313173   3.853673
    24  H    2.780795   4.109676   4.786856   4.458276   4.376158
    25  H    2.780879   4.109760   4.786928   4.458329   4.376107
                    6          7          8          9         10
     6  C    0.000000
     7  C    1.381002   0.000000
     8  C    2.381575   1.392346   0.000000
     9  C    4.278188   3.800186   2.508803   0.000000
    10  C    3.802110   4.310284   3.780961   2.890703   0.000000
    11  C    5.166756   5.001826   3.848462   1.493910   2.461558
    12  C    4.949887   5.172627   4.308169   2.525609   1.405172
    13  C    2.803262   2.472703   1.439731   1.476385   2.461772
    14  C    2.468739   2.865482   2.455301   2.507453   1.444823
    15  H    6.946644   6.464071   5.120786   2.687175   4.596415
    16  H    8.547623   8.374260   7.146517   4.644443   5.305100
    17  H    8.339805   8.572017   7.606015   5.373346   4.591677
    18  H    6.442598   6.979232   6.319488   4.678501   2.677454
    19  H    4.145406   4.929227   4.637432   3.973550   1.082956
    20  H    2.175104   3.411798   3.853258   4.647935   2.706961
    21  H    1.083619   2.148643   3.375803   5.361454   4.653257
    22  H    2.148419   1.081016   2.153995   4.662290   5.391250
    23  H    3.371538   2.153385   1.085612   2.682849   4.633950
    24  H    4.716961   4.059428   2.733423   1.106326   3.684534
    25  H    4.716889   4.059344   2.733340   1.106329   3.684536
                   11         12         13         14         15
    11  C    0.000000
    12  C    1.424514   0.000000
    13  C    2.529250   2.868451   0.000000
    14  C    2.881876   2.481216   1.397661   0.000000
    15  H    2.138018   3.416792   4.146981   4.895808   0.000000
    16  H    3.395491   3.899928   5.909728   6.175305   2.474174
    17  H    3.879466   3.413524   6.186361   5.876784   4.290904
    18  H    3.414303   2.157548   4.901551   4.117849   4.951827
    19  H    3.441149   2.161412   3.430988   2.184543   5.543371
    20  H    4.906898   4.105460   3.379606   2.146239   6.994185
    21  H    6.214202   5.894188   3.885997   3.431525   8.026742
    22  H    5.961817   6.226601   3.453632   3.946469   7.258472
    23  H    4.164430   4.917829   2.174339   3.422982   4.990040
    24  H    2.145931   3.273791   2.099508   3.232284   2.692447
    25  H    2.145987   3.273827   2.099455   3.232250   2.692534
                   16         17         18         19         20
    16  H    0.000000
    17  H    2.484656   0.000000
    18  H    4.286676   2.461481   0.000000
    19  H    5.922456   4.757452   2.458761   0.000000
    20  H    7.999058   7.184621   4.947200   2.488606   0.000000
    21  H    9.578544   9.239536   7.210588   4.809592   2.476503
    22  H    9.294012   9.612060   8.059094   5.995534   4.312741
    23  H    7.237649   8.034729   7.026003   5.570892   4.938570
    24  H    4.843918   5.847833   5.362566   4.743891   5.301612
    25  H    4.844007   5.847907   5.362609   4.743893   5.301570
                   21         22         23         24         25
    21  H    0.000000
    22  H    2.494403   0.000000
    23  H    4.285124   2.488480   0.000000
    24  H    5.780958   4.791953   2.622326   0.000000
    25  H    5.780885   4.791864   2.622239   1.726986   0.000000
 Stoichiometry    C14H11(1+)
 Framework group  C1[X(C14H11)]
 Deg. of freedom    69
 Full point group                 C1      NOp   1
 Largest Abelian subgroup         C1      NOp   1
 Largest concise Abelian subgroup C1      NOp   1
                         Standard orientation:                         
 ---------------------------------------------------------------------
 Center     Atomic      Atomic             Coordinates (Angstroms)
 Number     Number       Type             X           Y           Z
 ---------------------------------------------------------------------
      1          6           0        2.475103   -1.376879    0.000000
      2          6           0        3.689089   -0.685535    0.000000
      3          6           0        3.687138    0.711784    0.000000
      4          6           0        2.496605    1.405823    0.000000
      5          6           0       -2.441227    1.416264    0.000000
      6          6           0       -3.697737    0.719576    0.000000
      7          6           0       -3.730619   -0.661035    0.000000
      8          6           0       -2.521349   -1.351174    0.000000
      9          6           0       -0.014793   -1.457305    0.000000
     10          6           0        0.036851    1.432936    0.000000
     11          6           0        1.271078   -0.696842    0.000000
     12          6           0        1.252143    0.727546    0.000000
     13          6           0       -1.257916   -0.660840    0.000000
     14          6           0       -1.229057    0.736524    0.000000
     15          1           0        2.477511   -2.461959    0.000000
     16          1           0        4.624170   -1.231758    0.000000
     17          1           0        4.624997    1.252898    0.000000
     18          1           0        2.496879    2.489830    0.000000
     19          1           0        0.038256    2.515891    0.000000
     20          1           0       -2.450308    2.501428    0.000000
     21          1           0       -4.614431    1.297420    0.000000
     22          1           0       -4.669775   -1.196369    0.000000
     23          1           0       -2.512465   -2.436750    0.000000
     24          1           0       -0.053296   -2.147852    0.863493
     25          1           0       -0.053389   -2.147852   -0.863493
 ---------------------------------------------------------------------
 Rotational constants (GHZ):           2.1257868           0.4425668           0.3671055
 Standard basis: 6-311++G(d,p) (5D, 7F)
 There are   399 symmetry adapted cartesian basis functions of A   symmetry.
 There are   385 symmetry adapted basis functions of A   symmetry.
   385 basis functions,   603 primitive gaussians,   399 cartesian basis functions
    47 alpha electrons       47 beta electrons
       nuclear repulsion energy       779.3997277272 Hartrees.
 NAtoms=   25 NActive=   25 NUniq=   25 SFac= 1.00D+00 NAtFMM=   60 NAOKFM=F Big=F
 Integral buffers will be    131072 words long.
 Regular integral format.
 Two-electron integral symmetry is turned on.
 One-electron integrals computed using PRISM.
 NBasis=   385 RedAO= T EigKep=  1.15D-06  NBF=   385
 NBsUse=   379 1.00D-06 EigRej=  8.64D-07 NBFU=   379
 ExpMin= 3.60D-02 ExpMax= 4.56D+03 ExpMxC= 6.82D+02 IAcc=3 IRadAn=         5 AccDes= 0.00D+00
 Harris functional with IExCor= 1009 and IRadAn=       5 diagonalized for initial guess.
 HarFok:  IExCor= 1009 AccDes= 0.00D+00 IRadAn=         5 IDoV= 1 UseB2=F ITyADJ=14
 ICtDFT=  3500011 ScaDFX=  1.000000  1.000000  1.000000  1.000000
 FoFCou: FMM=F IPFlag=           0 FMFlag=      100000 FMFlg1=           0
         NFxFlg=           0 DoJE=T BraDBF=F KetDBF=T FulRan=T
         wScrn=  0.000000 ICntrl=       500 IOpCl=  0 I1Cent=   200000004 NGrid=           0
         NMat0=    1 NMatS0=      1 NMatT0=    0 NMatD0=    1 NMtDS0=    0 NMtDT0=    0
 Petite list used in FoFCou.
 Requested convergence on RMS density matrix=1.00D-08 within 128 cycles.
 Requested convergence on MAX density matrix=1.00D-06.
 Requested convergence on             energy=1.00D-06.
 No special actions if energy rises.
 SCF Done:  E(RM062X) =  -539.755424274     A.U. after   15 cycles
            NFock= 15  Conv=0.87D-08     -V/T= 2.0045
 DoSCS=F DFT=T ScalE2(SS,OS)=  1.000000  1.000000
 ExpMin= 3.60D-02 ExpMax= 4.56D+03 ExpMxC= 6.82D+02 IAcc=3 IRadAn=         5 AccDes= 0.00D+00
 HarFok:  IExCor=  205 AccDes= 0.00D+00 IRadAn=         5 IDoV=-2 UseB2=F ITyADJ=14
 ICtDFT= 12500011 ScaDFX=  1.000000  1.000000  1.000000  1.000000
 Range of M.O.s used for correlation:    15   379
 NBasis=   385 NAE=    47 NBE=    47 NFC=    14 NFV=     0
 NROrb=    365 NOA=    33 NOB=    33 NVA=   332 NVB=   332

 **** Warning!!: The largest alpha MO coefficient is  0.13596039D+03

 Orbital symmetries:
       Occupied  (A) (A) (A) (A) (A) (A) (A) (A) (A) (A) (A) (A)
                 (A) (A) (A) (A) (A) (A) (A) (A) (A) (A) (A) (A)
                 (A) (A) (A) (A) (A) (A) (A) (A) (A) (A) (A) (A)
                 (A) (A) (A) (A) (A) (A) (A) (A) (A) (A) (A)
       Virtual   (A) (A) (A) (A) (A) (A) (A) (A) (A) (A) (A) (A)
                 (A) (A) (A) (A) (A) (A) (A) (A) (A) (A) (A) (A)
                 (A) (A) (A) (A) (A) (A) (A) (A) (A) (A) (A) (A)
                 (A) (A) (A) (A) (A) (A) (A) (A) (A) (A) (A) (A)
                 (A) (A) (A) (A) (A) (A) (A) (A) (A) (A) (A) (A)
                 (A) (A) (A) (A) (A) (A) (A) (A) (A) (A) (A) (A)
                 (A) (A) (A) (A) (A) (A) (A) (A) (A) (A) (A) (A)
                 (A) (A) (A) (A) (A) (A) (A) (A) (A) (A) (A) (A)
                 (A) (A) (A) (A) (A) (A) (A) (A) (A) (A) (A) (A)
                 (A) (A) (A) (A) (A) (A) (A) (A) (A) (A) (A) (A)
                 (A) (A) (A) (A) (A) (A) (A) (A) (A) (A) (A) (A)
                 (A) (A) (A) (A) (A) (A) (A) (A) (A) (A) (A) (A)
                 (A) (A) (A) (A) (A) (A) (A) (A) (A) (A) (A) (A)
                 (A) (A) (A) (A) (A) (A) (A) (A) (A) (A) (A) (A)
                 (A) (A) (A) (A) (A) (A) (A) (A) (A) (A) (A) (A)
                 (A) (A) (A) (A) (A) (A) (A) (A) (A) (A) (A) (A)
                 (A) (A) (A) (A) (A) (A) (A) (A) (A) (A) (A) (A)
                 (A) (A) (A) (A) (A) (A) (A) (A) (A) (A) (A) (A)
                 (A) (A) (A) (A) (A) (A) (A) (A) (A) (A) (A) (A)
                 (A) (A) (A) (A) (A) (A) (A) (A) (A) (A) (A) (A)
                 (A) (A) (A) (A) (A) (A) (A) (A) (A) (A) (A) (A)
                 (A) (A) (A) (A) (A) (A) (A) (A) (A) (A) (A) (A)
                 (A) (A) (A) (A) (A) (A) (A) (A) (A) (A) (A) (A)
                 (A) (A) (A) (A) (A) (A) (A) (A) (A) (A) (A) (A)
                 (A) (A) (A) (A) (A) (A) (A) (A) (A) (A) (A) (A)
                 (A) (A) (A) (A) (A) (A) (A) (A) (A) (A) (A) (A)
                 (A) (A) (A) (A) (A) (A) (A) (A) (A) (A) (A) (A)
                 (A) (A) (A) (A) (A) (A) (A) (A)
    12 initial guesses have been made.
 Convergence on wavefunction:    0.001000000000000
 Iteration     1 Dimension    12 NMult     0 NNew     12
 CISAX will form    12 AO SS matrices at one time.
 New state      2 was old state      3
 New state      3 was old state      2
 Iteration     2 Dimension    18 NMult    12 NNew      6
 Iteration     3 Dimension    24 NMult    18 NNew      6
 Iteration     4 Dimension    30 NMult    24 NNew      6
 Iteration     5 Dimension    36 NMult    30 NNew      6
 Iteration     6 Dimension    42 NMult    36 NNew      6
 ***********************************************************************
 Excited states from <AA,BB:AA,BB> singles matrix:
 ***********************************************************************
 
 Ground to excited state transition densities written to RWF  633
 Ground to excited state transition electric dipole moments (Au):
       state          X           Y           Z        Dip. S.      Osc.
         1        -0.0444     -0.5729      0.0000      0.3302      0.0220
         2        -0.4087      0.2939     -0.0000      0.2534      0.0207
         3        -2.5224     -0.0405      0.0000      6.3641      0.5418
 Ground to excited state transition velocity dipole moments (Au):
       state          X           Y           Z        Dip. S.      Osc.
         1         0.0013      0.0642     -0.0000      0.0041      0.0276
         2         0.0438     -0.0390     -0.0000      0.0034      0.0187
         3         0.3252      0.0055     -0.0000      0.1058      0.5522
 Ground to excited state transition magnetic dipole moments (Au):
       state          X           Y           Z
         1         0.0000     -0.0000     -0.1569
         2        -0.0000      0.0000     -1.0648
         3        -0.0000     -0.0000     -0.9754
 Ground to excited state transition velocity quadrupole moments (Au):
       state          XX          YY          ZZ          XY          XZ          YZ
         1         0.2559      0.0291     -0.0086     -0.0745      0.0000      0.0000
         2        -0.1420     -0.0224      0.0049     -0.3015     -0.0000      0.0000
         3         0.1007     -0.0028     -0.0010     -0.0860      0.0000     -0.0000
 <0|del|b> * <b|rxdel|0> + <0|del|b> * <b|delr+rdel|0>
 Rotatory Strengths (R) in cgs (10**-40 erg-esu-cm/Gauss)
       state          XX          YY          ZZ    R(velocity)    E-M Angle
         1        -0.0021      0.0007     -0.0014     -0.0009       90.00
         2         0.0022      0.0019     -0.0008      0.0011       90.00
         3         0.0061      0.0019      0.0000      0.0027       90.00
 1/2[<0|r|b>*<b|rxdel|0> + (<0|rxdel|b>*<b|r|0>)*]
 Rotatory Strengths (R) in cgs (10**-40 erg-esu-cm/Gauss)
       state          XX          YY          ZZ     R(length)
         1         0.0001     -0.0048      0.0003     -0.0015
         2        -0.0004     -0.0015     -0.0002     -0.0007
         3        -0.0032     -0.0002      0.0016     -0.0006
  1/2[<0|del|b>*<b|r|0> + (<0|r|b>*<b|del|0>)*] (Au)
       state          X           Y           Z        Dip. S.   Osc.(frdel)
         1        -0.0001     -0.0368     -0.0000      0.0368      0.0246
         2        -0.0179     -0.0115      0.0000      0.0293      0.0196
         3        -0.8202     -0.0002     -0.0000      0.8204      0.5469

 Excitation energies and oscillator strengths:
 
 Excited State   1:      Singlet-A      2.7137 eV  456.89 nm  f=0.0220  <S**2>=0.000
      47 -> 48         0.70357
 This state for optimization and/or second-order correction.
 Total Energy, E(TD-HF/TD-DFT) =  -539.655698766    
 Copying the excited state density for this state as the 1-particle RhoCI density.
 
 Excited State   2:      Singlet-A      3.3364 eV  371.61 nm  f=0.0207  <S**2>=0.000
      45 -> 48         0.64073
      46 -> 48         0.28493
 
 Excited State   3:      Singlet-A      3.4746 eV  356.83 nm  f=0.5418  <S**2>=0.000
      45 -> 48        -0.28772
      46 -> 48         0.63660
 SavETr:  write IOETrn=   770 NScale= 10 NData=  16 NLR=1 NState=    3 LETran=      64.

 **********************************************************************

            Population analysis using the SCF Density.

 **********************************************************************

 Orbital symmetries:
       Occupied  (A) (A) (A) (A) (A) (A) (A) (A) (A) (A) (A) (A)
                 (A) (A) (A) (A) (A) (A) (A) (A) (A) (A) (A) (A)
                 (A) (A) (A) (A) (A) (A) (A) (A) (A) (A) (A) (A)
                 (A) (A) (A) (A) (A) (A) (A) (A) (A) (A) (A)
       Virtual   (A) (A) (A) (A) (A) (A) (A) (A) (A) (A) (A) (A)
                 (A) (A) (A) (A) (A) (A) (A) (A) (A) (A) (A) (A)
                 (A) (A) (A) (A) (A) (A) (A) (A) (A) (A) (A) (A)
                 (A) (A) (A) (A) (A) (A) (A) (A) (A) (A) (A) (A)
                 (A) (A) (A) (A) (A) (A) (A) (A) (A) (A) (A) (A)
                 (A) (A) (A) (A) (A) (A) (A) (A) (A) (A) (A) (A)
                 (A) (A) (A) (A) (A) (A) (A) (A) (A) (A) (A) (A)
                 (A) (A) (A) (A) (A) (A) (A) (A) (A) (A) (A) (A)
                 (A) (A) (A) (A) (A) (A) (A) (A) (A) (A) (A) (A)
                 (A) (A) (A) (A) (A) (A) (A) (A) (A) (A) (A) (A)
                 (A) (A) (A) (A) (A) (A) (A) (A) (A) (A) (A) (A)
                 (A) (A) (A) (A) (A) (A) (A) (A) (A) (A) (A) (A)
                 (A) (A) (A) (A) (A) (A) (A) (A) (A) (A) (A) (A)
                 (A) (A) (A) (A) (A) (A) (A) (A) (A) (A) (A) (A)
                 (A) (A) (A) (A) (A) (A) (A) (A) (A) (A) (A) (A)
                 (A) (A) (A) (A) (A) (A) (A) (A) (A) (A) (A) (A)
                 (A) (A) (A) (A) (A) (A) (A) (A) (A) (A) (A) (A)
                 (A) (A) (A) (A) (A) (A) (A) (A) (A) (A) (A) (A)
                 (A) (A) (A) (A) (A) (A) (A) (A) (A) (A) (A) (A)
                 (A) (A) (A) (A) (A) (A) (A) (A) (A) (A) (A) (A)
                 (A) (A) (A) (A) (A) (A) (A) (A) (A) (A) (A) (A)
                 (A) (A) (A) (A) (A) (A) (A) (A) (A) (A) (A) (A)
                 (A) (A) (A) (A) (A) (A) (A) (A) (A) (A) (A) (A)
                 (A) (A) (A) (A) (A) (A) (A) (A) (A) (A) (A) (A)
                 (A) (A) (A) (A) (A) (A) (A) (A) (A) (A) (A) (A)
                 (A) (A) (A) (A) (A) (A) (A) (A) (A) (A) (A) (A)
                 (A) (A) (A) (A) (A) (A) (A) (A) (A) (A) (A) (A)
                 (A) (A) (A) (A) (A) (A) (A) (A)
 The electronic state is 1-A.
 Alpha  occ. eigenvalues --  -10.77718 -10.73730 -10.72936 -10.72861 -10.72196
 Alpha  occ. eigenvalues --  -10.71916 -10.71814 -10.71092 -10.71072 -10.70336
 Alpha  occ. eigenvalues --  -10.70253 -10.69934 -10.69906 -10.69523  -1.16281
 Alpha  occ. eigenvalues --   -1.12272  -1.06763  -1.05649  -1.01165  -1.00188
 Alpha  occ. eigenvalues --   -0.95569  -0.90938  -0.86303  -0.85771  -0.83729
 Alpha  occ. eigenvalues --   -0.78292  -0.75932  -0.74259  -0.69651  -0.69171
 Alpha  occ. eigenvalues --   -0.68331  -0.68019  -0.67990  -0.64973  -0.64181
 Alpha  occ. eigenvalues --   -0.62761  -0.61683  -0.60184  -0.59280  -0.59137
 Alpha  occ. eigenvalues --   -0.56848  -0.55358  -0.54499  -0.52332  -0.46965
 Alpha  occ. eigenvalues --   -0.46039  -0.44027
 Alpha virt. eigenvalues --   -0.26116  -0.14722  -0.14116  -0.12831  -0.11174
 Alpha virt. eigenvalues --   -0.10088  -0.09246  -0.07983  -0.07972  -0.07485
 Alpha virt. eigenvalues --   -0.07201  -0.07155  -0.05659  -0.05588  -0.05364
 Alpha virt. eigenvalues --   -0.03829  -0.03636  -0.03295  -0.03158  -0.02163
 Alpha virt. eigenvalues --   -0.01349  -0.00941   0.00175   0.00578   0.00633
 Alpha virt. eigenvalues --    0.01062   0.01501   0.01913   0.02140   0.02295
 Alpha virt. eigenvalues --    0.02435   0.02653   0.02693   0.03228   0.03417
 Alpha virt. eigenvalues --    0.04220   0.04479   0.04700   0.04995   0.05345
 Alpha virt. eigenvalues --    0.06034   0.06247   0.06573   0.07032   0.07249
 Alpha virt. eigenvalues --    0.07872   0.08038   0.08327   0.08545   0.08884
 Alpha virt. eigenvalues --    0.09475   0.09530   0.09915   0.10702   0.10895
 Alpha virt. eigenvalues --    0.11101   0.12075   0.12206   0.12710   0.12975
 Alpha virt. eigenvalues --    0.13405   0.13513   0.13968   0.14227   0.15888
 Alpha virt. eigenvalues --    0.16254   0.16351   0.17311   0.17487   0.17719
 Alpha virt. eigenvalues --    0.18041   0.18965   0.19278   0.19553   0.19753
 Alpha virt. eigenvalues --    0.21443   0.21528   0.22554   0.23018   0.23488
 Alpha virt. eigenvalues --    0.23787   0.24526   0.25279   0.26839   0.27475
 Alpha virt. eigenvalues --    0.28716   0.29243   0.29782   0.31258   0.35489
 Alpha virt. eigenvalues --    0.36135   0.38124   0.39211   0.41049   0.41370
 Alpha virt. eigenvalues --    0.41825   0.42199   0.43017   0.43576   0.44375
 Alpha virt. eigenvalues --    0.44612   0.44887   0.45854   0.46096   0.47926
 Alpha virt. eigenvalues --    0.48481   0.48761   0.49067   0.50510   0.51028
 Alpha virt. eigenvalues --    0.51125   0.51842   0.52132   0.52621   0.53993
 Alpha virt. eigenvalues --    0.54095   0.54529   0.55640   0.55829   0.57495
 Alpha virt. eigenvalues --    0.58190   0.58785   0.61397   0.62098   0.62236
 Alpha virt. eigenvalues --    0.63032   0.63439   0.64713   0.65041   0.67213
 Alpha virt. eigenvalues --    0.70207   0.70431   0.70903   0.72353   0.72760
 Alpha virt. eigenvalues --    0.75593   0.75875   0.76300   0.76757   0.77109
 Alpha virt. eigenvalues --    0.77754   0.77893   0.78164   0.79932   0.80271
 Alpha virt. eigenvalues --    0.81125   0.81541   0.82194   0.82844   0.85092
 Alpha virt. eigenvalues --    0.86978   0.88036   0.88343   0.89091   0.90477
 Alpha virt. eigenvalues --    0.90922   0.91288   0.93156   0.94436   0.96297
 Alpha virt. eigenvalues --    0.96637   1.00255   1.01117   1.01482   1.02651
 Alpha virt. eigenvalues --    1.03063   1.03343   1.04640   1.05618   1.08614
 Alpha virt. eigenvalues --    1.19460   1.22986   1.23960   1.24622   1.28387
 Alpha virt. eigenvalues --    1.29435   1.31939   1.34120   1.35663   1.35824
 Alpha virt. eigenvalues --    1.39174   1.39733   1.40671   1.42845   1.43226
 Alpha virt. eigenvalues --    1.43277   1.44142   1.45816   1.46154   1.46472
 Alpha virt. eigenvalues --    1.47493   1.47744   1.51477   1.53412   1.55322
 Alpha virt. eigenvalues --    1.55503   1.56098   1.56358   1.57584   1.61090
 Alpha virt. eigenvalues --    1.62964   1.63302   1.63990   1.65931   1.67959
 Alpha virt. eigenvalues --    1.68105   1.68489   1.69558   1.74128   1.75616
 Alpha virt. eigenvalues --    1.76809   1.77937   1.79474   1.79758   1.80738
 Alpha virt. eigenvalues --    1.82654   1.82858   1.83335   1.83660   1.83891
 Alpha virt. eigenvalues --    1.84212   1.85394   1.86051   1.88169   1.91123
 Alpha virt. eigenvalues --    1.91873   1.93699   1.95124   1.97353   1.97804
 Alpha virt. eigenvalues --    1.99551   2.01995   2.04004   2.06928   2.11372
 Alpha virt. eigenvalues --    2.11695   2.13860   2.14764   2.18585   2.20719
 Alpha virt. eigenvalues --    2.22244   2.28016   2.29640   2.33895   2.34331
 Alpha virt. eigenvalues --    2.35690   2.38224   2.39336   2.41809   2.44203
 Alpha virt. eigenvalues --    2.45695   2.45743   2.48764   2.52426   2.53072
 Alpha virt. eigenvalues --    2.54160   2.56687   2.57749   2.58408   2.59385
 Alpha virt. eigenvalues --    2.59902   2.61266   2.61904   2.63511   2.63565
 Alpha virt. eigenvalues --    2.64742   2.64976   2.65148   2.65571   2.67497
 Alpha virt. eigenvalues --    2.67795   2.70532   2.70801   2.73209   2.74661
 Alpha virt. eigenvalues --    2.76132   2.77634   2.79528   2.82166   2.82968
 Alpha virt. eigenvalues --    2.83947   2.86069   2.91789   2.96788   2.99146
 Alpha virt. eigenvalues --    2.99807   3.04314   3.08822   3.10471   3.12988
 Alpha virt. eigenvalues --    3.19882   3.21903   3.25745   3.27867   3.29944
 Alpha virt. eigenvalues --    3.31938   3.33661   3.43077   3.45382   3.45953
 Alpha virt. eigenvalues --    3.47394   3.48947   3.55844   3.65641   3.66231
 Alpha virt. eigenvalues --    3.67120   3.93458   3.93717   3.94891   3.95879
 Alpha virt. eigenvalues --    4.03432   4.06170   4.07136   4.11999   4.35026
 Alpha virt. eigenvalues --    4.60355   4.68798   4.70706  23.45065  23.59832
 Alpha virt. eigenvalues --   23.80000  23.82287  23.84990  23.88379  23.90740
 Alpha virt. eigenvalues --   23.93984  23.94784  23.96333  24.01332  24.03492
 Alpha virt. eigenvalues --   24.09798  24.10944
     Molecular Orbital Coefficients:
                          43        44        45        46        47
                           O         O         O         O         O
     Eigenvalues --    -0.54499  -0.52332  -0.46965  -0.46039  -0.44027
   1 1   C  1S         -0.00056   0.00000  -0.00000   0.00000   0.00000
   2        2S         -0.00091   0.00000  -0.00000   0.00000   0.00000
   3        2PX        -0.06658   0.00000  -0.00000  -0.00000   0.00000
   4        2PY        -0.03537   0.00000  -0.00000   0.00000  -0.00000
   5        2PZ         0.00000   0.07294  -0.12478   0.02954   0.05627
   6        3S          0.00133  -0.00000   0.00000  -0.00000  -0.00000
   7        3PX        -0.09348   0.00000  -0.00000  -0.00000   0.00000
   8        3PY        -0.05147   0.00000  -0.00000  -0.00000  -0.00000
   9        3PZ         0.00000   0.11750  -0.20394   0.04829   0.09294
  10        4S         -0.01396  -0.00000  -0.00000  -0.00000  -0.00000
  11        4PX        -0.07060  -0.00000  -0.00000  -0.00000   0.00000
  12        4PY        -0.06167  -0.00000  -0.00000  -0.00000  -0.00000
  13        4PZ         0.00000   0.09746  -0.17649   0.04533   0.08387
  14        5S          0.09318   0.00000  -0.00003  -0.00002  -0.00002
  15        5PX         0.07368  -0.00001   0.00004   0.00003   0.00003
  16        5PY         0.00048  -0.00000   0.00000   0.00000   0.00000
  17        5PZ         0.00000   0.00187  -0.04506   0.00260   0.00598
  18        6D 0        0.00024  -0.00000  -0.00000  -0.00000   0.00000
  19        6D+1       -0.00000   0.00880   0.00858   0.01515  -0.00082
  20        6D-1        0.00000   0.00736  -0.00832   0.00219   0.00421
  21        6D+2       -0.01232   0.00000  -0.00000  -0.00000   0.00000
  22        6D-2       -0.00969   0.00000  -0.00000  -0.00000   0.00000
  23 2   C  1S          0.00179  -0.00000   0.00000   0.00000  -0.00000
  24        2S          0.00296  -0.00000   0.00000   0.00000  -0.00000
  25        2PX         0.06344  -0.00000   0.00000   0.00000  -0.00000
  26        2PY         0.04409  -0.00000   0.00000   0.00000  -0.00000
  27        2PZ        -0.00000   0.10110  -0.01843   0.09664   0.01818
  28        3S         -0.00992   0.00000  -0.00000  -0.00000   0.00000
  29        3PX         0.09066  -0.00000   0.00000   0.00000  -0.00000
  30        3PY         0.06244  -0.00000   0.00000   0.00000  -0.00000
  31        3PZ        -0.00000   0.16675  -0.03074   0.15907   0.02959
  32        4S          0.02312   0.00000   0.00000   0.00000  -0.00000
  33        4PX         0.05633  -0.00000  -0.00000  -0.00000  -0.00000
  34        4PY         0.03446  -0.00000   0.00000   0.00000   0.00000
  35        4PZ        -0.00000   0.12722  -0.02527   0.13627   0.02790
  36        5S         -0.04307  -0.00000  -0.00001  -0.00001  -0.00001
  37        5PX         0.02276  -0.00000   0.00001   0.00001   0.00000
  38        5PY         0.05388  -0.00000   0.00002   0.00002   0.00001
  39        5PZ        -0.00000  -0.00018   0.01344   0.00369   0.01369
  40        6D 0       -0.00018  -0.00000  -0.00000  -0.00000   0.00000
  41        6D+1       -0.00000  -0.00902   0.01229  -0.00389  -0.00591
  42        6D-1       -0.00000   0.00533   0.01873   0.00691  -0.00790
  43        6D+2       -0.00305  -0.00000   0.00000   0.00000  -0.00000
  44        6D-2       -0.01153   0.00000  -0.00000  -0.00000   0.00000
  45 3   C  1S         -0.00134   0.00000   0.00000   0.00000  -0.00000
  46        2S         -0.00224   0.00000   0.00000   0.00000  -0.00000
  47        2PX        -0.05757   0.00000  -0.00000  -0.00000   0.00000
  48        2PY        -0.03311   0.00000  -0.00000  -0.00000   0.00000
  49        2PZ        -0.00000   0.07449   0.10591   0.07237  -0.04165
  50        3S          0.00834  -0.00000  -0.00000  -0.00000   0.00000
  51        3PX        -0.08286   0.00000  -0.00000  -0.00000   0.00000
  52        3PY        -0.04788   0.00000  -0.00000  -0.00000  -0.00000
  53        3PZ        -0.00000   0.12130   0.17410   0.11797  -0.06844
  54        4S         -0.01615  -0.00000  -0.00000  -0.00000  -0.00000
  55        4PX        -0.06876   0.00000   0.00000   0.00000   0.00000
  56        4PY        -0.03698   0.00000   0.00000   0.00000   0.00000
  57        4PZ        -0.00000   0.09628   0.14884   0.10533  -0.06033
  58        5S         -0.04578   0.00001  -0.00003  -0.00002  -0.00002
  59        5PX        -0.01154  -0.00000  -0.00000  -0.00000  -0.00000
  60        5PY         0.04436  -0.00000   0.00002   0.00001   0.00001
  61        5PZ         0.00000   0.01014  -0.00322   0.02032  -0.01650
  62        6D 0       -0.00041   0.00000  -0.00000   0.00000   0.00000
  63        6D+1        0.00000  -0.00291  -0.01334   0.00078   0.00527
  64        6D-1       -0.00000  -0.01117   0.00811  -0.01203  -0.00454
  65        6D+2       -0.00949   0.00000  -0.00000  -0.00000   0.00000
  66        6D-2       -0.01519   0.00000  -0.00000  -0.00000   0.00000
  67 4   C  1S          0.00367  -0.00000   0.00000   0.00000  -0.00000
  68        2S          0.00608  -0.00000   0.00000   0.00000  -0.00000
  69        2PX         0.07478  -0.00000   0.00000   0.00000  -0.00000
  70        2PY         0.03694  -0.00000   0.00000   0.00000  -0.00000
  71        2PZ        -0.00000   0.00820   0.12724  -0.01995  -0.05224
  72        3S         -0.01980   0.00000  -0.00000  -0.00000   0.00000
  73        3PX         0.10661  -0.00000   0.00000   0.00000  -0.00000
  74        3PY         0.05354  -0.00000   0.00000   0.00000  -0.00000
  75        3PZ        -0.00000   0.01190   0.20843  -0.03268  -0.08450
  76        4S          0.02990   0.00000   0.00000   0.00000   0.00000
  77        4PX         0.04879  -0.00000   0.00000  -0.00000  -0.00000
  78        4PY         0.03696  -0.00000  -0.00000  -0.00000  -0.00000
  79        4PZ        -0.00000   0.01735   0.18454  -0.02250  -0.08713
  80        5S          0.20526   0.00001   0.00002   0.00001   0.00000
  81        5PX        -0.07820  -0.00000  -0.00001  -0.00001  -0.00000
  82        5PY        -0.04588  -0.00000  -0.00000  -0.00000  -0.00000
  83        5PZ        -0.00000  -0.01719   0.03649  -0.02788  -0.00548
  84        6D 0       -0.00059  -0.00000  -0.00000  -0.00000   0.00000
  85        6D+1        0.00000   0.01424   0.00788   0.01765  -0.00396
  86        6D-1        0.00000  -0.00295  -0.00804   0.00038   0.00288
  87        6D+2       -0.01074   0.00000  -0.00000  -0.00000   0.00000
  88        6D-2       -0.00822   0.00000   0.00000   0.00000  -0.00000
  89 5   C  1S          0.00239   0.00000  -0.00000   0.00000   0.00000
  90        2S          0.00397   0.00000  -0.00000   0.00000   0.00000
  91        2PX         0.07049  -0.00000   0.00000   0.00000  -0.00000
  92        2PY         0.02883   0.00000  -0.00000   0.00000   0.00000
  93        2PZ        -0.00000   0.01453  -0.05981   0.04614  -0.11976
  94        3S         -0.01209  -0.00000   0.00000   0.00000  -0.00000
  95        3PX         0.10034  -0.00000   0.00000   0.00000  -0.00000
  96        3PY         0.04150   0.00000  -0.00000   0.00000   0.00000
  97        3PZ        -0.00000   0.02265  -0.09843   0.07475  -0.19527
  98        4S         -0.03161  -0.00000   0.00000   0.00000   0.00000
  99        4PX         0.07279  -0.00000   0.00000   0.00000  -0.00000
 100        4PY         0.04521   0.00000  -0.00000  -0.00000  -0.00000
 101        4PZ        -0.00000   0.02641  -0.08114   0.05813  -0.19057
 102        5S         -0.18651  -0.00001   0.00000   0.00000   0.00001
 103        5PX        -0.11458  -0.00000   0.00001   0.00000   0.00001
 104        5PY         0.03714   0.00000  -0.00000  -0.00000  -0.00000
 105        5PZ        -0.00000  -0.01263  -0.02759   0.03081  -0.02769
 106        6D 0        0.00005   0.00000   0.00000   0.00000  -0.00000
 107        6D+1       -0.00000  -0.01232   0.00079   0.01699   0.01071
 108        6D-1        0.00000  -0.00336   0.00363  -0.00226   0.00631
 109        6D+2       -0.00699  -0.00000   0.00000  -0.00000  -0.00000
 110        6D-2       -0.00928   0.00000  -0.00000  -0.00000  -0.00000
 111 6   C  1S         -0.00015  -0.00000  -0.00000   0.00000   0.00000
 112        2S         -0.00025  -0.00000  -0.00000   0.00000   0.00000
 113        2PX        -0.06899   0.00000  -0.00000  -0.00000   0.00000
 114        2PY        -0.02929  -0.00000  -0.00000  -0.00000  -0.00000
 115        2PZ        -0.00000   0.07818  -0.03987  -0.06263  -0.11425
 116        3S         -0.00133   0.00000   0.00000   0.00000  -0.00000
 117        3PX        -0.09966   0.00000  -0.00000  -0.00000   0.00000
 118        3PY        -0.04173  -0.00000  -0.00000  -0.00000  -0.00000
 119        3PZ        -0.00000   0.12709  -0.06576  -0.10129  -0.18777
 120        4S          0.02502   0.00000  -0.00000  -0.00000  -0.00000
 121        4PX        -0.06681   0.00000  -0.00000  -0.00000  -0.00000
 122        4PY        -0.01451  -0.00000   0.00000   0.00000   0.00000
 123        4PZ        -0.00000   0.09878  -0.05694  -0.08847  -0.16800
 124        5S         -0.02246  -0.00001  -0.00004  -0.00002  -0.00002
 125        5PX        -0.03686  -0.00000   0.00000   0.00000   0.00000
 126        5PY        -0.06160   0.00000   0.00001   0.00001   0.00001
 127        5PZ         0.00000   0.00715   0.01399  -0.01644  -0.01488
 128        6D 0        0.00002  -0.00000   0.00000   0.00000  -0.00000
 129        6D+1       -0.00000   0.00329  -0.00587   0.00324  -0.01179
 130        6D-1       -0.00000  -0.01138  -0.00390   0.01470  -0.00604
 131        6D+2       -0.00284  -0.00000   0.00000  -0.00000  -0.00000
 132        6D-2       -0.01392   0.00000  -0.00000  -0.00000   0.00000
 133 7   C  1S         -0.00269   0.00000  -0.00000  -0.00000   0.00000
 134        2S         -0.00448   0.00000  -0.00000  -0.00000   0.00000
 135        2PX         0.07394  -0.00000   0.00000   0.00000  -0.00000
 136        2PY         0.02128   0.00000  -0.00000  -0.00000   0.00000
 137        2PZ        -0.00000   0.10254   0.01053  -0.10891   0.00559
 138        3S          0.01527  -0.00000   0.00000   0.00000  -0.00000
 139        3PX         0.10705  -0.00000   0.00000   0.00000  -0.00000
 140        3PY         0.03048   0.00000  -0.00000  -0.00000   0.00000
 141        3PZ        -0.00000   0.16877   0.01795  -0.17899   0.00950
 142        4S         -0.00993  -0.00000   0.00000   0.00000   0.00000
 143        4PX         0.08222  -0.00000   0.00000   0.00000   0.00000
 144        4PY         0.02925   0.00000   0.00000   0.00000   0.00000
 145        4PZ        -0.00000   0.12628   0.01331  -0.15107   0.00865
 146        5S          0.11771   0.00000   0.00000  -0.00000   0.00000
 147        5PX         0.05038   0.00000  -0.00000  -0.00000  -0.00000
 148        5PY        -0.07107   0.00000   0.00002   0.00001   0.00002
 149        5PZ         0.00000   0.00246  -0.01820  -0.00623  -0.00234
 150        6D 0       -0.00018   0.00000   0.00000   0.00000  -0.00000
 151        6D+1        0.00000   0.00950   0.00507  -0.00692   0.01170
 152        6D-1       -0.00000   0.00571  -0.00748  -0.00450  -0.02008
 153        6D+2       -0.00871   0.00000  -0.00000  -0.00000   0.00000
 154        6D-2       -0.01777   0.00000  -0.00000  -0.00000   0.00000
 155 8   C  1S          0.00301  -0.00000   0.00000   0.00000  -0.00000
 156        2S          0.00496  -0.00000   0.00000   0.00000  -0.00000
 157        2PX        -0.08968   0.00000  -0.00000  -0.00000   0.00000
 158        2PY        -0.02651  -0.00000  -0.00000  -0.00000   0.00000
 159        2PZ         0.00000   0.07543   0.05338  -0.05656   0.12015
 160        3S         -0.01573   0.00000  -0.00000  -0.00000   0.00000
 161        3PX        -0.12875   0.00000  -0.00000  -0.00000   0.00000
 162        3PY        -0.03813  -0.00000  -0.00000  -0.00000   0.00000
 163        3PZ         0.00000   0.12115   0.08658  -0.09177   0.19677
 164        4S          0.02020   0.00000  -0.00000  -0.00000  -0.00000
 165        4PX        -0.06970  -0.00000  -0.00000  -0.00000   0.00000
 166        4PY        -0.02771   0.00000  -0.00000  -0.00000  -0.00000
 167        4PZ         0.00000   0.09971   0.07587  -0.08289   0.17799
 168        5S         -0.10822  -0.00000  -0.00004  -0.00002  -0.00002
 169        5PX         0.12288  -0.00000  -0.00004  -0.00003  -0.00003
 170        5PY        -0.01920   0.00000   0.00000   0.00000   0.00000
 171        5PZ         0.00000  -0.00068   0.02958  -0.00676   0.03786
 172        6D 0       -0.00028   0.00000  -0.00000  -0.00000  -0.00000
 173        6D+1        0.00000  -0.00836   0.00379   0.01496   0.00933
 174        6D-1        0.00000   0.00779   0.00275  -0.00416   0.00717
 175        6D+2       -0.00717  -0.00000   0.00000   0.00000  -0.00000
 176        6D-2       -0.01029   0.00000  -0.00000  -0.00000   0.00000
 177 9   C  1S          0.00346  -0.00000  -0.00000  -0.00000  -0.00000
 178        2S          0.00577  -0.00000  -0.00000  -0.00000  -0.00000
 179        2PX        -0.08682   0.00000  -0.00000  -0.00000   0.00000
 180        2PY        -0.03415  -0.00000  -0.00000  -0.00000  -0.00000
 181        2PZ         0.00000  -0.00662   0.02489   0.00436  -0.05591
 182        3S         -0.01854   0.00000   0.00000   0.00000   0.00000
 183        3PX        -0.13025   0.00000  -0.00000  -0.00000   0.00000
 184        3PY        -0.05057  -0.00000  -0.00000  -0.00000  -0.00000
 185        3PZ         0.00001  -0.00763   0.03782   0.00687  -0.08539
 186        4S          0.00044  -0.00000   0.00002   0.00001   0.00001
 187        4PX        -0.09267  -0.00000  -0.00000  -0.00000  -0.00000
 188        4PY        -0.05118  -0.00000  -0.00000  -0.00000  -0.00000
 189        4PZ         0.00001  -0.04332   0.03646   0.00680  -0.08683
 190        5S          0.01236  -0.00000   0.00004   0.00003   0.00003
 191        5PX         0.30229   0.00000   0.00001   0.00000  -0.00000
 192        5PY        -0.00425  -0.00000   0.00001   0.00001   0.00000
 193        5PZ         0.00000  -0.06910  -0.03822  -0.00817   0.08438
 194        6D 0        0.00364  -0.00000   0.00000  -0.00000  -0.00000
 195        6D+1        0.00000  -0.00039  -0.01419  -0.01005  -0.00672
 196        6D-1       -0.00000   0.00037  -0.00661  -0.00093   0.01704
 197        6D+2       -0.00896   0.00000  -0.00000  -0.00000   0.00000
 198        6D-2       -0.00899   0.00000  -0.00000  -0.00000   0.00000
 199 10  C  1S          0.00566  -0.00000  -0.00000  -0.00000  -0.00000
 200        2S          0.00939  -0.00000  -0.00000  -0.00000  -0.00000
 201        2PX         0.07154  -0.00000   0.00000   0.00000  -0.00000
 202        2PY         0.03003  -0.00000   0.00000   0.00000  -0.00000
 203        2PZ        -0.00000  -0.10342  -0.00639  -0.00631   0.01546
 204        3S         -0.02876   0.00000   0.00000   0.00000   0.00000
 205        3PX         0.10309  -0.00000   0.00000   0.00000  -0.00000
 206        3PY         0.04331  -0.00000   0.00000   0.00000   0.00000
 207        3PZ        -0.00000  -0.16853  -0.01090  -0.01015   0.02626
 208        4S         -0.02912   0.00000  -0.00001  -0.00000  -0.00000
 209        4PX         0.08330   0.00000   0.00000   0.00000  -0.00000
 210        4PY         0.05171  -0.00000   0.00000   0.00000   0.00000
 211        4PZ        -0.00000  -0.13972  -0.00771  -0.00747   0.01892
 212        5S          0.00733  -0.00000   0.00003   0.00002   0.00002
 213        5PX        -0.26534  -0.00001  -0.00001  -0.00000   0.00001
 214        5PY         0.00515   0.00000   0.00000  -0.00000   0.00000
 215        5PZ        -0.00000  -0.01426   0.02204   0.00659  -0.05505
 216        6D 0       -0.00085  -0.00000   0.00000   0.00000   0.00000
 217        6D+1       -0.00000  -0.00236   0.00587  -0.02334  -0.00021
 218        6D-1        0.00000   0.00926   0.00156   0.00067  -0.00390
 219        6D+2       -0.01082  -0.00000  -0.00000  -0.00000  -0.00000
 220        6D-2       -0.00877   0.00000  -0.00000  -0.00000   0.00000
 221 11  C  1S          0.00204  -0.00000   0.00000   0.00000  -0.00000
 222        2S          0.00339  -0.00000   0.00000   0.00000  -0.00000
 223        2PX         0.07400  -0.00000   0.00000   0.00000  -0.00000
 224        2PY         0.05751  -0.00000   0.00000   0.00000  -0.00000
 225        2PZ         0.00000   0.00116  -0.10952  -0.06675   0.03176
 226        3S         -0.00975   0.00000  -0.00000  -0.00000   0.00000
 227        3PX         0.10929  -0.00000   0.00000   0.00000  -0.00000
 228        3PY         0.08493  -0.00000   0.00000   0.00000  -0.00000
 229        3PZ         0.00000   0.00047  -0.17822  -0.11124   0.05162
 230        4S         -0.02475   0.00000  -0.00000  -0.00000   0.00000
 231        4PX         0.10606  -0.00000   0.00001   0.00000  -0.00000
 232        4PY         0.05861  -0.00000   0.00000   0.00000  -0.00000
 233        4PZ         0.00000   0.01480  -0.17779  -0.09485   0.05095
 234        5S          0.06659   0.00000  -0.00006  -0.00003  -0.00004
 235        5PX         0.11544   0.00001   0.00002   0.00001   0.00001
 236        5PY         0.25092   0.00001  -0.00005  -0.00003  -0.00005
 237        5PZ        -0.00000   0.01465   0.06358  -0.00633  -0.05471
 238        6D 0       -0.00036  -0.00000  -0.00000  -0.00000   0.00000
 239        6D+1       -0.00000   0.00978  -0.01378   0.00378   0.00933
 240        6D-1       -0.00000  -0.01162   0.00724  -0.01292   0.00156
 241        6D+2       -0.00870  -0.00000  -0.00000  -0.00000  -0.00000
 242        6D-2       -0.01678   0.00000  -0.00000  -0.00000   0.00000
 243 12  C  1S         -0.00113  -0.00000  -0.00000  -0.00000   0.00000
 244        2S         -0.00189  -0.00000  -0.00000  -0.00000   0.00000
 245        2PX        -0.06634   0.00000  -0.00000  -0.00000   0.00000
 246        2PY        -0.05291   0.00000  -0.00000  -0.00000   0.00000
 247        2PZ        -0.00000  -0.07431   0.01728  -0.10766   0.00245
 248        3S          0.00551   0.00000   0.00000   0.00000  -0.00000
 249        3PX        -0.09590   0.00000  -0.00000  -0.00000   0.00000
 250        3PY        -0.07692   0.00000  -0.00000  -0.00000   0.00000
 251        3PZ        -0.00000  -0.12183   0.02709  -0.17692   0.00163
 252        4S         -0.01859  -0.00000   0.00000  -0.00000   0.00000
 253        4PX        -0.10330   0.00000  -0.00001  -0.00000  -0.00000
 254        4PY        -0.08093  -0.00000  -0.00000   0.00000   0.00000
 255        4PZ        -0.00000  -0.11068   0.03554  -0.17555   0.01343
 256        5S         -0.22257  -0.00001   0.00008   0.00005   0.00006
 257        5PX        -0.24298  -0.00001  -0.00001  -0.00000   0.00001
 258        5PY         0.17885   0.00001  -0.00004  -0.00002  -0.00003
 259        5PZ         0.00000   0.01732  -0.06169   0.01592   0.05628
 260        6D 0       -0.00009  -0.00000  -0.00000  -0.00000  -0.00000
 261        6D+1       -0.00000   0.01242   0.01231   0.00022  -0.00705
 262        6D-1       -0.00000  -0.00517   0.01828   0.00412  -0.00608
 263        6D+2       -0.00882   0.00000  -0.00000  -0.00000   0.00000
 264        6D-2       -0.01548   0.00000  -0.00000  -0.00000   0.00000
 265 13  C  1S          0.00090   0.00000  -0.00000  -0.00000   0.00000
 266        2S          0.00152   0.00000  -0.00000  -0.00000   0.00000
 267        2PX         0.07879  -0.00000   0.00000   0.00000  -0.00000
 268        2PY         0.04276   0.00000  -0.00000   0.00000   0.00000
 269        2PZ         0.00000   0.00677   0.04888   0.05657   0.11216
 270        3S         -0.00525  -0.00000   0.00000   0.00000  -0.00000
 271        3PX         0.11532  -0.00000   0.00000   0.00000  -0.00000
 272        3PY         0.06130   0.00000  -0.00000   0.00000   0.00000
 273        3PZ         0.00000   0.01059   0.07941   0.09394   0.18304
 274        4S         -0.00749  -0.00000  -0.00000  -0.00000  -0.00001
 275        4PX         0.11135  -0.00000  -0.00000  -0.00000  -0.00001
 276        4PY         0.06363   0.00000   0.00000   0.00000   0.00001
 277        4PZ         0.00000   0.02257   0.08413   0.07550   0.18989
 278        5S         -0.07860  -0.00000  -0.00006  -0.00003  -0.00004
 279        5PX         0.14126   0.00001  -0.00001  -0.00001  -0.00001
 280        5PY        -0.20014  -0.00001  -0.00007  -0.00004  -0.00003
 281        5PZ        -0.00000   0.01760  -0.00683   0.02088  -0.07109
 282        6D 0        0.00033   0.00000  -0.00000  -0.00000  -0.00000
 283        6D+1        0.00000  -0.00935  -0.00312   0.00669  -0.01402
 284        6D-1       -0.00000  -0.00957  -0.00785   0.01428  -0.00119
 285        6D+2       -0.00878   0.00000  -0.00000  -0.00000  -0.00000
 286        6D-2       -0.01565   0.00000  -0.00000   0.00000   0.00000
 287 14  C  1S         -0.00262  -0.00000   0.00000  -0.00000  -0.00000
 288        2S         -0.00444  -0.00000   0.00000  -0.00000  -0.00000
 289        2PX        -0.06311   0.00000  -0.00000  -0.00000   0.00000
 290        2PY        -0.03930  -0.00000   0.00000  -0.00000  -0.00000
 291        2PZ        -0.00000  -0.05460  -0.02589   0.11222   0.00944
 292        3S          0.01297  -0.00000  -0.00000   0.00000   0.00000
 293        3PX        -0.09110   0.00000  -0.00000  -0.00000   0.00000
 294        3PY        -0.05709  -0.00000   0.00000  -0.00000  -0.00000
 295        3PZ        -0.00000  -0.08987  -0.04006   0.18431   0.01496
 296        4S          0.01111   0.00000  -0.00000  -0.00000  -0.00000
 297        4PX        -0.07556   0.00000   0.00000   0.00000   0.00000
 298        4PY        -0.02448   0.00000   0.00000   0.00000  -0.00000
 299        4PZ        -0.00000  -0.08200  -0.05261   0.18019   0.01579
 300        5S          0.19804   0.00001   0.00009   0.00005   0.00005
 301        5PX        -0.28039  -0.00001  -0.00001  -0.00001   0.00001
 302        5PY        -0.15133  -0.00001  -0.00004  -0.00003  -0.00002
 303        5PZ         0.00000   0.01303   0.01023  -0.03150   0.07465
 304        6D 0        0.00006   0.00000  -0.00000  -0.00000   0.00000
 305        6D+1       -0.00000  -0.01244   0.00449  -0.00330   0.01380
 306        6D-1       -0.00000  -0.00461  -0.00907  -0.00227  -0.01929
 307        6D+2       -0.00859  -0.00000   0.00000   0.00000  -0.00000
 308        6D-2       -0.01674   0.00000  -0.00000  -0.00000   0.00000
 309 15  H  1S          0.03832  -0.00000   0.00000   0.00000  -0.00000
 310        2S          0.05388  -0.00000   0.00000  -0.00000  -0.00000
 311        3S          0.02203   0.00000  -0.00000  -0.00000  -0.00000
 312        4S         -0.00981  -0.00000   0.00000   0.00000   0.00000
 313        5PX        -0.00388   0.00000  -0.00000  -0.00000   0.00000
 314        5PY         0.00226  -0.00000  -0.00000  -0.00000   0.00000
 315        5PZ         0.00000   0.00468  -0.00865   0.00212   0.00373
 316 16  H  1S          0.03019  -0.00000   0.00000   0.00000  -0.00000
 317        2S          0.04410  -0.00000   0.00000   0.00000  -0.00000
 318        3S          0.01957   0.00000   0.00000   0.00000  -0.00000
 319        4S          0.00794  -0.00000   0.00000   0.00000  -0.00000
 320        5PX         0.00020   0.00000  -0.00000  -0.00000  -0.00000
 321        5PY         0.00438  -0.00000   0.00000   0.00000  -0.00000
 322        5PZ        -0.00000   0.00646  -0.00129   0.00659   0.00120
 323 17  H  1S         -0.06427   0.00000  -0.00000  -0.00000   0.00000
 324        2S         -0.09363   0.00000  -0.00000  -0.00000   0.00000
 325        3S         -0.03546  -0.00000  -0.00000  -0.00000   0.00000
 326        4S         -0.00517  -0.00000  -0.00000  -0.00000  -0.00000
 327        5PX         0.00386  -0.00000   0.00000   0.00000  -0.00000
 328        5PY         0.00225  -0.00000   0.00000   0.00000  -0.00000
 329        5PZ        -0.00000   0.00476   0.00732   0.00492  -0.00301
 330 18  H  1S          0.03471  -0.00000   0.00000   0.00000  -0.00000
 331        2S          0.05136  -0.00000   0.00000   0.00000  -0.00000
 332        3S          0.02616  -0.00000   0.00000   0.00000   0.00000
 333        4S          0.01874  -0.00000   0.00000   0.00000   0.00000
 334        5PX         0.00358  -0.00000   0.00000   0.00000  -0.00000
 335        5PY        -0.00169   0.00000  -0.00000  -0.00000  -0.00000
 336        5PZ        -0.00000  -0.00003   0.00890  -0.00158  -0.00349
 337 19  H  1S          0.02752   0.00000   0.00000   0.00000   0.00000
 338        2S          0.03989  -0.00000   0.00000   0.00000  -0.00000
 339        3S          0.01930   0.00000  -0.00000  -0.00000  -0.00000
 340        4S          0.00279  -0.00000  -0.00000   0.00000  -0.00000
 341        5PX         0.00385  -0.00000   0.00000   0.00000  -0.00000
 342        5PY        -0.00071   0.00000   0.00000   0.00000   0.00000
 343        5PZ        -0.00000  -0.00646  -0.00023  -0.00035   0.00053
 344 20  H  1S          0.02613   0.00000  -0.00000   0.00000   0.00000
 345        2S          0.03825   0.00000   0.00000   0.00000   0.00000
 346        3S          0.01666   0.00000   0.00000   0.00000   0.00000
 347        4S         -0.01446   0.00000   0.00000   0.00000   0.00000
 348        5PX         0.00430  -0.00000   0.00000  -0.00000  -0.00000
 349        5PY        -0.00180  -0.00000  -0.00000  -0.00000  -0.00000
 350        5PZ        -0.00000   0.00043  -0.00440   0.00334  -0.00849
 351 21  H  1S          0.04227  -0.00000   0.00000   0.00000  -0.00000
 352        2S          0.06044  -0.00000   0.00000  -0.00000  -0.00000
 353        3S          0.02409  -0.00000   0.00000   0.00000  -0.00000
 354        4S          0.00571   0.00000  -0.00000  -0.00000  -0.00000
 355        5PX         0.00070  -0.00000   0.00000  -0.00000  -0.00000
 356        5PY        -0.00458   0.00000  -0.00000  -0.00000   0.00000
 357        5PZ        -0.00000   0.00498  -0.00276  -0.00419  -0.00820
 358 22  H  1S         -0.07043   0.00000  -0.00000  -0.00000   0.00000
 359        2S         -0.10255   0.00000  -0.00000   0.00000   0.00000
 360        3S         -0.03929  -0.00000   0.00000   0.00000   0.00000
 361        4S         -0.00685   0.00000   0.00000   0.00000   0.00000
 362        5PX        -0.00369   0.00000   0.00000   0.00000  -0.00000
 363        5PY        -0.00324   0.00000  -0.00000  -0.00000   0.00000
 364        5PZ        -0.00000   0.00660   0.00081  -0.00747   0.00041
 365 23  H  1S          0.02368   0.00000   0.00000  -0.00000   0.00000
 366        2S          0.03466   0.00000   0.00000  -0.00000   0.00000
 367        3S          0.01482   0.00000  -0.00000  -0.00000  -0.00000
 368        4S          0.01216   0.00000   0.00000   0.00000   0.00000
 369        5PX        -0.00429   0.00000  -0.00000  -0.00000   0.00000
 370        5PY         0.00103   0.00000   0.00000  -0.00000  -0.00000
 371        5PZ         0.00000   0.00482   0.00394  -0.00394   0.00842
 372 24  H  1S          0.02078  -0.00357   0.02283   0.00391  -0.05239
 373        2S          0.02988   0.00384   0.03554   0.00593  -0.08348
 374        3S          0.01307   0.02535   0.02845   0.00449  -0.06998
 375        4S         -0.00142   0.04537   0.01543   0.00217  -0.03771
 376        5PX        -0.00425  -0.00005  -0.00215  -0.00065  -0.00151
 377        5PY        -0.00025   0.00086   0.00154   0.00025  -0.00299
 378        5PZ        -0.00196   0.00013  -0.00065  -0.00007   0.00151
 379 25  H  1S          0.02078   0.00357  -0.02283  -0.00391   0.05239
 380        2S          0.02988  -0.00384  -0.03555  -0.00593   0.08348
 381        3S          0.01307  -0.02535  -0.02847  -0.00450   0.06997
 382        4S         -0.00142  -0.04537  -0.01544  -0.00217   0.03770
 383        5PX        -0.00425   0.00005   0.00215   0.00065   0.00151
 384        5PY        -0.00025  -0.00086  -0.00154  -0.00025   0.00299
 385        5PZ         0.00196   0.00013  -0.00065  -0.00006   0.00151
                          48        49        50        51        52
                           V         V         V         V         V
     Eigenvalues --    -0.26116  -0.14722  -0.14116  -0.12831  -0.11174
   1 1   C  1S          0.00000   0.00000  -0.00000   0.00000  -0.00695
   2        2S          0.00000   0.00000  -0.00000   0.00000  -0.01178
   3        2PX        -0.00000  -0.00000  -0.00000  -0.00000   0.00356
   4        2PY         0.00000   0.00000  -0.00000   0.00000  -0.01646
   5        2PZ        -0.00472   0.08953  -0.00865   0.11402   0.00000
   6        3S         -0.00000  -0.00000   0.00000  -0.00000   0.03794
   7        3PX        -0.00000   0.00000   0.00000   0.00000   0.00334
   8        3PY         0.00000   0.00000   0.00000   0.00000  -0.02404
   9        3PZ        -0.00680   0.13768  -0.01349   0.18101   0.00000
  10        4S         -0.00000  -0.00000   0.00000   0.00000   0.04352
  11        4PX        -0.00000  -0.00000  -0.00000  -0.00001   0.02645
  12        4PY        -0.00000  -0.00000   0.00000   0.00000  -0.08371
  13        4PZ        -0.00522   0.26291  -0.03731   0.32851   0.00000
  14        5S         -0.00000   0.00003   0.00011   0.00010  -1.87783
  15        5PX         0.00001  -0.00006  -0.00015  -0.00013   1.17084
  16        5PY         0.00000  -0.00001  -0.00002  -0.00001  -0.49176
  17        5PZ         0.01158   0.19548  -0.05858   0.37994   0.00001
  18        6D 0       -0.00000  -0.00000   0.00000  -0.00000  -0.00605
  19        6D+1        0.01978   0.00127  -0.02706   0.00323  -0.00000
  20        6D-1       -0.00187  -0.00840   0.00007  -0.00972   0.00000
  21        6D+2       -0.00000  -0.00000  -0.00000  -0.00000   0.00179
  22        6D-2       -0.00000  -0.00000  -0.00000  -0.00000  -0.00154
  23 2   C  1S          0.00000   0.00000   0.00000   0.00000  -0.00578
  24        2S          0.00000   0.00000   0.00000   0.00000  -0.00962
  25        2PX         0.00000  -0.00000   0.00000  -0.00000   0.00915
  26        2PY         0.00000   0.00000   0.00000  -0.00000  -0.00138
  27        2PZ         0.09578  -0.03899  -0.09790  -0.04768  -0.00000
  28        3S         -0.00000  -0.00000  -0.00000  -0.00000   0.02816
  29        3PX         0.00000  -0.00000   0.00000  -0.00000   0.01476
  30        3PY         0.00000   0.00000   0.00000  -0.00000  -0.00396
  31        3PZ         0.15681  -0.06099  -0.15586  -0.07504  -0.00000
  32        4S          0.00000   0.00000  -0.00000   0.00000   0.12748
  33        4PX        -0.00000  -0.00000   0.00000  -0.00000   0.00595
  34        4PY         0.00000  -0.00000  -0.00000  -0.00000   0.01021
  35        4PZ         0.18430  -0.10995  -0.26184  -0.13447  -0.00000
  36        5S          0.00000   0.00002   0.00004   0.00004   0.22504
  37        5PX         0.00000  -0.00001  -0.00003  -0.00003   0.38094
  38        5PY         0.00001  -0.00003  -0.00009  -0.00007   0.46586
  39        5PZ         0.05911  -0.08918  -0.21873  -0.14224  -0.00001
  40        6D 0       -0.00000  -0.00000   0.00000   0.00000  -0.00419
  41        6D+1        0.00209  -0.01160   0.00148  -0.01571  -0.00000
  42        6D-1        0.00058  -0.01609   0.01629  -0.02076  -0.00000
  43        6D+2        0.00000   0.00000  -0.00000   0.00000  -0.00236
  44        6D-2       -0.00000  -0.00000  -0.00000  -0.00000   0.00468
  45 3   C  1S          0.00000   0.00000  -0.00000   0.00000  -0.00497
  46        2S          0.00000   0.00000  -0.00000   0.00000  -0.00825
  47        2PX        -0.00000   0.00000  -0.00000  -0.00000   0.00962
  48        2PY         0.00000   0.00000  -0.00000   0.00000   0.00154
  49        2PZ         0.00809  -0.05791   0.10006  -0.06939   0.00000
  50        3S         -0.00000  -0.00000  -0.00000  -0.00000   0.02410
  51        3PX        -0.00000   0.00000  -0.00000  -0.00000   0.01601
  52        3PY         0.00000   0.00000   0.00000   0.00000   0.00338
  53        3PZ         0.01526  -0.09095   0.15889  -0.10896   0.00000
  54        4S         -0.00000  -0.00000   0.00001   0.00000   0.09129
  55        4PX         0.00000   0.00000  -0.00000  -0.00000   0.02019
  56        4PY         0.00000   0.00000  -0.00000  -0.00000   0.02305
  57        4PZ         0.00854  -0.16685   0.27277  -0.20027   0.00000
  58        5S         -0.00002   0.00004   0.00010   0.00008   0.32850
  59        5PX         0.00000   0.00000   0.00001   0.00001  -0.00981
  60        5PY         0.00000  -0.00002  -0.00006  -0.00005   0.50553
  61        5PZ         0.00068  -0.12839   0.21876  -0.20790   0.00000
  62        6D 0       -0.00000  -0.00000   0.00000   0.00000  -0.00441
  63        6D+1        0.01065  -0.01039  -0.00076  -0.01478  -0.00000
  64        6D-1       -0.01673   0.01237   0.01477   0.01687   0.00000
  65        6D+2       -0.00000  -0.00000   0.00000   0.00000  -0.00304
  66        6D-2       -0.00000   0.00000  -0.00000   0.00000  -0.00435
  67 4   C  1S          0.00000   0.00000  -0.00000   0.00000  -0.00737
  68        2S          0.00000   0.00000  -0.00000   0.00000  -0.01242
  69        2PX         0.00000   0.00000  -0.00000  -0.00000   0.00377
  70        2PY         0.00000   0.00000  -0.00000  -0.00000   0.01891
  71        2PZ        -0.08419   0.08422   0.00423   0.11091   0.00000
  72        3S         -0.00000  -0.00000   0.00000  -0.00000   0.03751
  73        3PX         0.00000   0.00000  -0.00000   0.00000   0.00398
  74        3PY         0.00000   0.00000   0.00000  -0.00000   0.02590
  75        3PZ        -0.13666   0.12927   0.00772   0.17621   0.00000
  76        4S          0.00000  -0.00000  -0.00001  -0.00000   0.20905
  77        4PX         0.00000   0.00000   0.00000   0.00000  -0.04894
  78        4PY        -0.00000   0.00000   0.00000   0.00000   0.04454
  79        4PZ        -0.16010   0.26135   0.01261   0.31634   0.00000
  80        5S         -0.00000   0.00001  -0.00007  -0.00004   1.60306
  81        5PX         0.00000   0.00001   0.00005   0.00004  -0.95997
  82        5PY        -0.00000   0.00000   0.00001   0.00000   0.73527
  83        5PZ        -0.04080   0.25569   0.06510   0.37109   0.00000
  84        6D 0       -0.00000  -0.00000   0.00000   0.00000  -0.00597
  85        6D+1        0.00070  -0.00641   0.02898  -0.00442   0.00000
  86        6D-1        0.00357   0.00712   0.00026   0.01043   0.00000
  87        6D+2       -0.00000  -0.00000   0.00000  -0.00000   0.00171
  88        6D-2        0.00000   0.00000  -0.00000   0.00000   0.00231
  89 5   C  1S         -0.00000  -0.00000   0.00000   0.00000  -0.00595
  90        2S         -0.00000  -0.00000   0.00000   0.00000  -0.01002
  91        2PX         0.00000   0.00000   0.00000   0.00000  -0.00399
  92        2PY        -0.00000  -0.00000  -0.00000  -0.00000   0.01590
  93        2PZ        -0.07292   0.08791  -0.04363  -0.10517  -0.00000
  94        3S          0.00000   0.00000  -0.00000  -0.00000   0.02971
  95        3PX         0.00000   0.00000  -0.00000   0.00000  -0.00428
  96        3PY        -0.00000  -0.00000   0.00000  -0.00000   0.02145
  97        3PZ        -0.11803   0.13422  -0.06950  -0.16718  -0.00000
  98        4S          0.00000  -0.00000  -0.00001  -0.00000   0.20066
  99        4PX         0.00000   0.00000  -0.00000  -0.00000   0.04717
 100        4PY        -0.00000   0.00000   0.00000   0.00000   0.02447
 101        4PZ        -0.13499   0.25920  -0.13294  -0.28535  -0.00000
 102        5S          0.00000  -0.00002  -0.00002  -0.00001   1.79256
 103        5PX         0.00000  -0.00001  -0.00003  -0.00003   0.81629
 104        5PY         0.00000   0.00000   0.00000   0.00000   0.58456
 105        5PZ        -0.03072   0.23196  -0.16578  -0.30862  -0.00000
 106        6D 0        0.00000   0.00000  -0.00000   0.00000  -0.00542
 107        6D+1       -0.00185   0.01509   0.02188  -0.00440   0.00000
 108        6D-1        0.00371   0.00717  -0.00177  -0.00839  -0.00000
 109        6D+2        0.00000   0.00000   0.00000  -0.00000   0.00066
 110        6D-2        0.00000   0.00000   0.00000  -0.00000  -0.00216
 111 6   C  1S         -0.00000  -0.00000   0.00000   0.00000  -0.00369
 112        2S         -0.00000  -0.00000   0.00000   0.00000  -0.00610
 113        2PX         0.00000   0.00000   0.00000  -0.00000  -0.00677
 114        2PY        -0.00000  -0.00000   0.00000   0.00000   0.00037
 115        2PZ         0.01278  -0.09476  -0.06277   0.06845  -0.00000
 116        3S          0.00000   0.00000  -0.00000  -0.00000   0.01740
 117        3PX         0.00000   0.00000   0.00000   0.00000  -0.01228
 118        3PY        -0.00000  -0.00000   0.00000   0.00000   0.00143
 119        3PZ         0.02195  -0.14863  -0.09965   0.10717  -0.00000
 120        4S          0.00000   0.00000   0.00000   0.00000   0.06215
 121        4PX         0.00000   0.00000   0.00000   0.00000  -0.01287
 122        4PY        -0.00000  -0.00000  -0.00000  -0.00000   0.02036
 123        4PZ         0.01578  -0.25413  -0.16918   0.18334  -0.00000
 124        5S          0.00001   0.00000   0.00015   0.00010   0.14659
 125        5PX         0.00000   0.00000  -0.00001  -0.00001   0.01882
 126        5PY        -0.00000  -0.00000  -0.00006  -0.00004   0.36750
 127        5PZ         0.00324  -0.19121  -0.12732   0.18136  -0.00000
 128        6D 0        0.00000   0.00000   0.00000  -0.00000  -0.00369
 129        6D+1       -0.00903   0.01025  -0.00637  -0.01382  -0.00000
 130        6D-1       -0.01308   0.00751  -0.01781  -0.01406  -0.00000
 131        6D+2        0.00000   0.00000   0.00000   0.00000  -0.00221
 132        6D-2       -0.00000   0.00000   0.00000  -0.00000   0.00328
 133 7   C  1S         -0.00000   0.00000   0.00000   0.00000  -0.00436
 134        2S         -0.00000   0.00000   0.00000   0.00000  -0.00722
 135        2PX         0.00000  -0.00000  -0.00000   0.00000  -0.00610
 136        2PY        -0.00000   0.00000   0.00000  -0.00000  -0.00045
 137        2PZ         0.07444  -0.00969   0.10016   0.04032   0.00000
 138        3S          0.00000   0.00000  -0.00000  -0.00000   0.02065
 139        3PX         0.00000  -0.00000  -0.00000   0.00000  -0.01043
 140        3PY        -0.00000   0.00000   0.00000  -0.00000  -0.00232
 141        3PZ         0.12197  -0.01413   0.15943   0.06347   0.00000
 142        4S         -0.00000  -0.00001  -0.00000   0.00000   0.10419
 143        4PX        -0.00000  -0.00000  -0.00000  -0.00000   0.00442
 144        4PY         0.00000  -0.00000  -0.00000  -0.00000   0.01165
 145        4PZ         0.14093  -0.03179   0.26426   0.11050   0.00000
 146        5S         -0.00001  -0.00001   0.00000   0.00001   0.56732
 147        5PX        -0.00000  -0.00000   0.00002   0.00002  -0.17871
 148        5PY        -0.00000  -0.00000  -0.00009  -0.00007   0.35276
 149        5PZ         0.04395  -0.02214   0.21141   0.11926   0.00001
 150        6D 0        0.00000   0.00000  -0.00000   0.00000  -0.00339
 151        6D+1       -0.00172   0.01260  -0.00281  -0.01394  -0.00000
 152        6D-1        0.00136  -0.02238  -0.00869   0.01913   0.00000
 153        6D+2       -0.00000  -0.00000   0.00000   0.00000  -0.00209
 154        6D-2       -0.00000  -0.00000   0.00000   0.00000  -0.00362
 155 8   C  1S         -0.00000  -0.00000   0.00000   0.00000  -0.00561
 156        2S         -0.00000  -0.00000   0.00000   0.00000  -0.00951
 157        2PX        -0.00000   0.00000   0.00000   0.00000  -0.00349
 158        2PY        -0.00000  -0.00000   0.00000   0.00000  -0.01457
 159        2PZ        -0.00453   0.10052  -0.01699  -0.10203  -0.00000
 160        3S          0.00000   0.00000  -0.00000  -0.00000   0.03122
 161        3PX        -0.00000   0.00000  -0.00000  -0.00000  -0.00345
 162        3PY        -0.00000  -0.00000   0.00000   0.00000  -0.02146
 163        3PZ        -0.00719   0.15441  -0.02552  -0.16116  -0.00000
 164        4S          0.00000   0.00001   0.00000   0.00000   0.01970
 165        4PX        -0.00000  -0.00000   0.00000   0.00000  -0.02575
 166        4PY         0.00000   0.00000   0.00000   0.00000  -0.07757
 167        4PZ        -0.00728   0.28696  -0.04467  -0.28323  -0.00000
 168        5S         -0.00000   0.00001   0.00014   0.00012  -1.62509
 169        5PX        -0.00000  -0.00001   0.00016   0.00013  -0.78130
 170        5PY         0.00000   0.00000  -0.00001  -0.00001  -0.44208
 171        5PZ         0.00948   0.21468  -0.00055  -0.32993  -0.00001
 172        6D 0        0.00000   0.00000   0.00000  -0.00000  -0.00524
 173        6D+1       -0.01556  -0.00927  -0.02373   0.00283  -0.00000
 174        6D-1       -0.00187  -0.00861   0.00219   0.00806  -0.00000
 175        6D+2        0.00000   0.00000  -0.00000  -0.00000   0.00140
 176        6D-2       -0.00000   0.00000   0.00000   0.00000   0.00108
 177 9   C  1S         -0.00000   0.00000   0.00000   0.00000  -0.01405
 178        2S         -0.00000   0.00000   0.00000   0.00000  -0.02362
 179        2PX        -0.00000   0.00000  -0.00000   0.00000  -0.00111
 180        2PY        -0.00000   0.00000   0.00000   0.00000  -0.03080
 181        2PZ         0.02873  -0.01333   0.00357  -0.00111   0.00000
 182        3S          0.00000   0.00000  -0.00000   0.00000   0.06173
 183        3PX        -0.00000   0.00000  -0.00000   0.00000  -0.00183
 184        3PY         0.00000   0.00000   0.00000   0.00000  -0.04666
 185        3PZ         0.03834  -0.02039   0.00508  -0.00172   0.00000
 186        4S          0.00000  -0.00001  -0.00005  -0.00002   0.43460
 187        4PX         0.00000  -0.00000   0.00000   0.00000  -0.01097
 188        4PY        -0.00000   0.00000   0.00001   0.00000  -0.02429
 189        4PZ         0.07620  -0.10820   0.03275  -0.00012   0.00000
 190        5S          0.00000  -0.00003  -0.00016  -0.00014   0.83004
 191        5PX         0.00001  -0.00002  -0.00001  -0.00001   0.21516
 192        5PY         0.00000  -0.00000  -0.00002  -0.00002  -0.47102
 193        5PZ         0.13095  -0.43465   0.11329  -0.01264   0.00000
 194        6D 0        0.00000   0.00000   0.00000  -0.00000  -0.00876
 195        6D+1       -0.00179   0.00430   0.02439  -0.01300   0.00000
 196        6D-1       -0.01952  -0.02894   0.00362  -0.00134  -0.00000
 197        6D+2       -0.00000  -0.00000   0.00000   0.00000   0.00243
 198        6D-2       -0.00000  -0.00000   0.00000  -0.00000   0.00029
 199 10  C  1S         -0.00000  -0.00000   0.00000   0.00000  -0.01067
 200        2S         -0.00000  -0.00000   0.00000   0.00000  -0.01817
 201        2PX         0.00000   0.00000  -0.00000   0.00000  -0.00083
 202        2PY        -0.00000   0.00000   0.00000  -0.00000   0.02372
 203        2PZ         0.17235   0.01573   0.01620   0.00825   0.00000
 204        3S          0.00000  -0.00000  -0.00000  -0.00000   0.06059
 205        3PX         0.00000   0.00000  -0.00000   0.00000  -0.00132
 206        3PY         0.00000  -0.00000  -0.00000  -0.00000   0.03324
 207        3PZ         0.28040   0.02276   0.02673   0.01302   0.00000
 208        4S         -0.00000   0.00000   0.00002   0.00001   0.06869
 209        4PX         0.00000   0.00000  -0.00000  -0.00000   0.00434
 210        4PY         0.00000  -0.00000  -0.00001  -0.00000   0.20717
 211        4PZ         0.34844   0.07147   0.04369   0.02853   0.00000
 212        5S          0.00000  -0.00002  -0.00013  -0.00011   1.56074
 213        5PX        -0.00000  -0.00003   0.00002   0.00001   0.19805
 214        5PY         0.00000  -0.00000  -0.00001  -0.00000   1.95346
 215        5PZ         0.09832   0.32983  -0.00299   0.05865   0.00000
 216        6D 0        0.00000  -0.00000  -0.00000  -0.00000  -0.00746
 217        6D+1        0.00064  -0.00446  -0.03017  -0.00737  -0.00000
 218        6D-1        0.00085   0.01306  -0.00074   0.00184   0.00000
 219        6D+2       -0.00000   0.00000   0.00000  -0.00000   0.00105
 220        6D-2       -0.00000  -0.00000   0.00000   0.00000  -0.00017
 221 11  C  1S          0.00000   0.00000  -0.00000   0.00000  -0.00640
 222        2S          0.00000   0.00000  -0.00000   0.00000  -0.01101
 223        2PX         0.00000   0.00000  -0.00000  -0.00000   0.00192
 224        2PY         0.00000   0.00000  -0.00000   0.00000   0.00984
 225        2PZ        -0.09360  -0.05963   0.10691  -0.07602   0.00000
 226        3S         -0.00000  -0.00000  -0.00000  -0.00000   0.04355
 227        3PX         0.00000   0.00000  -0.00000   0.00000   0.00242
 228        3PY         0.00000   0.00000  -0.00000  -0.00000   0.01465
 229        3PZ        -0.15082  -0.09233   0.16757  -0.12387   0.00000
 230        4S         -0.00001  -0.00001   0.00001  -0.00000   0.00192
 231        4PX         0.00000   0.00000  -0.00001  -0.00001   0.11127
 232        4PY         0.00000   0.00000  -0.00001   0.00000  -0.00381
 233        4PZ        -0.19733  -0.15438   0.31592  -0.21428   0.00000
 234        5S         -0.00001   0.00002   0.00023   0.00016  -4.06360
 235        5PX         0.00000   0.00001  -0.00009  -0.00006   1.13705
 236        5PY        -0.00001   0.00008   0.00021   0.00018  -2.34980
 237        5PZ        -0.11912   0.11729   0.34450  -0.23656   0.00000
 238        6D 0       -0.00000  -0.00000   0.00000  -0.00000  -0.00802
 239        6D+1       -0.00430   0.01638  -0.00343   0.01576   0.00000
 240        6D-1       -0.00399  -0.01614  -0.01684  -0.01813  -0.00000
 241        6D+2       -0.00000  -0.00000   0.00000  -0.00000  -0.00560
 242        6D-2       -0.00000   0.00000   0.00000   0.00000   0.00143
 243 12  C  1S         -0.00000  -0.00000   0.00000   0.00000  -0.00701
 244        2S         -0.00000  -0.00000   0.00000   0.00000  -0.01196
 245        2PX        -0.00000  -0.00000   0.00000   0.00000   0.00144
 246        2PY        -0.00000  -0.00000   0.00000  -0.00000  -0.01040
 247        2PZ        -0.01408  -0.03008  -0.11313  -0.05377  -0.00000
 248        3S          0.00000   0.00000  -0.00000   0.00000   0.04131
 249        3PX        -0.00000  -0.00000  -0.00000  -0.00000   0.00464
 250        3PY        -0.00000  -0.00000   0.00000  -0.00000  -0.01440
 251        3PZ        -0.02342  -0.04106  -0.18050  -0.08999  -0.00000
 252        4S          0.00000   0.00000  -0.00000  -0.00000   0.15681
 253        4PX        -0.00000   0.00000   0.00001   0.00000  -0.13192
 254        4PY        -0.00000  -0.00000   0.00000   0.00000  -0.08920
 255        4PZ        -0.02954  -0.12464  -0.33248  -0.14305  -0.00000
 256        5S          0.00001  -0.00006  -0.00031  -0.00024   5.04951
 257        5PX         0.00000  -0.00003   0.00004   0.00002  -0.41975
 258        5PY        -0.00000   0.00005   0.00016   0.00013  -4.04549
 259        5PZ         0.00764  -0.36152  -0.38033  -0.18797  -0.00001
 260        6D 0        0.00000   0.00000   0.00000   0.00000  -0.00875
 261        6D+1       -0.02726   0.01303  -0.00155   0.01375   0.00000
 262        6D-1        0.01721   0.01937  -0.01649   0.02134  -0.00000
 263        6D+2       -0.00000   0.00000  -0.00000   0.00000  -0.00495
 264        6D-2       -0.00000  -0.00000   0.00000  -0.00000  -0.00194
 265 13  C  1S         -0.00000  -0.00000   0.00000  -0.00000  -0.00571
 266        2S         -0.00000  -0.00000   0.00000  -0.00000  -0.00984
 267        2PX         0.00000   0.00000  -0.00000   0.00000  -0.00273
 268        2PY        -0.00000  -0.00000   0.00000  -0.00000   0.00936
 269        2PZ        -0.08136  -0.10092  -0.08161   0.06985  -0.00000
 270        3S          0.00000   0.00000  -0.00000  -0.00000   0.03948
 271        3PX         0.00000   0.00000  -0.00000   0.00000  -0.00405
 272        3PY        -0.00000  -0.00000   0.00000  -0.00000   0.01318
 273        3PZ        -0.13110  -0.15654  -0.12783   0.11393  -0.00000
 274        4S          0.00001   0.00001   0.00001   0.00000  -0.02331
 275        4PX         0.00000   0.00001   0.00001   0.00001  -0.12517
 276        4PY        -0.00000  -0.00000  -0.00001  -0.00000   0.01003
 277        4PZ        -0.16982  -0.26657  -0.25527   0.18481  -0.00000
 278        5S         -0.00000   0.00005   0.00022   0.00016  -3.60475
 279        5PX        -0.00000   0.00003   0.00005   0.00005  -0.74161
[...]
 190        5S          0.34463
 191        5PX        -0.27033
 192        5PY         0.03745
 193        5PZ        -0.02779
 194        6D 0        0.00829
 195        6D+1        0.00847
 196        6D-1        0.01218
 197        6D+2        0.01210
 198        6D-2        0.01356
 199 10  C  1S          1.10550
 200        2S          0.88523
 201        2PX         0.24232
 202        2PY         0.24074
 203        2PZ         0.11423
 204        3S          0.80042
 205        3PX         0.55206
 206        3PY         0.55000
 207        3PZ         0.30967
 208        4S          0.41219
 209        4PX         0.15688
 210        4PY         0.34566
 211        4PZ         0.25616
 212        5S          0.03337
 213        5PX        -0.38399
 214        5PY         0.19894
 215        5PZ         0.04219
 216        6D 0        0.00298
 217        6D+1        0.01277
 218        6D-1        0.00357
 219        6D+2        0.02115
 220        6D-2        0.01514
 221 11  C  1S          1.10532
 222        2S          0.88552
 223        2PX         0.23569
 224        2PY         0.23234
 225        2PZ         0.15084
 226        3S          0.76968
 227        3PX         0.53585
 228        3PY         0.53145
 229        3PZ         0.39806
 230        4S          0.40008
 231        4PX         0.26437
 232        4PY         0.22310
 233        4PZ         0.31889
 234        5S          0.15211
 235        5PX        -0.27103
 236        5PY         0.62414
 237        5PZ         0.01224
 238        6D 0        0.00387
 239        6D+1        0.01039
 240        6D-1        0.01017
 241        6D+2        0.02220
 242        6D-2        0.02057
 243 12  C  1S          1.10521
 244        2S          0.88565
 245        2PX         0.23233
 246        2PY         0.23088
 247        2PZ         0.17376
 248        3S          0.75267
 249        3PX         0.52803
 250        3PY         0.53030
 251        3PZ         0.45858
 252        4S          0.37935
 253        4PX         0.15494
 254        4PY         0.19539
 255        4PZ         0.39663
 256        5S         -0.57166
 257        5PX        -0.46523
 258        5PY         0.30960
 259        5PZ        -0.05996
 260        6D 0        0.00447
 261        6D+1        0.00729
 262        6D-1        0.00847
 263        6D+2        0.02271
 264        6D-2        0.02226
 265 13  C  1S          1.10531
 266        2S          0.88559
 267        2PX         0.22887
 268        2PY         0.23516
 269        2PZ         0.15378
 270        3S          0.76630
 271        3PX         0.53077
 272        3PY         0.53123
 273        3PZ         0.40398
 274        4S          0.41259
 275        4PX         0.27144
 276        4PY         0.21567
 277        4PZ         0.33077
 278        5S          0.12477
 279        5PX        -0.29178
 280        5PY         0.63146
 281        5PZ         0.01558
 282        6D 0        0.00395
 283        6D+1        0.00930
 284        6D-1        0.01099
 285        6D+2        0.02074
 286        6D-2        0.02082
 287 14  C  1S          1.10520
 288        2S          0.88562
 289        2PX         0.22952
 290        2PY         0.23525
 291        2PZ         0.17468
 292        3S          0.75252
 293        3PX         0.52476
 294        3PY         0.53338
 295        3PZ         0.46097
 296        4S          0.36792
 297        4PX         0.14487
 298        4PY         0.19251
 299        4PZ         0.39559
 300        5S         -0.51798
 301        5PX        -0.46980
 302        5PY         0.30251
 303        5PZ        -0.06152
 304        6D 0        0.00445
 305        6D+1        0.00741
 306        6D-1        0.00944
 307        6D+2        0.02279
 308        6D-2        0.02272
 309 15  H  1S          0.27330
 310        2S          0.46351
 311        3S          0.03141
 312        4S         -0.03091
 313        5PX         0.00338
 314        5PY         0.01498
 315        5PZ         0.00459
 316 16  H  1S          0.27325
 317        2S          0.46162
 318        3S          0.01051
 319        4S         -0.02909
 320        5PX         0.01252
 321        5PY         0.00650
 322        5PZ         0.00369
 323 17  H  1S          0.27331
 324        2S          0.46278
 325        3S          0.01837
 326        4S         -0.02932
 327        5PX         0.01227
 328        5PY         0.00633
 329        5PZ         0.00445
 330 18  H  1S          0.27372
 331        2S          0.46481
 332        3S          0.03294
 333        4S         -0.01967
 334        5PX         0.00346
 335        5PY         0.01524
 336        5PZ         0.00430
 337 19  H  1S          0.27269
 338        2S          0.45390
 339        3S          0.01719
 340        4S          0.04252
 341        5PX         0.00338
 342        5PY         0.01638
 343        5PZ         0.00289
 344 20  H  1S          0.27349
 345        2S          0.46506
 346        3S          0.03711
 347        4S         -0.01942
 348        5PX         0.00343
 349        5PY         0.01499
 350        5PZ         0.00452
 351 21  H  1S          0.27318
 352        2S          0.46316
 353        3S          0.02104
 354        4S         -0.02781
 355        5PX         0.01173
 356        5PY         0.00666
 357        5PZ         0.00452
 358 22  H  1S          0.27368
 359        2S          0.46303
 360        3S          0.01465
 361        4S         -0.02756
 362        5PX         0.01258
 363        5PY         0.00643
 364        5PZ         0.00393
 365 23  H  1S          0.27365
 366        2S          0.46399
 367        3S          0.03459
 368        4S         -0.03196
 369        5PX         0.00332
 370        5PY         0.01471
 371        5PZ         0.00471
 372 24  H  1S          0.26334
 373        2S          0.42804
 374        3S          0.01134
 375        4S          0.02734
 376        5PX         0.00341
 377        5PY         0.00771
 378        5PZ         0.00921
 379 25  H  1S          0.26334
 380        2S          0.42804
 381        3S          0.01134
 382        4S          0.02734
 383        5PX         0.00341
 384        5PY         0.00771
 385        5PZ         0.00921
          Condensed to atoms (all electrons):
               1          2          3          4          5          6
     1  C    8.378933   0.428770  -0.592474   1.832637  -0.018119  -0.086514
     2  C    0.428770   7.157587   0.416495  -1.060829  -0.031386  -0.013710
     3  C   -0.592474   0.416495   6.597472   0.740689  -0.112179   0.016358
     4  C    1.832637  -1.060829   0.740689  11.470654  -0.367972  -0.135101
     5  C   -0.018119  -0.031386  -0.112179  -0.367972  10.490341   0.823564
     6  C   -0.086514  -0.013710   0.016358  -0.135101   0.823564   6.572257
     7  C   -0.024809   0.000336  -0.013726   0.006588  -1.116607   0.243155
     8  C    0.400090  -0.007259  -0.100629  -0.059472   2.095872  -0.437114
     9  C   -1.100346  -0.861452   0.288087  -0.002108  -0.352349   0.300722
    10  C   -1.206485   0.193927  -0.287132  -2.677714  -2.404270  -0.423245
    11  C    0.330657  -0.783909   0.874101  -0.420227  -1.379377  -0.104573
    12  C   -1.912313   1.149987  -1.357837  -1.674082  -0.220627  -0.280715
    13  C    0.222817  -0.211751  -0.227679  -1.555253  -0.188670   1.133906
    14  C   -1.144658  -0.255602  -0.122426  -0.472050  -1.558367  -1.480985
    15  H    0.367144  -0.105865  -0.002730   0.026705   0.006099   0.001137
    16  H   -0.019223   0.379765  -0.020298   0.015593  -0.001579  -0.000333
    17  H   -0.020133  -0.022247   0.378757  -0.067338   0.000206   0.000395
    18  H    0.047941   0.003136  -0.084624   0.465933   0.005899  -0.005053
    19  H   -0.043656  -0.007264   0.049436  -0.080617  -0.057107   0.051981
    20  H    0.006828   0.002013  -0.005125   0.006111   0.448127  -0.084014
    21  H   -0.001270  -0.000397   0.000391   0.000377  -0.065614   0.369310
    22  H    0.000504   0.000328  -0.000310  -0.001399   0.011064  -0.015167
    23  H    0.006280  -0.002373   0.001023   0.004878   0.028009   0.001839
    24  H    0.036130   0.015368  -0.001482  -0.011683  -0.012176  -0.001650
    25  H    0.036123   0.015367  -0.001482  -0.011685  -0.012173  -0.001651
               7          8          9         10         11         12
     1  C   -0.024809   0.400090  -1.100346  -1.206485   0.330657  -1.912313
     2  C    0.000336  -0.007259  -0.861452   0.193927  -0.783909   1.149987
     3  C   -0.013726  -0.100629   0.288087  -0.287132   0.874101  -1.357837
     4  C    0.006588  -0.059472  -0.002108  -2.677714  -0.420227  -1.674082
     5  C   -1.116607   2.095872  -0.352349  -2.404270  -1.379377  -0.220627
     6  C    0.243155  -0.437114   0.300722  -0.423245  -0.104573  -0.280715
     7  C    7.134027   0.131253  -0.768463   0.320845  -0.298148  -0.104131
     8  C    0.131253   8.754362  -1.132588  -1.324966   0.235257  -1.003884
     9  C   -0.768463  -1.132588   9.571114   0.233031   1.557085  -2.108173
    10  C    0.320845  -1.324966   0.233031   9.072788  -0.294236   2.358742
    11  C   -0.298148   0.235257   1.557085  -0.294236  14.538160  -3.925197
    12  C   -0.104131  -1.003884  -2.108173   2.358742  -3.925197  16.174589
    13  C   -1.011868   0.313216   1.524280  -0.545837   1.061170  -4.639697
    14  C    1.630164  -2.359451  -1.722369   2.443078  -4.825198   3.068317
    15  H   -0.002812   0.004922   0.089827  -0.008563  -0.032213  -0.015541
    16  H    0.000385   0.000990   0.003342  -0.009641   0.027121  -0.033210
    17  H   -0.000376  -0.001337  -0.004870   0.019166  -0.022681   0.083273
    18  H    0.002080   0.007082  -0.022435   0.008779  -0.009991  -0.047964
    19  H   -0.008333  -0.047033   0.073275   0.419916   0.074585  -0.086505
    20  H    0.003305   0.051353  -0.025719   0.017053  -0.011657  -0.006746
    21  H   -0.010074  -0.030730  -0.006281   0.020716  -0.006219   0.004985
    22  H    0.376453  -0.018042   0.003471  -0.008474   0.002428  -0.007807
    23  H   -0.108322   0.368644   0.092075  -0.010758   0.006322   0.004937
    24  H    0.013129   0.029229   0.355945   0.005220   0.021287  -0.059366
    25  H    0.013128   0.029226   0.355951   0.005221   0.021289  -0.059356
              13         14         15         16         17         18
     1  C    0.222817  -1.144658   0.367144  -0.019223  -0.020133   0.047941
     2  C   -0.211751  -0.255602  -0.105865   0.379765  -0.022247   0.003136
     3  C   -0.227679  -0.122426  -0.002730  -0.020298   0.378757  -0.084624
     4  C   -1.555253  -0.472050   0.026705   0.015593  -0.067338   0.465933
     5  C   -0.188670  -1.558367   0.006099  -0.001579   0.000206   0.005899
     6  C    1.133906  -1.480985   0.001137  -0.000333   0.000395  -0.005053
     7  C   -1.011868   1.630164  -0.002812   0.000385  -0.000376   0.002080
     8  C    0.313216  -2.359451   0.004922   0.000990  -0.001337   0.007082
     9  C    1.524280  -1.722369   0.089827   0.003342  -0.004870  -0.022435
    10  C   -0.545837   2.443078  -0.008563  -0.009641   0.019166   0.008779
    11  C    1.061170  -4.825198  -0.032213   0.027121  -0.022681  -0.009991
    12  C   -4.639697   3.068317  -0.015541  -0.033210   0.083273  -0.047964
    13  C   14.183115  -3.473216  -0.002023   0.003498  -0.006221  -0.011906
    14  C   -3.473216  15.802985   0.007663  -0.010040   0.005177  -0.021391
    15  H   -0.002023   0.007663   0.434735  -0.008768   0.001531   0.000250
    16  H    0.003498  -0.010040  -0.008768   0.415554  -0.006696   0.001958
    17  H   -0.006221   0.005177   0.001531  -0.006696   0.420655  -0.010237
    18  H   -0.011906  -0.021391   0.000250   0.001958  -0.010237   0.449968
    19  H    0.080642  -0.043788   0.000359  -0.000544   0.001576  -0.005957
    20  H   -0.005309  -0.060183  -0.000116   0.000018  -0.000156   0.001256
    21  H   -0.030203   0.098230   0.000016  -0.000007   0.000010  -0.000128
    22  H    0.024669  -0.030821  -0.000124   0.000007  -0.000007   0.000013
    23  H   -0.029128  -0.034680   0.000561  -0.000126   0.000012  -0.000105
    24  H    0.004358  -0.058784  -0.000972   0.000622  -0.000135   0.000152
    25  H    0.004353  -0.058781  -0.000971   0.000622  -0.000135   0.000152
              19         20         21         22         23         24
     1  C   -0.043656   0.006828  -0.001270   0.000504   0.006280   0.036130
     2  C   -0.007264   0.002013  -0.000397   0.000328  -0.002373   0.015368
     3  C    0.049436  -0.005125   0.000391  -0.000310   0.001023  -0.001482
     4  C   -0.080617   0.006111   0.000377  -0.001399   0.004878  -0.011683
     5  C   -0.057107   0.448127  -0.065614   0.011064   0.028009  -0.012176
     6  C    0.051981  -0.084014   0.369310  -0.015167   0.001839  -0.001650
     7  C   -0.008333   0.003305  -0.010074   0.376453  -0.108322   0.013129
     8  C   -0.047033   0.051353  -0.030730  -0.018042   0.368644   0.029229
     9  C    0.073275  -0.025719  -0.006281   0.003471   0.092075   0.355945
    10  C    0.419916   0.017053   0.020716  -0.008474  -0.010758   0.005220
    11  C    0.074585  -0.011657  -0.006219   0.002428   0.006322   0.021287
    12  C   -0.086505  -0.006746   0.004985  -0.007807   0.004937  -0.059366
    13  C    0.080642  -0.005309  -0.030203   0.024669  -0.029128   0.004358
    14  C   -0.043788  -0.060183   0.098230  -0.030821  -0.034680  -0.058784
    15  H    0.000359  -0.000116   0.000016  -0.000124   0.000561  -0.000972
    16  H   -0.000544   0.000018  -0.000007   0.000007  -0.000126   0.000622
    17  H    0.001576  -0.000156   0.000010  -0.000007   0.000012  -0.000135
    18  H   -0.005957   0.001256  -0.000128   0.000013  -0.000105   0.000152
    19  H    0.442400  -0.006527   0.001240  -0.000516   0.000253   0.000570
    20  H   -0.006527   0.456375  -0.010071   0.001871   0.000079   0.000208
    21  H    0.001240  -0.010071   0.423360  -0.006256   0.001389  -0.000144
    22  H   -0.000516   0.001871  -0.006256   0.422725  -0.009150   0.000639
    23  H    0.000253   0.000079   0.001389  -0.009150   0.442999  -0.000826
    24  H    0.000570   0.000208  -0.000144   0.000639  -0.000826   0.493414
    25  H    0.000570   0.000208  -0.000144   0.000639  -0.000826  -0.078666
              25
     1  C    0.036123
     2  C    0.015367
     3  C   -0.001482
     4  C   -0.011685
     5  C   -0.012173
     6  C   -0.001651
     7  C    0.013128
     8  C    0.029226
     9  C    0.355951
    10  C    0.005221
    11  C    0.021289
    12  C   -0.059356
    13  C    0.004353
    14  C   -0.058781
    15  H   -0.000971
    16  H    0.000622
    17  H   -0.000135
    18  H    0.000152
    19  H    0.000570
    20  H    0.000208
    21  H   -0.000144
    22  H    0.000639
    23  H   -0.000826
    24  H   -0.078666
    25  H    0.493411
 Mulliken charges:
               1
     1  C    0.075146
     2  C   -0.399035
     3  C   -0.432674
     4  C    0.027365
     5  C   -0.010610
     6  C   -0.444801
     7  C   -0.407176
     8  C    0.101009
     9  C   -0.341052
    10  C    0.082838
    11  C   -0.635836
    12  C    0.698318
    13  C   -0.617264
    14  C    0.677177
    15  H    0.239752
    16  H    0.260990
    17  H    0.251810
    18  H    0.225190
    19  H    0.191045
    20  H    0.220817
    21  H    0.247514
    22  H    0.253261
    23  H    0.236992
    24  H    0.249613
    25  H    0.249611
 Sum of Mulliken charges =   1.00000
 Mulliken charges with hydrogens summed into heavy atoms:
               1
     1  C    0.314898
     2  C   -0.138045
     3  C   -0.180864
     4  C    0.252556
     5  C    0.210207
     6  C   -0.197286
     7  C   -0.153915
     8  C    0.338001
     9  C    0.158173
    10  C    0.273883
    11  C   -0.635836
    12  C    0.698318
    13  C   -0.617264
    14  C    0.677177
 Electronic spatial extent (au):  <R**2>=           2868.5070
 Charge=              1.0000 electrons
 Dipole moment (field-independent basis, Debye):
    X=              0.8133    Y=              0.1834    Z=              0.0000  Tot=              0.8337
 Quadrupole moment (field-independent basis, Debye-Ang):
   XX=            -30.8183   YY=            -56.1876   ZZ=            -84.2695
   XY=              0.0670   XZ=              0.0001   YZ=             -0.0000
 Traceless Quadrupole moment (field-independent basis, Debye-Ang):
   XX=             26.2735   YY=              0.9042   ZZ=            -27.1777
   XY=              0.0670   XZ=              0.0001   YZ=             -0.0000
 Octapole moment (field-independent basis, Debye-Ang**2):
  XXX=              9.0462  YYY=              5.3457  ZZZ=              0.0000  XYY=              1.9045
  XXY=             -5.2690  XXZ=             -0.0000  XZZ=              1.1820  YZZ=             -3.1368
  YYZ=              0.0000  XYZ=             -0.0002
 Hexadecapole moment (field-independent basis, Debye-Ang**3):
 XXXX=          -2127.1530 YYYY=           -611.6008 ZZZZ=            -99.6903 XXXY=             -1.8577
 XXXZ=             -0.0004 YYYX=              0.7495 YYYZ=             -0.0000 ZZZX=             -0.0001
 ZZZY=             -0.0000 XXYY=           -509.1889 XXZZ=           -594.3040 YYZZ=           -146.4695
 XXYZ=              0.0000 YYXZ=              0.0004 ZZXY=              0.3784
 N-N= 7.793997277272D+02 E-N=-2.795038078219D+03  KE= 5.373590955248D+02
 Orbital energies and kinetic energies (alpha):
                                 1                 2
  43         O                -0.544992          1.579310
  44         O                -0.523324          1.038290
  45         O                -0.469649          1.130163
  46         O                -0.460395          1.150539
  47         O                -0.440270          1.158766
  48         V                -0.261160          1.267311
  49         V                -0.147219          1.102129
  50         V                -0.141165          1.314261
  51         V                -0.128314          1.280447
  52         V                -0.111740          0.204345
 Total kinetic energy from orbitals= 5.373590955248D+02
 Unable to Open any file for archive entry.
 1\1\GINC-GADI-CPU-CLX-0205\SP\RM062X TD-FC\6-311++G(d,p)\C14H11(1+)\TS
 1578\14-Jul-2022\0\\#n M062X/6-311++G(d,p) TD SP pop=reg formcheck\\SP
 _-9\\1,1\C,0,2.4817788798,1.3726153467,0.\C,0,3.6921409602,0.674946196
 1,0.\C,0,3.6828980304,-0.7223438941,0.\C,0,2.4887602257,-1.4101607838,
 0.\C,0,-2.4490597743,-1.394834563,0.\C,0,-3.7019173164,-0.691599126,0.
 \C,0,-3.7275943865,0.6891644973,0.\C,0,-2.5147394871,1.3729846533,0.\C
 ,0,-0.0076631104,1.4660337136,0.\C,0,0.0288982355,-1.4244376734,0.\C,0
 ,1.2742219696,0.6988708289,0.\C,0,1.2478538039,-0.7253988593,0.\C,0,-1
 .2549257037,0.676066151,0.\C,0,-1.2333585228,-0.7214288141,0.\H,0,2.48
 98497087,2.4576683668,0.\H,0,4.6300595732,1.2162824826,0.\H,0,4.617921
 1407,-1.268344206,0.\H,0,2.4833766229,-2.4941544973,0.\H,0,0.024651210
 5,-2.5073853467,0.\H,0,-2.4638033771,-2.4799361961,0.\H,0,-4.621614206
 ,-1.2646511407,0.\H,0,-4.6639434469,1.2293928642,0.\H,0,-2.5001902913,
 2.4584993065,0.\H,0,-0.0425625769,2.1567723266,-0.8634930201\H,0,-0.04
 26549036,2.1567723266,0.8634930201\\Version=ES64L-G16RevC.01\State=1-A
 \HF=-539.7554243\RMSD=8.723e-09\PG=C01 [X(C14H11)]\\@
 The archive entry for this job was punched.


      LET US REMEMBER, PLEASE, THAT THE SEARCH FOR THE CONSTITUTION
      OF THE WORLD IS ONE OF THE GREATEST AND NOBLEST PROBLEMS PRESENTED 
      BY NATURE.

                                                  -- GALILEO
 FChkPn:  Coordinates translated and rotated.
 FChkPn:  Coordinates match /B/ after translation and rotation.
 Job cpu time:       0 days  1 hours 10 minutes 20.9 seconds.
 Elapsed time:       0 days  0 hours  9 minutes 58.8 seconds.
 File lengths (MBytes):  RWF=    532 Int=      0 D2E=      0 Chk=     24 Scr=      1
 Normal termination of Gaussian 16 at Thu Jul 14 15:44:10 2022.
