 Entering Gaussian System, Link 0=g16
 Initial command:
 /apps/gaussian/g16c01/g16/l1.exe "/jobfs/51138811.gadi-pbs/Gau-1816716.inp" -scrdir="/jobfs/51138811.gadi-pbs/"
 Entering Link 1 = /apps/gaussian/g16c01/g16/l1.exe PID=   1816717.
  
 Copyright (c) 1988-2019, Gaussian, Inc.  All Rights Reserved.
  
 This is part of the Gaussian(R) 16 program.  It is based on
 the Gaussian(R) 09 system (copyright 2009, Gaussian, Inc.),
 the Gaussian(R) 03 system (copyright 2003, Gaussian, Inc.),
 the Gaussian(R) 98 system (copyright 1998, Gaussian, Inc.),
 the Gaussian(R) 94 system (copyright 1995, Gaussian, Inc.),
 the Gaussian 92(TM) system (copyright 1992, Gaussian, Inc.),
 the Gaussian 90(TM) system (copyright 1990, Gaussian, Inc.),
 the Gaussian 88(TM) system (copyright 1988, Gaussian, Inc.),
 the Gaussian 86(TM) system (copyright 1986, Carnegie Mellon
 University), and the Gaussian 82(TM) system (copyright 1983,
 Carnegie Mellon University). Gaussian is a federally registered
 trademark of Gaussian, Inc.
  
 This software contains proprietary and confidential information,
 including trade secrets, belonging to Gaussian, Inc.
  
 This software is provided under written license and may be
 used, copied, transmitted, or stored only in accord with that
 written license.
  
 The following legend is applicable only to US Government
 contracts under FAR:
  
                    RESTRICTED RIGHTS LEGEND
  
 Use, reproduction and disclosure by the US Government is
 subject to restrictions as set forth in subparagraphs (a)
 and (c) of the Commercial Computer Software - Restricted
 Rights clause in FAR 52.227-19.
  
 Gaussian, Inc.
 340 Quinnipiac St., Bldg. 40, Wallingford CT 06492
  
  
 ---------------------------------------------------------------
 Warning -- This program may not be used in any manner that
 competes with the business of Gaussian, Inc. or will provide
 assistance to any competitor of Gaussian, Inc.  The licensee
 of this program is prohibited from giving any competitor of
 Gaussian, Inc. access to this program.  By using this program,
 the user acknowledges that Gaussian, Inc. is engaged in the
 business of creating and licensing software in the field of
 computational chemistry and represents and warrants to the
 licensee that it is not a competitor of Gaussian, Inc. and that
 it will not use this program in any manner prohibited above.
 ---------------------------------------------------------------
  

 Cite this work as:
 Gaussian 16, Revision C.01,
 M. J. Frisch, G. W. Trucks, H. B. Schlegel, G. E. Scuseria, 
 M. A. Robb, J. R. Cheeseman, G. Scalmani, V. Barone, 
 G. A. Petersson, H. Nakatsuji, X. Li, M. Caricato, A. V. Marenich, 
 J. Bloino, B. G. Janesko, R. Gomperts, B. Mennucci, H. P. Hratchian, 
 J. V. Ortiz, A. F. Izmaylov, J. L. Sonnenberg, D. Williams-Young, 
 F. Ding, F. Lipparini, F. Egidi, J. Goings, B. Peng, A. Petrone, 
 T. Henderson, D. Ranasinghe, V. G. Zakrzewski, J. Gao, N. Rega, 
 G. Zheng, W. Liang, M. Hada, M. Ehara, K. Toyota, R. Fukuda, 
 J. Hasegawa, M. Ishida, T. Nakajima, Y. Honda, O. Kitao, H. Nakai, 
 T. Vreven, K. Throssell, J. A. Montgomery, Jr., J. E. Peralta, 
 F. Ogliaro, M. J. Bearpark, J. J. Heyd, E. N. Brothers, K. N. Kudin, 
 V. N. Staroverov, T. A. Keith, R. Kobayashi, J. Normand, 
 K. Raghavachari, A. P. Rendell, J. C. Burant, S. S. Iyengar, 
 J. Tomasi, M. Cossi, J. M. Millam, M. Klene, C. Adamo, R. Cammi, 
 J. W. Ochterski, R. L. Martin, K. Morokuma, O. Farkas, 
 J. B. Foresman, and D. J. Fox, Gaussian, Inc., Wallingford CT, 2019.
 
 ******************************************
 Gaussian 16:  ES64L-G16RevC.01  3-Jul-2019
                14-Jul-2022 
 ******************************************
 %NProcShared=8
 Will use up to    8 processors via shared memory.
 %mem = 32GB
 %Chk=check_sp_8
 ----------------------------------------------
 #n M062X/6-311++G(d,p) TD SP pop=reg formcheck
 ----------------------------------------------
 1/38=1,172=1/1;
 2/12=2,17=6,18=5,40=1/2;
 3/5=4,6=6,7=1111,11=9,25=1,30=1,74=-55/1,2,3,8;
 4//1;
 5/5=2,38=5/2;
 8/6=1,10=2/1;
 9/42=1,70=2/14;
 6//1;
 99/5=1,9=1/99;
 -----
 SP_-8
 -----
 Symbolic Z-matrix:
 Charge =  1 Multiplicity = 1
 C                     2.48364   1.37264   0. 
 C                     3.69412   0.67576   0. 
 C                     3.68396  -0.72065   0. 
 C                     2.48655  -1.40932   0. 
 C                    -2.45127  -1.3957    0. 
 C                    -3.70087  -0.69332   0. 
 C                    -3.72564   0.6884    0. 
 C                    -2.51293   1.37296   0. 
 C                    -0.00681   1.46611   0. 
 C                     0.02569  -1.42445   0. 
 C                     1.27316   0.69759   0. 
 C                     1.24704  -0.72518   0. 
 C                    -1.256     0.67732   0. 
 C                    -1.23416  -0.72165   0. 
 H                     2.49042   2.45772   0. 
 H                     4.63196   1.21702   0. 
 H                     4.61814  -1.26815   0. 
 H                     2.48229  -2.49339   0. 
 H                     0.02191  -2.50741   0. 
 H                    -2.46489  -2.48075   0. 
 H                    -4.62142  -1.26487   0. 
 H                    -4.66208   1.22867   0. 
 H                    -2.49962   2.45846   0. 
 H                    -0.03783   2.15676  -0.86352 
 H                    -0.03792   2.15676   0.86352 
 
                          Input orientation:                          
 ---------------------------------------------------------------------
 Center     Atomic      Atomic             Coordinates (Angstroms)
 Number     Number       Type             X           Y           Z
 ---------------------------------------------------------------------
      1          6           0        2.483636    1.372636    0.000000
      2          6           0        3.694121    0.675757    0.000000
      3          6           0        3.683965   -0.720651    0.000000
      4          6           0        2.486555   -1.409320    0.000000
      5          6           0       -2.451265   -1.395696    0.000000
      6          6           0       -3.700871   -0.693323    0.000000
      7          6           0       -3.725635    0.688395    0.000000
      8          6           0       -2.512934    1.372964    0.000000
      9          6           0       -0.006812    1.466106    0.000000
     10          6           0        0.025687   -1.424448    0.000000
     11          6           0        1.273155    0.697589    0.000000
     12          6           0        1.247043   -0.725183    0.000000
     13          6           0       -1.256003    0.677318    0.000000
     14          6           0       -1.234159   -0.721655    0.000000
     15          1           0        2.490424    2.457720    0.000000
     16          1           0        4.631957    1.217021    0.000000
     17          1           0        4.618137   -1.268149    0.000000
     18          1           0        2.482289   -2.493385    0.000000
     19          1           0        0.021912   -2.507406    0.000000
     20          1           0       -2.464891   -2.480747    0.000000
     21          1           0       -4.621419   -1.264867    0.000000
     22          1           0       -4.662076    1.228675    0.000000
     23          1           0       -2.499616    2.458458    0.000000
     24          1           0       -0.037833    2.156762   -0.863524
     25          1           0       -0.037915    2.156762    0.863524
 ---------------------------------------------------------------------
                    Distance matrix (angstroms):
                    1          2          3          4          5
     1  C    0.000000
     2  C    1.396752   0.000000
     3  C    2.413015   1.396445   0.000000
     4  C    2.781957   2.409514   1.381324   0.000000
     5  C    5.658349   6.485113   6.172255   4.937839   0.000000
     6  C    6.520453   7.520657   7.384886   6.228715   1.433472
     7  C    6.246857   7.419767   7.542386   6.556806   2.442837
     8  C    4.996570   6.246089   6.541008   5.721537   2.769347
     9  C    2.492201   3.784383   4.289958   3.805909   3.763677
    10  C    3.723599   4.227087   3.725362   2.460914   2.477120
    11  C    1.385984   2.421064   2.797036   2.431337   4.272370
    12  C    2.435160   2.819720   2.436926   1.415779   3.758600
    13  C    3.803730   4.950124   5.133965   4.284949   2.392914
    14  C    4.267089   5.122567   4.918124   3.783727   1.391288
    15  H    1.085105   2.150413   3.395082   3.867041   6.266507
    16  H    2.153950   1.082823   2.157143   3.391227   7.549724
    17  H    3.395562   2.152342   1.082788   2.136252   7.070552
    18  H    3.866021   3.392933   2.141637   1.084074   5.054194
    19  H    4.595085   4.859798   4.074693   2.698195   2.711550
    20  H    6.271879   6.920761   6.395808   5.066041   1.085136
    21  H    7.578801   8.538983   8.323195   7.109442   2.174094
    22  H    7.147162   8.374470   8.570664   7.619839   3.431473
    23  H    5.100177   6.445184   6.952942   6.310436   3.854458
    24  H    2.778189   4.106888   4.782987   4.453667   4.380672
    25  H    2.778263   4.106963   4.783051   4.453713   4.380627
                    6          7          8          9         10
     6  C    0.000000
     7  C    1.381940   0.000000
     8  C    2.383429   1.392580   0.000000
     9  C    4.278926   3.799274   2.507853   0.000000
    10  C    3.797602   4.305406   3.777580   2.890736   0.000000
    11  C    5.164840   4.998799   3.845855   1.492961   2.461547
    12  C    4.948017   5.169694   4.305770   2.524658   1.407367
    13  C    2.802862   2.469657   1.436593   1.477384   2.461737
    14  C    2.466875   2.862812   2.454118   2.508520   1.442612
    15  H    6.947028   6.462964   5.119598   2.686910   4.598495
    16  H    8.549002   8.374294   7.146593   4.645452   5.309904
    17  H    8.338844   8.570099   7.604449   5.372736   4.595108
    18  H    6.439852   6.975819   6.316717   4.676878   2.679089
    19  H    4.141257   4.925165   4.634945   3.973615   1.082965
    20  H    2.173139   3.410709   3.854010   4.649709   2.705318
    21  H    1.083546   2.148874   3.376960   5.362165   4.649846
    22  H    2.148951   1.081122   2.153981   4.661316   5.386482
    23  H    3.372942   2.153195   1.085576   2.683065   4.631859
    24  H    4.720858   4.062223   2.736080   1.106184   3.684396
    25  H    4.720794   4.062148   2.736006   1.106186   3.684397
                   11         12         13         14         15
    11  C    0.000000
    12  C    1.423012   0.000000
    13  C    2.529239   2.869190   0.000000
    14  C    2.881124   2.481205   1.399143   0.000000
    15  H    2.140048   3.417143   4.147957   4.897034   0.000000
    16  H    3.398730   3.902538   5.912644   6.178170   2.474974
    17  H    3.879823   3.414540   6.187920   5.877756   4.290601
    18  H    3.412377   2.156935   4.901855   4.117161   4.951111
    19  H    3.440581   2.162698   3.431549   2.183259   5.544910
    20  H    4.906608   4.106149   3.381535   2.146883   6.995970
    21  H    6.212667   5.893226   3.885628   3.430541   8.027202
    22  H    5.958945   6.223766   3.450410   3.943907   7.257328
    23  H    4.163468   4.916608   2.172334   3.422645   4.990040
    24  H    2.143257   3.271420   2.101991   3.234525   2.688556
    25  H    2.143307   3.271453   2.101943   3.234494   2.688634
                   16         17         18         19         20
    16  H    0.000000
    17  H    2.485209   0.000000
    18  H    4.288145   2.462325   0.000000
    19  H    5.926540   4.760361   2.460417   0.000000
    20  H    8.002421   7.186075   4.947196   2.486946   0.000000
    21  H    9.580436   9.239556   7.209156   4.806707   2.475678
    22  H    9.294041   9.610228   8.055786   5.991498   4.311314
    23  H    7.238819   8.034302   7.024253   5.569373   4.939327
    24  H    4.841047   5.844121   5.359157   4.743807   5.304976
    25  H    4.841126   5.844186   5.359195   4.743808   5.304938
                   21         22         23         24         25
    21  H    0.000000
    22  H    2.493873   0.000000
    23  H    4.285464   2.487690   0.000000
    24  H    5.784676   4.794856   2.626227   0.000000
    25  H    5.784611   4.794777   2.626150   1.727048   0.000000
 Stoichiometry    C14H11(1+)
 Framework group  C1[X(C14H11)]
 Deg. of freedom    69
 Full point group                 C1      NOp   1
 Largest Abelian subgroup         C1      NOp   1
 Largest concise Abelian subgroup C1      NOp   1
                         Standard orientation:                         
 ---------------------------------------------------------------------
 Center     Atomic      Atomic             Coordinates (Angstroms)
 Number     Number       Type             X           Y           Z
 ---------------------------------------------------------------------
      1          6           0        2.477705   -1.375472    0.000000
      2          6           0        3.691409   -0.684216    0.000000
      3          6           0        3.687731    0.712224    0.000000
      4          6           0        2.493528    1.406440    0.000000
      5          6           0       -2.444302    1.415721    0.000000
      6          6           0       -3.697152    0.719151    0.000000
      7          6           0       -3.728325   -0.662437    0.000000
      8          6           0       -2.518813   -1.352624    0.000000
      9          6           0       -0.013150   -1.457389    0.000000
     10          6           0        0.032757    1.432983    0.000000
     11          6           0        1.270368   -0.694817    0.000000
     12          6           0        1.250856    0.728060    0.000000
     13          6           0       -1.258668   -0.662815    0.000000
     14          6           0       -1.230335    0.736041    0.000000
     15          1           0        2.479460   -2.460576    0.000000
     16          1           0        4.626725   -1.229825    0.000000
     17          1           0        4.624432    1.255383    0.000000
     18          1           0        2.494291    2.490513    0.000000
     19          1           0        0.034005    2.515946    0.000000
     20          1           0       -2.452894    2.500823    0.000000
     21          1           0       -4.615040    1.294959    0.000000
     22          1           0       -4.667263   -1.198367    0.000000
     23          1           0       -2.510530   -2.438168    0.000000
     24          1           0       -0.047375   -2.147894    0.863524
     25          1           0       -0.047457   -2.147894   -0.863524
 ---------------------------------------------------------------------
 Rotational constants (GHZ):           2.1257212           0.4425695           0.3671055
 Standard basis: 6-311++G(d,p) (5D, 7F)
 There are   399 symmetry adapted cartesian basis functions of A   symmetry.
 There are   385 symmetry adapted basis functions of A   symmetry.
   385 basis functions,   603 primitive gaussians,   399 cartesian basis functions
    47 alpha electrons       47 beta electrons
       nuclear repulsion energy       779.3884766970 Hartrees.
 NAtoms=   25 NActive=   25 NUniq=   25 SFac= 1.00D+00 NAtFMM=   60 NAOKFM=F Big=F
 Integral buffers will be    131072 words long.
 Regular integral format.
 Two-electron integral symmetry is turned on.
 One-electron integrals computed using PRISM.
 NBasis=   385 RedAO= T EigKep=  1.15D-06  NBF=   385
 NBsUse=   379 1.00D-06 EigRej=  8.64D-07 NBFU=   379
 ExpMin= 3.60D-02 ExpMax= 4.56D+03 ExpMxC= 6.82D+02 IAcc=3 IRadAn=         5 AccDes= 0.00D+00
 Harris functional with IExCor= 1009 and IRadAn=       5 diagonalized for initial guess.
 HarFok:  IExCor= 1009 AccDes= 0.00D+00 IRadAn=         5 IDoV= 1 UseB2=F ITyADJ=14
 ICtDFT=  3500011 ScaDFX=  1.000000  1.000000  1.000000  1.000000
 FoFCou: FMM=F IPFlag=           0 FMFlag=      100000 FMFlg1=           0
         NFxFlg=           0 DoJE=T BraDBF=F KetDBF=T FulRan=T
         wScrn=  0.000000 ICntrl=       500 IOpCl=  0 I1Cent=   200000004 NGrid=           0
         NMat0=    1 NMatS0=      1 NMatT0=    0 NMatD0=    1 NMtDS0=    0 NMtDT0=    0
 Petite list used in FoFCou.
 Requested convergence on RMS density matrix=1.00D-08 within 128 cycles.
 Requested convergence on MAX density matrix=1.00D-06.
 Requested convergence on             energy=1.00D-06.
 No special actions if energy rises.
 SCF Done:  E(RM062X) =  -539.756179242     A.U. after   15 cycles
            NFock= 15  Conv=0.83D-08     -V/T= 2.0045
 DoSCS=F DFT=T ScalE2(SS,OS)=  1.000000  1.000000
 ExpMin= 3.60D-02 ExpMax= 4.56D+03 ExpMxC= 6.82D+02 IAcc=3 IRadAn=         5 AccDes= 0.00D+00
 HarFok:  IExCor=  205 AccDes= 0.00D+00 IRadAn=         5 IDoV=-2 UseB2=F ITyADJ=14
 ICtDFT= 12500011 ScaDFX=  1.000000  1.000000  1.000000  1.000000
 Range of M.O.s used for correlation:    15   379
 NBasis=   385 NAE=    47 NBE=    47 NFC=    14 NFV=     0
 NROrb=    365 NOA=    33 NOB=    33 NVA=   332 NVB=   332

 **** Warning!!: The largest alpha MO coefficient is  0.13470103D+03

 Orbital symmetries:
       Occupied  (A) (A) (A) (A) (A) (A) (A) (A) (A) (A) (A) (A)
                 (A) (A) (A) (A) (A) (A) (A) (A) (A) (A) (A) (A)
                 (A) (A) (A) (A) (A) (A) (A) (A) (A) (A) (A) (A)
                 (A) (A) (A) (A) (A) (A) (A) (A) (A) (A) (A)
       Virtual   (A) (A) (A) (A) (A) (A) (A) (A) (A) (A) (A) (A)
                 (A) (A) (A) (A) (A) (A) (A) (A) (A) (A) (A) (A)
                 (A) (A) (A) (A) (A) (A) (A) (A) (A) (A) (A) (A)
                 (A) (A) (A) (A) (A) (A) (A) (A) (A) (A) (A) (A)
                 (A) (A) (A) (A) (A) (A) (A) (A) (A) (A) (A) (A)
                 (A) (A) (A) (A) (A) (A) (A) (A) (A) (A) (A) (A)
                 (A) (A) (A) (A) (A) (A) (A) (A) (A) (A) (A) (A)
                 (A) (A) (A) (A) (A) (A) (A) (A) (A) (A) (A) (A)
                 (A) (A) (A) (A) (A) (A) (A) (A) (A) (A) (A) (A)
                 (A) (A) (A) (A) (A) (A) (A) (A) (A) (A) (A) (A)
                 (A) (A) (A) (A) (A) (A) (A) (A) (A) (A) (A) (A)
                 (A) (A) (A) (A) (A) (A) (A) (A) (A) (A) (A) (A)
                 (A) (A) (A) (A) (A) (A) (A) (A) (A) (A) (A) (A)
                 (A) (A) (A) (A) (A) (A) (A) (A) (A) (A) (A) (A)
                 (A) (A) (A) (A) (A) (A) (A) (A) (A) (A) (A) (A)
                 (A) (A) (A) (A) (A) (A) (A) (A) (A) (A) (A) (A)
                 (A) (A) (A) (A) (A) (A) (A) (A) (A) (A) (A) (A)
                 (A) (A) (A) (A) (A) (A) (A) (A) (A) (A) (A) (A)
                 (A) (A) (A) (A) (A) (A) (A) (A) (A) (A) (A) (A)
                 (A) (A) (A) (A) (A) (A) (A) (A) (A) (A) (A) (A)
                 (A) (A) (A) (A) (A) (A) (A) (A) (A) (A) (A) (A)
                 (A) (A) (A) (A) (A) (A) (A) (A) (A) (A) (A) (A)
                 (A) (A) (A) (A) (A) (A) (A) (A) (A) (A) (A) (A)
                 (A) (A) (A) (A) (A) (A) (A) (A) (A) (A) (A) (A)
                 (A) (A) (A) (A) (A) (A) (A) (A) (A) (A) (A) (A)
                 (A) (A) (A) (A) (A) (A) (A) (A) (A) (A) (A) (A)
                 (A) (A) (A) (A) (A) (A) (A) (A) (A) (A) (A) (A)
                 (A) (A) (A) (A) (A) (A) (A) (A)
    12 initial guesses have been made.
 Convergence on wavefunction:    0.001000000000000
 Iteration     1 Dimension    12 NMult     0 NNew     12
 CISAX will form    12 AO SS matrices at one time.
 New state      2 was old state      3
 New state      3 was old state      2
 Iteration     2 Dimension    18 NMult    12 NNew      6
 Iteration     3 Dimension    24 NMult    18 NNew      6
 Iteration     4 Dimension    30 NMult    24 NNew      6
 Iteration     5 Dimension    36 NMult    30 NNew      6
 Iteration     6 Dimension    42 NMult    36 NNew      6
 ***********************************************************************
 Excited states from <AA,BB:AA,BB> singles matrix:
 ***********************************************************************
 
 Ground to excited state transition densities written to RWF  633
 Ground to excited state transition electric dipole moments (Au):
       state          X           Y           Z        Dip. S.      Osc.
         1        -0.0389     -0.5831      0.0000      0.3415      0.0228
         2        -0.3429      0.2730      0.0000      0.1921      0.0156
         3        -2.5346     -0.0305      0.0000      6.4253      0.5467
 Ground to excited state transition velocity dipole moments (Au):
       state          X           Y           Z        Dip. S.      Osc.
         1         0.0010      0.0657     -0.0000      0.0043      0.0287
         2         0.0353     -0.0361     -0.0000      0.0025      0.0139
         3         0.3264      0.0041     -0.0000      0.1066      0.5566
 Ground to excited state transition magnetic dipole moments (Au):
       state          X           Y           Z
         1         0.0000     -0.0000     -0.1512
         2        -0.0000      0.0000     -1.0335
         3        -0.0000      0.0000     -1.0080
 Ground to excited state transition velocity quadrupole moments (Au):
       state          XX          YY          ZZ          XY          XZ          YZ
         1         0.2622      0.0302     -0.0088     -0.0704     -0.0000      0.0000
         2        -0.1339     -0.0206      0.0045     -0.2990      0.0000      0.0000
         3         0.0869     -0.0030     -0.0008     -0.0945     -0.0000      0.0000
 <0|del|b> * <b|rxdel|0> + <0|del|b> * <b|delr+rdel|0>
 Rotatory Strengths (R) in cgs (10**-40 erg-esu-cm/Gauss)
       state          XX          YY          ZZ    R(velocity)    E-M Angle
         1        -0.0008      0.0003     -0.0017     -0.0007       90.00
         2         0.0033      0.0019     -0.0004      0.0016       90.00
         3         0.0088      0.0074     -0.0006      0.0052       90.00
 1/2[<0|r|b>*<b|rxdel|0> + (<0|rxdel|b>*<b|r|0>)*]
 Rotatory Strengths (R) in cgs (10**-40 erg-esu-cm/Gauss)
       state          XX          YY          ZZ     R(length)
         1         0.0000     -0.0029      0.0002     -0.0009
         2        -0.0000     -0.0004      0.0000     -0.0001
         3        -0.0003      0.0000      0.0023      0.0007
  1/2[<0|del|b>*<b|r|0> + (<0|r|b>*<b|del|0>)*] (Au)
       state          X           Y           Z        Dip. S.   Osc.(frdel)
         1        -0.0000     -0.0383     -0.0000      0.0383      0.0256
         2        -0.0121     -0.0098     -0.0000      0.0220      0.0146
         3        -0.8273     -0.0001     -0.0000      0.8275      0.5516

 Excitation energies and oscillator strengths:
 
 Excited State   1:      Singlet-A      2.7313 eV  453.94 nm  f=0.0228  <S**2>=0.000
      47 -> 48         0.70364
 This state for optimization and/or second-order correction.
 Total Energy, E(TD-HF/TD-DFT) =  -539.655805433    
 Copying the excited state density for this state as the 1-particle RhoCI density.
 
 Excited State   2:      Singlet-A      3.3197 eV  373.48 nm  f=0.0156  <S**2>=0.000
      45 -> 48         0.64348
      46 -> 48         0.27906
 
 Excited State   3:      Singlet-A      3.4730 eV  356.99 nm  f=0.5467  <S**2>=0.000
      45 -> 48        -0.28168
      46 -> 48         0.63927
 SavETr:  write IOETrn=   770 NScale= 10 NData=  16 NLR=1 NState=    3 LETran=      64.

 **********************************************************************

            Population analysis using the SCF Density.

 **********************************************************************

 Orbital symmetries:
       Occupied  (A) (A) (A) (A) (A) (A) (A) (A) (A) (A) (A) (A)
                 (A) (A) (A) (A) (A) (A) (A) (A) (A) (A) (A) (A)
                 (A) (A) (A) (A) (A) (A) (A) (A) (A) (A) (A) (A)
                 (A) (A) (A) (A) (A) (A) (A) (A) (A) (A) (A)
       Virtual   (A) (A) (A) (A) (A) (A) (A) (A) (A) (A) (A) (A)
                 (A) (A) (A) (A) (A) (A) (A) (A) (A) (A) (A) (A)
                 (A) (A) (A) (A) (A) (A) (A) (A) (A) (A) (A) (A)
                 (A) (A) (A) (A) (A) (A) (A) (A) (A) (A) (A) (A)
                 (A) (A) (A) (A) (A) (A) (A) (A) (A) (A) (A) (A)
                 (A) (A) (A) (A) (A) (A) (A) (A) (A) (A) (A) (A)
                 (A) (A) (A) (A) (A) (A) (A) (A) (A) (A) (A) (A)
                 (A) (A) (A) (A) (A) (A) (A) (A) (A) (A) (A) (A)
                 (A) (A) (A) (A) (A) (A) (A) (A) (A) (A) (A) (A)
                 (A) (A) (A) (A) (A) (A) (A) (A) (A) (A) (A) (A)
                 (A) (A) (A) (A) (A) (A) (A) (A) (A) (A) (A) (A)
                 (A) (A) (A) (A) (A) (A) (A) (A) (A) (A) (A) (A)
                 (A) (A) (A) (A) (A) (A) (A) (A) (A) (A) (A) (A)
                 (A) (A) (A) (A) (A) (A) (A) (A) (A) (A) (A) (A)
                 (A) (A) (A) (A) (A) (A) (A) (A) (A) (A) (A) (A)
                 (A) (A) (A) (A) (A) (A) (A) (A) (A) (A) (A) (A)
                 (A) (A) (A) (A) (A) (A) (A) (A) (A) (A) (A) (A)
                 (A) (A) (A) (A) (A) (A) (A) (A) (A) (A) (A) (A)
                 (A) (A) (A) (A) (A) (A) (A) (A) (A) (A) (A) (A)
                 (A) (A) (A) (A) (A) (A) (A) (A) (A) (A) (A) (A)
                 (A) (A) (A) (A) (A) (A) (A) (A) (A) (A) (A) (A)
                 (A) (A) (A) (A) (A) (A) (A) (A) (A) (A) (A) (A)
                 (A) (A) (A) (A) (A) (A) (A) (A) (A) (A) (A) (A)
                 (A) (A) (A) (A) (A) (A) (A) (A) (A) (A) (A) (A)
                 (A) (A) (A) (A) (A) (A) (A) (A) (A) (A) (A) (A)
                 (A) (A) (A) (A) (A) (A) (A) (A) (A) (A) (A) (A)
                 (A) (A) (A) (A) (A) (A) (A) (A) (A) (A) (A) (A)
                 (A) (A) (A) (A) (A) (A) (A) (A)
 The electronic state is 1-A.
 Alpha  occ. eigenvalues --  -10.77730 -10.73689 -10.72982 -10.72830 -10.72238
 Alpha  occ. eigenvalues --  -10.71824 -10.71779 -10.71136 -10.71072 -10.70419
 Alpha  occ. eigenvalues --  -10.70234 -10.69925 -10.69913 -10.69547  -1.16269
 Alpha  occ. eigenvalues --   -1.12270  -1.06764  -1.05633  -1.01167  -1.00162
 Alpha  occ. eigenvalues --   -0.95591  -0.90939  -0.86300  -0.85774  -0.83731
 Alpha  occ. eigenvalues --   -0.78301  -0.75917  -0.74265  -0.69618  -0.69172
 Alpha  occ. eigenvalues --   -0.68350  -0.68035  -0.67992  -0.64916  -0.64187
 Alpha  occ. eigenvalues --   -0.62798  -0.61705  -0.60141  -0.59319  -0.59120
 Alpha  occ. eigenvalues --   -0.56853  -0.55335  -0.54550  -0.52332  -0.46886
 Alpha  occ. eigenvalues --   -0.46033  -0.44106
 Alpha virt. eigenvalues --   -0.26113  -0.14719  -0.14123  -0.12834  -0.11173
 Alpha virt. eigenvalues --   -0.10087  -0.09242  -0.07990  -0.07974  -0.07484
 Alpha virt. eigenvalues --   -0.07200  -0.07156  -0.05658  -0.05589  -0.05362
 Alpha virt. eigenvalues --   -0.03826  -0.03634  -0.03296  -0.03158  -0.02165
 Alpha virt. eigenvalues --   -0.01351  -0.00938   0.00175   0.00579   0.00633
 Alpha virt. eigenvalues --    0.01061   0.01502   0.01914   0.02147   0.02294
 Alpha virt. eigenvalues --    0.02435   0.02652   0.02686   0.03240   0.03408
 Alpha virt. eigenvalues --    0.04223   0.04480   0.04696   0.04994   0.05342
 Alpha virt. eigenvalues --    0.06035   0.06247   0.06575   0.07030   0.07247
 Alpha virt. eigenvalues --    0.07871   0.08046   0.08328   0.08534   0.08886
 Alpha virt. eigenvalues --    0.09480   0.09528   0.09924   0.10710   0.10900
 Alpha virt. eigenvalues --    0.11100   0.12085   0.12205   0.12737   0.12971
 Alpha virt. eigenvalues --    0.13393   0.13513   0.13971   0.14235   0.15922
 Alpha virt. eigenvalues --    0.16255   0.16334   0.17311   0.17504   0.17720
 Alpha virt. eigenvalues --    0.18041   0.18962   0.19259   0.19546   0.19736
 Alpha virt. eigenvalues --    0.21444   0.21527   0.22562   0.23014   0.23485
 Alpha virt. eigenvalues --    0.23771   0.24532   0.25273   0.26835   0.27474
 Alpha virt. eigenvalues --    0.28714   0.29241   0.29775   0.31258   0.35489
 Alpha virt. eigenvalues --    0.36127   0.38122   0.39212   0.41062   0.41386
 Alpha virt. eigenvalues --    0.41826   0.42212   0.43016   0.43571   0.44363
 Alpha virt. eigenvalues --    0.44624   0.44877   0.45861   0.46083   0.47933
 Alpha virt. eigenvalues --    0.48498   0.48770   0.49066   0.50494   0.51027
 Alpha virt. eigenvalues --    0.51156   0.51800   0.52129   0.52633   0.53972
 Alpha virt. eigenvalues --    0.54091   0.54532   0.55645   0.55805   0.57488
 Alpha virt. eigenvalues --    0.58191   0.58766   0.61389   0.62093   0.62228
 Alpha virt. eigenvalues --    0.63038   0.63439   0.64719   0.65036   0.67183
 Alpha virt. eigenvalues --    0.70218   0.70451   0.70875   0.72340   0.72749
 Alpha virt. eigenvalues --    0.75613   0.75874   0.76280   0.76778   0.77107
 Alpha virt. eigenvalues --    0.77746   0.77874   0.78156   0.79926   0.80271
 Alpha virt. eigenvalues --    0.81127   0.81549   0.82162   0.82844   0.85083
 Alpha virt. eigenvalues --    0.86984   0.88029   0.88387   0.89075   0.90452
 Alpha virt. eigenvalues --    0.90921   0.91271   0.93146   0.94436   0.96306
 Alpha virt. eigenvalues --    0.96616   1.00268   1.01115   1.01498   1.02631
 Alpha virt. eigenvalues --    1.03057   1.03396   1.04624   1.05552   1.08601
 Alpha virt. eigenvalues --    1.19454   1.23018   1.23942   1.24727   1.28285
 Alpha virt. eigenvalues --    1.29481   1.31905   1.34127   1.35657   1.35825
 Alpha virt. eigenvalues --    1.39174   1.39768   1.40684   1.42860   1.43208
 Alpha virt. eigenvalues --    1.43281   1.44213   1.45720   1.46157   1.46476
 Alpha virt. eigenvalues --    1.47481   1.47722   1.51466   1.53407   1.55314
 Alpha virt. eigenvalues --    1.55510   1.56094   1.56354   1.57578   1.61084
 Alpha virt. eigenvalues --    1.63006   1.63306   1.63946   1.65934   1.67949
 Alpha virt. eigenvalues --    1.68114   1.68489   1.69549   1.74121   1.75611
 Alpha virt. eigenvalues --    1.76808   1.77921   1.79527   1.79768   1.80678
 Alpha virt. eigenvalues --    1.82683   1.82861   1.83348   1.83653   1.83882
 Alpha virt. eigenvalues --    1.84170   1.85430   1.86017   1.88148   1.91116
 Alpha virt. eigenvalues --    1.91858   1.93715   1.95095   1.97342   1.97799
 Alpha virt. eigenvalues --    1.99546   2.01991   2.03980   2.06919   2.11382
 Alpha virt. eigenvalues --    2.11673   2.13832   2.14756   2.18581   2.20711
 Alpha virt. eigenvalues --    2.22246   2.28039   2.29618   2.33915   2.34342
 Alpha virt. eigenvalues --    2.35678   2.38238   2.39319   2.41810   2.44228
 Alpha virt. eigenvalues --    2.45700   2.45735   2.48777   2.52414   2.53064
 Alpha virt. eigenvalues --    2.54147   2.56682   2.57737   2.58395   2.59408
 Alpha virt. eigenvalues --    2.59885   2.61273   2.61905   2.63503   2.63570
 Alpha virt. eigenvalues --    2.64737   2.64979   2.65163   2.65545   2.67500
 Alpha virt. eigenvalues --    2.67793   2.70525   2.70805   2.73202   2.74661
 Alpha virt. eigenvalues --    2.76133   2.77678   2.79536   2.82115   2.82949
 Alpha virt. eigenvalues --    2.83944   2.86069   2.91785   2.96782   2.99155
 Alpha virt. eigenvalues --    2.99792   3.04319   3.09001   3.10492   3.12859
 Alpha virt. eigenvalues --    3.19936   3.22083   3.25812   3.27810   3.29926
 Alpha virt. eigenvalues --    3.31935   3.33496   3.42996   3.45336   3.45900
 Alpha virt. eigenvalues --    3.47405   3.48942   3.55835   3.65679   3.66198
 Alpha virt. eigenvalues --    3.67054   3.93504   3.93779   3.94877   3.95857
 Alpha virt. eigenvalues --    4.03436   4.06213   4.07130   4.12009   4.35056
 Alpha virt. eigenvalues --    4.60403   4.68876   4.70767  23.45084  23.59889
 Alpha virt. eigenvalues --   23.80297  23.82687  23.85316  23.88352  23.90580
 Alpha virt. eigenvalues --   23.93642  23.94945  23.96447  24.00891  24.02859
 Alpha virt. eigenvalues --   24.09660  24.10585
     Molecular Orbital Coefficients:
                          43        44        45        46        47
                           O         O         O         O         O
     Eigenvalues --    -0.54550  -0.52332  -0.46886  -0.46033  -0.44106
   1 1   C  1S         -0.00057   0.00000  -0.00000   0.00000   0.00000
   2        2S         -0.00093   0.00000  -0.00000   0.00000   0.00000
   3        2PX        -0.06868   0.00000  -0.00000  -0.00000   0.00000
   4        2PY        -0.03505   0.00000   0.00000   0.00000  -0.00000
   5        2PZ         0.00000   0.07312  -0.12379   0.02779   0.05963
   6        3S          0.00143  -0.00000   0.00000  -0.00000  -0.00000
   7        3PX        -0.09649   0.00000  -0.00000  -0.00000   0.00000
   8        3PY        -0.05097   0.00000  -0.00000  -0.00000  -0.00000
   9        3PZ         0.00000   0.11777  -0.20231   0.04539   0.09842
  10        4S         -0.01427  -0.00000  -0.00000  -0.00000  -0.00000
  11        4PX        -0.07238  -0.00000  -0.00000  -0.00000   0.00000
  12        4PY        -0.06102  -0.00000  -0.00000  -0.00000  -0.00000
  13        4PZ         0.00000   0.09764  -0.17539   0.04276   0.08871
  14        5S          0.09637   0.00000  -0.00002  -0.00002  -0.00002
  15        5PX         0.07835  -0.00001   0.00003   0.00002   0.00002
  16        5PY         0.00108  -0.00000   0.00000   0.00000   0.00000
  17        5PZ         0.00000   0.00173  -0.04508   0.00169   0.00731
  18        6D 0        0.00025  -0.00000  -0.00000  -0.00000   0.00000
  19        6D+1       -0.00000   0.00878   0.00821   0.01538  -0.00117
  20        6D-1        0.00000   0.00739  -0.00818   0.00209   0.00441
  21        6D+2       -0.01207   0.00000  -0.00000  -0.00000   0.00000
  22        6D-2       -0.00984   0.00000  -0.00000  -0.00000   0.00000
  23 2   C  1S          0.00180  -0.00000   0.00000   0.00000  -0.00000
  24        2S          0.00298  -0.00000   0.00000   0.00000  -0.00000
  25        2PX         0.06509  -0.00000   0.00000   0.00000  -0.00000
  26        2PY         0.04387  -0.00000   0.00000   0.00000  -0.00000
  27        2PZ        -0.00000   0.10122  -0.02001   0.09692   0.01800
  28        3S         -0.01001   0.00000  -0.00000  -0.00000   0.00000
  29        3PX         0.09306  -0.00000   0.00000   0.00000  -0.00000
  30        3PY         0.06214  -0.00000   0.00000   0.00000  -0.00000
  31        3PZ        -0.00000   0.16692  -0.03336   0.15951   0.02932
  32        4S          0.02354   0.00000   0.00000   0.00000  -0.00000
  33        4PX         0.05805  -0.00000  -0.00000  -0.00000  -0.00000
  34        4PY         0.03383  -0.00000   0.00000   0.00000   0.00000
  35        4PZ        -0.00000   0.12722  -0.02743   0.13657   0.02756
  36        5S         -0.05012  -0.00000  -0.00001  -0.00001  -0.00001
  37        5PX         0.02494  -0.00000   0.00001   0.00001   0.00000
  38        5PY         0.05598  -0.00000   0.00002   0.00001   0.00001
  39        5PZ        -0.00000  -0.00004   0.01378   0.00413   0.01318
  40        6D 0       -0.00017  -0.00000  -0.00000  -0.00000   0.00000
  41        6D+1       -0.00000  -0.00905   0.01220  -0.00373  -0.00623
  42        6D-1       -0.00000   0.00535   0.01836   0.00728  -0.00847
  43        6D+2       -0.00291  -0.00000   0.00000   0.00000  -0.00000
  44        6D-2       -0.01194   0.00000  -0.00000  -0.00000   0.00000
  45 3   C  1S         -0.00128   0.00000   0.00000   0.00000  -0.00000
  46        2S         -0.00214   0.00000   0.00000   0.00000  -0.00000
  47        2PX        -0.05899   0.00000  -0.00000  -0.00000   0.00000
  48        2PY        -0.03300   0.00000  -0.00000  -0.00000   0.00000
  49        2PZ        -0.00000   0.07472   0.10300   0.07463  -0.04500
  50        3S          0.00813  -0.00000  -0.00000  -0.00000   0.00000
  51        3PX        -0.08492   0.00000  -0.00000  -0.00000   0.00000
  52        3PY        -0.04769   0.00000  -0.00000  -0.00000  -0.00000
  53        3PZ        -0.00000   0.12166   0.16937   0.12166  -0.07395
  54        4S         -0.01702  -0.00000  -0.00000  -0.00000  -0.00000
  55        4PX        -0.06993   0.00000   0.00000   0.00000   0.00000
  56        4PY        -0.03708   0.00000   0.00000   0.00000   0.00000
  57        4PZ        -0.00000   0.09644   0.14496   0.10842  -0.06521
  58        5S         -0.04539   0.00001  -0.00003  -0.00002  -0.00002
  59        5PX        -0.01279  -0.00000  -0.00000  -0.00000  -0.00000
  60        5PY         0.04543  -0.00000   0.00001   0.00001   0.00001
  61        5PZ         0.00000   0.00998  -0.00398   0.02013  -0.01655
  62        6D 0       -0.00042   0.00000   0.00000   0.00000   0.00000
  63        6D+1        0.00000  -0.00293  -0.01316   0.00058   0.00561
  64        6D-1       -0.00000  -0.01119   0.00823  -0.01198  -0.00468
  65        6D+2       -0.00936   0.00000  -0.00000  -0.00000   0.00000
  66        6D-2       -0.01552   0.00000  -0.00000  -0.00000   0.00000
  67 4   C  1S          0.00348  -0.00000   0.00000   0.00000  -0.00000
  68        2S          0.00576  -0.00000   0.00000   0.00000  -0.00000
  69        2PX         0.07587  -0.00000   0.00000   0.00000  -0.00000
  70        2PY         0.03641  -0.00000   0.00000   0.00000  -0.00000
  71        2PZ        -0.00000   0.00849   0.12624  -0.01812  -0.05561
  72        3S         -0.01885   0.00000  -0.00000  -0.00000   0.00000
  73        3PX         0.10811  -0.00000   0.00000   0.00000  -0.00000
  74        3PY         0.05273  -0.00000   0.00000   0.00000  -0.00000
  75        3PZ        -0.00000   0.01241   0.20682  -0.02964  -0.09003
  76        4S          0.03164   0.00000   0.00000   0.00000   0.00000
  77        4PX         0.04987  -0.00000   0.00000  -0.00000  -0.00000
  78        4PY         0.03587  -0.00000  -0.00000  -0.00000  -0.00000
  79        4PZ        -0.00000   0.01781   0.18305  -0.01960  -0.09222
  80        5S          0.20550   0.00001   0.00002   0.00001   0.00000
  81        5PX        -0.07889  -0.00000  -0.00001  -0.00001  -0.00000
  82        5PY        -0.04662  -0.00000  -0.00000  -0.00000  -0.00000
  83        5PZ        -0.00000  -0.01696   0.03715  -0.02714  -0.00637
  84        6D 0       -0.00057  -0.00000   0.00000  -0.00000   0.00000
  85        6D+1        0.00000   0.01415   0.00734   0.01783  -0.00428
  86        6D-1        0.00000  -0.00297  -0.00791   0.00029   0.00307
  87        6D+2       -0.01062   0.00000  -0.00000  -0.00000   0.00000
  88        6D-2       -0.00840   0.00000   0.00000   0.00000  -0.00000
  89 5   C  1S          0.00225   0.00000  -0.00000   0.00000   0.00000
  90        2S          0.00373   0.00000  -0.00000   0.00000   0.00000
  91        2PX         0.07087  -0.00000   0.00000   0.00000  -0.00000
  92        2PY         0.02669   0.00000  -0.00000   0.00000   0.00000
  93        2PZ        -0.00000   0.01413  -0.06389   0.04373  -0.11838
  94        3S         -0.01129  -0.00000   0.00000   0.00000  -0.00000
  95        3PX         0.10080  -0.00000   0.00000   0.00000  -0.00000
  96        3PY         0.03838   0.00000  -0.00000   0.00000   0.00000
  97        3PZ        -0.00000   0.02197  -0.10510   0.07083  -0.19300
  98        4S         -0.03200  -0.00000   0.00000   0.00000   0.00000
  99        4PX         0.07228  -0.00000   0.00000   0.00000  -0.00000
 100        4PY         0.04271   0.00000  -0.00000  -0.00000  -0.00000
 101        4PZ        -0.00000   0.02588  -0.08723   0.05490  -0.18826
 102        5S         -0.19071  -0.00001   0.00000   0.00000   0.00001
 103        5PX        -0.11470  -0.00000   0.00001   0.00000   0.00001
 104        5PY         0.03795   0.00000  -0.00000  -0.00000  -0.00000
 105        5PZ        -0.00000  -0.01290  -0.02881   0.03010  -0.02687
 106        6D 0        0.00006   0.00000   0.00000   0.00000  -0.00000
 107        6D+1       -0.00000  -0.01244   0.00078   0.01703   0.01062
 108        6D-1        0.00000  -0.00333   0.00386  -0.00210   0.00629
 109        6D+2       -0.00644  -0.00000   0.00000  -0.00000  -0.00000
 110        6D-2       -0.00931   0.00000  -0.00000  -0.00000  -0.00000
 111 6   C  1S         -0.00011  -0.00000  -0.00000   0.00000   0.00000
 112        2S         -0.00018  -0.00000  -0.00000   0.00000   0.00000
 113        2PX        -0.06893   0.00000  -0.00000  -0.00000   0.00000
 114        2PY        -0.02712  -0.00000  -0.00000  -0.00000  -0.00000
 115        2PZ        -0.00000   0.07799  -0.04186  -0.06378  -0.11278
 116        3S         -0.00154   0.00000   0.00000   0.00000  -0.00000
 117        3PX        -0.09951   0.00000  -0.00000  -0.00000   0.00000
 118        3PY        -0.03859  -0.00000  -0.00000  -0.00000  -0.00000
 119        3PZ        -0.00000   0.12680  -0.06905  -0.10323  -0.18536
 120        4S          0.02536   0.00000  -0.00000  -0.00000  -0.00000
 121        4PX        -0.06695   0.00000  -0.00000  -0.00000  -0.00000
 122        4PY        -0.01260  -0.00000   0.00000   0.00000   0.00000
 123        4PZ        -0.00000   0.09866  -0.05979  -0.09032  -0.16561
 124        5S         -0.01968  -0.00000  -0.00004  -0.00002  -0.00002
 125        5PX        -0.03671  -0.00000   0.00000   0.00000   0.00000
 126        5PY        -0.06211   0.00000   0.00001   0.00001   0.00001
 127        5PZ         0.00000   0.00732   0.01398  -0.01630  -0.01506
 128        6D 0        0.00004  -0.00000   0.00000   0.00000  -0.00000
 129        6D+1       -0.00000   0.00327  -0.00627   0.00301  -0.01170
 130        6D-1       -0.00000  -0.01137  -0.00435   0.01449  -0.00605
 131        6D+2       -0.00242  -0.00000   0.00000  -0.00000  -0.00000
 132        6D-2       -0.01410   0.00000  -0.00000  -0.00000   0.00000
 133 7   C  1S         -0.00267   0.00000  -0.00000  -0.00000   0.00000
 134        2S         -0.00444   0.00000  -0.00000  -0.00000   0.00000
 135        2PX         0.07423  -0.00000   0.00000   0.00000  -0.00000
 136        2PY         0.01898   0.00000  -0.00000  -0.00000   0.00000
 137        2PZ        -0.00000   0.10249   0.01282  -0.10814   0.00605
 138        3S          0.01513  -0.00000   0.00000   0.00000  -0.00000
 139        3PX         0.10743  -0.00000   0.00000   0.00000  -0.00000
 140        3PY         0.02722   0.00000  -0.00000  -0.00000   0.00000
 141        3PZ        -0.00000   0.16870   0.02170  -0.17771   0.01023
 142        4S         -0.01052  -0.00000   0.00000   0.00000   0.00000
 143        4PX         0.08201  -0.00000   0.00000   0.00000   0.00000
 144        4PY         0.02727   0.00000   0.00000   0.00000   0.00000
 145        4PZ        -0.00000   0.12637   0.01648  -0.15017   0.00934
 146        5S          0.12057   0.00000   0.00000  -0.00000   0.00000
 147        5PX         0.05131   0.00000  -0.00000  -0.00000  -0.00000
 148        5PY        -0.07242   0.00000   0.00002   0.00001   0.00001
 149        5PZ        -0.00000   0.00231  -0.01815  -0.00655  -0.00169
 150        6D 0       -0.00017   0.00000   0.00000   0.00000  -0.00000
 151        6D+1        0.00000   0.00948   0.00553  -0.00668   0.01161
 152        6D-1       -0.00000   0.00569  -0.00794  -0.00475  -0.01981
 153        6D+2       -0.00834   0.00000  -0.00000  -0.00000   0.00000
 154        6D-2       -0.01769   0.00000  -0.00000  -0.00000   0.00000
 155 8   C  1S          0.00302  -0.00000   0.00000   0.00000  -0.00000
 156        2S          0.00498  -0.00000   0.00000   0.00000  -0.00000
 157        2PX        -0.08986   0.00000  -0.00000  -0.00000   0.00000
 158        2PY        -0.02453  -0.00000  -0.00000  -0.00000   0.00000
 159        2PZ         0.00000   0.07533   0.05786  -0.05424   0.11892
 160        3S         -0.01568   0.00000  -0.00000  -0.00000   0.00000
 161        3PX        -0.12886   0.00000  -0.00000  -0.00000   0.00000
 162        3PY        -0.03523  -0.00000  -0.00000  -0.00000   0.00000
 163        3PZ         0.00000   0.12100   0.09390  -0.08804   0.19481
 164        4S          0.01990   0.00000  -0.00000  -0.00000  -0.00000
 165        4PX        -0.07065  -0.00000  -0.00000  -0.00000   0.00000
 166        4PY        -0.02475   0.00000  -0.00000  -0.00000  -0.00000
 167        4PZ         0.00000   0.09964   0.08231  -0.07964   0.17595
 168        5S         -0.10460  -0.00000  -0.00003  -0.00002  -0.00001
 169        5PX         0.12637  -0.00000  -0.00003  -0.00002  -0.00002
 170        5PY        -0.01858   0.00000   0.00000   0.00000   0.00000
 171        5PZ         0.00000  -0.00054   0.03068  -0.00593   0.03688
 172        6D 0       -0.00029   0.00000  -0.00000  -0.00000  -0.00000
 173        6D+1        0.00000  -0.00839   0.00378   0.01505   0.00914
 174        6D-1        0.00000   0.00777   0.00307  -0.00402   0.00717
 175        6D+2       -0.00657  -0.00000   0.00000   0.00000  -0.00000
 176        6D-2       -0.01034   0.00000  -0.00000  -0.00000   0.00000
 177 9   C  1S          0.00340  -0.00000  -0.00000  -0.00000  -0.00000
 178        2S          0.00566  -0.00000  -0.00000  -0.00000  -0.00000
 179        2PX        -0.08841   0.00000  -0.00000  -0.00000   0.00000
 180        2PY        -0.03322  -0.00000  -0.00000  -0.00000  -0.00000
 181        2PZ         0.00000  -0.00656   0.02298   0.00469  -0.05662
 182        3S         -0.01816   0.00000   0.00000   0.00000   0.00000
 183        3PX        -0.13267   0.00000  -0.00000  -0.00000   0.00000
 184        3PY        -0.04923  -0.00000  -0.00000  -0.00000  -0.00000
 185        3PZ         0.00001  -0.00754   0.03492   0.00734  -0.08647
 186        4S          0.00025  -0.00000   0.00001   0.00001   0.00001
 187        4PX        -0.09368  -0.00000  -0.00000  -0.00000  -0.00000
 188        4PY        -0.04959  -0.00000  -0.00000  -0.00000  -0.00000
 189        4PZ         0.00001  -0.04329   0.03369   0.00725  -0.08774
 190        5S          0.01049  -0.00000   0.00003   0.00003   0.00002
 191        5PX         0.31247   0.00000   0.00001   0.00000  -0.00000
 192        5PY        -0.00452  -0.00000   0.00001   0.00000   0.00000
 193        5PZ         0.00000  -0.06922  -0.03535  -0.00853   0.08577
 194        6D 0        0.00351  -0.00000   0.00000  -0.00000  -0.00000
 195        6D+1        0.00000  -0.00034  -0.01416  -0.01039  -0.00627
 196        6D-1       -0.00000   0.00036  -0.00613  -0.00105   0.01720
 197        6D+2       -0.00854   0.00000  -0.00000  -0.00000   0.00000
 198        6D-2       -0.00919   0.00000  -0.00000  -0.00000   0.00000
 199 10  C  1S          0.00532  -0.00000  -0.00000  -0.00000  -0.00000
 200        2S          0.00882  -0.00000  -0.00000  -0.00000  -0.00000
 201        2PX         0.07174  -0.00000   0.00000   0.00000  -0.00000
 202        2PY         0.02858  -0.00000   0.00000   0.00000  -0.00000
 203        2PZ        -0.00000  -0.10341  -0.00583  -0.00582   0.01569
 204        3S         -0.02705   0.00000   0.00000   0.00000   0.00000
 205        3PX         0.10333  -0.00000   0.00000   0.00000  -0.00000
 206        3PY         0.04118  -0.00000   0.00000   0.00000   0.00000
 207        3PZ        -0.00000  -0.16854  -0.00995  -0.00939   0.02665
 208        4S         -0.02699   0.00000  -0.00001  -0.00000  -0.00000
 209        4PX         0.08324   0.00000   0.00000   0.00000  -0.00000
 210        4PY         0.04922  -0.00000   0.00000   0.00000   0.00000
 211        4PZ        -0.00000  -0.13976  -0.00703  -0.00690   0.01917
 212        5S          0.00540  -0.00000   0.00003   0.00002   0.00002
 213        5PX        -0.26754  -0.00001  -0.00001  -0.00000   0.00001
 214        5PY         0.00462   0.00000   0.00000   0.00000   0.00000
 215        5PZ        -0.00000  -0.01427   0.02041   0.00662  -0.05573
 216        6D 0       -0.00080  -0.00000   0.00000   0.00000   0.00000
 217        6D+1       -0.00000  -0.00210   0.00635  -0.02323  -0.00023
 218        6D-1        0.00000   0.00926   0.00144   0.00064  -0.00395
 219        6D+2       -0.01040  -0.00000  -0.00000  -0.00000  -0.00000
 220        6D-2       -0.00894   0.00000  -0.00000  -0.00000   0.00000
 221 11  C  1S          0.00198  -0.00000   0.00000   0.00000  -0.00000
 222        2S          0.00328  -0.00000   0.00000   0.00000  -0.00000
 223        2PX         0.07528  -0.00000   0.00000   0.00000  -0.00000
 224        2PY         0.05626  -0.00000   0.00000   0.00000  -0.00000
 225        2PZ         0.00000   0.00143  -0.10712  -0.06911   0.03537
 226        3S         -0.00940   0.00000  -0.00000  -0.00000   0.00000
 227        3PX         0.11113  -0.00000   0.00000   0.00000  -0.00000
 228        3PY         0.08305  -0.00000   0.00000   0.00000  -0.00000
 229        3PZ         0.00000   0.00098  -0.17428  -0.11504   0.05753
 230        4S         -0.02483   0.00000  -0.00000  -0.00000   0.00000
 231        4PX         0.10766  -0.00000   0.00001   0.00000  -0.00000
 232        4PY         0.05709  -0.00000   0.00000   0.00000  -0.00000
 233        4PZ         0.00000   0.01522  -0.17475  -0.09861   0.05705
 234        5S          0.07214   0.00000  -0.00005  -0.00003  -0.00003
 235        5PX         0.12111   0.00001   0.00002   0.00001   0.00000
 236        5PY         0.25797   0.00001  -0.00005  -0.00003  -0.00004
 237        5PZ        -0.00000   0.01485   0.06176  -0.00548  -0.05621
 238        6D 0       -0.00037  -0.00000  -0.00000  -0.00000   0.00000
 239        6D+1       -0.00000   0.00975  -0.01352   0.00359   0.00966
 240        6D-1       -0.00000  -0.01153   0.00757  -0.01284   0.00145
 241        6D+2       -0.00846  -0.00000  -0.00000  -0.00000  -0.00000
 242        6D-2       -0.01710   0.00000  -0.00000  -0.00000   0.00000
 243 12  C  1S         -0.00098  -0.00000  -0.00000  -0.00000   0.00000
 244        2S         -0.00164  -0.00000  -0.00000  -0.00000   0.00000
 245        2PX        -0.06730   0.00000  -0.00000  -0.00000   0.00000
 246        2PY        -0.05202   0.00000  -0.00000  -0.00000   0.00000
 247        2PZ        -0.00000  -0.07329   0.01976  -0.10762   0.00266
 248        3S          0.00481   0.00000   0.00000   0.00000  -0.00000
 249        3PX        -0.09722   0.00000  -0.00000  -0.00000   0.00000
 250        3PY        -0.07555   0.00000  -0.00000  -0.00000   0.00000
 251        3PZ        -0.00000  -0.12019   0.03109  -0.17689   0.00202
 252        4S         -0.01952  -0.00000   0.00000  -0.00000   0.00000
 253        4PX        -0.10421   0.00000  -0.00000  -0.00000  -0.00000
 254        4PY        -0.07991  -0.00000  -0.00000   0.00000   0.00000
 255        4PZ        -0.00000  -0.10920   0.03981  -0.17522   0.01349
 256        5S         -0.23368  -0.00001   0.00007   0.00005   0.00005
 257        5PX        -0.24837  -0.00001  -0.00001  -0.00000   0.00001
 258        5PY         0.18464   0.00001  -0.00003  -0.00002  -0.00003
 259        5PZ         0.00000   0.01709  -0.06042   0.01514   0.05766
 260        6D 0       -0.00008  -0.00000  -0.00000  -0.00000  -0.00000
 261        6D+1       -0.00000   0.01242   0.01214   0.00035  -0.00740
 262        6D-1       -0.00000  -0.00514   0.01810   0.00452  -0.00666
 263        6D+2       -0.00849   0.00000  -0.00000  -0.00000   0.00000
 264        6D-2       -0.01568   0.00000  -0.00000  -0.00000   0.00000
 265 13  C  1S          0.00081   0.00000  -0.00000  -0.00000   0.00000
 266        2S          0.00137   0.00000  -0.00000  -0.00000   0.00000
 267        2PX         0.07930  -0.00000   0.00000   0.00000  -0.00000
 268        2PY         0.03982   0.00000  -0.00000   0.00000   0.00000
 269        2PZ         0.00000   0.00643   0.05098   0.05803   0.11030
 270        3S         -0.00477  -0.00000   0.00000   0.00000  -0.00000
 271        3PX         0.11603  -0.00000   0.00000   0.00000  -0.00000
 272        3PY         0.05703   0.00000  -0.00000   0.00000   0.00000
 273        3PZ         0.00000   0.00998   0.08280   0.09636   0.18002
 274        4S         -0.00624  -0.00000  -0.00000  -0.00000  -0.00001
 275        4PX         0.11186  -0.00000  -0.00000  -0.00000  -0.00001
 276        4PY         0.05938   0.00000   0.00000   0.00000   0.00000
 277        4PZ         0.00000   0.02213   0.08789   0.07820   0.18624
 278        5S         -0.07600  -0.00000  -0.00005  -0.00003  -0.00003
 279        5PX         0.14891   0.00001  -0.00001  -0.00001  -0.00001
 280        5PY        -0.20494  -0.00001  -0.00006  -0.00004  -0.00002
 281        5PZ        -0.00000   0.01747  -0.00931   0.02030  -0.07165
 282        6D 0        0.00034   0.00000  -0.00000  -0.00000  -0.00000
 283        6D+1        0.00000  -0.00937  -0.00369   0.00652  -0.01404
 284        6D-1       -0.00000  -0.00970  -0.00814   0.01404  -0.00108
 285        6D+2       -0.00838   0.00000  -0.00000  -0.00000  -0.00000
 286        6D-2       -0.01592   0.00000  -0.00000   0.00000   0.00000
 287 14  C  1S         -0.00247  -0.00000   0.00000  -0.00000  -0.00000
 288        2S         -0.00420  -0.00000   0.00000  -0.00000  -0.00000
 289        2PX        -0.06367   0.00000  -0.00000  -0.00000   0.00000
 290        2PY        -0.03677  -0.00000  -0.00000  -0.00000  -0.00000
 291        2PZ        -0.00000  -0.05576  -0.02770   0.11145   0.00948
 292        3S          0.01226  -0.00000  -0.00000   0.00000   0.00000
 293        3PX        -0.09182   0.00000  -0.00000  -0.00000   0.00000
 294        3PY        -0.05338  -0.00000   0.00000  -0.00000  -0.00000
 295        3PZ        -0.00000  -0.09176  -0.04305   0.18312   0.01494
 296        4S          0.01213   0.00000  -0.00000  -0.00000  -0.00000
 297        4PX        -0.07703   0.00000   0.00000   0.00000   0.00000
 298        4PY        -0.02205   0.00000   0.00000   0.00000  -0.00000
 299        4PZ        -0.00000  -0.08368  -0.05558   0.17884   0.01624
 300        5S          0.20298   0.00001   0.00008   0.00005   0.00004
 301        5PX        -0.28473  -0.00001  -0.00001  -0.00001   0.00001
 302        5PY        -0.15336  -0.00001  -0.00004  -0.00002  -0.00002
 303        5PZ         0.00000   0.01328   0.01274  -0.03077   0.07483
 304        6D 0        0.00006   0.00000  -0.00000  -0.00000   0.00000
 305        6D+1       -0.00000  -0.01244   0.00491  -0.00305   0.01367
 306        6D-1       -0.00000  -0.00464  -0.00953  -0.00254  -0.01893
 307        6D+2       -0.00805  -0.00000   0.00000   0.00000  -0.00000
 308        6D-2       -0.01675   0.00000  -0.00000  -0.00000   0.00000
 309 15  H  1S          0.03789  -0.00000   0.00000   0.00000  -0.00000
 310        2S          0.05325  -0.00000   0.00000  -0.00000  -0.00000
 311        3S          0.02167   0.00000  -0.00000  -0.00000  -0.00000
 312        4S         -0.01034  -0.00000   0.00000   0.00000   0.00000
 313        5PX        -0.00397   0.00000  -0.00000  -0.00000   0.00000
 314        5PY         0.00227  -0.00000  -0.00000  -0.00000   0.00000
 315        5PZ         0.00000   0.00469  -0.00860   0.00200   0.00397
 316 16  H  1S          0.03170  -0.00000   0.00000   0.00000  -0.00000
 317        2S          0.04627  -0.00000   0.00000   0.00000  -0.00000
 318        3S          0.02035   0.00000   0.00000   0.00000  -0.00000
 319        4S          0.00803  -0.00000   0.00000   0.00000  -0.00000
 320        5PX         0.00013   0.00000  -0.00000  -0.00000  -0.00000
 321        5PY         0.00446  -0.00000   0.00000   0.00000  -0.00000
 322        5PZ        -0.00000   0.00647  -0.00140   0.00661   0.00119
 323 17  H  1S         -0.06538   0.00000  -0.00000  -0.00000   0.00000
 324        2S         -0.09520   0.00000  -0.00000  -0.00000   0.00000
 325        3S         -0.03601  -0.00000  -0.00000  -0.00000   0.00000
 326        4S         -0.00524  -0.00000  -0.00000  -0.00000  -0.00000
 327        5PX         0.00391  -0.00000   0.00000   0.00000  -0.00000
 328        5PY         0.00236  -0.00000   0.00000   0.00000  -0.00000
 329        5PZ        -0.00000   0.00477   0.00713   0.00508  -0.00325
 330 18  H  1S          0.03434  -0.00000   0.00000   0.00000  -0.00000
 331        2S          0.05077  -0.00000   0.00000   0.00000  -0.00000
 332        3S          0.02583  -0.00000   0.00000   0.00000   0.00000
 333        4S          0.01892  -0.00000   0.00000   0.00000   0.00000
 334        5PX         0.00366  -0.00000   0.00000   0.00000  -0.00000
 335        5PY        -0.00169   0.00000  -0.00000  -0.00000  -0.00000
 336        5PZ        -0.00000  -0.00001   0.00885  -0.00144  -0.00373
 337 19  H  1S          0.02629   0.00000   0.00000   0.00000   0.00000
 338        2S          0.03808  -0.00000   0.00000   0.00000  -0.00000
 339        3S          0.01842   0.00000  -0.00000  -0.00000  -0.00000
 340        4S          0.00270  -0.00000  -0.00000   0.00000  -0.00000
 341        5PX         0.00388  -0.00000   0.00000   0.00000  -0.00000
 342        5PY        -0.00068   0.00000   0.00000   0.00000   0.00000
 343        5PZ        -0.00000  -0.00646  -0.00021  -0.00032   0.00054
 344 20  H  1S          0.02413   0.00000  -0.00000   0.00000   0.00000
 345        2S          0.03529   0.00000   0.00000   0.00000   0.00000
 346        3S          0.01523   0.00000   0.00000   0.00000   0.00000
 347        4S         -0.01462   0.00000   0.00000   0.00000   0.00000
 348        5PX         0.00429  -0.00000   0.00000  -0.00000  -0.00000
 349        5PY        -0.00168  -0.00000  -0.00000  -0.00000  -0.00000
 350        5PZ        -0.00000   0.00040  -0.00469   0.00317  -0.00837
 351 21  H  1S          0.04341  -0.00000   0.00000   0.00000  -0.00000
 352        2S          0.06212  -0.00000   0.00000  -0.00000  -0.00000
 353        3S          0.02468  -0.00000   0.00000   0.00000  -0.00000
 354        4S          0.00568   0.00000  -0.00000  -0.00000  -0.00000
 355        5PX         0.00084  -0.00000   0.00000  -0.00000  -0.00000
 356        5PY        -0.00454   0.00000  -0.00000  -0.00000   0.00000
 357        5PZ        -0.00000   0.00496  -0.00290  -0.00428  -0.00809
 358 22  H  1S         -0.06955   0.00000  -0.00000  -0.00000   0.00000
 359        2S         -0.10125   0.00000  -0.00000   0.00000   0.00000
 360        3S         -0.03876  -0.00000   0.00000   0.00000   0.00000
 361        4S         -0.00675   0.00000   0.00000   0.00000   0.00000
 362        5PX        -0.00358   0.00000   0.00000   0.00000  -0.00000
 363        5PY        -0.00333   0.00000  -0.00000  -0.00000   0.00000
 364        5PZ        -0.00000   0.00660   0.00096  -0.00741   0.00043
 365 23  H  1S          0.02164   0.00000   0.00000  -0.00000   0.00000
 366        2S          0.03177   0.00000   0.00000  -0.00000   0.00000
 367        3S          0.01359   0.00000  -0.00000  -0.00000  -0.00000
 368        4S          0.01228   0.00000   0.00000   0.00000   0.00000
 369        5PX        -0.00431   0.00000  -0.00000  -0.00000   0.00000
 370        5PY         0.00091   0.00000  -0.00000  -0.00000  -0.00000
 371        5PZ         0.00000   0.00482   0.00425  -0.00377   0.00832
 372 24  H  1S          0.02000  -0.00353   0.02110   0.00422  -0.05304
 373        2S          0.02869   0.00391   0.03287   0.00645  -0.08447
 374        3S          0.01260   0.02543   0.02637   0.00495  -0.07075
 375        4S         -0.00128   0.04544   0.01432   0.00245  -0.03818
 376        5PX        -0.00434  -0.00004  -0.00220  -0.00071  -0.00139
 377        5PY        -0.00027   0.00087   0.00142   0.00027  -0.00304
 378        5PZ        -0.00188   0.00012  -0.00061  -0.00008   0.00153
 379 25  H  1S          0.02000   0.00353  -0.02110  -0.00422   0.05304
 380        2S          0.02869  -0.00391  -0.03288  -0.00645   0.08447
 381        3S          0.01259  -0.02543  -0.02638  -0.00496   0.07074
 382        4S         -0.00129  -0.04544  -0.01433  -0.00246   0.03817
 383        5PX        -0.00434   0.00004   0.00220   0.00071   0.00140
 384        5PY        -0.00027  -0.00087  -0.00142  -0.00027   0.00304
 385        5PZ         0.00188   0.00012  -0.00061  -0.00008   0.00153
                          48        49        50        51        52
                           V         V         V         V         V
     Eigenvalues --    -0.26113  -0.14719  -0.14123  -0.12834  -0.11173
   1 1   C  1S          0.00000   0.00000  -0.00000   0.00000  -0.00688
   2        2S          0.00000   0.00000  -0.00000   0.00000  -0.01165
   3        2PX        -0.00000  -0.00000  -0.00000  -0.00000   0.00355
   4        2PY         0.00000   0.00000  -0.00000   0.00000  -0.01635
   5        2PZ        -0.00464   0.09031  -0.00789   0.11341   0.00000
   6        3S         -0.00000  -0.00000   0.00000  -0.00000   0.03755
   7        3PX        -0.00000   0.00000   0.00000   0.00000   0.00334
   8        3PY         0.00000   0.00000   0.00000   0.00000  -0.02389
   9        3PZ        -0.00672   0.13886  -0.01237   0.17998   0.00000
  10        4S         -0.00000  -0.00000   0.00000   0.00000   0.04210
  11        4PX        -0.00000  -0.00000  -0.00000  -0.00000   0.02642
  12        4PY        -0.00000  -0.00000   0.00000   0.00000  -0.08335
  13        4PZ        -0.00523   0.26486  -0.03454   0.32600   0.00000
  14        5S         -0.00000   0.00003   0.00010   0.00009  -1.86422
  15        5PX         0.00001  -0.00005  -0.00014  -0.00011   1.15302
  16        5PY         0.00000  -0.00001  -0.00001  -0.00001  -0.48823
  17        5PZ         0.01151   0.19688  -0.05680   0.37681   0.00001
  18        6D 0       -0.00000  -0.00000   0.00000  -0.00000  -0.00601
  19        6D+1        0.01954   0.00170  -0.02698   0.00312  -0.00000
  20        6D-1       -0.00187  -0.00843  -0.00000  -0.00963   0.00000
  21        6D+2       -0.00000  -0.00000  -0.00000  -0.00000   0.00176
  22        6D-2       -0.00000  -0.00000  -0.00000  -0.00000  -0.00151
  23 2   C  1S          0.00000   0.00000   0.00000   0.00000  -0.00569
  24        2S          0.00000   0.00000   0.00000   0.00000  -0.00947
  25        2PX         0.00000  -0.00000   0.00000  -0.00000   0.00895
  26        2PY         0.00000   0.00000   0.00000  -0.00000  -0.00131
  27        2PZ         0.09455  -0.03757  -0.09819  -0.04760  -0.00000
  28        3S         -0.00000  -0.00000  -0.00000  -0.00000   0.02768
  29        3PX         0.00000  -0.00000   0.00000  -0.00000   0.01449
  30        3PY         0.00000   0.00000   0.00000  -0.00000  -0.00385
  31        3PZ         0.15480  -0.05872  -0.15634  -0.07493  -0.00000
  32        4S          0.00000   0.00000  -0.00000   0.00000   0.12601
  33        4PX        -0.00000  -0.00000   0.00000  -0.00000   0.00531
  34        4PY         0.00000  -0.00000  -0.00000  -0.00000   0.01033
  35        4PZ         0.18177  -0.10608  -0.26233  -0.13401  -0.00000
  36        5S          0.00000   0.00002   0.00003   0.00003   0.24219
  37        5PX        -0.00000  -0.00001  -0.00003  -0.00003   0.37049
  38        5PY         0.00001  -0.00003  -0.00008  -0.00006   0.46179
  39        5PZ         0.05822  -0.08571  -0.21856  -0.14168  -0.00001
  40        6D 0       -0.00000  -0.00000   0.00000   0.00000  -0.00414
  41        6D+1        0.00207  -0.01170   0.00131  -0.01562  -0.00000
  42        6D-1        0.00063  -0.01648   0.01604  -0.02064  -0.00000
  43        6D+2        0.00000   0.00000  -0.00000   0.00000  -0.00234
  44        6D-2       -0.00000  -0.00000  -0.00000  -0.00000   0.00461
  45 3   C  1S          0.00000   0.00000  -0.00000   0.00000  -0.00489
  46        2S          0.00000   0.00000  -0.00000   0.00000  -0.00812
  47        2PX        -0.00000   0.00000  -0.00000  -0.00000   0.00944
  48        2PY         0.00000   0.00000  -0.00000   0.00000   0.00147
  49        2PZ         0.00838  -0.06017   0.09873  -0.06914   0.00000
  50        3S         -0.00000  -0.00000  -0.00000  -0.00000   0.02368
  51        3PX         0.00000   0.00000  -0.00000  -0.00000   0.01578
  52        3PY         0.00000   0.00000   0.00000   0.00000   0.00326
  53        3PZ         0.01567  -0.09451   0.15675  -0.10854   0.00000
  54        4S         -0.00000  -0.00000   0.00000   0.00000   0.08956
  55        4PX         0.00000   0.00000  -0.00000  -0.00000   0.01969
  56        4PY         0.00000   0.00000  -0.00000  -0.00000   0.02287
  57        4PZ         0.00897  -0.17237   0.26878  -0.19867   0.00000
  58        5S         -0.00001   0.00003   0.00009   0.00007   0.31953
  59        5PX         0.00000   0.00000   0.00001   0.00001  -0.01217
  60        5PY         0.00000  -0.00001  -0.00005  -0.00004   0.49947
  61        5PZ         0.00084  -0.13259   0.21495  -0.20575   0.00000
  62        6D 0       -0.00000  -0.00000   0.00000   0.00000  -0.00438
  63        6D+1        0.01057  -0.01045  -0.00103  -0.01474  -0.00000
  64        6D-1       -0.01652   0.01217   0.01494   0.01676   0.00000
  65        6D+2       -0.00000  -0.00000   0.00000   0.00000  -0.00299
  66        6D-2       -0.00000   0.00000  -0.00000   0.00000  -0.00428
  67 4   C  1S          0.00000   0.00000  -0.00000   0.00000  -0.00730
  68        2S          0.00000   0.00000  -0.00000   0.00000  -0.01229
  69        2PX         0.00000   0.00000  -0.00000  -0.00000   0.00378
  70        2PY         0.00000   0.00000  -0.00000  -0.00000   0.01876
  71        2PZ        -0.08362   0.08488   0.00590   0.11070   0.00000
  72        3S         -0.00000  -0.00000   0.00000  -0.00000   0.03709
  73        3PX         0.00000   0.00000  -0.00000   0.00000   0.00401
  74        3PY         0.00000   0.00000   0.00000  -0.00000   0.02567
  75        3PZ        -0.13571   0.13028   0.01036   0.17590   0.00000
  76        4S          0.00000  -0.00000  -0.00001  -0.00000   0.20875
  77        4PX         0.00000   0.00000   0.00000   0.00000  -0.04887
  78        4PY        -0.00000   0.00000   0.00000   0.00000   0.04345
  79        4PZ        -0.15881   0.26272   0.01809   0.31490   0.00000
  80        5S         -0.00000   0.00001  -0.00006  -0.00003   1.61821
  81        5PX         0.00000   0.00001   0.00005   0.00004  -0.95599
  82        5PY        -0.00000   0.00000   0.00001   0.00000   0.72823
  83        5PZ        -0.04027   0.25575   0.06974   0.36798   0.00000
  84        6D 0       -0.00000  -0.00000   0.00000   0.00000  -0.00594
  85        6D+1        0.00078  -0.00693   0.02870  -0.00434   0.00000
  86        6D-1        0.00359   0.00714   0.00030   0.01032   0.00000
  87        6D+2       -0.00000  -0.00000   0.00000  -0.00000   0.00164
  88        6D-2        0.00000   0.00000  -0.00000   0.00000   0.00230
  89 5   C  1S         -0.00000  -0.00000  -0.00000   0.00000  -0.00604
  90        2S         -0.00000  -0.00000   0.00000   0.00000  -0.01015
  91        2PX         0.00000   0.00000   0.00000   0.00000  -0.00398
  92        2PY        -0.00000  -0.00000  -0.00000  -0.00000   0.01608
  93        2PZ        -0.07359   0.08811  -0.04133  -0.10566  -0.00000
  94        3S          0.00000   0.00000  -0.00000  -0.00000   0.03015
  95        3PX         0.00000   0.00000  -0.00000   0.00000  -0.00427
  96        3PY        -0.00000  -0.00000   0.00000  -0.00000   0.02171
  97        3PZ        -0.11914   0.13458  -0.06590  -0.16796  -0.00000
  98        4S          0.00000  -0.00000  -0.00001  -0.00000   0.20127
  99        4PX         0.00000   0.00000  -0.00000  -0.00000   0.04730
 100        4PY         0.00000   0.00000   0.00000   0.00000   0.02559
 101        4PZ        -0.13647   0.26056  -0.12631  -0.28754  -0.00000
 102        5S          0.00000  -0.00002  -0.00002  -0.00001   1.78612
 103        5PX         0.00000  -0.00000  -0.00003  -0.00003   0.82779
 104        5PY         0.00000   0.00000   0.00000   0.00000   0.59423
 105        5PZ        -0.03129   0.23422  -0.16043  -0.31256  -0.00000
 106        6D 0        0.00000   0.00000  -0.00000   0.00000  -0.00545
 107        6D+1       -0.00180   0.01475   0.02233  -0.00434   0.00000
 108        6D-1        0.00371   0.00718  -0.00168  -0.00851  -0.00000
 109        6D+2        0.00000   0.00000   0.00000  -0.00000   0.00071
 110        6D-2        0.00000   0.00000   0.00000  -0.00000  -0.00217
 111 6   C  1S         -0.00000  -0.00000   0.00000   0.00000  -0.00375
 112        2S         -0.00000  -0.00000   0.00000   0.00000  -0.00621
 113        2PX         0.00000   0.00000   0.00000  -0.00000  -0.00691
 114        2PY        -0.00000  -0.00000   0.00000   0.00000   0.00042
 115        2PZ         0.01255  -0.09332  -0.06521   0.06837  -0.00000
 116        3S          0.00000   0.00000  -0.00000  -0.00000   0.01773
 117        3PX         0.00000   0.00000   0.00000   0.00000  -0.01246
 118        3PY        -0.00000  -0.00000   0.00000   0.00000   0.00152
 119        3PZ         0.02162  -0.14639  -0.10351   0.10706  -0.00000
 120        4S          0.00000   0.00000   0.00000   0.00000   0.06364
 121        4PX         0.00000   0.00000   0.00000   0.00000  -0.01319
 122        4PY        -0.00000  -0.00000  -0.00000  -0.00000   0.02049
 123        4PZ         0.01541  -0.25094  -0.17565   0.18381  -0.00000
 124        5S          0.00001   0.00000   0.00013   0.00009   0.15726
 125        5PX         0.00000   0.00000  -0.00001  -0.00001   0.02000
 126        5PY        -0.00000  -0.00000  -0.00005  -0.00004   0.37646
 127        5PZ         0.00312  -0.18916  -0.13282   0.18236  -0.00000
 128        6D 0        0.00000   0.00000   0.00000  -0.00000  -0.00373
 129        6D+1       -0.00913   0.01032  -0.00607  -0.01390  -0.00000
 130        6D-1       -0.01327   0.00778  -0.01768  -0.01427  -0.00000
 131        6D+2        0.00000   0.00000   0.00000   0.00000  -0.00225
 132        6D-2       -0.00000   0.00000   0.00000  -0.00000   0.00334
 133 7   C  1S         -0.00000   0.00000   0.00000   0.00000  -0.00443
 134        2S         -0.00000   0.00000   0.00000   0.00000  -0.00733
 135        2PX         0.00000  -0.00000  -0.00000   0.00000  -0.00625
 136        2PY        -0.00000   0.00000   0.00000  -0.00000  -0.00049
 137        2PZ         0.07557  -0.01111   0.10028   0.04104   0.00000
 138        3S          0.00000   0.00000  -0.00000  -0.00000   0.02101
 139        3PX         0.00000  -0.00000  -0.00000   0.00000  -0.01064
 140        3PY        -0.00000   0.00000   0.00000  -0.00000  -0.00239
 141        3PZ         0.12382  -0.01640   0.15963   0.06461   0.00000
 142        4S         -0.00000  -0.00001  -0.00000   0.00000   0.10531
 143        4PX        -0.00000  -0.00000  -0.00000  -0.00000   0.00391
 144        4PY         0.00000  -0.00000  -0.00000  -0.00000   0.01161
 145        4PZ         0.14320  -0.03553   0.26473   0.11263   0.00000
 146        5S         -0.00001  -0.00001   0.00001   0.00001   0.54747
 147        5PX        -0.00000  -0.00000   0.00002   0.00002  -0.19034
 148        5PY        -0.00000  -0.00000  -0.00008  -0.00006   0.36088
 149        5PZ         0.04474  -0.02525   0.21224   0.12117   0.00001
 150        6D 0        0.00000   0.00000  -0.00000   0.00000  -0.00343
 151        6D+1       -0.00173   0.01259  -0.00255  -0.01405  -0.00000
 152        6D-1        0.00132  -0.02214  -0.00919   0.01920   0.00000
 153        6D+2       -0.00000  -0.00000   0.00000   0.00000  -0.00210
 154        6D-2       -0.00000  -0.00000   0.00000   0.00000  -0.00367
 155 8   C  1S         -0.00000  -0.00000   0.00000   0.00000  -0.00569
 156        2S         -0.00000  -0.00000   0.00000   0.00000  -0.00964
 157        2PX        -0.00000   0.00000   0.00000   0.00000  -0.00349
 158        2PY        -0.00000  -0.00000   0.00000   0.00000  -0.01466
 159        2PZ        -0.00448   0.10013  -0.01530  -0.10276  -0.00000
 160        3S          0.00000   0.00000  -0.00000  -0.00000   0.03158
 161        3PX        -0.00000   0.00000  -0.00000  -0.00000  -0.00344
 162        3PY        -0.00000  -0.00000   0.00000   0.00000  -0.02160
 163        3PZ        -0.00707   0.15382  -0.02293  -0.16236  -0.00000
 164        4S          0.00000   0.00000   0.00000   0.00000   0.02091
 165        4PX        -0.00000  -0.00000   0.00000   0.00000  -0.02581
 166        4PY         0.00000   0.00000   0.00000   0.00000  -0.07790
 167        4PZ        -0.00707   0.28639  -0.03954  -0.28583  -0.00000
 168        5S         -0.00000   0.00000   0.00012   0.00010  -1.63895
 169        5PX        -0.00000  -0.00001   0.00014   0.00011  -0.80582
 170        5PY         0.00000   0.00000  -0.00001  -0.00001  -0.44405
 171        5PZ         0.00964   0.21418   0.00331  -0.33244  -0.00001
 172        6D 0        0.00000   0.00000   0.00000  -0.00000  -0.00529
 173        6D+1       -0.01578  -0.00892  -0.02399   0.00277  -0.00000
 174        6D-1       -0.00187  -0.00862   0.00206   0.00816  -0.00000
 175        6D+2        0.00000   0.00000  -0.00000  -0.00000   0.00141
 176        6D-2       -0.00000   0.00000   0.00000   0.00000   0.00110
 177 9   C  1S         -0.00000   0.00000   0.00000   0.00000  -0.01407
 178        2S         -0.00000   0.00000   0.00000   0.00000  -0.02365
 179        2PX        -0.00000   0.00000  -0.00000   0.00000  -0.00098
 180        2PY        -0.00000   0.00000   0.00000   0.00000  -0.03081
 181        2PZ         0.02874  -0.01340   0.00320  -0.00098   0.00000
 182        3S          0.00000   0.00000  -0.00000   0.00000   0.06180
 183        3PX        -0.00000   0.00000  -0.00000   0.00000  -0.00162
 184        3PY         0.00000   0.00000   0.00000   0.00000  -0.04668
 185        3PZ         0.03835  -0.02047   0.00456  -0.00152   0.00000
 186        4S          0.00000  -0.00001  -0.00004  -0.00001   0.43524
 187        4PX         0.00000  -0.00000   0.00000   0.00000  -0.00975
 188        4PY        -0.00000   0.00000   0.00001   0.00000  -0.02425
 189        4PZ         0.07626  -0.10899   0.02939  -0.00004   0.00000
 190        5S          0.00000  -0.00002  -0.00014  -0.00012   0.82647
 191        5PX         0.00001  -0.00002  -0.00001  -0.00001   0.19199
 192        5PY         0.00000  -0.00000  -0.00002  -0.00002  -0.47131
 193        5PZ         0.13108  -0.43747   0.10177  -0.01104   0.00000
 194        6D 0        0.00000   0.00000   0.00000  -0.00000  -0.00877
 195        6D+1       -0.00159   0.00388   0.02453  -0.01292   0.00000
 196        6D-1       -0.01953  -0.02898   0.00327  -0.00119  -0.00000
 197        6D+2       -0.00000  -0.00000   0.00000   0.00000   0.00243
 198        6D-2       -0.00000  -0.00000   0.00000  -0.00000   0.00026
 199 10  C  1S         -0.00000  -0.00000   0.00000   0.00000  -0.01069
 200        2S         -0.00000  -0.00000   0.00000   0.00000  -0.01821
 201        2PX         0.00000   0.00000  -0.00000   0.00000  -0.00073
 202        2PY        -0.00000   0.00000   0.00000  -0.00000   0.02375
 203        2PZ         0.17254   0.01519   0.01441   0.00738   0.00000
 204        3S          0.00000  -0.00000  -0.00000  -0.00000   0.06073
 205        3PX         0.00000   0.00000  -0.00000   0.00000  -0.00117
 206        3PY         0.00000  -0.00000  -0.00000  -0.00000   0.03329
 207        3PZ         0.28072   0.02188   0.02379   0.01166   0.00000
 208        4S         -0.00000   0.00000   0.00002   0.00001   0.06868
 209        4PX         0.00000   0.00000  -0.00000  -0.00000   0.00386
 210        4PY         0.00000  -0.00000  -0.00001  -0.00000   0.20749
 211        4PZ         0.34890   0.07003   0.03881   0.02551   0.00000
 212        5S          0.00000  -0.00002  -0.00011  -0.00010   1.55974
 213        5PX        -0.00000  -0.00002   0.00002   0.00001   0.17581
 214        5PY         0.00000  -0.00000  -0.00001  -0.00000   1.95635
 215        5PZ         0.09847   0.32959  -0.00334   0.05226   0.00000
 216        6D 0        0.00000  -0.00000  -0.00000  -0.00000  -0.00747
 217        6D+1        0.00057  -0.00403  -0.03023  -0.00747  -0.00000
 218        6D-1        0.00086   0.01307  -0.00068   0.00164   0.00000
 219        6D+2       -0.00000   0.00000   0.00000  -0.00000   0.00105
 220        6D-2       -0.00000  -0.00000   0.00000   0.00000  -0.00015
 221 11  C  1S          0.00000   0.00000  -0.00000   0.00000  -0.00637
 222        2S          0.00000   0.00000  -0.00000   0.00000  -0.01095
 223        2PX         0.00000   0.00000  -0.00000  -0.00000   0.00197
 224        2PY         0.00000   0.00000  -0.00000   0.00000   0.00982
 225        2PZ        -0.09295  -0.06188   0.10637  -0.07540   0.00000
 226        3S         -0.00000  -0.00000  -0.00000  -0.00000   0.04336
 227        3PX         0.00000   0.00000  -0.00000   0.00000   0.00252
 228        3PY         0.00000   0.00000  -0.00000  -0.00000   0.01458
 229        3PZ        -0.14977  -0.09584   0.16672  -0.12288   0.00000
 230        4S         -0.00001  -0.00001   0.00000  -0.00000   0.00045
 231        4PX         0.00000   0.00000  -0.00001  -0.00000   0.11224
 232        4PY         0.00000   0.00000  -0.00001   0.00000  -0.00304
 233        4PZ        -0.19589  -0.16033   0.31486  -0.21167   0.00000
 234        5S         -0.00001   0.00001   0.00020   0.00014  -4.04982
 235        5PX         0.00000   0.00001  -0.00007  -0.00006   1.11691
 236        5PY        -0.00001   0.00007   0.00019   0.00016  -2.34889
 237        5PZ        -0.11831   0.11171   0.34875  -0.23507   0.00000
 238        6D 0       -0.00000  -0.00000   0.00000  -0.00000  -0.00800
 239        6D+1       -0.00430   0.01652  -0.00318   0.01563   0.00000
 240        6D-1       -0.00406  -0.01589  -0.01694  -0.01798  -0.00000
 241        6D+2       -0.00000  -0.00000   0.00000  -0.00000  -0.00559
 242        6D-2       -0.00000   0.00000   0.00000   0.00000   0.00144
 243 12  C  1S         -0.00000  -0.00000   0.00000   0.00000  -0.00698
 244        2S         -0.00000  -0.00000   0.00000   0.00000  -0.01190
 245        2PX        -0.00000  -0.00000   0.00000   0.00000   0.00138
 246        2PY        -0.00000  -0.00000   0.00000  -0.00000  -0.01041
 247        2PZ        -0.01449  -0.02831  -0.11270  -0.05353  -0.00000
 248        3S          0.00000   0.00000  -0.00000   0.00000   0.04111
 249        3PX        -0.00000  -0.00000  -0.00000  -0.00000   0.00456
 250        3PY        -0.00000  -0.00000   0.00000  -0.00000  -0.01440
 251        3PZ        -0.02402  -0.03826  -0.17965  -0.08965  -0.00000
 252        4S          0.00000   0.00000  -0.00000  -0.00000   0.15540
 253        4PX        -0.00000   0.00000   0.00001   0.00000  -0.13305
 254        4PY        -0.00000  -0.00000  -0.00000   0.00000  -0.08882
 255        4PZ        -0.03031  -0.11936  -0.33196  -0.14202  -0.00000
 256        5S          0.00001  -0.00005  -0.00028  -0.00022   5.07105
 257        5PX         0.00000  -0.00003   0.00003   0.00001  -0.43469
 258        5PY        -0.00000   0.00004   0.00014   0.00011  -4.02492
 259        5PZ         0.00700  -0.35559  -0.38367  -0.18407  -0.00001
 260        6D 0        0.00000   0.00000   0.00000   0.00000  -0.00873
 261        6D+1       -0.02720   0.01320  -0.00098   0.01382   0.00000
 262        6D-1        0.01712   0.01975  -0.01641   0.02114  -0.00000
 263        6D+2       -0.00000   0.00000  -0.00000   0.00000  -0.00492
 264        6D-2       -0.00000  -0.00000   0.00000   0.00000  -0.00200
 265 13  C  1S         -0.00000  -0.00000   0.00000  -0.00000  -0.00576
 266        2S         -0.00000  -0.00000   0.00000  -0.00000  -0.00991
 267        2PX         0.00000   0.00000  -0.00000   0.00000  -0.00269
 268        2PY        -0.00000  -0.00000   0.00000  -0.00000   0.00940
 269        2PZ        -0.08206  -0.09904  -0.08354   0.06995  -0.00000
 270        3S          0.00000   0.00000  -0.00000  -0.00000   0.03973
 271        3PX         0.00000   0.00000  -0.00000   0.00000  -0.00397
 272        3PY        -0.00000  -0.00000   0.00000  -0.00000   0.01327
 273        3PZ        -0.13222  -0.15364  -0.13086   0.11411  -0.00000
 274        4S          0.00001   0.00001   0.00001   0.00000  -0.02200
 275        4PX         0.00000   0.00001   0.00001   0.00001  -0.12461
 276        4PY        -0.00000  -0.00000  -0.00001  -0.00000   0.00927
 277        4PZ        -0.17141  -0.26142  -0.26003   0.18556  -0.00000
 278        5S          0.00000   0.00004   0.00020   0.00014  -3.64214
 279        5PX        -0.00000   0.00003   0.00004   0.00004  -0.76389
[...]
 188        4PY         0.27448
 189        4PZ         0.39775
 190        5S          0.34458
 191        5PX        -0.27073
 192        5PY         0.03752
 193        5PZ        -0.02775
 194        6D 0        0.00829
 195        6D+1        0.00846
 196        6D-1        0.01219
 197        6D+2        0.01210
 198        6D-2        0.01355
 199 10  C  1S          1.10550
 200        2S          0.88523
 201        2PX         0.24232
 202        2PY         0.24073
 203        2PZ         0.11416
 204        3S          0.80048
 205        3PX         0.55210
 206        3PY         0.55005
 207        3PZ         0.30953
 208        4S          0.41212
 209        4PX         0.15680
 210        4PY         0.34577
 211        4PZ         0.25613
 212        5S          0.03368
 213        5PX        -0.38469
 214        5PY         0.19901
 215        5PZ         0.04218
 216        6D 0        0.00298
 217        6D+1        0.01277
 218        6D-1        0.00357
 219        6D+2        0.02115
 220        6D-2        0.01515
 221 11  C  1S          1.10532
 222        2S          0.88553
 223        2PX         0.23530
 224        2PY         0.23247
 225        2PZ         0.15098
 226        3S          0.76951
 227        3PX         0.53561
 228        3PY         0.53145
 229        3PZ         0.39836
 230        4S          0.40081
 231        4PX         0.26477
 232        4PY         0.22272
 233        4PZ         0.31956
 234        5S          0.15093
 235        5PX        -0.27217
 236        5PY         0.62482
 237        5PZ         0.01241
 238        6D 0        0.00388
 239        6D+1        0.01032
 240        6D-1        0.01021
 241        6D+2        0.02211
 242        6D-2        0.02058
 243 12  C  1S          1.10521
 244        2S          0.88565
 245        2PX         0.23217
 246        2PY         0.23111
 247        2PZ         0.17379
 248        3S          0.75267
 249        3PX         0.52787
 250        3PY         0.53049
 251        3PZ         0.45869
 252        4S          0.37884
 253        4PX         0.15429
 254        4PY         0.19523
 255        4PZ         0.39663
 256        5S         -0.56934
 257        5PX        -0.46552
 258        5PY         0.30950
 259        5PZ        -0.06005
 260        6D 0        0.00447
 261        6D+1        0.00729
 262        6D-1        0.00852
 263        6D+2        0.02271
 264        6D-2        0.02229
 265 13  C  1S          1.10531
 266        2S          0.88559
 267        2PX         0.22923
 268        2PY         0.23497
 269        2PZ         0.15360
 270        3S          0.76650
 271        3PX         0.53109
 272        3PY         0.53125
 273        3PZ         0.40363
 274        4S          0.41194
 275        4PX         0.27105
 276        4PY         0.21612
 277        4PZ         0.33012
 278        5S          0.12655
 279        5PX        -0.29060
 280        5PY         0.63154
 281        5PZ         0.01538
 282        6D 0        0.00394
 283        6D+1        0.00935
 284        6D-1        0.01094
 285        6D+2        0.02081
 286        6D-2        0.02081
 287 14  C  1S          1.10520
 288        2S          0.88563
 289        2PX         0.22967
 290        2PY         0.23499
 291        2PZ         0.17461
 292        3S          0.75253
 293        3PX         0.52496
 294        3PY         0.53323
 295        3PZ         0.46082
 296        4S          0.36867
 297        4PX         0.14534
 298        4PY         0.19267
 299        4PZ         0.39570
 300        5S         -0.52167
 301        5PX        -0.46956
 302        5PY         0.30338
 303        5PZ        -0.06144
 304        6D 0        0.00446
 305        6D+1        0.00740
 306        6D-1        0.00938
 307        6D+2        0.02278
 308        6D-2        0.02270
 309 15  H  1S          0.27332
 310        2S          0.46353
 311        3S          0.03158
 312        4S         -0.03097
 313        5PX         0.00338
 314        5PY         0.01497
 315        5PZ         0.00460
 316 16  H  1S          0.27328
 317        2S          0.46171
 318        3S          0.01075
 319        4S         -0.02901
 320        5PX         0.01252
 321        5PY         0.00650
 322        5PZ         0.00370
 323 17  H  1S          0.27331
 324        2S          0.46280
 325        3S          0.01851
 326        4S         -0.02924
 327        5PX         0.01224
 328        5PY         0.00634
 329        5PZ         0.00446
 330 18  H  1S          0.27371
 331        2S          0.46482
 332        3S          0.03316
 333        4S         -0.01964
 334        5PX         0.00346
 335        5PY         0.01523
 336        5PZ         0.00431
 337 19  H  1S          0.27269
 338        2S          0.45388
 339        3S          0.01715
 340        4S          0.04250
 341        5PX         0.00338
 342        5PY         0.01638
 343        5PZ         0.00289
 344 20  H  1S          0.27350
 345        2S          0.46504
 346        3S          0.03688
 347        4S         -0.01941
 348        5PX         0.00343
 349        5PY         0.01500
 350        5PZ         0.00451
 351 21  H  1S          0.27320
 352        2S          0.46314
 353        3S          0.02089
 354        4S         -0.02789
 355        5PX         0.01176
 356        5PY         0.00664
 357        5PZ         0.00451
 358 22  H  1S          0.27366
 359        2S          0.46296
 360        3S          0.01443
 361        4S         -0.02765
 362        5PX         0.01258
 363        5PY         0.00643
 364        5PZ         0.00392
 365 23  H  1S          0.27363
 366        2S          0.46397
 367        3S          0.03442
 368        4S         -0.03189
 369        5PX         0.00333
 370        5PY         0.01472
 371        5PZ         0.00470
 372 24  H  1S          0.26339
 373        2S          0.42804
 374        3S          0.01133
 375        4S          0.02734
 376        5PX         0.00341
 377        5PY         0.00770
 378        5PZ         0.00921
 379 25  H  1S          0.26339
 380        2S          0.42804
 381        3S          0.01133
 382        4S          0.02734
 383        5PX         0.00341
 384        5PY         0.00770
 385        5PZ         0.00921
          Condensed to atoms (all electrons):
               1          2          3          4          5          6
     1  C    8.396228   0.415260  -0.586205   1.847925  -0.019639  -0.087308
     2  C    0.415260   7.152099   0.409201  -1.062577  -0.029772  -0.013747
     3  C   -0.586205   0.409201   6.593068   0.744246  -0.113129   0.016361
     4  C    1.847925  -1.062577   0.744246  11.409466  -0.367283  -0.133452
     5  C   -0.019639  -0.029772  -0.113129  -0.367283  10.537999   0.817946
     6  C   -0.087308  -0.013747   0.016361  -0.133452   0.817946   6.570234
     7  C   -0.023769   0.000482  -0.013761   0.003895  -1.111993   0.255603
     8  C    0.399907  -0.008205  -0.099854  -0.056290   2.081836  -0.448466
     9  C   -1.102933  -0.853988   0.288610  -0.025273  -0.336533   0.299780
    10  C   -1.213061   0.200240  -0.294031  -2.663331  -2.419918  -0.414899
    11  C    0.326425  -0.796125   0.887482  -0.403602  -1.389379  -0.112172
    12  C   -1.930898   1.171945  -1.360193  -1.665001  -0.231657  -0.271262
    13  C    0.221818  -0.214580  -0.221525  -1.546199  -0.197977   1.118684
    14  C   -1.135820  -0.248565  -0.130655  -0.454945  -1.562554  -1.469814
    15  H    0.367207  -0.105925  -0.002533   0.026813   0.006056   0.001129
    16  H   -0.019191   0.379638  -0.019994   0.015324  -0.001572  -0.000332
    17  H   -0.020617  -0.021749   0.378287  -0.067280   0.000218   0.000395
    18  H    0.048133   0.003154  -0.084629   0.464652   0.005917  -0.005048
    19  H   -0.043926  -0.007296   0.049550  -0.079029  -0.058152   0.051806
    20  H    0.006856   0.002013  -0.005112   0.006096   0.448860  -0.084058
    21  H   -0.001273  -0.000396   0.000391   0.000373  -0.065757   0.369883
    22  H    0.000531   0.000332  -0.000311  -0.001414   0.011297  -0.015426
    23  H    0.006192  -0.002406   0.001028   0.004975   0.027970   0.001520
    24  H    0.035801   0.015265  -0.001493  -0.011719  -0.012152  -0.001642
    25  H    0.035795   0.015264  -0.001493  -0.011721  -0.012150  -0.001643
               7          8          9         10         11         12
     1  C   -0.023769   0.399907  -1.102933  -1.213061   0.326425  -1.930898
     2  C    0.000482  -0.008205  -0.853988   0.200240  -0.796125   1.171945
     3  C   -0.013761  -0.099854   0.288610  -0.294031   0.887482  -1.360193
     4  C    0.003895  -0.056290  -0.025273  -2.663331  -0.403602  -1.665001
     5  C   -1.111993   2.081836  -0.336533  -2.419918  -1.389379  -0.231657
     6  C    0.255603  -0.448466   0.299780  -0.414899  -0.112172  -0.271262
     7  C    7.130189   0.151786  -0.771164   0.312804  -0.291122  -0.114114
     8  C    0.151786   8.728672  -1.131766  -1.318291   0.232204  -1.010137
     9  C   -0.771164  -1.131766   9.563463   0.235366   1.560996  -2.087545
    10  C    0.312804  -1.318291   0.235366   9.073699  -0.306357   2.360400
    11  C   -0.291122   0.232204   1.560996  -0.306357  14.514839  -3.901693
    12  C   -0.114114  -1.010137  -2.087545   2.360400  -3.901693  16.145953
    13  C   -0.998727   0.311128   1.531307  -0.530526   1.063737  -4.652853
    14  C    1.598150  -2.327686  -1.744370   2.435738  -4.817707   3.071818
    15  H   -0.002794   0.004987   0.089951  -0.008698  -0.032007  -0.016605
    16  H    0.000383   0.000962   0.003384  -0.009584   0.027051  -0.033188
    17  H   -0.000378  -0.001332  -0.004957   0.019277  -0.023159   0.084171
    18  H    0.002072   0.007082  -0.022670   0.009313  -0.009745  -0.048464
    19  H   -0.008240  -0.046936   0.073394   0.420007   0.074602  -0.084111
    20  H    0.003312   0.051160  -0.025582   0.016651  -0.011629  -0.007494
    21  H   -0.010936  -0.030037  -0.006218   0.020675  -0.006222   0.005010
    22  H    0.376697  -0.018143   0.003497  -0.008553   0.002501  -0.007941
    23  H   -0.108092   0.368528   0.091931  -0.010645   0.005771   0.005154
    24  H    0.013270   0.029660   0.355934   0.005213   0.020386  -0.059407
    25  H    0.013269   0.029658   0.355939   0.005214   0.020389  -0.059399
              13         14         15         16         17         18
     1  C    0.221818  -1.135820   0.367207  -0.019191  -0.020617   0.048133
     2  C   -0.214580  -0.248565  -0.105925   0.379638  -0.021749   0.003154
     3  C   -0.221525  -0.130655  -0.002533  -0.019994   0.378287  -0.084629
     4  C   -1.546199  -0.454945   0.026813   0.015324  -0.067280   0.464652
     5  C   -0.197977  -1.562554   0.006056  -0.001572   0.000218   0.005917
     6  C    1.118684  -1.469814   0.001129  -0.000332   0.000395  -0.005048
     7  C   -0.998727   1.598150  -0.002794   0.000383  -0.000378   0.002072
     8  C    0.311128  -2.327686   0.004987   0.000962  -0.001332   0.007082
     9  C    1.531307  -1.744370   0.089951   0.003384  -0.004957  -0.022670
    10  C   -0.530526   2.435738  -0.008698  -0.009584   0.019277   0.009313
    11  C    1.063737  -4.817707  -0.032007   0.027051  -0.023159  -0.009745
    12  C   -4.652853   3.071818  -0.016605  -0.033188   0.084171  -0.048464
    13  C   14.201852  -3.501595  -0.001627   0.003448  -0.006219  -0.011856
    14  C   -3.501595  15.817595   0.007565  -0.009921   0.005171  -0.020491
    15  H   -0.001627   0.007565   0.435158  -0.008798   0.001524   0.000243
    16  H    0.003448  -0.009921  -0.008798   0.415973  -0.006683   0.001952
    17  H   -0.006219   0.005171   0.001524  -0.006683   0.420837  -0.010235
    18  H   -0.011856  -0.020491   0.000243   0.001952  -0.010235   0.450306
    19  H    0.080035  -0.046149   0.000352  -0.000543   0.001556  -0.005972
    20  H   -0.005570  -0.059366  -0.000115   0.000017  -0.000154   0.001255
    21  H   -0.029891   0.097517   0.000015  -0.000007   0.000010  -0.000129
    22  H    0.024875  -0.031070  -0.000124   0.000007  -0.000007   0.000013
    23  H   -0.029252  -0.033598   0.000563  -0.000126   0.000012  -0.000105
    24  H    0.005326  -0.058902  -0.000966   0.000624  -0.000136   0.000155
    25  H    0.005322  -0.058900  -0.000966   0.000623  -0.000136   0.000155
              19         20         21         22         23         24
     1  C   -0.043926   0.006856  -0.001273   0.000531   0.006192   0.035801
     2  C   -0.007296   0.002013  -0.000396   0.000332  -0.002406   0.015265
     3  C    0.049550  -0.005112   0.000391  -0.000311   0.001028  -0.001493
     4  C   -0.079029   0.006096   0.000373  -0.001414   0.004975  -0.011719
     5  C   -0.058152   0.448860  -0.065757   0.011297   0.027970  -0.012152
     6  C    0.051806  -0.084058   0.369883  -0.015426   0.001520  -0.001642
     7  C   -0.008240   0.003312  -0.010936   0.376697  -0.108092   0.013270
     8  C   -0.046936   0.051160  -0.030037  -0.018143   0.368528   0.029660
     9  C    0.073394  -0.025582  -0.006218   0.003497   0.091931   0.355934
    10  C    0.420007   0.016651   0.020675  -0.008553  -0.010645   0.005213
    11  C    0.074602  -0.011629  -0.006222   0.002501   0.005771   0.020386
    12  C   -0.084111  -0.007494   0.005010  -0.007941   0.005154  -0.059407
    13  C    0.080035  -0.005570  -0.029891   0.024875  -0.029252   0.005326
    14  C   -0.046149  -0.059366   0.097517  -0.031070  -0.033598  -0.058902
    15  H    0.000352  -0.000115   0.000015  -0.000124   0.000563  -0.000966
    16  H   -0.000543   0.000017  -0.000007   0.000007  -0.000126   0.000624
    17  H    0.001556  -0.000154   0.000010  -0.000007   0.000012  -0.000136
    18  H   -0.005972   0.001255  -0.000129   0.000013  -0.000105   0.000155
    19  H    0.442259  -0.006479   0.001257  -0.000517   0.000258   0.000570
    20  H   -0.006479   0.456007  -0.010089   0.001875   0.000092   0.000205
    21  H    0.001257  -0.010089   0.423246  -0.006292   0.001398  -0.000144
    22  H   -0.000517   0.001875  -0.006292   0.422354  -0.009137   0.000638
    23  H    0.000258   0.000092   0.001398  -0.009137   0.442506  -0.000836
    24  H    0.000570   0.000205  -0.000144   0.000638  -0.000836   0.493467
    25  H    0.000570   0.000205  -0.000144   0.000639  -0.000836  -0.078684
              25
     1  C    0.035795
     2  C    0.015264
     3  C   -0.001493
     4  C   -0.011721
     5  C   -0.012150
     6  C   -0.001643
     7  C    0.013269
     8  C    0.029658
     9  C    0.355939
    10  C    0.005214
    11  C    0.020389
    12  C   -0.059399
    13  C    0.005322
    14  C   -0.058900
    15  H   -0.000966
    16  H    0.000623
    17  H   -0.000136
    18  H    0.000155
    19  H    0.000570
    20  H    0.000205
    21  H   -0.000144
    22  H    0.000639
    23  H   -0.000836
    24  H   -0.078684
    25  H    0.493464
 Mulliken charges:
               1
     1  C    0.076564
     2  C   -0.399562
     3  C   -0.433304
     4  C    0.025350
     5  C   -0.008484
     6  C   -0.444074
     7  C   -0.406821
     8  C    0.099572
     9  C   -0.340553
    10  C    0.083296
    11  C   -0.635465
    12  C    0.697509
    13  C   -0.619136
    14  C    0.678554
    15  H    0.239594
    16  H    0.260553
    17  H    0.251580
    18  H    0.224941
    19  H    0.191137
    20  H    0.221045
    21  H    0.247759
    22  H    0.253678
    23  H    0.237134
    24  H    0.249567
    25  H    0.249566
 Sum of Mulliken charges =   1.00000
 Mulliken charges with hydrogens summed into heavy atoms:
               1
     1  C    0.316158
     2  C   -0.139009
     3  C   -0.181724
     4  C    0.250291
     5  C    0.212561
     6  C   -0.196316
     7  C   -0.153143
     8  C    0.336706
     9  C    0.158581
    10  C    0.274433
    11  C   -0.635465
    12  C    0.697509
    13  C   -0.619136
    14  C    0.678554
 Electronic spatial extent (au):  <R**2>=           2868.5178
 Charge=              1.0000 electrons
 Dipole moment (field-independent basis, Debye):
    X=              0.7234    Y=              0.1866    Z=              0.0000  Tot=              0.7471
 Quadrupole moment (field-independent basis, Debye-Ang):
   XX=            -30.8333   YY=            -56.1853   ZZ=            -84.2712
   XY=              0.0597   XZ=              0.0001   YZ=             -0.0000
 Traceless Quadrupole moment (field-independent basis, Debye-Ang):
   XX=             26.2633   YY=              0.9113   ZZ=            -27.1746
   XY=              0.0597   XZ=              0.0001   YZ=             -0.0000
 Octapole moment (field-independent basis, Debye-Ang**2):
  XXX=              8.0468  YYY=              5.3533  ZZZ=              0.0000  XYY=              1.6939
  XXY=             -5.2506  XXZ=             -0.0000  XZZ=              1.0511  YZZ=             -3.1358
  YYZ=              0.0000  XYZ=             -0.0002
 Hexadecapole moment (field-independent basis, Debye-Ang**3):
 XXXX=          -2127.3240 YYYY=           -611.5937 ZZZZ=            -99.6937 XXXY=             -1.6524
 XXXZ=             -0.0003 YYYX=              0.6673 YYYZ=             -0.0000 ZZZX=             -0.0001
 ZZZY=             -0.0000 XXYY=           -509.2126 XXZZ=           -594.3272 YYZZ=           -146.4710
 XXYZ=              0.0000 YYXZ=              0.0004 ZZXY=              0.3365
 N-N= 7.793884766970D+02 E-N=-2.795012890488D+03  KE= 5.373551248325D+02
 Orbital energies and kinetic energies (alpha):
                                 1                 2
  43         O                -0.545495          1.582429
  44         O                -0.523319          1.038207
  45         O                -0.468864          1.128292
  46         O                -0.460334          1.151096
  47         O                -0.441058          1.159888
  48         V                -0.261134          1.267225
  49         V                -0.147192          1.100909
  50         V                -0.141229          1.315452
  51         V                -0.128338          1.280817
  52         V                -0.111725          0.204332
 Total kinetic energy from orbitals= 5.373551248325D+02
 Unable to Open any file for archive entry.
 1\1\GINC-GADI-CPU-CLX-0205\SP\RM062X TD-FC\6-311++G(d,p)\C14H11(1+)\TS
 1578\14-Jul-2022\0\\#n M062X/6-311++G(d,p) TD SP pop=reg formcheck\\SP
 _-8\\1,1\C,0,2.4836356709,1.3726358638,0.\C,0,3.6941208535,0.675756618
 8,0.\C,0,3.6839649159,-0.7206512392,0.\C,0,2.4865546451,-1.4093195856,
 0.\C,0,-2.4512653549,-1.3956962782,0.\C,0,-3.7008709479,-0.6933225564,
 0.\C,0,-3.7256350103,0.6883951087,0.\C,0,-2.5129339885,1.3729641362,0.
 \C,0,-0.0068116537,1.4661055232,0.\C,0,0.0256873205,-1.4244479319,0.\C
 ,0,1.2731550841,0.6975885146,0.\C,0,1.2470433812,-0.7251834304,0.\C,0,
 -1.2560028478,0.6773176898,0.\C,0,-1.2341586869,-0.7216545014,0.\H,0,2
 .4904241855,2.4577196594,0.\H,0,4.6319573984,1.2170210956,0.\H,0,4.618
 1365696,-1.2681492942,0.\H,0,2.4822892204,-2.4933851087,0.\H,0,0.02191
 21871,-2.5074058638,0.\H,0,-2.4648907796,-2.4807466188,0.\H,0,-4.62141
 92942,-1.2648665696,0.\H,0,-4.6620763972,1.2286747682,0.\H,0,-2.499615
 8145,2.4584582725,0.\H,0,-0.0378334017,2.1567620681,-0.8635237957\H,0,
 -0.0379154698,2.1567620681,0.8635237957\\Version=ES64L-G16RevC.01\Stat
 e=1-A\HF=-539.7561792\RMSD=8.289e-09\PG=C01 [X(C14H11)]\\@
 The archive entry for this job was punched.


 IF OTHER PEOPLE ARE GOING TO TALK, CONVERSATION IS SIMPLY IMPOSSIBLE.

                                               -- WHISTLER'S PRINCIPLE
 FChkPn:  Coordinates translated and rotated.
 FChkPn:  Coordinates match /B/ after translation and rotation.
 Job cpu time:       0 days  1 hours  8 minutes 47.8 seconds.
 Elapsed time:       0 days  0 hours  8 minutes 40.2 seconds.
 File lengths (MBytes):  RWF=    532 Int=      0 D2E=      0 Chk=     24 Scr=      1
 Normal termination of Gaussian 16 at Thu Jul 14 16:11:22 2022.
