 Entering Gaussian System, Link 0=g16
 Initial command:
 /apps/gaussian/g16c01/g16/l1.exe "/jobfs/53796104.gadi-pbs/Gau-3626331.inp" -scrdir="/jobfs/53796104.gadi-pbs/"
 Entering Link 1 = /apps/gaussian/g16c01/g16/l1.exe PID=   3626332.
  
 Copyright (c) 1988-2019, Gaussian, Inc.  All Rights Reserved.
  
 This is part of the Gaussian(R) 16 program.  It is based on
 the Gaussian(R) 09 system (copyright 2009, Gaussian, Inc.),
 the Gaussian(R) 03 system (copyright 2003, Gaussian, Inc.),
 the Gaussian(R) 98 system (copyright 1998, Gaussian, Inc.),
 the Gaussian(R) 94 system (copyright 1995, Gaussian, Inc.),
 the Gaussian 92(TM) system (copyright 1992, Gaussian, Inc.),
 the Gaussian 90(TM) system (copyright 1990, Gaussian, Inc.),
 the Gaussian 88(TM) system (copyright 1988, Gaussian, Inc.),
 the Gaussian 86(TM) system (copyright 1986, Carnegie Mellon
 University), and the Gaussian 82(TM) system (copyright 1983,
 Carnegie Mellon University). Gaussian is a federally registered
 trademark of Gaussian, Inc.
  
 This software contains proprietary and confidential information,
 including trade secrets, belonging to Gaussian, Inc.
  
 This software is provided under written license and may be
 used, copied, transmitted, or stored only in accord with that
 written license.
  
 The following legend is applicable only to US Government
 contracts under FAR:
  
                    RESTRICTED RIGHTS LEGEND
  
 Use, reproduction and disclosure by the US Government is
 subject to restrictions as set forth in subparagraphs (a)
 and (c) of the Commercial Computer Software - Restricted
 Rights clause in FAR 52.227-19.
  
 Gaussian, Inc.
 340 Quinnipiac St., Bldg. 40, Wallingford CT 06492
  
  
 ---------------------------------------------------------------
 Warning -- This program may not be used in any manner that
 competes with the business of Gaussian, Inc. or will provide
 assistance to any competitor of Gaussian, Inc.  The licensee
 of this program is prohibited from giving any competitor of
 Gaussian, Inc. access to this program.  By using this program,
 the user acknowledges that Gaussian, Inc. is engaged in the
 business of creating and licensing software in the field of
 computational chemistry and represents and warrants to the
 licensee that it is not a competitor of Gaussian, Inc. and that
 it will not use this program in any manner prohibited above.
 ---------------------------------------------------------------
  

 Cite this work as:
 Gaussian 16, Revision C.01,
 M. J. Frisch, G. W. Trucks, H. B. Schlegel, G. E. Scuseria, 
 M. A. Robb, J. R. Cheeseman, G. Scalmani, V. Barone, 
 G. A. Petersson, H. Nakatsuji, X. Li, M. Caricato, A. V. Marenich, 
 J. Bloino, B. G. Janesko, R. Gomperts, B. Mennucci, H. P. Hratchian, 
 J. V. Ortiz, A. F. Izmaylov, J. L. Sonnenberg, D. Williams-Young, 
 F. Ding, F. Lipparini, F. Egidi, J. Goings, B. Peng, A. Petrone, 
 T. Henderson, D. Ranasinghe, V. G. Zakrzewski, J. Gao, N. Rega, 
 G. Zheng, W. Liang, M. Hada, M. Ehara, K. Toyota, R. Fukuda, 
 J. Hasegawa, M. Ishida, T. Nakajima, Y. Honda, O. Kitao, H. Nakai, 
 T. Vreven, K. Throssell, J. A. Montgomery, Jr., J. E. Peralta, 
 F. Ogliaro, M. J. Bearpark, J. J. Heyd, E. N. Brothers, K. N. Kudin, 
 V. N. Staroverov, T. A. Keith, R. Kobayashi, J. Normand, 
 K. Raghavachari, A. P. Rendell, J. C. Burant, S. S. Iyengar, 
 J. Tomasi, M. Cossi, J. M. Millam, M. Klene, C. Adamo, R. Cammi, 
 J. W. Ochterski, R. L. Martin, K. Morokuma, O. Farkas, 
 J. B. Foresman, and D. J. Fox, Gaussian, Inc., Wallingford CT, 2019.
 
 ******************************************
 Gaussian 16:  ES64L-G16RevC.01  3-Jul-2019
                 2-Aug-2022 
 ******************************************
 %NProcShared=48
 Will use up to   48 processors via shared memory.
 %mem = 190GB
 ---------------------------------------------------------------
 #n M062X/6-311++G(d,p) TD(NStates=1) EmpiricalDispersion=GD3 SP
 ---------------------------------------------------------------
 1/38=1,172=1/1;
 2/12=2,17=6,18=5,40=1/2;
 3/5=4,6=6,7=1111,11=9,25=1,30=1,74=-55,124=31/1,2,3,8;
 4//1;
 5/5=2,38=5/2;
 8/6=1,10=2,108=1/1;
 9/41=1,42=1,70=2/14;
 6/7=2,8=2,9=2,10=2/1;
 99/5=1,9=1/99;
 ------
 SP_-25
 ------
 Symbolic Z-matrix:
 Charge =  1 Multiplicity = 1
 C                     2.50341   1.35983   0. 
 C                     3.71408   0.67719   0. 
 C                     3.68746  -0.70478   0. 
 C                     2.45148  -1.40076   0. 
 C                    -2.47488  -1.41441   0. 
 C                    -3.68056  -0.72338   0. 
 C                    -3.68941   0.66661   0. 
 C                    -2.48286   1.36073   0. 
 C                     0.00655   1.45447   0. 
 C                    -0.0183   -1.42924   0. 
 C                     1.25936   0.67134   0. 
 C                     1.22987  -0.72983   0. 
 C                    -1.26483   0.68282   0. 
 C                    -1.24487  -0.73163   0. 
 H                     2.49177   2.44315   0. 
 H                     4.64953   1.21581   0. 
 H                     4.60716  -1.273     0. 
 H                     2.462    -2.48346   0. 
 H                    -0.01688  -2.51029   0. 
 H                    -2.47295  -2.49673   0. 
 H                    -4.61151  -1.27232   0. 
 H                    -4.62455   1.20719   0. 
 H                    -2.48547   2.44382   0. 
 H                     0.024     2.14604  -0.85986 
 H                     0.024     2.14604   0.85986 
 
                          Input orientation:                          
 ---------------------------------------------------------------------
 Center     Atomic      Atomic             Coordinates (Angstroms)
 Number     Number       Type             X           Y           Z
 ---------------------------------------------------------------------
      1          6           0        2.503405    1.359831    0.000000
      2          6           0        3.714083    0.677189    0.000000
      3          6           0        3.687461   -0.704780    0.000000
      4          6           0        2.451481   -1.400763    0.000000
      5          6           0       -2.474881   -1.414413    0.000000
      6          6           0       -3.680561   -0.723380    0.000000
      7          6           0       -3.689408    0.666614    0.000000
      8          6           0       -2.482855    1.360731    0.000000
      9          6           0        0.006550    1.454469    0.000000
     10          6           0       -0.018300   -1.429239    0.000000
     11          6           0        1.259355    0.671340    0.000000
     12          6           0        1.229871   -0.729829    0.000000
     13          6           0       -1.264830    0.682815    0.000000
     14          6           0       -1.244871   -0.731629    0.000000
     15          1           0        2.491771    2.443147    0.000000
     16          1           0        4.649528    1.215814    0.000000
     17          1           0        4.607162   -1.272999    0.000000
     18          1           0        2.462000   -2.483459    0.000000
     19          1           0       -0.016875   -2.510291    0.000000
     20          1           0       -2.472950   -2.496734    0.000000
     21          1           0       -4.611512   -1.272324    0.000000
     22          1           0       -4.624553    1.207189    0.000000
     23          1           0       -2.485471    2.443822    0.000000
     24          1           0        0.024000    2.146037   -0.859860
     25          1           0        0.024000    2.146037    0.859860
 ---------------------------------------------------------------------
                    Distance matrix (angstroms):
                    1          2          3          4          5
     1  C    0.000000
     2  C    1.389871   0.000000
     3  C    2.380044   1.382225   0.000000
     4  C    2.761082   2.431470   1.418464   0.000000
     5  C    5.699102   6.532846   6.203067   4.926381   0.000000
     6  C    6.525427   7.526111   7.368045   6.169342   1.389673
     7  C    6.231491   7.403499   7.503260   6.479550   2.409512
     8  C    4.986260   6.234522   6.506853   5.654513   2.775155
     9  C    2.498648   3.788135   4.267489   3.758994   3.793150
    10  C    3.760041   4.285758   3.775911   2.469945   2.456626
    11  C    1.421858   2.454735   2.790951   2.390560   4.277252
    12  C    2.447155   2.854997   2.457718   1.393730   3.767472
    13  C    3.828570   4.978916   5.143015   4.260547   2.421278
    14  C    4.292293   5.155191   4.932405   3.756429   1.406811
    15  H    1.083378   2.147709   3.367361   3.844121   6.288752
    16  H    2.150950   1.079432   2.148082   3.417292   7.594425
    17  H    3.370102   2.144953   1.081075   2.159464   7.083455
    18  H    3.843513   3.399619   2.159966   1.082747   5.051302
    19  H    4.618404   4.907145   4.120919   2.706258   2.691234
    20  H    6.295808   6.953644   6.415743   5.044916   1.082323
    21  H    7.586190   8.550797   8.318357   7.064161   2.141350
    22  H    7.129592   8.355462   8.529080   7.541331   3.390264
    23  H    5.105284   6.446353   6.929559   6.257342   3.858250
    24  H    2.739512   4.063691   4.720960   4.383128   4.434024
    25  H    2.739512   4.063691   4.720960   4.383128   4.434024
                    6          7          8          9         10
     6  C    0.000000
     7  C    1.390022   0.000000
     8  C    2.403751   1.391966   0.000000
     9  C    4.282267   3.778997   2.491169   0.000000
    10  C    3.729664   4.227249   3.722629   2.883815   0.000000
    11  C    5.133032   4.948765   3.805180   1.477434   2.458625
    12  C    4.910436   5.113644   4.260842   2.503532   1.430771
    13  C    2.795200   2.424632   1.393971   1.487231   2.452470
    14  C    2.435704   2.816176   2.431167   2.518944   1.411076
    15  H    6.937188   6.431411   5.091024   2.674660   4.614740
    16  H    8.552827   8.357002   7.133855   4.649108   5.365158
    17  H    8.305928   8.520280   7.563390   5.348337   4.628100
    18  H    6.389752   6.911062   6.263337   4.640745   2.695045
    19  H    4.076229   4.855947   4.589757   3.964829   1.081053
    20  H    2.145486   3.389180   3.857478   4.664754   2.676724
    21  H    1.080745   2.147034   3.385876   5.363012   4.595892
    22  H    2.149004   1.080147   2.147195   4.637700   5.307383
    23  H    3.385175   2.146610   1.083094   2.681229   4.592117
    24  H    4.764104   4.088698   2.764125   1.103599   3.677465
    25  H    4.764104   4.088698   2.764125   1.103599   3.677465
                   11         12         13         14         15
    11  C    0.000000
    12  C    1.401479   0.000000
    13  C    2.524211   2.866897   0.000000
    14  C    2.870448   2.474743   1.414585   0.000000
    15  H    2.158275   3.414699   4.148593   4.903233   0.000000
    16  H    3.433617   3.934410   5.938326   6.207775   2.482390
    17  H    3.871468   3.420691   6.189144   5.877021   4.276052
    18  H    3.376257   2.143213   4.890251   4.099976   4.926696
    19  H    3.428052   2.173573   3.428311   2.161391   5.552464
    20  H    4.895589   4.102784   3.401336   2.150296   7.003633
    21  H    6.184247   5.866520   3.875932   3.409783   8.016318
    22  H    5.908258   6.166548   3.400398   3.896314   7.222857
    23  H    4.143116   4.886290   2.142688   3.409190   4.977242
    24  H    2.107176   3.234824   2.131070   3.260422   2.630119
    25  H    2.107176   3.234824   2.131070   3.260422   2.630119
                   16         17         18         19         20
    16  H    0.000000
    17  H    2.489174   0.000000
    18  H    4.297662   2.463115   0.000000
    19  H    5.971530   4.786712   2.479020   0.000000
    20  H    8.031980   7.185090   4.934968   2.456112   0.000000
    21  H    9.589457   9.218674   7.176449   4.758493   2.464270
    22  H    9.274085   9.559074   7.990001   5.920334   4.283508
    23  H    7.239904   8.007509   6.982519   5.535088   4.940572
    24  H    4.795851   5.782261   5.302399   4.735232   5.341296
    25  H    4.795851   5.782261   5.302399   4.735232   5.341296
                   21         22         23         24         25
    21  H    0.000000
    22  H    2.479547   0.000000
    23  H    4.281331   2.470816   0.000000
    24  H    5.823446   4.819734   2.669359   0.000000
    25  H    5.823446   4.819734   2.669359   1.719720   0.000000
 Stoichiometry    C14H11(1+)
 Framework group  CS[SG(C14H9),X(H2)]
 Deg. of freedom    46
 Full point group                 CS      NOp   2
 Largest Abelian subgroup         CS      NOp   2
 Largest concise Abelian subgroup CS      NOp   2
                         Standard orientation:                         
 ---------------------------------------------------------------------
 Center     Atomic      Atomic             Coordinates (Angstroms)
 Number     Number       Type             X           Y           Z
 ---------------------------------------------------------------------
      1          6           0        0.022206    2.848563    0.000000
      2          6           0       -1.149778    3.595687    0.000000
      3          6           0       -2.356705    2.921985    0.000000
      4          6           0       -2.389319    1.503897    0.000000
      5          6           0       -0.083530   -2.849558    0.000000
      6          6           0        1.093506   -3.588325    0.000000
      7          6           0        2.324203   -2.942145    0.000000
      8          6           0        2.369015   -1.550901    0.000000
      9          6           0        1.280474    0.689859    0.000000
     10          6           0       -1.252424   -0.688841    0.000000
     11          6           0        0.000000    1.426878    0.000000
     12          6           0       -1.222522    0.741617    0.000000
     13          6           0        1.197744   -0.795069    0.000000
     14          6           0       -0.059755   -1.442948    0.000000
     15          1           0        0.983600    3.347993    0.000000
     16          1           0       -1.114617    4.674547    0.000000
     17          1           0       -3.290818    3.466187    0.000000
     18          1           0       -3.349641    1.003775    0.000000
     19          1           0       -2.207017   -1.196214    0.000000
     20          1           0       -1.039481   -3.357082    0.000000
     21          1           0        1.047126   -4.668074    0.000000
     22          1           0        3.241189   -3.512980    0.000000
     23          1           0        3.325967   -1.043619    0.000000
     24          1           0        1.882505    1.030637    0.859860
     25          1           0        1.882505    1.030637   -0.859860
 ---------------------------------------------------------------------
 Rotational constants (GHZ):           2.1359259           0.4445617           0.3687737
 Standard basis: 6-311++G(d,p) (5D, 7F)
 There are   299 symmetry adapted cartesian basis functions of A'  symmetry.
 There are   100 symmetry adapted cartesian basis functions of A"  symmetry.
 There are   285 symmetry adapted basis functions of A'  symmetry.
 There are   100 symmetry adapted basis functions of A"  symmetry.
   385 basis functions,   603 primitive gaussians,   399 cartesian basis functions
    47 alpha electrons       47 beta electrons
       nuclear repulsion energy       781.1554128269 Hartrees.
 NAtoms=   25 NActive=   25 NUniq=   24 SFac= 1.09D+00 NAtFMM=   60 NAOKFM=F Big=F
 Integral buffers will be    131072 words long.
 Regular integral format.
 Two-electron integral symmetry is turned on.
 Nuclear repulsion after empirical dispersion term =      781.1544333801 Hartrees.
 One-electron integrals computed using PRISM.
 NBasis=   385 RedAO= T EigKep=  1.12D-06  NBF=   285   100
 NBsUse=   379 1.00D-06 EigRej=  8.39D-07 NBFU=   279   100
 ExpMin= 3.60D-02 ExpMax= 4.56D+03 ExpMxC= 6.82D+02 IAcc=3 IRadAn=         5 AccDes= 0.00D+00
 Harris functional with IExCor= 1009 and IRadAn=       5 diagonalized for initial guess.
 HarFok:  IExCor= 1009 AccDes= 0.00D+00 IRadAn=         5 IDoV= 1 UseB2=F ITyADJ=14
 ICtDFT=  3500011 ScaDFX=  1.000000  1.000000  1.000000  1.000000
 FoFCou: FMM=F IPFlag=           0 FMFlag=      100000 FMFlg1=           0
         NFxFlg=           0 DoJE=T BraDBF=F KetDBF=T FulRan=T
         wScrn=  0.000000 ICntrl=       500 IOpCl=  0 I1Cent=   200000004 NGrid=           0
         NMat0=    1 NMatS0=      1 NMatT0=    0 NMatD0=    1 NMtDS0=    0 NMtDT0=    0
 Petite list used in FoFCou.
 Initial guess orbital symmetries:
       Occupied  (A') (A') (A') (A') (A') (A') (A') (A') (A') (A')
                 (A') (A') (A') (A') (A') (A') (A') (A') (A') (A')
                 (A') (A') (A') (A') (A') (A') (A') (A') (A') (A')
                 (A') (A') (A") (A') (A') (A') (A') (A') (A') (A")
                 (A") (A') (A') (A") (A") (A") (A")
       Virtual   (A") (A") (A") (A") (A") (A') (A') (A') (A') (A")
                 (A") (A') (A') (A') (A") (A') (A') (A') (A') (A")
                 (A') (A") (A') (A') (A') (A") (A') (A") (A') (A')
                 (A') (A') (A') (A") (A') (A') (A") (A') (A') (A")
                 (A') (A') (A') (A") (A') (A') (A') (A') (A') (A")
                 (A') (A') (A") (A") (A') (A') (A') (A") (A") (A')
                 (A') (A') (A') (A') (A') (A') (A") (A') (A') (A")
                 (A') (A') (A') (A') (A') (A') (A') (A') (A') (A')
                 (A') (A') (A') (A') (A') (A') (A') (A') (A') (A')
                 (A') (A') (A') (A') (A') (A') (A') (A") (A') (A")
                 (A') (A') (A") (A") (A') (A") (A') (A") (A') (A")
                 (A") (A') (A') (A') (A") (A') (A') (A") (A") (A')
                 (A") (A") (A') (A') (A') (A") (A') (A') (A') (A")
                 (A') (A') (A') (A') (A') (A') (A") (A') (A') (A')
                 (A') (A') (A') (A') (A') (A') (A') (A') (A') (A")
                 (A") (A') (A") (A") (A') (A') (A') (A") (A") (A')
                 (A") (A') (A") (A") (A") (A') (A') (A') (A') (A')
                 (A') (A") (A") (A') (A') (A') (A') (A') (A') (A")
                 (A') (A') (A') (A') (A') (A") (A") (A') (A") (A")
                 (A') (A") (A') (A") (A') (A') (A') (A") (A') (A')
                 (A") (A") (A") (A') (A') (A") (A') (A") (A') (A')
                 (A") (A") (A') (A") (A') (A") (A') (A') (A') (A")
                 (A') (A') (A') (A') (A") (A') (A') (A') (A") (A")
                 (A') (A') (A') (A") (A') (A') (A") (A') (A") (A')
                 (A") (A') (A') (A') (A') (A") (A') (A') (A') (A")
                 (A') (A') (A") (A') (A") (A') (A') (A") (A') (A')
                 (A') (A") (A') (A") (A') (A') (A') (A") (A') (A")
                 (A') (A') (A') (A') (A") (A') (A") (A') (A") (A')
                 (A") (A') (A") (A") (A") (A') (A') (A') (A') (A')
                 (A') (A') (A') (A') (A') (A') (A') (A') (A') (A')
                 (A') (A') (A') (A') (A') (A") (A') (A') (A') (A')
                 (A') (A') (A') (A') (A') (A') (A') (A') (A') (A')
                 (A') (A') (A') (A') (A') (A') (A') (A') (A') (A')
                 (A') (A')
 The electronic state of the initial guess is 1-A'.
 Requested convergence on RMS density matrix=1.00D-08 within 128 cycles.
 Requested convergence on MAX density matrix=1.00D-06.
 Requested convergence on             energy=1.00D-06.
 No special actions if energy rises.
 SCF Done:  E(RM062X) =  -539.759249504     A.U. after   15 cycles
            NFock= 15  Conv=0.68D-08     -V/T= 2.0042
 DoSCS=F DFT=T ScalE2(SS,OS)=  1.000000  1.000000
 ExpMin= 3.60D-02 ExpMax= 4.56D+03 ExpMxC= 6.82D+02 IAcc=3 IRadAn=         5 AccDes= 0.00D+00
 HarFok:  IExCor=  205 AccDes= 0.00D+00 IRadAn=         5 IDoV=-2 UseB2=F ITyADJ=14
 ICtDFT= 12500011 ScaDFX=  1.000000  1.000000  1.000000  1.000000
 Range of M.O.s used for correlation:    15   379
 NBasis=   385 NAE=    47 NBE=    47 NFC=    14 NFV=     0
 NROrb=    365 NOA=    33 NOB=    33 NVA=   332 NVB=   332

 **** Warning!!: The largest alpha MO coefficient is  0.13999841D+03

 Orbital symmetries:
       Occupied  (A') (A') (A') (A') (A') (A') (A') (A') (A') (A')
                 (A') (A') (A') (A') (A') (A') (A') (A') (A') (A')
                 (A') (A') (A') (A') (A') (A') (A') (A') (A') (A')
                 (A') (A') (A") (A') (A') (A') (A') (A") (A") (A')
                 (A') (A') (A') (A") (A") (A") (A")
       Virtual   (A") (A") (A") (A") (A') (A') (A') (A') (A") (A')
                 (A') (A") (A') (A') (A") (A') (A") (A') (A') (A')
                 (A") (A") (A') (A') (A') (A") (A') (A") (A') (A')
                 (A") (A') (A") (A') (A') (A') (A') (A') (A") (A')
                 (A") (A') (A') (A") (A") (A') (A") (A') (A") (A')
                 (A') (A') (A') (A') (A') (A") (A') (A') (A') (A')
                 (A') (A") (A') (A') (A') (A") (A') (A') (A') (A')
                 (A') (A') (A') (A') (A') (A') (A') (A') (A') (A')
                 (A') (A') (A') (A') (A') (A') (A') (A') (A') (A')
                 (A') (A') (A') (A') (A") (A') (A") (A") (A') (A")
                 (A') (A') (A') (A') (A") (A") (A') (A") (A") (A')
                 (A') (A') (A") (A') (A') (A") (A') (A") (A') (A")
                 (A") (A') (A") (A') (A') (A') (A") (A') (A') (A')
                 (A') (A') (A') (A') (A') (A') (A') (A') (A') (A')
                 (A') (A') (A') (A") (A') (A') (A') (A') (A') (A')
                 (A') (A') (A") (A') (A") (A') (A") (A") (A') (A")
                 (A") (A') (A') (A") (A") (A") (A') (A") (A') (A')
                 (A') (A') (A') (A") (A") (A') (A') (A') (A') (A")
                 (A') (A') (A') (A") (A') (A") (A') (A') (A") (A")
                 (A") (A') (A') (A") (A") (A') (A') (A') (A') (A')
                 (A") (A") (A") (A') (A') (A") (A') (A") (A') (A')
                 (A') (A") (A') (A") (A") (A') (A") (A') (A') (A")
                 (A') (A') (A') (A') (A") (A') (A') (A') (A") (A")
                 (A') (A') (A') (A") (A') (A') (A') (A") (A") (A')
                 (A") (A') (A') (A") (A') (A') (A') (A') (A') (A')
                 (A") (A') (A') (A') (A') (A") (A") (A") (A') (A')
                 (A') (A') (A') (A') (A') (A') (A") (A') (A') (A')
                 (A') (A") (A') (A") (A") (A") (A') (A") (A') (A")
                 (A') (A") (A") (A') (A") (A") (A') (A') (A') (A')
                 (A') (A') (A') (A') (A') (A') (A') (A') (A') (A')
                 (A') (A') (A') (A") (A') (A') (A') (A') (A') (A')
                 (A') (A') (A') (A') (A') (A') (A') (A') (A') (A')
                 (A') (A') (A') (A') (A') (A') (A') (A') (A') (A')
                 (A') (A')
     4 initial guesses have been made.
 Convergence on wavefunction:    0.001000000000000
 Iteration     1 Dimension     4 NMult     0 NNew      4
 CISAX will form     4 AO SS matrices at one time.
 Iteration     2 Dimension     6 NMult     4 NNew      2
 Iteration     3 Dimension     8 NMult     6 NNew      2
 Iteration     4 Dimension    10 NMult     8 NNew      2
 Iteration     5 Dimension    12 NMult    10 NNew      2
 Iteration     6 Dimension    14 NMult    12 NNew      2
 ***********************************************************************
 Excited states from <AA,BB:AA,BB> singles matrix:
 ***********************************************************************
 
 Ground to excited state transition densities written to RWF  633
 Ground to excited state transition electric dipole moments (Au):
       state          X           Y           Z        Dip. S.      Osc.
         1         0.5365      0.3069     -0.0000      0.3820      0.0261
 Ground to excited state transition velocity dipole moments (Au):
       state          X           Y           Z        Dip. S.      Osc.
         1        -0.0626     -0.0332     -0.0000      0.0050      0.0327
 Ground to excited state transition magnetic dipole moments (Au):
       state          X           Y           Z
         1         0.0000      0.0000      0.1184
 Ground to excited state transition velocity quadrupole moments (Au):
       state          XX          YY          ZZ          XY          XZ          YZ
         1         0.1300      0.1855     -0.0094     -0.1321      0.0000      0.0000
 <0|del|b> * <b|rxdel|0> + <0|del|b> * <b|delr+rdel|0>
 Rotatory Strengths (R) in cgs (10**-40 erg-esu-cm/Gauss)
       state          XX          YY          ZZ    R(velocity)    E-M Angle
         1        -0.0000     -0.0000     -0.0000     -0.0000       90.00
 1/2[<0|r|b>*<b|rxdel|0> + (<0|rxdel|b>*<b|r|0>)*]
 Rotatory Strengths (R) in cgs (10**-40 erg-esu-cm/Gauss)
       state          XX          YY          ZZ     R(length)
         1        -0.0000     -0.0000      0.0000     -0.0000
  1/2[<0|del|b>*<b|r|0> + (<0|r|b>*<b|del|0>)*] (Au)
       state          X           Y           Z        Dip. S.   Osc.(frdel)
         1        -0.0336     -0.0102      0.0000      0.0438      0.0292

 Excitation energies and oscillator strengths:
 
 Excited State   1:      Singlet-A'     2.7921 eV  444.05 nm  f=0.0261  <S**2>=0.000
      47 -> 48         0.70396
 This state for optimization and/or second-order correction.
 Total Energy, E(TD-HF/TD-DFT) =  -539.656641384    
 Copying the excited state density for this state as the 1-particle RhoCI density.
 SavETr:  write IOETrn=   770 NScale= 10 NData=  16 NLR=1 NState=    1 LETran=      28.

 **********************************************************************

            Population analysis using the SCF Density.

 **********************************************************************

 Orbital symmetries:
       Occupied  (A') (A') (A') (A') (A') (A') (A') (A') (A') (A')
                 (A') (A') (A') (A') (A') (A') (A') (A') (A') (A')
                 (A') (A') (A') (A') (A') (A') (A') (A') (A') (A')
                 (A') (A') (A") (A') (A') (A') (A') (A") (A") (A')
                 (A') (A') (A') (A") (A") (A") (A")
       Virtual   (A") (A") (A") (A") (A') (A') (A') (A') (A") (A')
                 (A') (A") (A') (A') (A") (A') (A") (A') (A') (A')
                 (A") (A") (A') (A') (A') (A") (A') (A") (A') (A')
                 (A") (A') (A") (A') (A') (A') (A') (A') (A") (A')
                 (A") (A') (A') (A") (A") (A') (A") (A') (A") (A')
                 (A') (A') (A') (A') (A') (A") (A') (A') (A') (A')
                 (A') (A") (A') (A') (A') (A") (A') (A') (A') (A')
                 (A') (A') (A') (A') (A') (A') (A') (A') (A') (A')
                 (A') (A') (A') (A') (A') (A') (A') (A') (A') (A')
                 (A') (A') (A') (A') (A") (A') (A") (A") (A') (A")
                 (A') (A') (A') (A') (A") (A") (A') (A") (A") (A')
                 (A') (A') (A") (A') (A') (A") (A') (A") (A') (A")
                 (A") (A') (A") (A') (A') (A') (A") (A') (A') (A')
                 (A') (A') (A') (A') (A') (A') (A') (A') (A') (A')
                 (A') (A') (A') (A") (A') (A') (A') (A') (A') (A')
                 (A') (A') (A") (A') (A") (A') (A") (A") (A') (A")
                 (A") (A') (A') (A") (A") (A") (A') (A") (A') (A')
                 (A') (A') (A') (A") (A") (A') (A') (A') (A') (A")
                 (A') (A') (A') (A") (A') (A") (A') (A') (A") (A")
                 (A") (A') (A') (A") (A") (A') (A') (A') (A') (A')
                 (A") (A") (A") (A') (A') (A") (A') (A") (A') (A')
                 (A') (A") (A') (A") (A") (A') (A") (A') (A') (A")
                 (A') (A') (A') (A') (A") (A') (A') (A') (A") (A")
                 (A') (A') (A') (A") (A') (A') (A') (A") (A") (A')
                 (A") (A') (A') (A") (A') (A') (A') (A') (A') (A')
                 (A") (A') (A') (A') (A') (A") (A") (A") (A') (A')
                 (A') (A') (A') (A') (A') (A') (A") (A') (A') (A')
                 (A') (A") (A') (A") (A") (A") (A') (A") (A') (A")
                 (A') (A") (A") (A') (A") (A") (A') (A') (A') (A')
                 (A') (A') (A') (A') (A') (A') (A') (A') (A') (A')
                 (A') (A') (A') (A") (A') (A') (A') (A') (A') (A')
                 (A') (A') (A') (A') (A') (A') (A') (A') (A') (A')
                 (A') (A') (A') (A') (A') (A') (A') (A') (A') (A')
                 (A') (A')
 The electronic state is 1-A'.
 Alpha  occ. eigenvalues --  -10.77655 -10.73462 -10.73028 -10.72607 -10.72256
 Alpha  occ. eigenvalues --  -10.71571 -10.71396 -10.71159 -10.70983 -10.70624
 Alpha  occ. eigenvalues --  -10.70071 -10.69875 -10.69754 -10.69508  -1.16452
 Alpha  occ. eigenvalues --   -1.12463  -1.06944  -1.05740  -1.01309  -1.00216
 Alpha  occ. eigenvalues --   -0.95747  -0.91050  -0.86421  -0.85898  -0.83808
 Alpha  occ. eigenvalues --   -0.78388  -0.76041  -0.74409  -0.69603  -0.69257
 Alpha  occ. eigenvalues --   -0.68469  -0.68168  -0.68102  -0.64842  -0.64265
 Alpha  occ. eigenvalues --   -0.62992  -0.61823  -0.60126  -0.59564  -0.59106
 Alpha  occ. eigenvalues --   -0.56902  -0.55231  -0.54781  -0.52439  -0.46743
 Alpha  occ. eigenvalues --   -0.46077  -0.44368
 Alpha virt. eigenvalues --   -0.26093  -0.14668  -0.14095  -0.12772  -0.11180
 Alpha virt. eigenvalues --   -0.10086  -0.09235  -0.07979  -0.07964  -0.07477
 Alpha virt. eigenvalues --   -0.07203  -0.07143  -0.05644  -0.05580  -0.05335
 Alpha virt. eigenvalues --   -0.03830  -0.03649  -0.03278  -0.03133  -0.02164
 Alpha virt. eigenvalues --   -0.01364  -0.00934   0.00192   0.00593   0.00656
 Alpha virt. eigenvalues --    0.01059   0.01512   0.01940   0.02204   0.02294
 Alpha virt. eigenvalues --    0.02450   0.02670   0.02753   0.03301   0.03395
 Alpha virt. eigenvalues --    0.04238   0.04503   0.04701   0.05033   0.05369
 Alpha virt. eigenvalues --    0.06032   0.06294   0.06593   0.07044   0.07258
 Alpha virt. eigenvalues --    0.07894   0.08147   0.08359   0.08554   0.08926
 Alpha virt. eigenvalues --    0.09530   0.09571   0.10026   0.10860   0.11014
 Alpha virt. eigenvalues --    0.11119   0.12158   0.12246   0.12862   0.12995
 Alpha virt. eigenvalues --    0.13420   0.13525   0.14009   0.14375   0.16116
 Alpha virt. eigenvalues --    0.16365   0.16369   0.17343   0.17598   0.17798
 Alpha virt. eigenvalues --    0.18121   0.19069   0.19272   0.19626   0.19766
 Alpha virt. eigenvalues --    0.21534   0.21606   0.22715   0.23116   0.23557
 Alpha virt. eigenvalues --    0.23837   0.24572   0.25357   0.26924   0.27605
 Alpha virt. eigenvalues --    0.28845   0.29286   0.29867   0.31355   0.35805
 Alpha virt. eigenvalues --    0.36430   0.38188   0.39276   0.41139   0.41386
 Alpha virt. eigenvalues --    0.41962   0.42192   0.42984   0.43682   0.44310
 Alpha virt. eigenvalues --    0.44899   0.45061   0.46031   0.46233   0.47944
 Alpha virt. eigenvalues --    0.48507   0.48849   0.49030   0.50439   0.51134
 Alpha virt. eigenvalues --    0.51455   0.51802   0.52120   0.52875   0.54001
 Alpha virt. eigenvalues --    0.54095   0.54633   0.55676   0.55790   0.57502
 Alpha virt. eigenvalues --    0.58237   0.58837   0.61450   0.62208   0.62356
 Alpha virt. eigenvalues --    0.63202   0.63488   0.64951   0.65153   0.67277
 Alpha virt. eigenvalues --    0.70409   0.70579   0.71056   0.72426   0.72873
 Alpha virt. eigenvalues --    0.75733   0.76029   0.76311   0.76868   0.77103
 Alpha virt. eigenvalues --    0.77845   0.77894   0.78239   0.79890   0.80393
 Alpha virt. eigenvalues --    0.81241   0.81625   0.82193   0.83008   0.85189
 Alpha virt. eigenvalues --    0.87138   0.88167   0.88513   0.89157   0.90453
 Alpha virt. eigenvalues --    0.91069   0.91286   0.93208   0.94622   0.96397
 Alpha virt. eigenvalues --    0.96709   1.00370   1.01277   1.01661   1.02732
 Alpha virt. eigenvalues --    1.03208   1.03616   1.04758   1.05659   1.08780
 Alpha virt. eigenvalues --    1.19555   1.23214   1.24076   1.25062   1.28180
 Alpha virt. eigenvalues --    1.29626   1.31850   1.34310   1.35762   1.35995
 Alpha virt. eigenvalues --    1.39342   1.40063   1.40935   1.43015   1.43488
 Alpha virt. eigenvalues --    1.43508   1.44680   1.45911   1.46361   1.46662
 Alpha virt. eigenvalues --    1.47650   1.48036   1.51727   1.53632   1.55738
 Alpha virt. eigenvalues --    1.55815   1.56338   1.56579   1.57779   1.61440
 Alpha virt. eigenvalues --    1.63223   1.63420   1.63896   1.66101   1.68305
 Alpha virt. eigenvalues --    1.68347   1.68700   1.69756   1.74386   1.75992
 Alpha virt. eigenvalues --    1.77162   1.78054   1.79967   1.80103   1.80734
 Alpha virt. eigenvalues --    1.83091   1.83208   1.83606   1.83829   1.84172
 Alpha virt. eigenvalues --    1.84328   1.85740   1.86180   1.88244   1.91387
 Alpha virt. eigenvalues --    1.92078   1.94111   1.95215   1.97704   1.98149
 Alpha virt. eigenvalues --    1.99745   2.02392   2.04419   2.07269   2.11795
 Alpha virt. eigenvalues --    2.12070   2.14132   2.15229   2.19085   2.21226
 Alpha virt. eigenvalues --    2.22784   2.28608   2.30154   2.34607   2.34915
 Alpha virt. eigenvalues --    2.36245   2.38670   2.39611   2.42362   2.44695
 Alpha virt. eigenvalues --    2.46153   2.46470   2.49328   2.52908   2.53797
 Alpha virt. eigenvalues --    2.54220   2.56814   2.57851   2.58321   2.59588
 Alpha virt. eigenvalues --    2.59846   2.61588   2.62130   2.63539   2.63777
 Alpha virt. eigenvalues --    2.64787   2.65102   2.65162   2.65401   2.67931
 Alpha virt. eigenvalues --    2.68499   2.70948   2.71424   2.73348   2.74816
 Alpha virt. eigenvalues --    2.76300   2.78688   2.79704   2.82880   2.83081
 Alpha virt. eigenvalues --    2.84874   2.86277   2.92108   2.97025   2.99488
 Alpha virt. eigenvalues --    3.00069   3.05046   3.10698   3.11377   3.13331
 Alpha virt. eigenvalues --    3.20913   3.23320   3.26654   3.28324   3.30666
 Alpha virt. eigenvalues --    3.32794   3.33856   3.43493   3.45959   3.46593
 Alpha virt. eigenvalues --    3.48455   3.50103   3.56456   3.65970   3.66818
 Alpha virt. eigenvalues --    3.67500   3.94141   3.94390   3.95283   3.96255
 Alpha virt. eigenvalues --    4.03995   4.06808   4.07520   4.12548   4.35458
 Alpha virt. eigenvalues --    4.61232   4.69700   4.71547  23.45324  23.60441
 Alpha virt. eigenvalues --   23.81846  23.84840  23.87297  23.89105  23.90832
 Alpha virt. eigenvalues --   23.93286  23.96954  23.98421  24.00731  24.01997
 Alpha virt. eigenvalues --   24.10638  24.11051
          Condensed to atoms (all electrons):
               1          2          3          4          5          6
     1  C    8.736490   0.188556  -0.482676   2.108409  -0.051799  -0.100105
     2  C    0.188556   7.151356   0.313340  -1.130442  -0.005568  -0.013964
     3  C   -0.482676   0.313340   6.587894   0.790452  -0.130539   0.016912
     4  C    2.108409  -1.130442   0.790452  10.878711  -0.372807  -0.119147
     5  C   -0.051799  -0.005568  -0.130539  -0.372807  11.219604   0.744625
     6  C   -0.100105  -0.013964   0.016912  -0.119147   0.744625   6.593930
     7  C   -0.011134   0.001170  -0.014850  -0.027619  -1.042772   0.386382
     8  C    0.404574  -0.024254  -0.091246  -0.017524   1.889769  -0.591954
     9  C   -1.148688  -0.790212   0.294445  -0.305236  -0.115926   0.295259
    10  C   -1.330375   0.291230  -0.389249  -2.498199  -2.666660  -0.316692
    11  C    0.300042  -0.947463   1.054732  -0.286355  -1.544227  -0.197405
    12  C   -2.289045   1.509286  -1.439820  -1.621160  -0.386828  -0.164622
    13  C    0.235222  -0.264287  -0.149062  -1.470130  -0.283890   0.958992
    14  C   -1.061211  -0.148515  -0.234902  -0.283807  -1.619512  -1.371024
    15  H    0.368542  -0.107007  -0.000353   0.028553   0.005300   0.001049
    16  H   -0.018397   0.377022  -0.014760   0.012093  -0.001466  -0.000316
    17  H   -0.027981  -0.013026   0.372118  -0.067324   0.000394   0.000394
    18  H    0.051867   0.002566  -0.084649   0.456241   0.006153  -0.005153
    19  H   -0.047677  -0.007519   0.051345  -0.066241  -0.074319   0.051137
    20  H    0.007182   0.002066  -0.005045   0.006196   0.461263  -0.084443
    21  H   -0.001351  -0.000390   0.000405   0.000241  -0.068778   0.377647
    22  H    0.000850   0.000382  -0.000341  -0.001611   0.015066  -0.018813
    23  H    0.005353  -0.002770   0.001159   0.006061   0.026515  -0.002209
    24  H    0.030875   0.013865  -0.001659  -0.012637  -0.011844  -0.001451
    25  H    0.030875   0.013865  -0.001659  -0.012637  -0.011844  -0.001451
               7          8          9         10         11         12
     1  C   -0.011134   0.404574  -1.148688  -1.330375   0.300042  -2.289045
     2  C    0.001170  -0.024254  -0.790212   0.291230  -0.947463   1.509286
     3  C   -0.014850  -0.091246   0.294445  -0.389249   1.054732  -1.439820
     4  C   -0.027619  -0.017524  -0.305236  -2.498199  -0.286355  -1.621160
     5  C   -1.042772   1.889769  -0.115926  -2.666660  -1.544227  -0.386828
     6  C    0.386382  -0.591954   0.295259  -0.316692  -0.197405  -0.164622
     7  C    7.150928   0.405828  -0.825517   0.211388  -0.226524  -0.238879
     8  C    0.405828   8.490638  -1.159569  -1.249341   0.203181  -1.105777
     9  C   -0.825517  -1.159569   9.593328   0.259483   1.558725  -1.848823
    10  C    0.211388  -1.249341   0.259483   9.148102  -0.469840   2.446508
    11  C   -0.226524   0.203181   1.558725  -0.469840  14.417995  -3.600618
    12  C   -0.238879  -1.105777  -1.848823   2.446508  -3.600618  15.992586
    13  C   -0.863257   0.310854   1.622353  -0.396587   1.091242  -4.814581
    14  C    1.218720  -1.960181  -2.008296   2.409839  -4.771110   3.102062
    15  H   -0.002525   0.006111   0.093008  -0.010340  -0.031549  -0.029496
    16  H    0.000347   0.000580   0.003762  -0.008838   0.026602  -0.033489
    17  H   -0.000409  -0.001279  -0.006056   0.020540  -0.027655   0.094664
    18  H    0.002038   0.007125  -0.025435   0.013600  -0.005140  -0.058927
    19  H   -0.007900  -0.045575   0.075462   0.421982   0.079355  -0.057079
    20  H    0.003207   0.049028  -0.023988   0.010632  -0.012071  -0.017012
    21  H   -0.019177  -0.022618  -0.005342   0.020306  -0.006297   0.005275
    22  H    0.380858  -0.019782   0.002855  -0.009829   0.003221  -0.009651
    23  H   -0.106033   0.367182   0.089680  -0.008882  -0.000653   0.007044
    24  H    0.015132   0.035088   0.356161   0.005349   0.008807  -0.060385
    25  H    0.015132   0.035088   0.356161   0.005349   0.008807  -0.060385
              13         14         15         16         17         18
     1  C    0.235222  -1.061211   0.368542  -0.018397  -0.027981   0.051867
     2  C   -0.264287  -0.148515  -0.107007   0.377022  -0.013026   0.002566
     3  C   -0.149062  -0.234902  -0.000353  -0.014760   0.372118  -0.084649
     4  C   -1.470130  -0.283807   0.028553   0.012093  -0.067324   0.456241
     5  C   -0.283890  -1.619512   0.005300  -0.001466   0.000394   0.006153
     6  C    0.958992  -1.371024   0.001049  -0.000316   0.000394  -0.005153
     7  C   -0.863257   1.218720  -0.002525   0.000347  -0.000409   0.002038
     8  C    0.310854  -1.960181   0.006111   0.000580  -0.001279   0.007125
     9  C    1.622353  -2.008296   0.093008   0.003762  -0.006056  -0.025435
    10  C   -0.396587   2.409839  -0.010340  -0.008838   0.020540   0.013600
    11  C    1.091242  -4.771110  -0.031549   0.026602  -0.027655  -0.005140
    12  C   -4.814581   3.102062  -0.029496  -0.033489   0.094664  -0.058927
    13  C   14.512637  -3.908845   0.003762   0.002842  -0.006285  -0.011952
    14  C   -3.908845  16.152735   0.005905  -0.008505   0.005349  -0.011575
    15  H    0.003762   0.005905   0.441319  -0.009008   0.001373   0.000131
    16  H    0.002842  -0.008505  -0.009008   0.420776  -0.006380   0.001906
    17  H   -0.006285   0.005349   0.001373  -0.006380   0.423492  -0.010348
    18  H   -0.011952  -0.011575   0.000131   0.001906  -0.010348   0.455951
    19  H    0.076927  -0.074204   0.000270  -0.000514   0.001293  -0.006453
    20  H   -0.007842  -0.051381  -0.000108   0.000013  -0.000133   0.001260
    21  H   -0.026716   0.089571   0.000012  -0.000007   0.000010  -0.000153
    22  H    0.026117  -0.032085  -0.000129   0.000007  -0.000007   0.000017
    23  H   -0.029726  -0.019620   0.000573  -0.000126   0.000015  -0.000118
    24  H    0.018388  -0.060047  -0.000898   0.000633  -0.000146   0.000200
    25  H    0.018388  -0.060047  -0.000898   0.000633  -0.000146   0.000200
              19         20         21         22         23         24
     1  C   -0.047677   0.007182  -0.001351   0.000850   0.005353   0.030875
     2  C   -0.007519   0.002066  -0.000390   0.000382  -0.002770   0.013865
     3  C    0.051345  -0.005045   0.000405  -0.000341   0.001159  -0.001659
     4  C   -0.066241   0.006196   0.000241  -0.001611   0.006061  -0.012637
     5  C   -0.074319   0.461263  -0.068778   0.015066   0.026515  -0.011844
     6  C    0.051137  -0.084443   0.377647  -0.018813  -0.002209  -0.001451
     7  C   -0.007900   0.003207  -0.019177   0.380858  -0.106033   0.015132
     8  C   -0.045575   0.049028  -0.022618  -0.019782   0.367182   0.035088
     9  C    0.075462  -0.023988  -0.005342   0.002855   0.089680   0.356161
    10  C    0.421982   0.010632   0.020306  -0.009829  -0.008882   0.005349
    11  C    0.079355  -0.012071  -0.006297   0.003221  -0.000653   0.008807
    12  C   -0.057079  -0.017012   0.005275  -0.009651   0.007044  -0.060385
    13  C    0.076927  -0.007842  -0.026716   0.026117  -0.029726   0.018388
    14  C   -0.074204  -0.051381   0.089571  -0.032085  -0.019620  -0.060047
    15  H    0.000270  -0.000108   0.000012  -0.000129   0.000573  -0.000898
    16  H   -0.000514   0.000013  -0.000007   0.000007  -0.000126   0.000633
    17  H    0.001293  -0.000133   0.000010  -0.000007   0.000015  -0.000146
    18  H   -0.006453   0.001260  -0.000153   0.000017  -0.000118   0.000200
    19  H    0.442909  -0.005998   0.001544  -0.000568   0.000350   0.000592
    20  H   -0.005998   0.451471  -0.010198   0.001942   0.000206   0.000165
    21  H    0.001544  -0.010198   0.421361  -0.006847   0.001557  -0.000139
    22  H   -0.000568   0.001942  -0.006847   0.418105  -0.008998   0.000630
    23  H    0.000350   0.000206   0.001557  -0.008998   0.436947  -0.000923
    24  H    0.000592   0.000165  -0.000139   0.000630  -0.000923   0.493681
    25  H    0.000592   0.000165  -0.000139   0.000630  -0.000923  -0.079392
              25
     1  C    0.030875
     2  C    0.013865
     3  C   -0.001659
     4  C   -0.012637
     5  C   -0.011844
     6  C   -0.001451
     7  C    0.015132
     8  C    0.035088
     9  C    0.356161
    10  C    0.005349
    11  C    0.008807
    12  C   -0.060385
    13  C    0.018388
    14  C   -0.060047
    15  H   -0.000898
    16  H    0.000633
    17  H   -0.000146
    18  H    0.000200
    19  H    0.000592
    20  H    0.000165
    21  H   -0.000139
    22  H    0.000630
    23  H   -0.000923
    24  H   -0.079392
    25  H    0.493681
 Mulliken charges:
               1
     1  C    0.101602
     2  C   -0.409288
     3  C   -0.441994
     4  C    0.005917
     5  C    0.020090
     6  C   -0.437578
     7  C   -0.404535
     8  C    0.084053
     9  C   -0.337597
    10  C    0.090525
    11  C   -0.625802
    12  C    0.679151
    13  C   -0.644561
    14  C    0.700685
    15  H    0.236404
    16  H    0.254586
    17  H    0.247533
    18  H    0.220650
    19  H    0.190289
    20  H    0.223424
    21  H    0.250224
    22  H    0.257979
    23  H    0.238337
    24  H    0.249953
    25  H    0.249953
 Sum of Mulliken charges =   1.00000
 Mulliken charges with hydrogens summed into heavy atoms:
               1
     1  C    0.338006
     2  C   -0.154701
     3  C   -0.194461
     4  C    0.226567
     5  C    0.243514
     6  C   -0.187353
     7  C   -0.146557
     8  C    0.322389
     9  C    0.162310
    10  C    0.280814
    11  C   -0.625802
    12  C    0.679151
    13  C   -0.644561
    14  C    0.700685
 Electronic spatial extent (au):  <R**2>=           2856.2858
 Charge=              1.0000 electrons
 Dipole moment (field-independent basis, Debye):
    X=              0.0335    Y=             -0.4582    Z=             -0.0000  Tot=              0.4594
 Quadrupole moment (field-independent basis, Debye-Ang):
   XX=            -50.8633   YY=            -36.4974   ZZ=            -84.1404
   XY=            -10.3381   XZ=             -0.0000   YZ=             -0.0000
 Traceless Quadrupole moment (field-independent basis, Debye-Ang):
   XX=              6.3037   YY=             20.6697   ZZ=            -26.9734
   XY=            -10.3381   XZ=             -0.0000   YZ=             -0.0000
 Octapole moment (field-independent basis, Debye-Ang**2):
  XXX=              1.0663  YYY=              1.5529  ZZZ=              0.0000  XYY=              1.4476
  XXY=             -6.3386  XXZ=             -0.0000  XZZ=              3.0159  YZZ=              0.9172
  YYZ=             -0.0000  XYZ=             -0.0000
 Hexadecapole moment (field-independent basis, Debye-Ang**3):
 XXXX=           -994.4097 YYYY=          -1844.7658 ZZZZ=            -99.3292 XXXY=            349.4995
 XXXZ=             -0.0000 YYYX=            276.2023 YYYZ=             -0.0000 ZZZX=              0.0000
 ZZZY=              0.0000 XXYY=           -454.0559 XXZZ=           -243.1133 YYZZ=           -493.4176
 XXYZ=             -0.0000 YYXZ=             -0.0000 ZZXY=            184.0259
 N-N= 7.811544333801D+02 E-N=-2.798651222801D+03  KE= 5.375069474235D+02
 Symmetry A'   KE= 5.228587559408D+02
 Symmetry A"   KE= 1.464819148264D+01
 Unable to Open any file for archive entry.
 1\1\GINC-GADI-CPU-CLX-1762\SP\RM062X TD-FC\6-311++G(d,p)\C14H11(1+)\TS
 1578\02-Aug-2022\0\\#n M062X/6-311++G(d,p) TD(NStates=1) EmpiricalDisp
 ersion=GD3 SP\\SP_-25\\1,1\C,0,2.503405,1.359831,0.\C,0,3.714083,0.677
 189,0.\C,0,3.687461,-0.70478,0.\C,0,2.451481,-1.400763,0.\C,0,-2.47488
 1,-1.414413,0.\C,0,-3.680561,-0.72338,0.\C,0,-3.689408,0.666614,0.\C,0
 ,-2.482855,1.360731,0.\C,0,0.00655,1.454469,0.\C,0,-0.0183,-1.429239,0
 .\C,0,1.259355,0.67134,0.\C,0,1.229871,-0.729829,0.\C,0,-1.26483,0.682
 815,0.\C,0,-1.244871,-0.731629,0.\H,0,2.491771,2.443147,0.\H,0,4.64952
 8,1.215814,0.\H,0,4.607162,-1.272999,0.\H,0,2.462,-2.483459,0.\H,0,-0.
 016875,-2.510291,0.\H,0,-2.47295,-2.496734,0.\H,0,-4.611512,-1.272324,
 0.\H,0,-4.624553,1.207189,0.\H,0,-2.485471,2.443822,0.\H,0,0.024,2.146
 037,-0.85986\H,0,0.024,2.146037,0.85986\\Version=ES64L-G16RevC.01\Stat
 e=1-A'\HF=-539.7592495\RMSD=6.822e-09\PG=CS [SG(C14H9),X(H2)]\\@
 The archive entry for this job was punched.


 KNOWLEDGE IS EXPERIMENT'S DAUGHTER.
 -- LEONARDO DA VINCI, IN "PENSIERI" CA. 1492
 Job cpu time:       0 days  0 hours 51 minutes 58.8 seconds.
 Elapsed time:       0 days  0 hours  1 minutes  5.1 seconds.
 File lengths (MBytes):  RWF=    460 Int=      0 D2E=      0 Chk=     15 Scr=      1
 Normal termination of Gaussian 16 at Tue Aug  2 11:54:35 2022.
