 Entering Gaussian System, Link 0=g16
 Initial command:
 /apps/gaussian/g16c01/g16/l1.exe "/jobfs/53796104.gadi-pbs/Gau-3594772.inp" -scrdir="/jobfs/53796104.gadi-pbs/"
 Entering Link 1 = /apps/gaussian/g16c01/g16/l1.exe PID=   3594773.
  
 Copyright (c) 1988-2019, Gaussian, Inc.  All Rights Reserved.
  
 This is part of the Gaussian(R) 16 program.  It is based on
 the Gaussian(R) 09 system (copyright 2009, Gaussian, Inc.),
 the Gaussian(R) 03 system (copyright 2003, Gaussian, Inc.),
 the Gaussian(R) 98 system (copyright 1998, Gaussian, Inc.),
 the Gaussian(R) 94 system (copyright 1995, Gaussian, Inc.),
 the Gaussian 92(TM) system (copyright 1992, Gaussian, Inc.),
 the Gaussian 90(TM) system (copyright 1990, Gaussian, Inc.),
 the Gaussian 88(TM) system (copyright 1988, Gaussian, Inc.),
 the Gaussian 86(TM) system (copyright 1986, Carnegie Mellon
 University), and the Gaussian 82(TM) system (copyright 1983,
 Carnegie Mellon University). Gaussian is a federally registered
 trademark of Gaussian, Inc.
  
 This software contains proprietary and confidential information,
 including trade secrets, belonging to Gaussian, Inc.
  
 This software is provided under written license and may be
 used, copied, transmitted, or stored only in accord with that
 written license.
  
 The following legend is applicable only to US Government
 contracts under FAR:
  
                    RESTRICTED RIGHTS LEGEND
  
 Use, reproduction and disclosure by the US Government is
 subject to restrictions as set forth in subparagraphs (a)
 and (c) of the Commercial Computer Software - Restricted
 Rights clause in FAR 52.227-19.
  
 Gaussian, Inc.
 340 Quinnipiac St., Bldg. 40, Wallingford CT 06492
  
  
 ---------------------------------------------------------------
 Warning -- This program may not be used in any manner that
 competes with the business of Gaussian, Inc. or will provide
 assistance to any competitor of Gaussian, Inc.  The licensee
 of this program is prohibited from giving any competitor of
 Gaussian, Inc. access to this program.  By using this program,
 the user acknowledges that Gaussian, Inc. is engaged in the
 business of creating and licensing software in the field of
 computational chemistry and represents and warrants to the
 licensee that it is not a competitor of Gaussian, Inc. and that
 it will not use this program in any manner prohibited above.
 ---------------------------------------------------------------
  

 Cite this work as:
 Gaussian 16, Revision C.01,
 M. J. Frisch, G. W. Trucks, H. B. Schlegel, G. E. Scuseria, 
 M. A. Robb, J. R. Cheeseman, G. Scalmani, V. Barone, 
 G. A. Petersson, H. Nakatsuji, X. Li, M. Caricato, A. V. Marenich, 
 J. Bloino, B. G. Janesko, R. Gomperts, B. Mennucci, H. P. Hratchian, 
 J. V. Ortiz, A. F. Izmaylov, J. L. Sonnenberg, D. Williams-Young, 
 F. Ding, F. Lipparini, F. Egidi, J. Goings, B. Peng, A. Petrone, 
 T. Henderson, D. Ranasinghe, V. G. Zakrzewski, J. Gao, N. Rega, 
 G. Zheng, W. Liang, M. Hada, M. Ehara, K. Toyota, R. Fukuda, 
 J. Hasegawa, M. Ishida, T. Nakajima, Y. Honda, O. Kitao, H. Nakai, 
 T. Vreven, K. Throssell, J. A. Montgomery, Jr., J. E. Peralta, 
 F. Ogliaro, M. J. Bearpark, J. J. Heyd, E. N. Brothers, K. N. Kudin, 
 V. N. Staroverov, T. A. Keith, R. Kobayashi, J. Normand, 
 K. Raghavachari, A. P. Rendell, J. C. Burant, S. S. Iyengar, 
 J. Tomasi, M. Cossi, J. M. Millam, M. Klene, C. Adamo, R. Cammi, 
 J. W. Ochterski, R. L. Martin, K. Morokuma, O. Farkas, 
 J. B. Foresman, and D. J. Fox, Gaussian, Inc., Wallingford CT, 2019.
 
 ******************************************
 Gaussian 16:  ES64L-G16RevC.01  3-Jul-2019
                 2-Aug-2022 
 ******************************************
 %NProcShared=48
 Will use up to   48 processors via shared memory.
 %mem = 190GB
 ---------------------------------------------------------------
 #n M062X/6-311++G(d,p) TD(NStates=1) EmpiricalDispersion=GD3 SP
 ---------------------------------------------------------------
 1/38=1,172=1/1;
 2/12=2,17=6,18=5,40=1/2;
 3/5=4,6=6,7=1111,11=9,25=1,30=1,74=-55,124=31/1,2,3,8;
 4//1;
 5/5=2,38=5/2;
 8/6=1,10=2,108=1/1;
 9/41=1,42=1,70=2/14;
 6/7=2,8=2,9=2,10=2/1;
 99/5=1,9=1/99;
 -------
 SP_-125
 -------
 Symbolic Z-matrix:
 Charge =  1 Multiplicity = 1
 C                     2.51911   1.35953   0. 
 C                     3.73393   0.68626   0. 
 C                     3.69276  -0.68853   0. 
 C                     2.43191  -1.38924   0. 
 C                    -2.49431  -1.42564   0. 
 C                    -3.67436  -0.73813   0. 
 C                    -3.66813   0.65806   0. 
 C                    -2.46431   1.36193   0. 
 C                     0.01753   1.45117   0. 
 C                    -0.0488   -1.42909   0. 
 C                     1.25468   0.66174   0. 
 C                     1.21767  -0.72855   0. 
 C                    -1.26928   0.69234   0. 
 C                    -1.25767  -0.73335   0. 
 H                     2.49537   2.44307   0. 
 H                     4.66948   1.22356   0. 
 H                     4.60331  -1.27262   0. 
 H                     2.4531   -2.47228   0. 
 H                    -0.045    -2.51022   0. 
 H                    -2.4823   -2.50768   0. 
 H                    -4.61491  -1.27082   0. 
 H                    -4.60288   1.20056   0. 
 H                    -2.47857   2.44487   0. 
 H                     0.064     2.14529  -0.85904 
 H                     0.064     2.14529   0.85904 
 
                          Input orientation:                          
 ---------------------------------------------------------------------
 Center     Atomic      Atomic             Coordinates (Angstroms)
 Number     Number       Type             X           Y           Z
 ---------------------------------------------------------------------
      1          6           0        2.519105    1.359531    0.000000
      2          6           0        3.733933    0.686264    0.000000
      3          6           0        3.692761   -0.688530    0.000000
      4          6           0        2.431906   -1.389238    0.000000
      5          6           0       -2.494306   -1.425638    0.000000
      6          6           0       -3.674361   -0.738130    0.000000
      7          6           0       -3.668133    0.658064    0.000000
      8          6           0       -2.464305    1.361931    0.000000
      9          6           0        0.017525    1.451169    0.000000
     10          6           0       -0.048800   -1.429089    0.000000
     11          6           0        1.254680    0.661740    0.000000
     12          6           0        1.217671   -0.728554    0.000000
     13          6           0       -1.269280    0.692340    0.000000
     14          6           0       -1.257671   -0.733354    0.000000
     15          1           0        2.495371    2.443072    0.000000
     16          1           0        4.669478    1.223564    0.000000
     17          1           0        4.603312   -1.272624    0.000000
     18          1           0        2.453100   -2.472284    0.000000
     19          1           0       -0.045000   -2.510216    0.000000
     20          1           0       -2.482300   -2.507684    0.000000
     21          1           0       -4.614912   -1.270824    0.000000
     22          1           0       -4.602878    1.200564    0.000000
     23          1           0       -2.478571    2.444872    0.000000
     24          1           0        0.064000    2.145287   -0.859035
     25          1           0        0.064000    2.145287    0.859035
 ---------------------------------------------------------------------
                    Distance matrix (angstroms):
                    1          2          3          4          5
     1  C    0.000000
     2  C    1.388919   0.000000
     3  C    2.360513   1.375410   0.000000
     4  C    2.750152   2.450099   1.442479   0.000000
     5  C    5.735107   6.576556   6.230821   4.926346   0.000000
     6  C    6.539052   7.543986   7.367289   6.140883   1.365722
     7  C    6.226875   7.402120   7.483053   6.434432   2.391586
     8  C    4.983411   6.234956   6.489519   5.616210   2.787730
     9  C    2.503258   3.794307   4.252725   3.727888   3.819072
    10  C    3.790849   4.334027   3.814146   2.481026   2.445508
    11  C    1.444189   2.479374   2.787018   2.364820   4.290926
    12  C    2.460453   2.886743   2.475414   1.382342   3.776864
    13  C    3.846688   5.003217   5.150597   4.246380   2.446737
    14  C    4.317894   5.189550   4.950635   3.747421   1.417224
    15  H    1.083801   2.149514   3.352711   3.832835   6.313778
    16  H    2.154667   1.078859   2.147110   3.439980   7.637936
    17  H    3.357404   2.143143   1.081790   2.174535   7.099267
    18  H    3.832383   3.408366   2.172220   1.083253   5.056906
    19  H    4.642152   4.949527   4.158052   2.718760   2.678695
    20  H    6.322136   6.988766   6.437445   5.039875   1.082113
    21  H    7.603484   8.575162   8.328055   7.047813   2.126250
    22  H    7.123757   8.352660   8.508014   7.496350   3.367939
    23  H    5.114170   6.456617   6.921239   6.230023   3.870542
    24  H    2.717148   4.041670   4.683627   4.340252   4.475978
    25  H    2.717148   4.041670   4.683627   4.340252   4.475978
                    6          7          8          9         10
     6  C    0.000000
     7  C    1.396208   0.000000
     8  C    2.423735   1.394500   0.000000
     9  C    4.292208   3.770025   2.483434   0.000000
    10  C    3.690815   4.178011   3.691132   2.881022   0.000000
    11  C    5.123971   4.922814   3.784325   1.467566   2.463864
    12  C    4.892041   5.078759   4.234038   2.488281   1.447307
    13  C    2.798331   2.399098   1.369831   1.493884   2.447454
    14  C    2.416695   2.783230   2.417889   2.529479   1.394782
    15  H    6.941588   6.416778   5.076145   2.669006   4.633189
    16  H    8.571341   8.356767   7.135125   4.657518   5.412829
    17  H    8.294911   8.493784   7.542685   5.333713   4.654742
    18  H    6.368129   6.875214   6.235549   4.617955   2.710675
    19  H    4.038880   4.813013   4.565803   3.961878   1.081134
    20  H    2.133619   3.380556   3.869657   4.682055   2.661821
    21  H    1.080925   2.148720   3.399487   5.372962   4.568854
    22  H    2.149576   1.080766   2.144652   4.627194   5.258774
    23  H    3.400208   2.146565   1.083035   2.686623   4.572894
    24  H    4.798685   4.108356   2.782789   1.105396   3.677884
    25  H    4.798685   4.108356   2.782789   1.105396   3.677884
                   11         12         13         14         15
    11  C    0.000000
    12  C    1.390786   0.000000
    13  C    2.524145   2.864239   0.000000
    14  C    2.873708   2.475347   1.425741   0.000000
    15  H    2.170820   3.419317   4.151826   4.916809   0.000000
    16  H    3.460707   3.965569   5.962470   6.241845   2.492778
    17  H    3.867182   3.429078   6.192610   5.885740   4.271980
    18  H    3.355342   2.137026   4.885791   4.098012   4.915538
    19  H    3.427896   2.183726   3.428590   2.151234   5.566736
    20  H    4.900027   4.105495   3.422217   2.155914   7.020484
    21  H    6.179556   5.857737   3.879081   3.399991   8.021792
    22  H    5.882288   6.131907   3.372116   3.863994   7.206175
    23  H    4.137236   4.871636   2.129261   3.404661   4.973942
    24  H    2.087240   3.213699   2.150961   3.281970   2.595801
    25  H    2.087240   3.213699   2.150961   3.281970   2.595801
                   16         17         18         19         20
    16  H    0.000000
    17  H    2.497065   0.000000
    18  H    4.309481   2.462234   0.000000
    19  H    6.013935   4.810243   2.498388   0.000000
    20  H    8.066606   7.192445   4.935527   2.437301   0.000000
    21  H    9.613629   9.218224   7.169400   4.734996   2.465331
    22  H    9.272385   9.532607   7.954661   5.877426   4.271762
    23  H    7.251634   7.998303   6.964180   5.520432   4.952557
    24  H    4.774719   5.746774   5.269507   4.735349   5.373241
    25  H    4.774719   5.746774   5.269507   4.735349   5.373241
                   21         22         23         24         25
    21  H    0.000000
    22  H    2.471417   0.000000
    23  H    4.286065   2.461906   0.000000
    24  H    5.856618   4.838408   2.700437   0.000000
    25  H    5.856618   4.838408   2.700437   1.718070   0.000000
 Stoichiometry    C14H11(1+)
 Framework group  CS[SG(C14H9),X(H2)]
 Deg. of freedom    46
 Full point group                 CS      NOp   2
 Largest Abelian subgroup         CS      NOp   2
 Largest concise Abelian subgroup CS      NOp   2
                         Standard orientation:                         
 ---------------------------------------------------------------------
 Center     Atomic      Atomic             Coordinates (Angstroms)
 Number     Number       Type             X           Y           Z
 ---------------------------------------------------------------------
      1          6           0        0.026992    2.861778    0.000000
      2          6           0       -1.135436    3.621947    0.000000
      3          6           0       -2.332092    2.943886    0.000000
      4          6           0       -2.363331    1.501745    0.000000
      5          6           0       -0.096345   -2.872003    0.000000
      6          6           0        1.062448   -3.594771    0.000000
      7          6           0        2.294340   -2.937627    0.000000
      8          6           0        2.354988   -1.544446    0.000000
      9          6           0        1.275583    0.692142    0.000000
     10          6           0       -1.240772   -0.710799    0.000000
     11          6           0        0.000000    1.417841    0.000000
     12          6           0       -1.212308    0.736228    0.000000
     13          6           0        1.205054   -0.800076    0.000000
     14          6           0       -0.061253   -1.455213    0.000000
     15          1           0        0.996357    3.346502    0.000000
     16          1           0       -1.096887    4.700117    0.000000
     17          1           0       -3.273643    3.476570    0.000000
     18          1           0       -3.331072    1.015006    0.000000
     19          1           0       -2.198698   -1.212026    0.000000
     20          1           0       -1.058914   -3.366400    0.000000
     21          1           0        1.030309   -4.675219    0.000000
     22          1           0        3.210396   -3.511121    0.000000
     23          1           0        3.319403   -1.051630    0.000000
     24          1           0        1.867772    1.057206    0.859035
     25          1           0        1.867772    1.057206   -0.859035
 ---------------------------------------------------------------------
 Rotational constants (GHZ):           2.1373703           0.4446534           0.3688783
 Standard basis: 6-311++G(d,p) (5D, 7F)
 There are   299 symmetry adapted cartesian basis functions of A'  symmetry.
 There are   100 symmetry adapted cartesian basis functions of A"  symmetry.
 There are   285 symmetry adapted basis functions of A'  symmetry.
 There are   100 symmetry adapted basis functions of A"  symmetry.
   385 basis functions,   603 primitive gaussians,   399 cartesian basis functions
    47 alpha electrons       47 beta electrons
       nuclear repulsion energy       781.3514163750 Hartrees.
 NAtoms=   25 NActive=   25 NUniq=   24 SFac= 1.09D+00 NAtFMM=   60 NAOKFM=F Big=F
 Integral buffers will be    131072 words long.
 Regular integral format.
 Two-electron integral symmetry is turned on.
 Nuclear repulsion after empirical dispersion term =      781.3504373530 Hartrees.
 One-electron integrals computed using PRISM.
 NBasis=   385 RedAO= T EigKep=  1.11D-06  NBF=   285   100
 NBsUse=   379 1.00D-06 EigRej=  8.35D-07 NBFU=   279   100
 ExpMin= 3.60D-02 ExpMax= 4.56D+03 ExpMxC= 6.82D+02 IAcc=3 IRadAn=         5 AccDes= 0.00D+00
 Harris functional with IExCor= 1009 and IRadAn=       5 diagonalized for initial guess.
 HarFok:  IExCor= 1009 AccDes= 0.00D+00 IRadAn=         5 IDoV= 1 UseB2=F ITyADJ=14
 ICtDFT=  3500011 ScaDFX=  1.000000  1.000000  1.000000  1.000000
 FoFCou: FMM=F IPFlag=           0 FMFlag=      100000 FMFlg1=           0
         NFxFlg=           0 DoJE=T BraDBF=F KetDBF=T FulRan=T
         wScrn=  0.000000 ICntrl=       500 IOpCl=  0 I1Cent=   200000004 NGrid=           0
         NMat0=    1 NMatS0=      1 NMatT0=    0 NMatD0=    1 NMtDS0=    0 NMtDT0=    0
 Petite list used in FoFCou.
 Initial guess orbital symmetries:
       Occupied  (A') (A') (A') (A') (A') (A') (A') (A') (A') (A')
                 (A') (A') (A') (A') (A') (A') (A') (A') (A') (A')
                 (A') (A') (A') (A') (A') (A') (A') (A') (A') (A')
                 (A') (A') (A") (A') (A') (A') (A') (A') (A") (A')
                 (A") (A') (A') (A") (A") (A") (A")
       Virtual   (A") (A") (A") (A") (A") (A') (A') (A') (A') (A")
                 (A") (A') (A') (A') (A") (A') (A') (A') (A') (A")
                 (A') (A") (A') (A') (A') (A") (A') (A") (A') (A')
                 (A') (A') (A') (A') (A") (A') (A") (A') (A') (A')
                 (A") (A') (A") (A') (A') (A') (A') (A') (A") (A')
                 (A') (A') (A") (A") (A') (A') (A') (A") (A") (A')
                 (A') (A') (A') (A') (A') (A') (A") (A') (A') (A")
                 (A') (A') (A') (A') (A') (A') (A') (A') (A') (A')
                 (A') (A') (A') (A') (A') (A') (A') (A') (A') (A')
                 (A') (A') (A') (A') (A') (A') (A') (A") (A') (A")
                 (A') (A') (A") (A") (A') (A") (A') (A") (A") (A')
                 (A") (A') (A') (A') (A") (A') (A') (A") (A") (A')
                 (A") (A") (A') (A') (A') (A") (A') (A') (A') (A")
                 (A') (A') (A') (A') (A') (A') (A") (A') (A') (A')
                 (A') (A') (A') (A') (A') (A') (A') (A') (A') (A")
                 (A") (A') (A") (A") (A') (A') (A') (A") (A") (A')
                 (A") (A') (A") (A") (A") (A') (A') (A') (A') (A')
                 (A') (A") (A') (A') (A") (A') (A') (A') (A') (A")
                 (A') (A') (A') (A') (A") (A") (A') (A') (A") (A")
                 (A") (A') (A') (A") (A') (A') (A') (A") (A') (A')
                 (A") (A") (A") (A') (A') (A") (A') (A") (A') (A')
                 (A") (A") (A') (A") (A') (A") (A') (A') (A') (A")
                 (A') (A') (A') (A') (A") (A') (A') (A') (A") (A")
                 (A') (A') (A') (A") (A') (A') (A") (A') (A") (A')
                 (A") (A') (A') (A') (A') (A") (A') (A') (A') (A")
                 (A') (A') (A') (A") (A") (A') (A') (A") (A') (A')
                 (A') (A") (A') (A") (A') (A') (A') (A") (A') (A")
                 (A') (A') (A') (A') (A") (A') (A") (A') (A") (A')
                 (A") (A') (A") (A") (A") (A') (A') (A') (A') (A')
                 (A') (A') (A') (A') (A') (A') (A') (A') (A') (A')
                 (A') (A') (A') (A") (A') (A') (A') (A') (A') (A')
                 (A') (A') (A') (A') (A') (A') (A') (A') (A') (A')
                 (A') (A') (A') (A') (A') (A') (A') (A') (A') (A')
                 (A') (A')
 The electronic state of the initial guess is 1-A'.
 Requested convergence on RMS density matrix=1.00D-08 within 128 cycles.
 Requested convergence on MAX density matrix=1.00D-06.
 Requested convergence on             energy=1.00D-06.
 No special actions if energy rises.
 SCF Done:  E(RM062X) =  -539.753215802     A.U. after   15 cycles
            NFock= 15  Conv=0.10D-07     -V/T= 2.0041
 DoSCS=F DFT=T ScalE2(SS,OS)=  1.000000  1.000000
 ExpMin= 3.60D-02 ExpMax= 4.56D+03 ExpMxC= 6.82D+02 IAcc=3 IRadAn=         5 AccDes= 0.00D+00
 HarFok:  IExCor=  205 AccDes= 0.00D+00 IRadAn=         5 IDoV=-2 UseB2=F ITyADJ=14
 ICtDFT= 12500011 ScaDFX=  1.000000  1.000000  1.000000  1.000000
 Range of M.O.s used for correlation:    15   379
 NBasis=   385 NAE=    47 NBE=    47 NFC=    14 NFV=     0
 NROrb=    365 NOA=    33 NOB=    33 NVA=   332 NVB=   332

 **** Warning!!: The largest alpha MO coefficient is  0.14061594D+03

 Orbital symmetries:
       Occupied  (A') (A') (A') (A') (A') (A') (A') (A') (A') (A')
                 (A') (A') (A') (A') (A') (A') (A') (A') (A') (A')
                 (A') (A') (A') (A') (A') (A') (A') (A') (A') (A')
                 (A') (A") (A') (A') (A') (A') (A') (A") (A") (A')
                 (A') (A') (A') (A") (A") (A") (A")
       Virtual   (A") (A") (A") (A") (A') (A') (A') (A') (A") (A')
                 (A') (A") (A') (A') (A") (A') (A") (A') (A') (A')
                 (A") (A") (A') (A') (A') (A") (A') (A") (A') (A')
                 (A") (A') (A") (A') (A') (A') (A') (A') (A") (A')
                 (A") (A') (A') (A") (A") (A') (A") (A') (A") (A')
                 (A') (A') (A') (A') (A') (A") (A') (A') (A') (A')
                 (A') (A") (A') (A') (A') (A") (A') (A') (A') (A')
                 (A') (A') (A') (A') (A') (A') (A') (A') (A') (A')
                 (A') (A') (A') (A') (A') (A') (A') (A') (A') (A')
                 (A') (A') (A') (A') (A") (A') (A") (A") (A') (A")
                 (A') (A') (A') (A') (A") (A") (A') (A") (A") (A')
                 (A') (A') (A") (A') (A") (A') (A') (A") (A') (A")
                 (A") (A') (A") (A') (A') (A') (A") (A') (A') (A')
                 (A') (A') (A') (A') (A') (A') (A') (A') (A') (A')
                 (A') (A') (A') (A") (A') (A') (A') (A') (A') (A')
                 (A') (A") (A') (A') (A") (A') (A") (A") (A') (A")
                 (A") (A') (A') (A") (A") (A') (A") (A") (A') (A')
                 (A') (A') (A') (A") (A") (A') (A') (A') (A') (A")
                 (A') (A') (A') (A") (A") (A') (A') (A") (A") (A')
                 (A") (A') (A') (A") (A') (A") (A') (A') (A') (A')
                 (A") (A") (A") (A') (A") (A') (A') (A") (A') (A')
                 (A') (A") (A') (A") (A") (A') (A") (A') (A') (A")
                 (A') (A') (A') (A') (A") (A') (A') (A') (A") (A")
                 (A') (A') (A') (A") (A') (A') (A') (A") (A") (A')
                 (A") (A') (A') (A") (A') (A') (A') (A') (A') (A')
                 (A") (A') (A') (A') (A') (A") (A") (A") (A') (A')
                 (A') (A') (A') (A') (A') (A') (A') (A") (A') (A')
                 (A') (A") (A') (A") (A") (A") (A') (A") (A') (A")
                 (A') (A") (A") (A') (A") (A") (A') (A') (A') (A')
                 (A') (A') (A') (A') (A') (A') (A') (A') (A') (A')
                 (A') (A') (A') (A") (A') (A') (A') (A') (A') (A')
                 (A') (A') (A') (A') (A') (A') (A') (A') (A') (A')
                 (A') (A') (A') (A') (A') (A') (A') (A') (A') (A')
                 (A') (A')
     4 initial guesses have been made.
 Convergence on wavefunction:    0.001000000000000
 Iteration     1 Dimension     4 NMult     0 NNew      4
 CISAX will form     4 AO SS matrices at one time.
 Iteration     2 Dimension     6 NMult     4 NNew      2
 Iteration     3 Dimension     8 NMult     6 NNew      2
 Iteration     4 Dimension    10 NMult     8 NNew      2
 Iteration     5 Dimension    12 NMult    10 NNew      2
 Iteration     6 Dimension    14 NMult    12 NNew      2
 ***********************************************************************
 Excited states from <AA,BB:AA,BB> singles matrix:
 ***********************************************************************
 
 Ground to excited state transition densities written to RWF  633
 Ground to excited state transition electric dipole moments (Au):
       state          X           Y           Z        Dip. S.      Osc.
         1         0.4546      0.3058      0.0000      0.3001      0.0195
 Ground to excited state transition velocity dipole moments (Au):
       state          X           Y           Z        Dip. S.      Osc.
         1        -0.0522     -0.0296     -0.0000      0.0036      0.0246
 Ground to excited state transition magnetic dipole moments (Au):
       state          X           Y           Z
         1        -0.0000      0.0000      0.1695
 Ground to excited state transition velocity quadrupole moments (Au):
       state          XX          YY          ZZ          XY          XZ          YZ
         1         0.1396      0.1208     -0.0082     -0.1351     -0.0000     -0.0000
 <0|del|b> * <b|rxdel|0> + <0|del|b> * <b|delr+rdel|0>
 Rotatory Strengths (R) in cgs (10**-40 erg-esu-cm/Gauss)
       state          XX          YY          ZZ    R(velocity)    E-M Angle
         1        -0.0000     -0.0000      0.0000     -0.0000       90.00
 1/2[<0|r|b>*<b|rxdel|0> + (<0|rxdel|b>*<b|r|0>)*]
 Rotatory Strengths (R) in cgs (10**-40 erg-esu-cm/Gauss)
       state          XX          YY          ZZ     R(length)
         1         0.0000     -0.0000     -0.0000     -0.0000
  1/2[<0|del|b>*<b|r|0> + (<0|r|b>*<b|del|0>)*] (Au)
       state          X           Y           Z        Dip. S.   Osc.(frdel)
         1        -0.0237     -0.0091     -0.0000      0.0328      0.0219

 Excitation energies and oscillator strengths:
 
 Excited State   1:      Singlet-A'     2.6556 eV  466.87 nm  f=0.0195  <S**2>=0.000
      47 -> 48         0.70347
 This state for optimization and/or second-order correction.
 Total Energy, E(TD-HF/TD-DFT) =  -539.655623295    
 Copying the excited state density for this state as the 1-particle RhoCI density.
 SavETr:  write IOETrn=   770 NScale= 10 NData=  16 NLR=1 NState=    1 LETran=      28.

 **********************************************************************

            Population analysis using the SCF Density.

 **********************************************************************

 Orbital symmetries:
       Occupied  (A') (A') (A') (A') (A') (A') (A') (A') (A') (A')
                 (A') (A') (A') (A') (A') (A') (A') (A') (A') (A')
                 (A') (A') (A') (A') (A') (A') (A') (A') (A') (A')
                 (A') (A") (A') (A') (A') (A') (A') (A") (A") (A')
                 (A') (A') (A') (A") (A") (A") (A")
       Virtual   (A") (A") (A") (A") (A') (A') (A') (A') (A") (A')
                 (A') (A") (A') (A') (A") (A') (A") (A') (A') (A')
                 (A") (A") (A') (A') (A') (A") (A') (A") (A') (A')
                 (A") (A') (A") (A') (A') (A') (A') (A') (A") (A')
                 (A") (A') (A') (A") (A") (A') (A") (A') (A") (A')
                 (A') (A') (A') (A') (A') (A") (A') (A') (A') (A')
                 (A') (A") (A') (A') (A') (A") (A') (A') (A') (A')
                 (A') (A') (A') (A') (A') (A') (A') (A') (A') (A')
                 (A') (A') (A') (A') (A') (A') (A') (A') (A') (A')
                 (A') (A') (A') (A') (A") (A') (A") (A") (A') (A")
                 (A') (A') (A') (A') (A") (A") (A') (A") (A") (A')
                 (A') (A') (A") (A') (A") (A') (A') (A") (A') (A")
                 (A") (A') (A") (A') (A') (A') (A") (A') (A') (A')
                 (A') (A') (A') (A') (A') (A') (A') (A') (A') (A')
                 (A') (A') (A') (A") (A') (A') (A') (A') (A') (A')
                 (A') (A") (A') (A') (A") (A') (A") (A") (A') (A")
                 (A") (A') (A') (A") (A") (A') (A") (A") (A') (A')
                 (A') (A') (A') (A") (A") (A') (A') (A') (A') (A")
                 (A') (A') (A') (A") (A") (A') (A') (A") (A") (A')
                 (A") (A') (A') (A") (A') (A") (A') (A') (A') (A')
                 (A") (A") (A") (A') (A") (A') (A') (A") (A') (A')
                 (A') (A") (A') (A") (A") (A') (A") (A') (A') (A")
                 (A') (A') (A') (A') (A") (A') (A') (A') (A") (A")
                 (A') (A') (A') (A") (A') (A') (A') (A") (A") (A')
                 (A") (A') (A') (A") (A') (A') (A') (A') (A') (A')
                 (A") (A') (A') (A') (A') (A") (A") (A") (A') (A')
                 (A') (A') (A') (A') (A') (A') (A') (A") (A') (A')
                 (A') (A") (A') (A") (A") (A") (A') (A") (A') (A")
                 (A') (A") (A") (A') (A") (A") (A') (A') (A') (A')
                 (A') (A') (A') (A') (A') (A') (A') (A') (A') (A')
                 (A') (A') (A') (A") (A') (A') (A') (A') (A') (A')
                 (A') (A') (A') (A') (A') (A') (A') (A') (A') (A')
                 (A') (A') (A') (A') (A') (A') (A') (A') (A') (A')
                 (A') (A')
 The electronic state is 1-A'.
 Alpha  occ. eigenvalues --  -10.77568 -10.73786 -10.72850 -10.72641 -10.72074
 Alpha  occ. eigenvalues --  -10.71923 -10.71882 -10.70977 -10.70792 -10.70232
 Alpha  occ. eigenvalues --  -10.70025 -10.69949 -10.69714 -10.69298  -1.16566
 Alpha  occ. eigenvalues --   -1.12484  -1.06936  -1.05891  -1.01284  -1.00451
 Alpha  occ. eigenvalues --   -0.95550  -0.91033  -0.86446  -0.85897  -0.83779
 Alpha  occ. eigenvalues --   -0.78331  -0.76163  -0.74366  -0.69793  -0.69329
 Alpha  occ. eigenvalues --   -0.68302  -0.68086  -0.68063  -0.65299  -0.64239
 Alpha  occ. eigenvalues --   -0.62746  -0.61576  -0.60470  -0.59233  -0.59165
 Alpha  occ. eigenvalues --   -0.56953  -0.55266  -0.54536  -0.52438  -0.47350
 Alpha  occ. eigenvalues --   -0.46124  -0.43751
 Alpha virt. eigenvalues --   -0.26100  -0.14668  -0.14075  -0.12758  -0.11193
 Alpha virt. eigenvalues --   -0.10097  -0.09261  -0.07959  -0.07920  -0.07485
 Alpha virt. eigenvalues --   -0.07215  -0.07136  -0.05646  -0.05575  -0.05356
 Alpha virt. eigenvalues --   -0.03852  -0.03667  -0.03273  -0.03131  -0.02155
 Alpha virt. eigenvalues --   -0.01348  -0.00959   0.00184   0.00594   0.00651
 Alpha virt. eigenvalues --    0.01066   0.01502   0.01928   0.02137   0.02303
 Alpha virt. eigenvalues --    0.02448   0.02675   0.02801   0.03221   0.03448
 Alpha virt. eigenvalues --    0.04217   0.04499   0.04723   0.05039   0.05392
 Alpha virt. eigenvalues --    0.06020   0.06292   0.06577   0.07061   0.07270
 Alpha virt. eigenvalues --    0.07907   0.08075   0.08354   0.08656   0.08907
 Alpha virt. eigenvalues --    0.09481   0.09591   0.09966   0.10821   0.10976
 Alpha virt. eigenvalues --    0.11126   0.12096   0.12253   0.12683   0.13042
 Alpha virt. eigenvalues --    0.13477   0.13523   0.13981   0.14312   0.15862
 Alpha virt. eigenvalues --    0.16345   0.16517   0.17327   0.17448   0.17773
 Alpha virt. eigenvalues --    0.18131   0.19053   0.19365   0.19689   0.19942
 Alpha virt. eigenvalues --    0.21485   0.21671   0.22670   0.23178   0.23578
 Alpha virt. eigenvalues --    0.23941   0.24514   0.25395   0.26950   0.27625
 Alpha virt. eigenvalues --    0.28875   0.29258   0.29952   0.31362   0.35789
 Alpha virt. eigenvalues --    0.36490   0.38217   0.39285   0.41044   0.41269
 Alpha virt. eigenvalues --    0.41993   0.42085   0.42983   0.43727   0.44407
 Alpha virt. eigenvalues --    0.44760   0.45147   0.45872   0.46427   0.47862
 Alpha virt. eigenvalues --    0.48385   0.48787   0.49033   0.50544   0.51139
 Alpha virt. eigenvalues --    0.51249   0.52121   0.52146   0.52771   0.54125
 Alpha virt. eigenvalues --    0.54172   0.54613   0.55621   0.55987   0.57529
 Alpha virt. eigenvalues --    0.58221   0.58991   0.61521   0.62250   0.62446
 Alpha virt. eigenvalues --    0.63161   0.63475   0.64964   0.65173   0.67540
 Alpha virt. eigenvalues --    0.70294   0.70448   0.71258   0.72542   0.72926
 Alpha virt. eigenvalues --    0.75540   0.76070   0.76451   0.76732   0.77129
 Alpha virt. eigenvalues --    0.77885   0.78046   0.78316   0.79914   0.80398
 Alpha virt. eigenvalues --    0.81246   0.81528   0.82452   0.82995   0.85273
 Alpha virt. eigenvalues --    0.87038   0.88102   0.88199   0.89342   0.90652
 Alpha virt. eigenvalues --    0.91080   0.91467   0.93325   0.94604   0.96265
 Alpha virt. eigenvalues --    0.96956   1.00115   1.01290   1.01490   1.02864
 Alpha virt. eigenvalues --    1.02903   1.03293   1.04907   1.06521   1.08932
 Alpha virt. eigenvalues --    1.19602   1.22904   1.24183   1.24186   1.29112
 Alpha virt. eigenvalues --    1.29217   1.32356   1.34239   1.35765   1.35962
 Alpha virt. eigenvalues --    1.39338   1.39594   1.40800   1.42893   1.43404
 Alpha virt. eigenvalues --    1.43486   1.44304   1.46379   1.46588   1.47036
 Alpha virt. eigenvalues --    1.47716   1.48270   1.51832   1.53695   1.55746
 Alpha virt. eigenvalues --    1.55875   1.56279   1.56589   1.57852   1.61514
 Alpha virt. eigenvalues --    1.62921   1.63354   1.64239   1.66103   1.68283
 Alpha virt. eigenvalues --    1.68419   1.68709   1.69848   1.74457   1.76052
 Alpha virt. eigenvalues --    1.77208   1.78094   1.79872   1.80004   1.80926
 Alpha virt. eigenvalues --    1.82792   1.83184   1.83648   1.83839   1.84168
 Alpha virt. eigenvalues --    1.84627   1.85411   1.86475   1.88402   1.91447
 Alpha virt. eigenvalues --    1.92193   1.94070   1.95399   1.97824   1.98177
 Alpha virt. eigenvalues --    1.99847   2.02524   2.04609   2.07331   2.11725
 Alpha virt. eigenvalues --    2.12221   2.14302   2.15278   2.19109   2.21268
 Alpha virt. eigenvalues --    2.22732   2.28407   2.30418   2.34487   2.34787
 Alpha virt. eigenvalues --    2.36388   2.38578   2.39707   2.42349   2.44388
 Alpha virt. eigenvalues --    2.46124   2.46644   2.49187   2.52987   2.53795
 Alpha virt. eigenvalues --    2.54371   2.56808   2.57944   2.58448   2.59404
 Alpha virt. eigenvalues --    2.59946   2.61541   2.62160   2.63595   2.63743
 Alpha virt. eigenvalues --    2.64857   2.65054   2.65087   2.65651   2.68025
 Alpha virt. eigenvalues --    2.68428   2.70938   2.71487   2.73389   2.74819
 Alpha virt. eigenvalues --    2.76277   2.78460   2.79654   2.83245   2.83262
 Alpha virt. eigenvalues --    2.84884   2.86313   2.92143   2.97117   2.99418
 Alpha virt. eigenvalues --    3.00188   3.05126   3.09387   3.11249   3.14328
 Alpha virt. eigenvalues --    3.20627   3.22177   3.26191   3.29005   3.30747
 Alpha virt. eigenvalues --    3.32857   3.34843   3.44033   3.46320   3.46924
 Alpha virt. eigenvalues --    3.48407   3.50118   3.56507   3.65426   3.67123
 Alpha virt. eigenvalues --    3.68011   3.93538   3.94013   3.95353   3.96571
 Alpha virt. eigenvalues --    4.03919   4.06461   4.07748   4.12528   4.35367
 Alpha virt. eigenvalues --    4.61075   4.69106   4.71117  23.45200  23.60051
 Alpha virt. eigenvalues --   23.79826  23.82085  23.84953  23.89349  23.92042
 Alpha virt. eigenvalues --   23.95222  23.96023  23.97793  24.03929  24.06682
 Alpha virt. eigenvalues --   24.11522  24.13558
          Condensed to atoms (all electrons):
               1          2          3          4          5          6
     1  C    8.985598  -0.007950  -0.374500   2.263390  -0.082110  -0.107061
     2  C   -0.007950   7.174972   0.237929  -1.192952   0.013378  -0.013165
     3  C   -0.374500   0.237929   6.597766   0.828390  -0.140431   0.016866
     4  C    2.263390  -1.192952   0.828390  10.589841  -0.359111  -0.110192
     5  C   -0.082110   0.013378  -0.140431  -0.359111  11.490321   0.705053
     6  C   -0.107061  -0.013165   0.016866  -0.110192   0.705053   6.612662
     7  C   -0.002387   0.000834  -0.015568  -0.045495  -0.959854   0.435160
     8  C    0.410994  -0.037668  -0.083200   0.008099   1.677625  -0.667345
     9  C   -1.154364  -0.768606   0.290531  -0.456151   0.045710   0.291553
    10  C   -1.389232   0.356329  -0.450311  -2.354315  -2.798470  -0.255207
    11  C    0.285476  -1.013207   1.130568  -0.315521  -1.599844  -0.234017
    12  C   -2.567161   1.765772  -1.510044  -1.591446  -0.477440  -0.108915
    13  C    0.267477  -0.309688  -0.105353  -1.410453  -0.304733   0.878540
    14  C   -1.037076  -0.068905  -0.295866  -0.200714  -1.588128  -1.327986
    15  H    0.369561  -0.107456   0.001365   0.029825   0.004553   0.000959
    16  H   -0.016438   0.372465  -0.011005   0.009663  -0.001316  -0.000293
    17  H   -0.032578  -0.006975   0.367021  -0.065593   0.000497   0.000380
    18  H    0.053850   0.001908  -0.084294   0.452281   0.006479  -0.005246
    19  H   -0.048824  -0.007293   0.051468  -0.061280  -0.082952   0.050937
    20  H    0.007170   0.002078  -0.004961   0.006565   0.465882  -0.083678
    21  H   -0.001423  -0.000368   0.000411   0.000095  -0.069528   0.381596
    22  H    0.001072   0.000403  -0.000361  -0.001705   0.017621  -0.021833
    23  H    0.004902  -0.002955   0.001255   0.006590   0.024318  -0.003614
    24  H    0.026591   0.012659  -0.001797  -0.013400  -0.011204  -0.001232
    25  H    0.026591   0.012659  -0.001797  -0.013400  -0.011204  -0.001232
               7          8          9         10         11         12
     1  C   -0.002387   0.410994  -1.154364  -1.389232   0.285476  -2.567161
     2  C    0.000834  -0.037668  -0.768606   0.356329  -1.013207   1.765772
     3  C   -0.015568  -0.083200   0.290531  -0.450311   1.130568  -1.510044
     4  C   -0.045495   0.008099  -0.456151  -2.354315  -0.315521  -1.591446
     5  C   -0.959854   1.677625   0.045710  -2.798470  -1.599844  -0.477440
     6  C    0.435160  -0.667345   0.291553  -0.255207  -0.234017  -0.108915
     7  C    7.167708   0.576678  -0.859472   0.142170  -0.209475  -0.310346
     8  C    0.576678   8.327474  -1.187815  -1.170639   0.180251  -1.155935
     9  C   -0.859472  -1.187815   9.665639   0.244483   1.515732  -1.737713
    10  C    0.142170  -1.170639   0.244483   9.158458  -0.543306   2.478880
    11  C   -0.209475   0.180251   1.515732  -0.543306  14.370620  -3.315893
    12  C   -0.310346  -1.155935  -1.737713   2.478880  -3.315893  15.889655
    13  C   -0.792705   0.320594   1.686068  -0.347529   1.056029  -4.848186
    14  C    0.992147  -1.689834  -2.158494   2.380661  -4.727874   3.058608
    15  H   -0.002295   0.006947   0.096539  -0.011487  -0.034285  -0.037977
    16  H    0.000309   0.000348   0.004449  -0.008013   0.026869  -0.034156
    17  H   -0.000420  -0.001231  -0.006648   0.020570  -0.027849   0.097701
    18  H    0.001997   0.006995  -0.026405   0.016124  -0.003164  -0.065447
    19  H   -0.008271  -0.043140   0.075096   0.422651   0.083198  -0.043345
    20  H    0.003625   0.046226  -0.022560   0.008163  -0.012383  -0.021555
    21  H   -0.023158  -0.018454  -0.004737   0.019976  -0.006331   0.005183
    22  H    0.382581  -0.020062   0.002104  -0.010682   0.003461  -0.010571
    23  H   -0.104570   0.365904   0.087138  -0.007541  -0.003902   0.007704
    24  H    0.015971   0.037899   0.357278   0.005606   0.000408  -0.060188
    25  H    0.015971   0.037899   0.357278   0.005606   0.000408  -0.060188
              13         14         15         16         17         18
     1  C    0.267477  -1.037076   0.369561  -0.016438  -0.032578   0.053850
     2  C   -0.309688  -0.068905  -0.107456   0.372465  -0.006975   0.001908
     3  C   -0.105353  -0.295866   0.001365  -0.011005   0.367021  -0.084294
     4  C   -1.410453  -0.200714   0.029825   0.009663  -0.065593   0.452281
     5  C   -0.304733  -1.588128   0.004553  -0.001316   0.000497   0.006479
     6  C    0.878540  -1.327986   0.000959  -0.000293   0.000380  -0.005246
     7  C   -0.792705   0.992147  -0.002295   0.000309  -0.000420   0.001997
     8  C    0.320594  -1.689834   0.006947   0.000348  -0.001231   0.006995
     9  C    1.686068  -2.158494   0.096539   0.004449  -0.006648  -0.026405
    10  C   -0.347529   2.380661  -0.011487  -0.008013   0.020570   0.016124
    11  C    1.056029  -4.727874  -0.034285   0.026869  -0.027849  -0.003164
    12  C   -4.848186   3.058608  -0.037977  -0.034156   0.097701  -0.065447
    13  C   14.631905  -4.146521   0.008009   0.002429  -0.006298  -0.012139
    14  C   -4.146521  16.315746   0.004636  -0.007495   0.005347  -0.006986
    15  H    0.008009   0.004636   0.445019  -0.008856   0.001196   0.000053
    16  H    0.002429  -0.007495  -0.008856   0.422517  -0.005882   0.001873
    17  H   -0.006298   0.005347   0.001196  -0.005882   0.425092  -0.010379
    18  H   -0.012139  -0.006986   0.000053   0.001873  -0.010379   0.459476
    19  H    0.076782  -0.089369   0.000206  -0.000467   0.001089  -0.006873
    20  H   -0.010334  -0.045528  -0.000100   0.000010  -0.000116   0.001268
    21  H   -0.025405   0.084323   0.000010  -0.000007   0.000010  -0.000169
    22  H    0.025681  -0.030602  -0.000131   0.000007  -0.000007   0.000020
    23  H   -0.029289  -0.011273   0.000577  -0.000123   0.000017  -0.000127
    24  H    0.026037  -0.059332  -0.000863   0.000632  -0.000150   0.000225
    25  H    0.026037  -0.059332  -0.000863   0.000632  -0.000150   0.000225
              19         20         21         22         23         24
     1  C   -0.048824   0.007170  -0.001423   0.001072   0.004902   0.026591
     2  C   -0.007293   0.002078  -0.000368   0.000403  -0.002955   0.012659
     3  C    0.051468  -0.004961   0.000411  -0.000361   0.001255  -0.001797
     4  C   -0.061280   0.006565   0.000095  -0.001705   0.006590  -0.013400
     5  C   -0.082952   0.465882  -0.069528   0.017621   0.024318  -0.011204
     6  C    0.050937  -0.083678   0.381596  -0.021833  -0.003614  -0.001232
     7  C   -0.008271   0.003625  -0.023158   0.382581  -0.104570   0.015971
     8  C   -0.043140   0.046226  -0.018454  -0.020062   0.365904   0.037899
     9  C    0.075096  -0.022560  -0.004737   0.002104   0.087138   0.357278
    10  C    0.422651   0.008163   0.019976  -0.010682  -0.007541   0.005606
    11  C    0.083198  -0.012383  -0.006331   0.003461  -0.003902   0.000408
    12  C   -0.043345  -0.021555   0.005183  -0.010571   0.007704  -0.060188
    13  C    0.076782  -0.010334  -0.025405   0.025681  -0.029289   0.026037
    14  C   -0.089369  -0.045528   0.084323  -0.030602  -0.011273  -0.059332
    15  H    0.000206  -0.000100   0.000010  -0.000131   0.000577  -0.000863
    16  H   -0.000467   0.000010  -0.000007   0.000007  -0.000123   0.000632
    17  H    0.001089  -0.000116   0.000010  -0.000007   0.000017  -0.000150
    18  H   -0.006873   0.001268  -0.000169   0.000020  -0.000127   0.000225
    19  H    0.443938  -0.005688   0.001754  -0.000608   0.000419   0.000608
    20  H   -0.005688   0.447595  -0.009994   0.001971   0.000253   0.000134
    21  H    0.001754  -0.009994   0.419405  -0.007108   0.001679  -0.000132
    22  H   -0.000608   0.001971  -0.007108   0.415506  -0.008821   0.000624
    23  H    0.000419   0.000253   0.001679  -0.008821   0.433400  -0.000927
    24  H    0.000608   0.000134  -0.000132   0.000624  -0.000927   0.493756
    25  H    0.000608   0.000134  -0.000132   0.000624  -0.000927  -0.079764
              25
     1  C    0.026591
     2  C    0.012659
     3  C   -0.001797
     4  C   -0.013400
     5  C   -0.011204
     6  C   -0.001232
     7  C    0.015971
     8  C    0.037899
     9  C    0.357278
    10  C    0.005606
    11  C    0.000408
    12  C   -0.060188
    13  C    0.026037
    14  C   -0.059332
    15  H   -0.000863
    16  H    0.000632
    17  H   -0.000150
    18  H    0.000225
    19  H    0.000608
    20  H    0.000134
    21  H   -0.000132
    22  H    0.000624
    23  H   -0.000927
    24  H   -0.079764
    25  H    0.493756
 Mulliken charges:
               1
     1  C    0.118431
     2  C   -0.414197
     3  C   -0.444082
     4  C   -0.003009
     5  C    0.034889
     6  C   -0.432690
     7  C   -0.401134
     8  C    0.071392
     9  C   -0.336633
    10  C    0.087057
    11  C   -0.605969
    12  C    0.653003
    13  C   -0.656955
    14  C    0.709846
    15  H    0.234858
    16  H    0.251845
    17  H    0.245357
    18  H    0.218456
    19  H    0.189358
    20  H    0.225821
    21  H    0.252500
    22  H    0.260818
    23  H    0.239915
    24  H    0.250561
    25  H    0.250561
 Sum of Mulliken charges =   1.00000
 Mulliken charges with hydrogens summed into heavy atoms:
               1
     1  C    0.353289
     2  C   -0.162352
     3  C   -0.198725
     4  C    0.215447
     5  C    0.260710
     6  C   -0.180190
     7  C   -0.140316
     8  C    0.311307
     9  C    0.164489
    10  C    0.276415
    11  C   -0.605969
    12  C    0.653003
    13  C   -0.656955
    14  C    0.709846
 Electronic spatial extent (au):  <R**2>=           2855.4708
 Charge=              1.0000 electrons
 Dipole moment (field-independent basis, Debye):
    X=              0.3719    Y=             -1.0640    Z=              0.0000  Tot=              1.1271
 Quadrupole moment (field-independent basis, Debye-Ang):
   XX=            -51.2213   YY=            -36.0660   ZZ=            -84.1299
   XY=            -10.1254   XZ=              0.0000   YZ=              0.0000
 Traceless Quadrupole moment (field-independent basis, Debye-Ang):
   XX=              5.9178   YY=             21.0731   ZZ=            -26.9908
   XY=            -10.1254   XZ=              0.0000   YZ=              0.0000
 Octapole moment (field-independent basis, Debye-Ang**2):
  XXX=              3.6945  YYY=             -4.3417  ZZZ=              0.0000  XYY=              3.0613
  XXY=             -8.3001  XXZ=              0.0000  XZZ=              3.4804  YZZ=              0.0047
  YYZ=              0.0000  XYZ=              0.0000
 Hexadecapole moment (field-independent basis, Debye-Ang**3):
 XXXX=           -981.0634 YYYY=          -1853.2926 ZZZZ=            -99.3059 XXXY=            345.9355
 XXXZ=              0.0000 YYYX=            271.4854 YYYZ=              0.0000 ZZZX=              0.0000
 ZZZY=              0.0000 XXYY=           -455.3777 XXZZ=           -239.5904 YYZZ=           -496.6241
 XXYZ=              0.0000 YYXZ=              0.0000 ZZXY=            181.5400
 N-N= 7.813504373530D+02 E-N=-2.799063389338D+03  KE= 5.375396437525D+02
 Symmetry A'   KE= 5.228852376963D+02
 Symmetry A"   KE= 1.465440605628D+01
 Unable to Open any file for archive entry.
 1\1\GINC-GADI-CPU-CLX-1762\SP\RM062X TD-FC\6-311++G(d,p)\C14H11(1+)\TS
 1578\02-Aug-2022\0\\#n M062X/6-311++G(d,p) TD(NStates=1) EmpiricalDisp
 ersion=GD3 SP\\SP_-125\\1,1\C,0,2.519105,1.359531,0.\C,0,3.733933,0.68
 6264,0.\C,0,3.692761,-0.68853,0.\C,0,2.431906,-1.389238,0.\C,0,-2.4943
 06,-1.425638,0.\C,0,-3.674361,-0.73813,0.\C,0,-3.668133,0.658064,0.\C,
 0,-2.464305,1.361931,0.\C,0,0.017525,1.451169,0.\C,0,-0.0488,-1.429089
 ,0.\C,0,1.25468,0.66174,0.\C,0,1.217671,-0.728554,0.\C,0,-1.26928,0.69
 234,0.\C,0,-1.257671,-0.733354,0.\H,0,2.495371,2.443072,0.\H,0,4.66947
 8,1.223564,0.\H,0,4.603312,-1.272624,0.\H,0,2.4531,-2.472284,0.\H,0,-0
 .045,-2.510216,0.\H,0,-2.4823,-2.507684,0.\H,0,-4.614912,-1.270824,0.\
 H,0,-4.602878,1.200564,0.\H,0,-2.478571,2.444872,0.\H,0,0.064,2.145287
 ,-0.859035\H,0,0.064,2.145287,0.859035\\Version=ES64L-G16RevC.01\State
 =1-A'\HF=-539.7532158\RMSD=9.996e-09\PG=CS [SG(C14H9),X(H2)]\\@
 The archive entry for this job was punched.


 Not by the face shall a man be known, but by the mask.
                               -- Karen Blixen
 Job cpu time:       0 days  0 hours 52 minutes 13.8 seconds.
 Elapsed time:       0 days  0 hours  1 minutes  5.4 seconds.
 File lengths (MBytes):  RWF=    460 Int=      0 D2E=      0 Chk=     15 Scr=      1
 Normal termination of Gaussian 16 at Tue Aug  2 10:57:50 2022.
