 Entering Gaussian System, Link 0=g16
 Initial command:
 /apps/gaussian/g16c01/g16/l1.exe "/jobfs/53796104.gadi-pbs/Gau-3640745.inp" -scrdir="/jobfs/53796104.gadi-pbs/"
 Entering Link 1 = /apps/gaussian/g16c01/g16/l1.exe PID=   3640746.
  
 Copyright (c) 1988-2019, Gaussian, Inc.  All Rights Reserved.
  
 This is part of the Gaussian(R) 16 program.  It is based on
 the Gaussian(R) 09 system (copyright 2009, Gaussian, Inc.),
 the Gaussian(R) 03 system (copyright 2003, Gaussian, Inc.),
 the Gaussian(R) 98 system (copyright 1998, Gaussian, Inc.),
 the Gaussian(R) 94 system (copyright 1995, Gaussian, Inc.),
 the Gaussian 92(TM) system (copyright 1992, Gaussian, Inc.),
 the Gaussian 90(TM) system (copyright 1990, Gaussian, Inc.),
 the Gaussian 88(TM) system (copyright 1988, Gaussian, Inc.),
 the Gaussian 86(TM) system (copyright 1986, Carnegie Mellon
 University), and the Gaussian 82(TM) system (copyright 1983,
 Carnegie Mellon University). Gaussian is a federally registered
 trademark of Gaussian, Inc.
  
 This software contains proprietary and confidential information,
 including trade secrets, belonging to Gaussian, Inc.
  
 This software is provided under written license and may be
 used, copied, transmitted, or stored only in accord with that
 written license.
  
 The following legend is applicable only to US Government
 contracts under FAR:
  
                    RESTRICTED RIGHTS LEGEND
  
 Use, reproduction and disclosure by the US Government is
 subject to restrictions as set forth in subparagraphs (a)
 and (c) of the Commercial Computer Software - Restricted
 Rights clause in FAR 52.227-19.
  
 Gaussian, Inc.
 340 Quinnipiac St., Bldg. 40, Wallingford CT 06492
  
  
 ---------------------------------------------------------------
 Warning -- This program may not be used in any manner that
 competes with the business of Gaussian, Inc. or will provide
 assistance to any competitor of Gaussian, Inc.  The licensee
 of this program is prohibited from giving any competitor of
 Gaussian, Inc. access to this program.  By using this program,
 the user acknowledges that Gaussian, Inc. is engaged in the
 business of creating and licensing software in the field of
 computational chemistry and represents and warrants to the
 licensee that it is not a competitor of Gaussian, Inc. and that
 it will not use this program in any manner prohibited above.
 ---------------------------------------------------------------
  

 Cite this work as:
 Gaussian 16, Revision C.01,
 M. J. Frisch, G. W. Trucks, H. B. Schlegel, G. E. Scuseria, 
 M. A. Robb, J. R. Cheeseman, G. Scalmani, V. Barone, 
 G. A. Petersson, H. Nakatsuji, X. Li, M. Caricato, A. V. Marenich, 
 J. Bloino, B. G. Janesko, R. Gomperts, B. Mennucci, H. P. Hratchian, 
 J. V. Ortiz, A. F. Izmaylov, J. L. Sonnenberg, D. Williams-Young, 
 F. Ding, F. Lipparini, F. Egidi, J. Goings, B. Peng, A. Petrone, 
 T. Henderson, D. Ranasinghe, V. G. Zakrzewski, J. Gao, N. Rega, 
 G. Zheng, W. Liang, M. Hada, M. Ehara, K. Toyota, R. Fukuda, 
 J. Hasegawa, M. Ishida, T. Nakajima, Y. Honda, O. Kitao, H. Nakai, 
 T. Vreven, K. Throssell, J. A. Montgomery, Jr., J. E. Peralta, 
 F. Ogliaro, M. J. Bearpark, J. J. Heyd, E. N. Brothers, K. N. Kudin, 
 V. N. Staroverov, T. A. Keith, R. Kobayashi, J. Normand, 
 K. Raghavachari, A. P. Rendell, J. C. Burant, S. S. Iyengar, 
 J. Tomasi, M. Cossi, J. M. Millam, M. Klene, C. Adamo, R. Cammi, 
 J. W. Ochterski, R. L. Martin, K. Morokuma, O. Farkas, 
 J. B. Foresman, and D. J. Fox, Gaussian, Inc., Wallingford CT, 2019.
 
 ******************************************
 Gaussian 16:  ES64L-G16RevC.01  3-Jul-2019
                 2-Aug-2022 
 ******************************************
 %NProcShared=48
 Will use up to   48 processors via shared memory.
 %mem = 190GB
 ---------------------------------------------------------------
 #n M062X/6-311++G(d,p) TD(NStates=1) EmpiricalDispersion=GD3 SP
 ---------------------------------------------------------------
 1/38=1,172=1/1;
 2/12=2,17=6,18=5,40=1/2;
 3/5=4,6=6,7=1111,11=9,25=1,30=1,74=-55,124=31/1,2,3,8;
 4//1;
 5/5=2,38=5/2;
 8/6=1,10=2,108=1/1;
 9/41=1,42=1,70=2/14;
 6/7=2,8=2,9=2,10=2/1;
 99/5=1,9=1/99;
 -----
 SP_25
 -----
 Symbolic Z-matrix:
 Charge =  1 Multiplicity = 1
 C                     2.48581   1.36073   0. 
 C                     3.69328   0.66846   0. 
 C                     3.68156  -0.72003   0. 
 C                     2.47096  -1.41209   0. 
 C                    -2.45536  -1.40299   0. 
 C                    -3.68616  -0.70763   0. 
 C                    -3.70973   0.67551   0. 
 C                    -2.49951   1.36013   0. 
 C                    -0.00438   1.45337   0. 
 C                     0.0122   -1.42919   0. 
 C                     1.26388   0.68089   0. 
 C                     1.24247  -0.7314    0. 
 C                    -1.26023   0.67324   0. 
 C                    -1.23247  -0.7302    0. 
 H                     2.48597   2.44387   0. 
 H                     4.62843   1.20881   0. 
 H                     4.61071  -1.27212   0. 
 H                     2.4712   -2.49448   0. 
 H                     0.01125  -2.51027   0. 
 H                    -2.4639   -2.48563   0. 
 H                    -4.60781  -1.27257   0. 
 H                    -4.64508   1.21456   0. 
 H                    -2.49017   2.44342   0. 
 H                    -0.016     2.14579  -0.85959 
 H                    -0.016     2.14579   0.85959 
 
                          Input orientation:                          
 ---------------------------------------------------------------------
 Center     Atomic      Atomic             Coordinates (Angstroms)
 Number     Number       Type             X           Y           Z
 ---------------------------------------------------------------------
      1          6           0        2.485805    1.360731    0.000000
      2          6           0        3.693283    0.668464    0.000000
      3          6           0        3.681561   -0.720030    0.000000
      4          6           0        2.470956   -1.412088    0.000000
      5          6           0       -2.455356   -1.402988    0.000000
      6          6           0       -3.686161   -0.707630    0.000000
      7          6           0       -3.709733    0.675514    0.000000
      8          6           0       -2.499505    1.360131    0.000000
      9          6           0       -0.004375    1.453369    0.000000
     10          6           0        0.012200   -1.429189    0.000000
     11          6           0        1.263880    0.680890    0.000000
     12          6           0        1.242471   -0.731404    0.000000
     13          6           0       -1.260230    0.673240    0.000000
     14          6           0       -1.232471   -0.730204    0.000000
     15          1           0        2.485971    2.443872    0.000000
     16          1           0        4.628428    1.208814    0.000000
     17          1           0        4.610712   -1.272124    0.000000
     18          1           0        2.471200   -2.494484    0.000000
     19          1           0        0.011250   -2.510266    0.000000
     20          1           0       -2.463900   -2.485634    0.000000
     21          1           0       -4.607812   -1.272574    0.000000
     22          1           0       -4.645078    1.214564    0.000000
     23          1           0       -2.490171    2.443422    0.000000
     24          1           0       -0.016000    2.145787   -0.859585
     25          1           0       -0.016000    2.145787    0.859585
 ---------------------------------------------------------------------
                    Distance matrix (angstroms):
                    1          2          3          4          5
     1  C    0.000000
     2  C    1.391847   0.000000
     3  C    2.399875   1.388543   0.000000
     4  C    2.772859   2.413044   1.394456   0.000000
     5  C    5.661556   6.488195   6.174802   4.926320   0.000000
     6  C    6.509323   7.506652   7.367732   6.197286   1.413649
     7  C    6.233315   7.403019   7.521886   6.523726   2.427680
     8  C    4.985310   6.231294   6.521706   5.691281   2.763472
     9  C    2.491903   3.780046   4.278994   3.786569   3.763786
    10  C    3.728589   4.236805   3.737261   2.458815   2.467695
    11  C    1.398315   2.429435   2.794237   2.416110   4.263246
    12  C    2.433703   2.822430   2.439117   1.404459   3.758317
    13  C    3.808598   4.953515   5.134442   4.274382   2.395631
    14  C    4.265863   5.120481   4.914043   3.765679   1.395739
    15  H    1.083141   2.147016   3.382264   3.855989   6.262192
    16  H    2.148002   1.080034   2.148720   3.394674   7.549934
    17  H    3.383364   2.146522   1.080800   2.144329   7.067280
    18  H    3.855243   3.390830   2.147943   1.082396   5.046020
    19  H    4.594349   4.864328   4.083641   2.693724   2.703740
    20  H    6.268501   6.918037   6.394064   5.050278   1.082680
    21  H    7.566617   8.525011   8.307768   7.080143   2.156403
    22  H    7.132381   8.356225   8.548425   7.585331   3.412691
    23  H    5.092402   6.433162   6.935251   6.283131   3.846568
    24  H    2.759389   4.084134   4.756443   4.425191   4.391258
    25  H    2.759389   4.084134   4.756443   4.425191   4.391258
                    6          7          8          9         10
     6  C    0.000000
     7  C    1.383345   0.000000
     8  C    2.384070   1.390450   0.000000
     9  C    4.269129   3.786124   2.496871   0.000000
    10  C    3.768093   4.275811   3.753527   2.882606   0.000000
    11  C    5.141098   4.973616   3.824191   1.484990   2.453393
    12  C    4.928689   5.148179   4.286829   2.515523   1.414380
    13  C    2.791405   2.449504   1.416906   1.478436   2.457496
    14  C    2.453794   2.848310   2.444356   2.505237   1.427510
    15  H    6.930164   6.443123   5.101908   2.680097   4.595666
    16  H    8.532593   8.355198   7.129539   4.639253   5.316824
    17  H    8.316054   8.545355   7.581817   5.359789   4.601194
    18  H    6.411392   6.946425   6.290148   4.659830   2.679839
    19  H    4.113435   4.898460   4.613444   3.963666   1.081077
    20  H    2.157596   3.397787   3.845930   4.643814   2.692053
    21  H    1.081019   2.145132   3.372847   5.349990   4.622666
    22  H    2.148104   1.079558   2.150505   4.646843   5.355340
    23  H    3.370389   2.147750   1.083331   2.675703   4.610746
    24  H    4.727680   4.067463   2.742980   1.103841   3.676974
    25  H    4.727680   4.067463   2.742980   1.103841   3.676974
                   11         12         13         14         15
    11  C    0.000000
    12  C    1.412456   0.000000
    13  C    2.524122   2.869937   0.000000
    14  C    2.867569   2.474942   1.403718   0.000000
    15  H    2.145137   3.410084   4.143568   4.888923   0.000000
    16  H    3.405714   3.902454   5.912963   6.173324   2.472952
    17  H    3.874990   3.411367   6.184853   5.868259   4.280555
    18  H    3.397149   2.149006   4.894696   4.102422   4.938378
    19  H    3.428200   2.163390   3.428027   2.171512   5.537845
    20  H    4.891137   4.100550   3.380430   2.144284   6.985789
    21  H    6.188117   5.875260   3.872015   3.418639   8.008354
    22  H    5.933009   6.200808   3.427861   3.927850   7.236232
    23  H    4.147218   4.900218   2.155528   3.413753   4.976142
    24  H    2.126712   3.255897   2.110779   3.238829   2.662255
    25  H    2.126712   3.255897   2.110779   3.238829   2.662255
                   16         17         18         19         20
    16  H    0.000000
    17  H    2.481001   0.000000
    18  H    4.285796   2.464077   0.000000
    19  H    5.928734   4.763197   2.460001   0.000000
    20  H    7.996878   7.177934   4.935108   2.475273   0.000000
    21  H    9.563755   9.218524   7.183695   4.782010   2.463305
    22  H    9.273508   9.584011   8.024864   5.962864   4.295230
    23  H    7.224867   8.014226   6.999866   5.549426   4.929126
    24  H    4.815342   5.816138   5.334526   4.734813   5.308593
    25  H    4.815342   5.816138   5.334526   4.734813   5.308593
                   21         22         23         24         25
    21  H    0.000000
    22  H    2.487417   0.000000
    23  H    4.277035   2.480668   0.000000
    24  H    5.788680   4.799419   2.636095   0.000000
    25  H    5.788680   4.799419   2.636095   1.719170   0.000000
 Stoichiometry    C14H11(1+)
 Framework group  CS[SG(C14H9),X(H2)]
 Deg. of freedom    46
 Full point group                 CS      NOp   2
 Largest Abelian subgroup         CS      NOp   2
 Largest concise Abelian subgroup CS      NOp   2
                         Standard orientation:                         
 ---------------------------------------------------------------------
 Center     Atomic      Atomic             Coordinates (Angstroms)
 Number     Number       Type             X           Y           Z
 ---------------------------------------------------------------------
      1          6           0       -2.371687   -1.551396    0.000000
      2          6           0       -2.330133   -2.942622    0.000000
      3          6           0       -1.099958   -3.586611    0.000000
      4          6           0        0.080935   -2.844991    0.000000
      5          6           0        2.394436    1.504302    0.000000
      6          6           0        2.361148    2.917559    0.000000
      7          6           0        1.152324    3.590157    0.000000
      8          6           0       -0.021829    2.845362    0.000000
      9          6           0       -1.279896    0.688597    0.000000
     10          6           0        1.254708   -0.684428    0.000000
     11          6           0       -1.196235   -0.794034    0.000000
     12          6           0        0.059496   -1.440695    0.000000
     13          6           0        0.000000    1.428625    0.000000
     14          6           0        1.224755    0.742768    0.000000
     15          1           0       -3.327095   -1.041111    0.000000
     16          1           0       -3.247408   -3.512779    0.000000
     17          1           0       -1.050874   -4.666296    0.000000
     18          1           0        1.035493   -3.355286    0.000000
     19          1           0        2.208665   -1.193048    0.000000
     20          1           0        3.353355    1.001640    0.000000
     21          1           0        3.293756    3.464225    0.000000
     22          1           0        1.117663    4.669158    0.000000
     23          1           0       -0.981689    3.347631    0.000000
     24          1           0       -1.885130    1.025153    0.859585
     25          1           0       -1.885130    1.025153   -0.859585
 ---------------------------------------------------------------------
 Rotational constants (GHZ):           2.1362534           0.4446217           0.3688243
 Standard basis: 6-311++G(d,p) (5D, 7F)
 There are   299 symmetry adapted cartesian basis functions of A'  symmetry.
 There are   100 symmetry adapted cartesian basis functions of A"  symmetry.
 There are   285 symmetry adapted basis functions of A'  symmetry.
 There are   100 symmetry adapted basis functions of A"  symmetry.
   385 basis functions,   603 primitive gaussians,   399 cartesian basis functions
    47 alpha electrons       47 beta electrons
       nuclear repulsion energy       781.2009076093 Hartrees.
 NAtoms=   25 NActive=   25 NUniq=   24 SFac= 1.09D+00 NAtFMM=   60 NAOKFM=F Big=F
 Integral buffers will be    131072 words long.
 Regular integral format.
 Two-electron integral symmetry is turned on.
 Nuclear repulsion after empirical dispersion term =      781.1999281446 Hartrees.
 One-electron integrals computed using PRISM.
 NBasis=   385 RedAO= T EigKep=  1.12D-06  NBF=   285   100
 NBsUse=   379 1.00D-06 EigRej=  8.39D-07 NBFU=   279   100
 ExpMin= 3.60D-02 ExpMax= 4.56D+03 ExpMxC= 6.82D+02 IAcc=3 IRadAn=         5 AccDes= 0.00D+00
 Harris functional with IExCor= 1009 and IRadAn=       5 diagonalized for initial guess.
 HarFok:  IExCor= 1009 AccDes= 0.00D+00 IRadAn=         5 IDoV= 1 UseB2=F ITyADJ=14
 ICtDFT=  3500011 ScaDFX=  1.000000  1.000000  1.000000  1.000000
 FoFCou: FMM=F IPFlag=           0 FMFlag=      100000 FMFlg1=           0
         NFxFlg=           0 DoJE=T BraDBF=F KetDBF=T FulRan=T
         wScrn=  0.000000 ICntrl=       500 IOpCl=  0 I1Cent=   200000004 NGrid=           0
         NMat0=    1 NMatS0=      1 NMatT0=    0 NMatD0=    1 NMtDS0=    0 NMtDT0=    0
 Petite list used in FoFCou.
 Initial guess orbital symmetries:
       Occupied  (A') (A') (A') (A') (A') (A') (A') (A') (A') (A')
                 (A') (A') (A') (A') (A') (A') (A') (A') (A') (A')
                 (A') (A') (A') (A') (A') (A') (A') (A') (A') (A')
                 (A') (A') (A") (A') (A') (A') (A') (A') (A') (A")
                 (A") (A') (A') (A") (A") (A") (A")
       Virtual   (A") (A") (A") (A") (A") (A') (A') (A') (A') (A")
                 (A") (A') (A') (A') (A") (A') (A') (A') (A') (A")
                 (A') (A") (A') (A') (A') (A") (A') (A") (A') (A')
                 (A') (A') (A') (A") (A') (A') (A") (A') (A') (A")
                 (A') (A') (A') (A") (A') (A') (A') (A') (A') (A")
                 (A') (A') (A") (A") (A') (A') (A') (A") (A") (A')
                 (A') (A') (A') (A') (A') (A') (A") (A') (A') (A")
                 (A') (A') (A') (A') (A') (A') (A') (A') (A') (A')
                 (A') (A') (A') (A') (A') (A') (A') (A') (A') (A')
                 (A') (A') (A') (A') (A') (A') (A') (A") (A') (A")
                 (A') (A') (A") (A") (A') (A") (A') (A") (A') (A")
                 (A") (A') (A') (A') (A") (A') (A') (A") (A") (A')
                 (A") (A") (A') (A') (A') (A") (A') (A') (A') (A")
                 (A') (A') (A') (A') (A') (A') (A") (A') (A') (A')
                 (A') (A') (A') (A') (A') (A') (A') (A') (A') (A")
                 (A") (A') (A") (A") (A') (A') (A') (A") (A") (A')
                 (A") (A') (A") (A") (A") (A') (A') (A') (A') (A')
                 (A') (A") (A") (A') (A') (A') (A') (A') (A') (A")
                 (A') (A') (A') (A') (A') (A") (A") (A') (A") (A")
                 (A') (A") (A') (A") (A') (A') (A') (A") (A') (A')
                 (A") (A") (A") (A') (A') (A") (A') (A") (A') (A')
                 (A") (A") (A') (A") (A') (A") (A') (A') (A') (A")
                 (A') (A') (A') (A') (A") (A') (A') (A') (A") (A")
                 (A') (A') (A') (A") (A') (A') (A") (A') (A") (A')
                 (A") (A') (A') (A') (A') (A") (A') (A') (A') (A")
                 (A') (A') (A") (A') (A") (A') (A') (A") (A') (A')
                 (A') (A") (A') (A") (A') (A') (A') (A") (A') (A")
                 (A') (A') (A') (A') (A") (A') (A") (A') (A") (A')
                 (A") (A') (A") (A") (A") (A') (A') (A') (A') (A')
                 (A') (A') (A') (A') (A') (A') (A') (A') (A') (A')
                 (A') (A') (A') (A') (A') (A") (A') (A') (A') (A')
                 (A') (A') (A') (A') (A') (A') (A') (A') (A') (A')
                 (A') (A') (A') (A') (A') (A') (A') (A') (A') (A')
                 (A') (A')
 The electronic state of the initial guess is 1-A'.
 Requested convergence on RMS density matrix=1.00D-08 within 128 cycles.
 Requested convergence on MAX density matrix=1.00D-06.
 Requested convergence on             energy=1.00D-06.
 No special actions if energy rises.
 SCF Done:  E(RM062X) =  -539.759777642     A.U. after   15 cycles
            NFock= 15  Conv=0.58D-08     -V/T= 2.0042
 DoSCS=F DFT=T ScalE2(SS,OS)=  1.000000  1.000000
 ExpMin= 3.60D-02 ExpMax= 4.56D+03 ExpMxC= 6.82D+02 IAcc=3 IRadAn=         5 AccDes= 0.00D+00
 HarFok:  IExCor=  205 AccDes= 0.00D+00 IRadAn=         5 IDoV=-2 UseB2=F ITyADJ=14
 ICtDFT= 12500011 ScaDFX=  1.000000  1.000000  1.000000  1.000000
 Range of M.O.s used for correlation:    15   379
 NBasis=   385 NAE=    47 NBE=    47 NFC=    14 NFV=     0
 NROrb=    365 NOA=    33 NOB=    33 NVA=   332 NVB=   332

 **** Warning!!: The largest alpha MO coefficient is  0.14744029D+03

 Orbital symmetries:
       Occupied  (A') (A') (A') (A') (A') (A') (A') (A') (A') (A')
                 (A') (A') (A') (A') (A') (A') (A') (A') (A') (A')
                 (A') (A') (A') (A') (A') (A') (A') (A') (A') (A')
                 (A') (A') (A") (A') (A') (A') (A') (A") (A") (A')
                 (A') (A') (A') (A") (A") (A") (A")
       Virtual   (A") (A") (A") (A") (A') (A') (A') (A') (A") (A')
                 (A') (A") (A') (A') (A") (A') (A") (A') (A') (A')
                 (A") (A") (A') (A') (A') (A") (A') (A") (A') (A')
                 (A") (A') (A") (A') (A') (A') (A') (A') (A") (A')
                 (A") (A') (A') (A") (A") (A') (A") (A') (A") (A')
                 (A') (A') (A') (A') (A') (A") (A') (A') (A') (A')
                 (A') (A") (A') (A') (A') (A') (A") (A') (A') (A')
                 (A') (A') (A') (A') (A') (A') (A') (A') (A') (A')
                 (A') (A') (A') (A') (A') (A') (A') (A') (A') (A')
                 (A') (A') (A') (A') (A") (A') (A") (A") (A') (A")
                 (A') (A') (A') (A') (A") (A") (A') (A") (A") (A')
                 (A') (A') (A") (A') (A') (A") (A') (A") (A') (A")
                 (A") (A') (A") (A') (A') (A') (A") (A') (A') (A')
                 (A') (A') (A') (A') (A') (A') (A') (A') (A') (A')
                 (A') (A') (A') (A") (A') (A') (A') (A') (A') (A')
                 (A') (A') (A") (A') (A") (A') (A") (A") (A') (A")
                 (A") (A') (A') (A") (A") (A") (A') (A") (A') (A')
                 (A') (A') (A') (A") (A") (A') (A') (A') (A') (A")
                 (A') (A') (A') (A") (A') (A") (A') (A') (A") (A")
                 (A") (A') (A') (A") (A") (A') (A') (A') (A') (A')
                 (A") (A") (A") (A') (A') (A") (A') (A") (A') (A')
                 (A') (A") (A') (A") (A") (A') (A") (A') (A') (A")
                 (A') (A') (A') (A') (A") (A') (A') (A') (A") (A")
                 (A') (A') (A') (A") (A') (A') (A') (A") (A") (A')
                 (A") (A') (A') (A") (A') (A') (A') (A') (A') (A')
                 (A") (A') (A') (A') (A') (A") (A") (A") (A') (A')
                 (A') (A') (A') (A') (A') (A') (A") (A') (A') (A')
                 (A') (A") (A') (A") (A") (A") (A') (A") (A') (A")
                 (A') (A") (A") (A') (A") (A") (A') (A') (A') (A')
                 (A') (A') (A') (A') (A') (A') (A') (A') (A') (A')
                 (A') (A') (A') (A") (A') (A') (A') (A') (A') (A')
                 (A') (A') (A') (A') (A') (A') (A') (A') (A') (A')
                 (A') (A') (A') (A') (A') (A') (A') (A') (A') (A')
                 (A') (A')
     4 initial guesses have been made.
 Convergence on wavefunction:    0.001000000000000
 Iteration     1 Dimension     4 NMult     0 NNew      4
 CISAX will form     4 AO SS matrices at one time.
 Iteration     2 Dimension     6 NMult     4 NNew      2
 Iteration     3 Dimension     8 NMult     6 NNew      2
 Iteration     4 Dimension    10 NMult     8 NNew      2
 Iteration     5 Dimension    12 NMult    10 NNew      2
 Iteration     6 Dimension    14 NMult    12 NNew      2
 ***********************************************************************
 Excited states from <AA,BB:AA,BB> singles matrix:
 ***********************************************************************
 
 Ground to excited state transition densities written to RWF  633
 Ground to excited state transition electric dipole moments (Au):
       state          X           Y           Z        Dip. S.      Osc.
         1        -0.5515      0.3085     -0.0000      0.3993      0.0275
 Ground to excited state transition velocity dipole moments (Au):
       state          X           Y           Z        Dip. S.      Osc.
         1         0.0643     -0.0341     -0.0000      0.0053      0.0343
 Ground to excited state transition magnetic dipole moments (Au):
       state          X           Y           Z
         1         0.0000     -0.0000     -0.0850
 Ground to excited state transition velocity quadrupole moments (Au):
       state          XX          YY          ZZ          XY          XZ          YZ
         1         0.1207      0.2035     -0.0097      0.1266     -0.0000      0.0000
 <0|del|b> * <b|rxdel|0> + <0|del|b> * <b|delr+rdel|0>
 Rotatory Strengths (R) in cgs (10**-40 erg-esu-cm/Gauss)
       state          XX          YY          ZZ    R(velocity)    E-M Angle
         1        -0.0000      0.0000      0.0000      0.0000       90.00
 1/2[<0|r|b>*<b|rxdel|0> + (<0|rxdel|b>*<b|r|0>)*]
 Rotatory Strengths (R) in cgs (10**-40 erg-esu-cm/Gauss)
       state          XX          YY          ZZ     R(length)
         1         0.0000      0.0000     -0.0000      0.0000
  1/2[<0|del|b>*<b|r|0> + (<0|r|b>*<b|del|0>)*] (Au)
       state          X           Y           Z        Dip. S.   Osc.(frdel)
         1        -0.0355     -0.0105      0.0000      0.0460      0.0307

 Excitation energies and oscillator strengths:
 
 Excited State   1:      Singlet-A'     2.8087 eV  441.44 nm  f=0.0275  <S**2>=0.000
      47 -> 48         0.70410
 This state for optimization and/or second-order correction.
 Total Energy, E(TD-HF/TD-DFT) =  -539.656561241    
 Copying the excited state density for this state as the 1-particle RhoCI density.
 SavETr:  write IOETrn=   770 NScale= 10 NData=  16 NLR=1 NState=    1 LETran=      28.

 **********************************************************************

            Population analysis using the SCF Density.

 **********************************************************************

 Orbital symmetries:
       Occupied  (A') (A') (A') (A') (A') (A') (A') (A') (A') (A')
                 (A') (A') (A') (A') (A') (A') (A') (A') (A') (A')
                 (A') (A') (A') (A') (A') (A') (A') (A') (A') (A')
                 (A') (A') (A") (A') (A') (A') (A') (A") (A") (A')
                 (A') (A') (A') (A") (A") (A") (A")
       Virtual   (A") (A") (A") (A") (A') (A') (A') (A') (A") (A')
                 (A') (A") (A') (A') (A") (A') (A") (A') (A') (A')
                 (A") (A") (A') (A') (A') (A") (A') (A") (A') (A')
                 (A") (A') (A") (A') (A') (A') (A') (A') (A") (A')
                 (A") (A') (A') (A") (A") (A') (A") (A') (A") (A')
                 (A') (A') (A') (A') (A') (A") (A') (A') (A') (A')
                 (A') (A") (A') (A') (A') (A') (A") (A') (A') (A')
                 (A') (A') (A') (A') (A') (A') (A') (A') (A') (A')
                 (A') (A') (A') (A') (A') (A') (A') (A') (A') (A')
                 (A') (A') (A') (A') (A") (A') (A") (A") (A') (A")
                 (A') (A') (A') (A') (A") (A") (A') (A") (A") (A')
                 (A') (A') (A") (A') (A') (A") (A') (A") (A') (A")
                 (A") (A') (A") (A') (A') (A') (A") (A') (A') (A')
                 (A') (A') (A') (A') (A') (A') (A') (A') (A') (A')
                 (A') (A') (A') (A") (A') (A') (A') (A') (A') (A')
                 (A') (A') (A") (A') (A") (A') (A") (A") (A') (A")
                 (A") (A') (A') (A") (A") (A") (A') (A") (A') (A')
                 (A') (A') (A') (A") (A") (A') (A') (A') (A') (A")
                 (A') (A') (A') (A") (A') (A") (A') (A') (A") (A")
                 (A") (A') (A') (A") (A") (A') (A') (A') (A') (A')
                 (A") (A") (A") (A') (A') (A") (A') (A") (A') (A')
                 (A') (A") (A') (A") (A") (A') (A") (A') (A') (A")
                 (A') (A') (A') (A') (A") (A') (A') (A') (A") (A")
                 (A') (A') (A') (A") (A') (A') (A') (A") (A") (A')
                 (A") (A') (A') (A") (A') (A') (A') (A') (A') (A')
                 (A") (A') (A') (A') (A') (A") (A") (A") (A') (A')
                 (A') (A') (A') (A') (A') (A') (A") (A') (A') (A')
                 (A') (A") (A') (A") (A") (A") (A') (A") (A') (A")
                 (A') (A") (A") (A') (A") (A") (A') (A') (A') (A')
                 (A') (A') (A') (A') (A') (A') (A') (A') (A') (A')
                 (A') (A') (A') (A") (A') (A') (A') (A') (A') (A')
                 (A') (A') (A') (A') (A') (A') (A') (A') (A') (A')
                 (A') (A') (A') (A') (A') (A') (A') (A') (A') (A')
                 (A') (A')
 The electronic state is 1-A'.
 Alpha  occ. eigenvalues --  -10.77660 -10.73384 -10.73095 -10.72550 -10.72316
 Alpha  occ. eigenvalues --  -10.71504 -10.71265 -10.71230 -10.70979 -10.70750
 Alpha  occ. eigenvalues --  -10.70038 -10.69907 -10.69712 -10.69547  -1.16450
 Alpha  occ. eigenvalues --   -1.12466  -1.06944  -1.05739  -1.01311  -1.00202
 Alpha  occ. eigenvalues --   -0.95766  -0.91054  -0.86420  -0.85901  -0.83813
 Alpha  occ. eigenvalues --   -0.78395  -0.76036  -0.74414  -0.69579  -0.69251
 Alpha  occ. eigenvalues --   -0.68489  -0.68183  -0.68101  -0.64788  -0.64276
 Alpha  occ. eigenvalues --   -0.63035  -0.61848  -0.60063  -0.59621  -0.59098
 Alpha  occ. eigenvalues --   -0.56900  -0.55222  -0.54815  -0.52438  -0.46680
 Alpha  occ. eigenvalues --   -0.46067  -0.44439
 Alpha virt. eigenvalues --   -0.26089  -0.14669  -0.14096  -0.12773  -0.11179
 Alpha virt. eigenvalues --   -0.10087  -0.09232  -0.07981  -0.07967  -0.07476
 Alpha virt. eigenvalues --   -0.07204  -0.07144  -0.05643  -0.05581  -0.05334
 Alpha virt. eigenvalues --   -0.03828  -0.03648  -0.03279  -0.03133  -0.02165
 Alpha virt. eigenvalues --   -0.01366  -0.00932   0.00192   0.00593   0.00661
 Alpha virt. eigenvalues --    0.01058   0.01513   0.01940   0.02213   0.02289
 Alpha virt. eigenvalues --    0.02450   0.02670   0.02749   0.03307   0.03382
 Alpha virt. eigenvalues --    0.04239   0.04505   0.04698   0.05031   0.05367
 Alpha virt. eigenvalues --    0.06032   0.06295   0.06595   0.07045   0.07255
 Alpha virt. eigenvalues --    0.07893   0.08157   0.08362   0.08546   0.08927
 Alpha virt. eigenvalues --    0.09538   0.09566   0.10034   0.10867   0.11025
 Alpha virt. eigenvalues --    0.11117   0.12168   0.12245   0.12890   0.12988
 Alpha virt. eigenvalues --    0.13413   0.13524   0.14015   0.14379   0.16169
 Alpha virt. eigenvalues --    0.16342   0.16356   0.17345   0.17614   0.17798
 Alpha virt. eigenvalues --    0.18123   0.19069   0.19252   0.19632   0.19750
 Alpha virt. eigenvalues --    0.21550   0.21600   0.22721   0.23113   0.23560
 Alpha virt. eigenvalues --    0.23814   0.24571   0.25335   0.26922   0.27606
 Alpha virt. eigenvalues --    0.28847   0.29292   0.29866   0.31358   0.35816
 Alpha virt. eigenvalues --    0.36432   0.38184   0.39276   0.41150   0.41396
 Alpha virt. eigenvalues --    0.41968   0.42196   0.42984   0.43683   0.44301
 Alpha virt. eigenvalues --    0.44926   0.45043   0.46063   0.46200   0.47943
 Alpha virt. eigenvalues --    0.48520   0.48861   0.49026   0.50431   0.51155
 Alpha virt. eigenvalues --    0.51515   0.51754   0.52117   0.52895   0.53984
 Alpha virt. eigenvalues --    0.54092   0.54644   0.55680   0.55772   0.57475
 Alpha virt. eigenvalues --    0.58239   0.58824   0.61446   0.62197   0.62350
 Alpha virt. eigenvalues --    0.63209   0.63490   0.64965   0.65154   0.67273
 Alpha virt. eigenvalues --    0.70412   0.70590   0.71038   0.72419   0.72872
 Alpha virt. eigenvalues --    0.75757   0.76023   0.76299   0.76888   0.77098
 Alpha virt. eigenvalues --    0.77844   0.77886   0.78240   0.79884   0.80395
 Alpha virt. eigenvalues --    0.81245   0.81641   0.82160   0.83012   0.85189
 Alpha virt. eigenvalues --    0.87154   0.88176   0.88566   0.89136   0.90430
 Alpha virt. eigenvalues --    0.91082   0.91268   0.93198   0.94628   0.96428
 Alpha virt. eigenvalues --    0.96673   1.00383   1.01285   1.01677   1.02719
 Alpha virt. eigenvalues --    1.03201   1.03742   1.04746   1.05522   1.08775
 Alpha virt. eigenvalues --    1.19556   1.23246   1.24066   1.25181   1.28091
 Alpha virt. eigenvalues --    1.29667   1.31801   1.34303   1.35767   1.36000
 Alpha virt. eigenvalues --    1.39350   1.40122   1.40944   1.43013   1.43473
 Alpha virt. eigenvalues --    1.43521   1.44862   1.45695   1.46365   1.46672
 Alpha virt. eigenvalues --    1.47643   1.48025   1.51732   1.53629   1.55774
 Alpha virt. eigenvalues --    1.55819   1.56346   1.56575   1.57780   1.61445
 Alpha virt. eigenvalues --    1.63230   1.63467   1.63826   1.66109   1.68309
 Alpha virt. eigenvalues --    1.68353   1.68692   1.69741   1.74391   1.75992
 Alpha virt. eigenvalues --    1.77170   1.78051   1.80005   1.80125   1.80721
 Alpha virt. eigenvalues --    1.83133   1.83209   1.83613   1.83825   1.84166
 Alpha virt. eigenvalues --    1.84297   1.85804   1.86125   1.88232   1.91387
 Alpha virt. eigenvalues --    1.92075   1.94123   1.95206   1.97697   1.98154
 Alpha virt. eigenvalues --    1.99745   2.02427   2.04416   2.07264   2.11808
 Alpha virt. eigenvalues --    2.12064   2.14119   2.15224   2.19100   2.21247
 Alpha virt. eigenvalues --    2.22790   2.28610   2.30171   2.34635   2.34937
 Alpha virt. eigenvalues --    2.36231   2.38681   2.39601   2.42370   2.44660
 Alpha virt. eigenvalues --    2.46162   2.46513   2.49350   2.52909   2.53803
 Alpha virt. eigenvalues --    2.54241   2.56791   2.57845   2.58309   2.59618
 Alpha virt. eigenvalues --    2.59832   2.61598   2.62135   2.63541   2.63791
 Alpha virt. eigenvalues --    2.64783   2.65111   2.65194   2.65364   2.67954
 Alpha virt. eigenvalues --    2.68528   2.70954   2.71419   2.73346   2.74819
 Alpha virt. eigenvalues --    2.76302   2.78757   2.79717   2.82879   2.83069
 Alpha virt. eigenvalues --    2.84882   2.86291   2.92112   2.97010   2.99502
 Alpha virt. eigenvalues --    3.00065   3.05107   3.10918   3.11421   3.13192
 Alpha virt. eigenvalues --    3.20977   3.23567   3.26704   3.28271   3.30720
 Alpha virt. eigenvalues --    3.32800   3.33713   3.43447   3.45930   3.46601
 Alpha virt. eigenvalues --    3.48509   3.50133   3.56483   3.65870   3.66844
 Alpha virt. eigenvalues --    3.67460   3.94173   3.94495   3.95224   3.96236
 Alpha virt. eigenvalues --    4.04007   4.06865   4.07511   4.12547   4.35516
 Alpha virt. eigenvalues --    4.61342   4.69778   4.71599  23.45334  23.60499
 Alpha virt. eigenvalues --   23.82078  23.85260  23.87657  23.89163  23.90649
 Alpha virt. eigenvalues --   23.92791  23.97352  23.98838  24.00278  24.01261
 Alpha virt. eigenvalues --   24.10574  24.10840
          Condensed to atoms (all electrons):
               1          2          3          4          5          6
     1  C    8.515932   0.387503  -0.579166   1.906747  -0.018417  -0.092534
     2  C    0.387503   7.137442   0.378520  -1.047385  -0.025691  -0.014810
     3  C   -0.579166   0.378520   6.590989   0.748698  -0.120310   0.016917
     4  C    1.906747  -1.047385   0.748698  11.126624  -0.362893  -0.127816
     5  C   -0.018417  -0.025691  -0.120310  -0.362893  10.901042   0.778849
     6  C   -0.092534  -0.014810   0.016917  -0.127816   0.778849   6.586470
     7  C   -0.023118   0.001585  -0.014212  -0.011139  -1.105670   0.330292
     8  C    0.404602  -0.014389  -0.098483  -0.040829   2.052875  -0.507179
     9  C   -1.173332  -0.814167   0.294019  -0.157167  -0.283053   0.293401
    10  C   -1.255009   0.222026  -0.329852  -2.634729  -2.522735  -0.378164
    11  C    0.300826  -0.883698   0.977603  -0.271245  -1.481124  -0.158218
    12  C   -1.972721   1.255024  -1.375500  -1.596168  -0.298459  -0.223090
    13  C    0.198689  -0.231169  -0.190456  -1.530623  -0.274124   1.041980
    14  C   -1.095314  -0.226039  -0.176462  -0.367880  -1.598218  -1.421056
    15  H    0.366902  -0.105654  -0.002021   0.026693   0.005992   0.001140
    16  H   -0.019658   0.380083  -0.018007   0.014605  -0.001591  -0.000337
    17  H   -0.023092  -0.018352   0.376668  -0.068313   0.000266   0.000403
    18  H    0.049225   0.003119  -0.084609   0.459512   0.006393  -0.005040
    19  H   -0.045988  -0.007795   0.051066  -0.072889  -0.067512   0.051209
    20  H    0.007194   0.002028  -0.005113   0.006360   0.456214  -0.084733
    21  H   -0.001292  -0.000406   0.000395   0.000371  -0.067374   0.373001
    22  H    0.000620   0.000353  -0.000320  -0.001496   0.012608  -0.015290
    23  H    0.006013  -0.002582   0.001066   0.005495   0.028061  -0.000797
    24  H    0.034228   0.014895  -0.001474  -0.011997  -0.012518  -0.001612
    25  H    0.034228   0.014895  -0.001474  -0.011997  -0.012518  -0.001612
               7          8          9         10         11         12
     1  C   -0.023118   0.404602  -1.173332  -1.255009   0.300826  -1.972721
     2  C    0.001585  -0.014389  -0.814167   0.222026  -0.883698   1.255024
     3  C   -0.014212  -0.098483   0.294019  -0.329852   0.977603  -1.375500
     4  C   -0.011139  -0.040829  -0.157167  -2.634729  -0.271245  -1.596168
     5  C   -1.105670   2.052875  -0.283053  -2.522735  -1.481124  -0.298459
     6  C    0.330292  -0.507179   0.293401  -0.378164  -0.158218  -0.223090
     7  C    7.136795   0.244081  -0.790479   0.275364  -0.255999  -0.166121
     8  C    0.244081   8.675419  -1.165269  -1.309381   0.218663  -1.064128
     9  C   -0.790479  -1.165269   9.599221   0.259168   1.638667  -1.992879
    10  C    0.275364  -1.309381   0.259168   9.165925  -0.427997   2.417000
    11  C   -0.255999   0.218663   1.638667  -0.427997  14.522936  -3.871016
    12  C   -0.166121  -1.064128  -1.992879   2.417000  -3.871016  16.119373
    13  C   -0.940042   0.294596   1.595742  -0.477677   1.092188  -4.791020
    14  C    1.447653  -2.190416  -1.886609   2.442062  -4.819135   3.081744
    15  H   -0.002743   0.005506   0.090320  -0.009127  -0.029821  -0.021230
    16  H    0.000376   0.000801   0.003206  -0.009752   0.026692  -0.032835
    17  H   -0.000393  -0.001339  -0.005506   0.020402  -0.027115   0.090259
    18  H    0.002044   0.007237  -0.024379   0.011833  -0.007891  -0.051939
    19  H   -0.007534  -0.047426   0.075662   0.421989   0.077112  -0.071230
    20  H    0.002716   0.051105  -0.025340   0.013786  -0.011918  -0.012181
    21  H   -0.014284  -0.026659  -0.005986   0.020587  -0.006301   0.005340
    22  H    0.377552  -0.018762   0.003804  -0.009095   0.002934  -0.008714
    23  H   -0.106290   0.367788   0.092539  -0.010109   0.002978   0.006176
    24  H    0.014049   0.031397   0.356395   0.005378   0.016769  -0.060018
    25  H    0.014049   0.031397   0.356395   0.005378   0.016769  -0.060018
              13         14         15         16         17         18
     1  C    0.198689  -1.095314   0.366902  -0.019658  -0.023092   0.049225
     2  C   -0.231169  -0.226039  -0.105654   0.380083  -0.018352   0.003119
     3  C   -0.190456  -0.176462  -0.002021  -0.018007   0.376668  -0.084609
     4  C   -1.530623  -0.367880   0.026693   0.014605  -0.068313   0.459512
     5  C   -0.274124  -1.598218   0.005992  -0.001591   0.000266   0.006393
     6  C    1.041980  -1.421056   0.001140  -0.000337   0.000403  -0.005040
     7  C   -0.940042   1.447653  -0.002743   0.000376  -0.000393   0.002044
     8  C    0.294596  -2.190416   0.005506   0.000801  -0.001339   0.007237
     9  C    1.595742  -1.886609   0.090320   0.003206  -0.005506  -0.024379
    10  C   -0.477677   2.442062  -0.009127  -0.009752   0.020402   0.011833
    11  C    1.092188  -4.819135  -0.029821   0.026692  -0.027115  -0.007891
    12  C   -4.791020   3.081744  -0.021230  -0.032835   0.090259  -0.051939
    13  C   14.464555  -3.668640   0.000051   0.003180  -0.006305  -0.011998
    14  C   -3.668640  16.016908   0.006908  -0.009473   0.005282  -0.015803
    15  H    0.000051   0.006908   0.437554  -0.008999   0.001527   0.000201
    16  H    0.003180  -0.009473  -0.008999   0.418533  -0.006781   0.001933
    17  H   -0.006305   0.005282   0.001527  -0.006781   0.421722  -0.010206
    18  H   -0.011998  -0.015803   0.000201   0.001933  -0.010206   0.452090
    19  H    0.078821  -0.059762   0.000334  -0.000557   0.001498  -0.006046
    20  H   -0.006100  -0.056992  -0.000116   0.000016  -0.000150   0.001264
    21  H   -0.027790   0.093704   0.000014  -0.000007   0.000010  -0.000136
    22  H    0.027031  -0.033777  -0.000126   0.000007  -0.000007   0.000014
    23  H   -0.031048  -0.027796   0.000579  -0.000128   0.000013  -0.000109
    24  H    0.010359  -0.060278  -0.000916   0.000630  -0.000140   0.000170
    25  H    0.010359  -0.060278  -0.000916   0.000630  -0.000140   0.000170
              19         20         21         22         23         24
     1  C   -0.045988   0.007194  -0.001292   0.000620   0.006013   0.034228
     2  C   -0.007795   0.002028  -0.000406   0.000353  -0.002582   0.014895
     3  C    0.051066  -0.005113   0.000395  -0.000320   0.001066  -0.001474
     4  C   -0.072889   0.006360   0.000371  -0.001496   0.005495  -0.011997
     5  C   -0.067512   0.456214  -0.067374   0.012608   0.028061  -0.012518
     6  C    0.051209  -0.084733   0.373001  -0.015290  -0.000797  -0.001612
     7  C   -0.007534   0.002716  -0.014284   0.377552  -0.106290   0.014049
     8  C   -0.047426   0.051105  -0.026659  -0.018762   0.367788   0.031397
     9  C    0.075662  -0.025340  -0.005986   0.003804   0.092539   0.356395
    10  C    0.421989   0.013786   0.020587  -0.009095  -0.010109   0.005378
    11  C    0.077112  -0.011918  -0.006301   0.002934   0.002978   0.016769
    12  C   -0.071230  -0.012181   0.005340  -0.008714   0.006176  -0.060018
    13  C    0.078821  -0.006100  -0.027790   0.027031  -0.031048   0.010359
    14  C   -0.059762  -0.056992   0.093704  -0.033777  -0.027796  -0.060278
    15  H    0.000334  -0.000116   0.000014  -0.000126   0.000579  -0.000916
    16  H   -0.000557   0.000016  -0.000007   0.000007  -0.000128   0.000630
    17  H    0.001498  -0.000150   0.000010  -0.000007   0.000013  -0.000140
    18  H   -0.006046   0.001264  -0.000136   0.000014  -0.000109   0.000170
    19  H    0.442781  -0.006350   0.001331  -0.000521   0.000279   0.000597
    20  H   -0.006350   0.455084  -0.010310   0.001910   0.000151   0.000193
    21  H    0.001331  -0.010310   0.423152  -0.006471   0.001405  -0.000145
    22  H   -0.000521   0.001910  -0.006471   0.420318  -0.009005   0.000632
    23  H    0.000279   0.000151   0.001405  -0.009005   0.440469  -0.000900
    24  H    0.000597   0.000193  -0.000145   0.000632  -0.000900   0.493877
    25  H    0.000597   0.000193  -0.000145   0.000632  -0.000900  -0.079617
              25
     1  C    0.034228
     2  C    0.014895
     3  C   -0.001474
     4  C   -0.011997
     5  C   -0.012518
     6  C   -0.001612
     7  C    0.014049
     8  C    0.031397
     9  C    0.356395
    10  C    0.005378
    11  C    0.016769
    12  C   -0.060018
    13  C    0.010359
    14  C   -0.060278
    15  H   -0.000916
    16  H    0.000630
    17  H   -0.000140
    18  H    0.000170
    19  H    0.000597
    20  H    0.000193
    21  H   -0.000145
    22  H    0.000632
    23  H   -0.000900
    24  H   -0.079617
    25  H    0.493877
 Mulliken charges:
               1
     1  C    0.086935
     2  C   -0.405335
     3  C   -0.438483
     4  C    0.019463
     5  C    0.009908
     6  C   -0.441372
     7  C   -0.408533
     8  C    0.098796
     9  C   -0.334372
    10  C    0.092727
    11  C   -0.642658
    12  C    0.694349
    13  C   -0.630558
    14  C    0.679667
    15  H    0.237948
    16  H    0.257433
    17  H    0.249791
    18  H    0.222951
    19  H    0.190335
    20  H    0.221089
    21  H    0.247994
    22  H    0.255173
    23  H    0.236655
    24  H    0.250047
    25  H    0.250047
 Sum of Mulliken charges =   1.00000
 Mulliken charges with hydrogens summed into heavy atoms:
               1
     1  C    0.324883
     2  C   -0.147902
     3  C   -0.188692
     4  C    0.242414
     5  C    0.230997
     6  C   -0.193378
     7  C   -0.153361
     8  C    0.335452
     9  C    0.165723
    10  C    0.283062
    11  C   -0.642658
    12  C    0.694349
    13  C   -0.630558
    14  C    0.679667
 Electronic spatial extent (au):  <R**2>=           2855.9312
 Charge=              1.0000 electrons
 Dipole moment (field-independent basis, Debye):
    X=              0.0325    Y=             -0.3350    Z=             -0.0000  Tot=              0.3366
 Quadrupole moment (field-independent basis, Debye-Ang):
   XX=            -50.7902   YY=            -36.5824   ZZ=            -84.1410
   XY=             10.3805   XZ=              0.0000   YZ=             -0.0000
 Traceless Quadrupole moment (field-independent basis, Debye-Ang):
   XX=              6.3810   YY=             20.5888   ZZ=            -26.9698
   XY=             10.3805   XZ=              0.0000   YZ=             -0.0000
 Octapole moment (field-independent basis, Debye-Ang**2):
  XXX=             -0.5469  YYY=              2.7478  ZZZ=             -0.0000  XYY=             -1.1251
  XXY=             -5.9429  XXZ=             -0.0000  XZZ=             -2.9155  YZZ=              1.0969
  YYZ=             -0.0000  XYZ=              0.0000
 Hexadecapole moment (field-independent basis, Debye-Ang**3):
 XXXX=           -996.8526 YYYY=          -1842.7265 ZZZZ=            -99.3279 XXXY=           -350.1405
 XXXZ=              0.0000 YYYX=           -277.1477 YYYZ=             -0.0000 ZZZX=              0.0000
 ZZZY=             -0.0000 XXYY=           -453.7228 XXZZ=           -243.7810 YYZZ=           -492.6697
 XXYZ=             -0.0000 YYXZ=              0.0000 ZZXY=           -184.4711
 N-N= 7.811999281446D+02 E-N=-2.798742559585D+03  KE= 5.375073642879D+02
 Symmetry A'   KE= 5.228597361302D+02
 Symmetry A"   KE= 1.464762815775D+01
 Unable to Open any file for archive entry.
 1\1\GINC-GADI-CPU-CLX-1762\SP\RM062X TD-FC\6-311++G(d,p)\C14H11(1+)\TS
 1578\02-Aug-2022\0\\#n M062X/6-311++G(d,p) TD(NStates=1) EmpiricalDisp
 ersion=GD3 SP\\SP_25\\1,1\C,0,2.485805,1.360731,0.\C,0,3.693283,0.6684
 64,0.\C,0,3.681561,-0.72003,0.\C,0,2.470956,-1.412088,0.\C,0,-2.455356
 ,-1.402988,0.\C,0,-3.686161,-0.70763,0.\C,0,-3.709733,0.675514,0.\C,0,
 -2.499505,1.360131,0.\C,0,-0.004375,1.453369,0.\C,0,0.0122,-1.429189,0
 .\C,0,1.26388,0.68089,0.\C,0,1.242471,-0.731404,0.\C,0,-1.26023,0.6732
 4,0.\C,0,-1.232471,-0.730204,0.\H,0,2.485971,2.443872,0.\H,0,4.628428,
 1.208814,0.\H,0,4.610712,-1.272124,0.\H,0,2.4712,-2.494484,0.\H,0,0.01
 125,-2.510266,0.\H,0,-2.4639,-2.485634,0.\H,0,-4.607812,-1.272574,0.\H
 ,0,-4.645078,1.214564,0.\H,0,-2.490171,2.443422,0.\H,0,-0.016,2.145787
 ,-0.859585\H,0,-0.016,2.145787,0.859585\\Version=ES64L-G16RevC.01\Stat
 e=1-A'\HF=-539.7597776\RMSD=5.807e-09\PG=CS [SG(C14H9),X(H2)]\\@
 The archive entry for this job was punched.


 NO MATTER HOW THIN YOU SLICE IT, IT'S STILL BALONEY

                                   -- ALFRED E. SMITH
 Job cpu time:       0 days  0 hours 51 minutes 52.5 seconds.
 Elapsed time:       0 days  0 hours  1 minutes  5.0 seconds.
 File lengths (MBytes):  RWF=    460 Int=      0 D2E=      0 Chk=     15 Scr=      1
 Normal termination of Gaussian 16 at Tue Aug  2 12:19:24 2022.
