 Entering Gaussian System, Link 0=g16
 Initial command:
 /apps/gaussian/g16c01/g16/l1.exe "/jobfs/53796104.gadi-pbs/Gau-3637026.inp" -scrdir="/jobfs/53796104.gadi-pbs/"
 Entering Link 1 = /apps/gaussian/g16c01/g16/l1.exe PID=   3637027.
  
 Copyright (c) 1988-2019, Gaussian, Inc.  All Rights Reserved.
  
 This is part of the Gaussian(R) 16 program.  It is based on
 the Gaussian(R) 09 system (copyright 2009, Gaussian, Inc.),
 the Gaussian(R) 03 system (copyright 2003, Gaussian, Inc.),
 the Gaussian(R) 98 system (copyright 1998, Gaussian, Inc.),
 the Gaussian(R) 94 system (copyright 1995, Gaussian, Inc.),
 the Gaussian 92(TM) system (copyright 1992, Gaussian, Inc.),
 the Gaussian 90(TM) system (copyright 1990, Gaussian, Inc.),
 the Gaussian 88(TM) system (copyright 1988, Gaussian, Inc.),
 the Gaussian 86(TM) system (copyright 1986, Carnegie Mellon
 University), and the Gaussian 82(TM) system (copyright 1983,
 Carnegie Mellon University). Gaussian is a federally registered
 trademark of Gaussian, Inc.
  
 This software contains proprietary and confidential information,
 including trade secrets, belonging to Gaussian, Inc.
  
 This software is provided under written license and may be
 used, copied, transmitted, or stored only in accord with that
 written license.
  
 The following legend is applicable only to US Government
 contracts under FAR:
  
                    RESTRICTED RIGHTS LEGEND
  
 Use, reproduction and disclosure by the US Government is
 subject to restrictions as set forth in subparagraphs (a)
 and (c) of the Commercial Computer Software - Restricted
 Rights clause in FAR 52.227-19.
  
 Gaussian, Inc.
 340 Quinnipiac St., Bldg. 40, Wallingford CT 06492
  
  
 ---------------------------------------------------------------
 Warning -- This program may not be used in any manner that
 competes with the business of Gaussian, Inc. or will provide
 assistance to any competitor of Gaussian, Inc.  The licensee
 of this program is prohibited from giving any competitor of
 Gaussian, Inc. access to this program.  By using this program,
 the user acknowledges that Gaussian, Inc. is engaged in the
 business of creating and licensing software in the field of
 computational chemistry and represents and warrants to the
 licensee that it is not a competitor of Gaussian, Inc. and that
 it will not use this program in any manner prohibited above.
 ---------------------------------------------------------------
  

 Cite this work as:
 Gaussian 16, Revision C.01,
 M. J. Frisch, G. W. Trucks, H. B. Schlegel, G. E. Scuseria, 
 M. A. Robb, J. R. Cheeseman, G. Scalmani, V. Barone, 
 G. A. Petersson, H. Nakatsuji, X. Li, M. Caricato, A. V. Marenich, 
 J. Bloino, B. G. Janesko, R. Gomperts, B. Mennucci, H. P. Hratchian, 
 J. V. Ortiz, A. F. Izmaylov, J. L. Sonnenberg, D. Williams-Young, 
 F. Ding, F. Lipparini, F. Egidi, J. Goings, B. Peng, A. Petrone, 
 T. Henderson, D. Ranasinghe, V. G. Zakrzewski, J. Gao, N. Rega, 
 G. Zheng, W. Liang, M. Hada, M. Ehara, K. Toyota, R. Fukuda, 
 J. Hasegawa, M. Ishida, T. Nakajima, Y. Honda, O. Kitao, H. Nakai, 
 T. Vreven, K. Throssell, J. A. Montgomery, Jr., J. E. Peralta, 
 F. Ogliaro, M. J. Bearpark, J. J. Heyd, E. N. Brothers, K. N. Kudin, 
 V. N. Staroverov, T. A. Keith, R. Kobayashi, J. Normand, 
 K. Raghavachari, A. P. Rendell, J. C. Burant, S. S. Iyengar, 
 J. Tomasi, M. Cossi, J. M. Millam, M. Klene, C. Adamo, R. Cammi, 
 J. W. Ochterski, R. L. Martin, K. Morokuma, O. Farkas, 
 J. B. Foresman, and D. J. Fox, Gaussian, Inc., Wallingford CT, 2019.
 
 ******************************************
 Gaussian 16:  ES64L-G16RevC.01  3-Jul-2019
                 2-Aug-2022 
 ******************************************
 %NProcShared=48
 Will use up to   48 processors via shared memory.
 %mem = 190GB
 ---------------------------------------------------------------
 #n M062X/6-311++G(d,p) TD(NStates=1) EmpiricalDispersion=GD3 SP
 ---------------------------------------------------------------
 1/38=1,172=1/1;
 2/12=2,17=6,18=5,40=1/2;
 3/5=4,6=6,7=1111,11=9,25=1,30=1,74=-55,124=31/1,2,3,8;
 4//1;
 5/5=2,38=5/2;
 8/6=1,10=2,108=1/1;
 9/41=1,42=1,70=2/14;
 6/7=2,8=2,9=2,10=2/1;
 99/5=1,9=1/99;
 ----
 SP_0
 ----
 Symbolic Z-matrix:
 Charge =  1 Multiplicity = 1
 C                     2.51606   1.35863   0. 
 C                     3.72761   0.68204   0. 
 C                     3.69166  -0.69673   0. 
 C                     2.43991  -1.39419   0. 
 C                    -2.48671  -1.42149   0. 
 C                    -3.67786  -0.73393   0. 
 C                    -3.67826   0.66089   0. 
 C                    -2.47496   1.36043   0. 
 C                     0.01305   1.45997   0. 
 C                    -0.0366   -1.42949   0. 
 C                     1.25681   0.66567   0. 
 C                     1.22187  -0.72855   0. 
 C                    -1.26776   0.68862   0. 
 C                    -1.25187  -0.73215   0. 
 H                     2.49767   2.442     0. 
 H                     4.66345   1.21919   0. 
 H                     4.60536  -1.2749    0. 
 H                     2.45615  -2.47701   0. 
 H                    -0.03375  -2.51042   0. 
 H                    -2.47805  -2.50356   0. 
 H                    -4.61406  -1.27355   0. 
 H                    -4.6135    1.20194   0. 
 H                    -2.48507   2.44335   0. 
 H                     0.048     2.14729  -0.86124 
 H                     0.048     2.14729   0.86124 
 
                          Input orientation:                          
 ---------------------------------------------------------------------
 Center     Atomic      Atomic             Coordinates (Angstroms)
 Number     Number       Type             X           Y           Z
 ---------------------------------------------------------------------
      1          6           0        2.516055    1.358631    0.000000
      2          6           0        3.727608    0.682039    0.000000
      3          6           0        3.691661   -0.696730    0.000000
      4          6           0        2.439906   -1.394188    0.000000
      5          6           0       -2.486706   -1.421488    0.000000
      6          6           0       -3.677861   -0.733930    0.000000
      7          6           0       -3.678258    0.660889    0.000000
      8          6           0       -2.474955    1.360431    0.000000
      9          6           0        0.013050    1.459969    0.000000
     10          6           0       -0.036600   -1.429489    0.000000
     11          6           0        1.256805    0.665665    0.000000
     12          6           0        1.221871   -0.728554    0.000000
     13          6           0       -1.267755    0.688615    0.000000
     14          6           0       -1.251871   -0.732154    0.000000
     15          1           0        2.497671    2.441997    0.000000
     16          1           0        4.663453    1.219189    0.000000
     17          1           0        4.605362   -1.274899    0.000000
     18          1           0        2.456150   -2.477009    0.000000
     19          1           0       -0.033750   -2.510416    0.000000
     20          1           0       -2.478050   -2.503559    0.000000
     21          1           0       -4.614062   -1.273549    0.000000
     22          1           0       -4.613503    1.201939    0.000000
     23          1           0       -2.485071    2.443347    0.000000
     24          1           0        0.048000    2.147287   -0.861235
     25          1           0        0.048000    2.147287    0.861235
 ---------------------------------------------------------------------
                    Distance matrix (angstroms):
                    1          2          3          4          5
     1  C    0.000000
     2  C    1.387673   0.000000
     3  C    2.367817   1.379238   0.000000
     4  C    2.753872   2.443132   1.432947   0.000000
     5  C    5.723345   6.560680   6.220731   4.926688   0.000000
     6  C    6.537844   7.539625   7.369616   6.153293   1.375349
     7  C    6.233487   7.405896   7.493920   6.454090   2.399185
     8  C    4.991010   6.239552   6.500697   5.634162   2.781944
     9  C    2.505056   3.795144   4.264215   3.746444   3.814653
    10  C    3.780167   4.315995   3.799588   2.476758   2.450119
    11  C    1.437328   2.470857   2.790097   2.375442   4.286033
    12  C    2.455861   2.875498   2.469995   1.388048   3.772758
    13  C    3.842673   4.995367   5.149271   4.252625   2.436878
    14  C    4.309135   5.176403   4.943659   3.750667   1.414213
    15  H    1.083522   2.147137   3.358157   3.836620   6.306388
    16  H    2.151921   1.079044   2.148284   3.431312   7.622201
    17  H    3.361649   2.144775   1.081263   2.168739   7.093583
    18  H    3.836108   3.405318   2.166998   1.082943   5.054300
    19  H    4.633684   4.933516   4.143446   2.713842   2.683795
    20  H    6.313287   6.975545   6.428839   5.041527   1.082106
    21  H    7.600457   8.567834   8.325728   7.055000   2.132494
    22  H    7.131280   8.357298   8.519430   7.516013   3.377223
    23  H    5.117409   6.457522   6.929077   6.243563   3.864835
    24  H    2.730384   4.053171   4.701747   4.359471   4.461235
    25  H    2.730384   4.053171   4.701747   4.359471   4.461235
                    6          7          8          9         10
     6  C    0.000000
     7  C    1.394819   0.000000
     8  C    2.415229   1.391868   0.000000
     9  C    4.293718   3.776809   2.489995   0.000000
    10  C    3.707099   4.198970   3.705297   2.889885   0.000000
    11  C    5.129307   4.935065   3.795884   1.475752   2.462228
    12  C    4.899735   5.093311   4.246220   2.500176   1.440507
    13  C    2.798615   2.410662   1.381546   1.495142   2.449920
    14  C    2.425991   2.797843   2.423808   2.530895   1.401128
    15  H    6.944329   6.427631   5.088889   2.671651   4.627195
    16  H    8.566924   8.360373   7.139805   4.656632   5.394997
    17  H    8.300869   8.506799   7.554856   5.344982   4.644535
    18  H    6.376866   6.890382   6.248339   4.633415   2.703905
    19  H    4.054066   4.831109   4.576346   3.970661   1.080931
    20  H    2.138021   3.384410   3.863991   4.681360   2.667265
    21  H    1.080584   2.148902   3.393174   5.374224   4.580117
    22  H    2.150120   1.080471   2.144413   4.633743   5.279437
    23  H    3.393794   2.144960   1.082963   2.684705   4.581907
    24  H    4.788024   4.103182   2.779599   1.102431   3.679974
    25  H    4.788024   4.103182   2.779599   1.102431   3.679974
                   11         12         13         14         15
    11  C    0.000000
    12  C    1.394657   0.000000
    13  C    2.524664   2.864717   0.000000
    14  C    2.871821   2.473745   1.420858   0.000000
    15  H    2.166819   3.417610   4.153647   4.912667   0.000000
    16  H    3.451324   3.954515   5.954892   6.228868   2.487141
    17  H    3.870223   3.427317   6.192648   5.882325   4.272900
    18  H    3.363752   2.140220   4.887601   4.098041   4.919181
    19  H    3.428268   2.179820   3.428785   2.155466   5.561878
    20  H    4.898278   4.103664   3.413911   2.154389   7.015435
    21  H    6.182850   5.861325   3.879157   3.405501   8.023841
    22  H    5.894752   6.146413   3.384898   3.878310   7.218486
    23  H    4.142679   4.878768   2.135636   3.406551   4.982742
    24  H    2.097174   3.223377   2.144915   3.274534   2.613325
    25  H    2.097174   3.223377   2.144915   3.274534   2.613325
                   16         17         18         19         20
    16  H    0.000000
    17  H    2.494764   0.000000
    18  H    4.305121   2.462556   0.000000
    19  H    5.997805   4.800819   2.490124   0.000000
    20  H    8.053566   7.189182   4.934271   2.444310   0.000000
    21  H    9.606562   9.219424   7.171904   4.744375   2.464847
    22  H    9.276972   9.545795   7.969608   5.895398   4.276783
    23  H    7.252583   8.006222   6.973204   5.527092   4.946911
    24  H    4.785969   5.763908   5.284413   4.737363   5.362185
    25  H    4.785969   5.763908   5.284413   4.737363   5.362185
                   21         22         23         24         25
    21  H    0.000000
    22  H    2.475488   0.000000
    23  H    4.283447   2.464004   0.000000
    24  H    5.846252   4.833738   2.691807   0.000000
    25  H    5.846252   4.833738   2.691807   1.722470   0.000000
 Stoichiometry    C14H11(1+)
 Framework group  CS[SG(C14H9),X(H2)]
 Deg. of freedom    46
 Full point group                 CS      NOp   2
 Largest Abelian subgroup         CS      NOp   2
 Largest concise Abelian subgroup CS      NOp   2
                         Standard orientation:                         
 ---------------------------------------------------------------------
 Center     Atomic      Atomic             Coordinates (Angstroms)
 Number     Number       Type             X           Y           Z
 ---------------------------------------------------------------------
      1          6           0        0.022722    2.858872    0.000000
      2          6           0       -1.142389    3.612633    0.000000
      3          6           0       -2.343861    2.935315    0.000000
      4          6           0       -2.374061    1.502686    0.000000
      5          6           0       -0.091490   -2.863333    0.000000
      6          6           0        1.073759   -3.593935    0.000000
      7          6           0        2.306431   -2.941217    0.000000
      8          6           0        2.361158   -1.550425    0.000000
      9          6           0        1.284200    0.694623    0.000000
     10          6           0       -1.245727   -0.702125    0.000000
     11          6           0        0.000000    1.421724    0.000000
     12          6           0       -1.215599    0.738067    0.000000
     13          6           0        1.202306   -0.798274    0.000000
     14          6           0       -0.060547   -1.449459    0.000000
     15          1           0        0.988610    3.349872    0.000000
     16          1           0       -1.105927    4.691061    0.000000
     17          1           0       -3.282546    3.471971    0.000000
     18          1           0       -3.338466    1.010050    0.000000
     19          1           0       -2.202186   -1.205708    0.000000
     20          1           0       -1.051679   -3.362322    0.000000
     21          1           0        1.035283   -4.673834    0.000000
     22          1           0        3.222403   -3.514289    0.000000
     23          1           0        3.322777   -1.052330    0.000000
     24          1           0        1.875162    1.047315    0.861235
     25          1           0        1.875162    1.047315   -0.861235
 ---------------------------------------------------------------------
 Rotational constants (GHZ):           2.1342983           0.4442592           0.3685196
 Standard basis: 6-311++G(d,p) (5D, 7F)
 There are   299 symmetry adapted cartesian basis functions of A'  symmetry.
 There are   100 symmetry adapted cartesian basis functions of A"  symmetry.
 There are   285 symmetry adapted basis functions of A'  symmetry.
 There are   100 symmetry adapted basis functions of A"  symmetry.
   385 basis functions,   603 primitive gaussians,   399 cartesian basis functions
    47 alpha electrons       47 beta electrons
       nuclear repulsion energy       780.9296043060 Hartrees.
 NAtoms=   25 NActive=   25 NUniq=   24 SFac= 1.09D+00 NAtFMM=   60 NAOKFM=F Big=F
 Integral buffers will be    131072 words long.
 Regular integral format.
 Two-electron integral symmetry is turned on.
 Nuclear repulsion after empirical dispersion term =      780.9286249621 Hartrees.
 One-electron integrals computed using PRISM.
 NBasis=   385 RedAO= T EigKep=  1.13D-06  NBF=   285   100
 NBsUse=   379 1.00D-06 EigRej=  8.41D-07 NBFU=   279   100
 ExpMin= 3.60D-02 ExpMax= 4.56D+03 ExpMxC= 6.82D+02 IAcc=3 IRadAn=         5 AccDes= 0.00D+00
 Harris functional with IExCor= 1009 and IRadAn=       5 diagonalized for initial guess.
 HarFok:  IExCor= 1009 AccDes= 0.00D+00 IRadAn=         5 IDoV= 1 UseB2=F ITyADJ=14
 ICtDFT=  3500011 ScaDFX=  1.000000  1.000000  1.000000  1.000000
 FoFCou: FMM=F IPFlag=           0 FMFlag=      100000 FMFlg1=           0
         NFxFlg=           0 DoJE=T BraDBF=F KetDBF=T FulRan=T
         wScrn=  0.000000 ICntrl=       500 IOpCl=  0 I1Cent=   200000004 NGrid=           0
         NMat0=    1 NMatS0=      1 NMatT0=    0 NMatD0=    1 NMtDS0=    0 NMtDT0=    0
 Petite list used in FoFCou.
 Initial guess orbital symmetries:
       Occupied  (A') (A') (A') (A') (A') (A') (A') (A') (A') (A')
                 (A') (A') (A') (A') (A') (A') (A') (A') (A') (A')
                 (A') (A') (A') (A') (A') (A') (A') (A') (A') (A')
                 (A') (A') (A") (A') (A') (A') (A') (A') (A") (A')
                 (A") (A') (A') (A") (A") (A") (A")
       Virtual   (A") (A") (A") (A") (A") (A') (A') (A') (A') (A")
                 (A") (A') (A') (A') (A") (A') (A') (A') (A') (A")
                 (A') (A") (A') (A') (A') (A") (A') (A") (A') (A')
                 (A') (A') (A') (A') (A") (A') (A") (A') (A') (A')
                 (A") (A') (A') (A") (A') (A') (A') (A') (A") (A')
                 (A') (A') (A") (A") (A') (A') (A') (A") (A") (A')
                 (A') (A') (A') (A') (A') (A') (A") (A') (A') (A")
                 (A') (A') (A') (A') (A') (A') (A') (A') (A') (A')
                 (A') (A') (A') (A') (A') (A') (A') (A') (A') (A')
                 (A') (A') (A') (A') (A') (A') (A') (A") (A') (A")
                 (A') (A') (A") (A") (A') (A") (A') (A") (A") (A')
                 (A") (A') (A') (A') (A") (A') (A') (A") (A") (A')
                 (A") (A") (A') (A') (A') (A") (A') (A') (A') (A")
                 (A') (A') (A') (A') (A') (A') (A") (A') (A') (A')
                 (A') (A') (A') (A') (A') (A') (A') (A') (A') (A")
                 (A") (A') (A") (A") (A') (A') (A') (A") (A") (A')
                 (A") (A') (A") (A") (A") (A') (A') (A') (A') (A')
                 (A') (A") (A') (A") (A') (A') (A') (A') (A') (A")
                 (A') (A') (A') (A') (A") (A') (A") (A') (A") (A")
                 (A') (A") (A') (A") (A') (A') (A') (A") (A') (A')
                 (A") (A") (A") (A') (A') (A") (A') (A") (A') (A')
                 (A") (A") (A') (A") (A') (A") (A') (A') (A') (A")
                 (A') (A') (A') (A') (A") (A') (A') (A') (A") (A")
                 (A') (A') (A') (A") (A') (A') (A") (A') (A") (A')
                 (A") (A') (A') (A') (A') (A") (A') (A') (A') (A")
                 (A') (A') (A") (A') (A") (A') (A') (A") (A') (A')
                 (A') (A") (A') (A") (A') (A') (A') (A") (A') (A")
                 (A') (A') (A') (A') (A") (A') (A") (A') (A") (A')
                 (A") (A') (A") (A") (A") (A') (A') (A') (A') (A')
                 (A') (A') (A') (A') (A') (A') (A') (A') (A') (A')
                 (A') (A') (A') (A') (A') (A") (A') (A') (A') (A')
                 (A') (A') (A') (A') (A') (A') (A') (A') (A') (A')
                 (A') (A') (A') (A') (A') (A') (A') (A') (A') (A')
                 (A') (A')
 The electronic state of the initial guess is 1-A'.
 Requested convergence on RMS density matrix=1.00D-08 within 128 cycles.
 Requested convergence on MAX density matrix=1.00D-06.
 Requested convergence on             energy=1.00D-06.
 No special actions if energy rises.
 SCF Done:  E(RM062X) =  -539.756366658     A.U. after   15 cycles
            NFock= 15  Conv=0.90D-08     -V/T= 2.0042
 DoSCS=F DFT=T ScalE2(SS,OS)=  1.000000  1.000000
 ExpMin= 3.60D-02 ExpMax= 4.56D+03 ExpMxC= 6.82D+02 IAcc=3 IRadAn=         5 AccDes= 0.00D+00
 HarFok:  IExCor=  205 AccDes= 0.00D+00 IRadAn=         5 IDoV=-2 UseB2=F ITyADJ=14
 ICtDFT= 12500011 ScaDFX=  1.000000  1.000000  1.000000  1.000000
 Range of M.O.s used for correlation:    15   379
 NBasis=   385 NAE=    47 NBE=    47 NFC=    14 NFV=     0
 NROrb=    365 NOA=    33 NOB=    33 NVA=   332 NVB=   332

 **** Warning!!: The largest alpha MO coefficient is  0.13601711D+03

 Orbital symmetries:
       Occupied  (A') (A') (A') (A') (A') (A') (A') (A') (A') (A')
                 (A') (A') (A') (A') (A') (A') (A') (A') (A') (A')
                 (A') (A') (A') (A') (A') (A') (A') (A') (A') (A')
                 (A') (A") (A') (A') (A') (A') (A') (A") (A") (A')
                 (A') (A') (A') (A") (A") (A") (A")
       Virtual   (A") (A") (A") (A") (A') (A') (A') (A') (A") (A')
                 (A') (A") (A') (A') (A") (A') (A") (A') (A') (A')
                 (A") (A") (A') (A') (A') (A") (A') (A") (A') (A')
                 (A") (A') (A") (A') (A') (A') (A') (A') (A") (A')
                 (A") (A') (A') (A") (A") (A') (A") (A') (A") (A')
                 (A') (A') (A') (A') (A') (A") (A') (A') (A') (A')
                 (A') (A") (A') (A') (A') (A") (A') (A') (A') (A')
                 (A') (A') (A') (A') (A') (A') (A') (A') (A') (A')
                 (A') (A') (A') (A') (A') (A') (A') (A') (A') (A')
                 (A') (A') (A') (A') (A") (A') (A") (A") (A') (A")
                 (A') (A') (A') (A') (A") (A") (A') (A") (A") (A')
                 (A') (A') (A") (A') (A') (A") (A') (A") (A') (A")
                 (A") (A') (A") (A') (A') (A') (A") (A') (A') (A')
                 (A') (A') (A') (A') (A') (A') (A') (A') (A') (A')
                 (A') (A') (A') (A") (A') (A') (A') (A') (A') (A')
                 (A') (A') (A") (A') (A") (A') (A") (A") (A') (A")
                 (A") (A') (A') (A") (A") (A') (A") (A") (A') (A')
                 (A') (A') (A') (A") (A") (A') (A') (A') (A') (A")
                 (A') (A') (A') (A") (A") (A') (A') (A") (A') (A")
                 (A") (A') (A') (A") (A") (A') (A') (A') (A') (A')
                 (A") (A") (A") (A') (A') (A") (A') (A") (A') (A')
                 (A') (A") (A') (A") (A") (A') (A") (A') (A') (A")
                 (A') (A') (A') (A') (A") (A') (A') (A') (A") (A")
                 (A') (A') (A') (A") (A') (A') (A') (A") (A") (A')
                 (A") (A') (A') (A") (A') (A') (A') (A') (A') (A')
                 (A") (A') (A') (A') (A') (A") (A") (A") (A') (A')
                 (A') (A') (A') (A') (A') (A') (A") (A') (A') (A')
                 (A') (A") (A') (A") (A") (A") (A') (A") (A') (A")
                 (A') (A") (A") (A') (A") (A") (A') (A') (A') (A')
                 (A') (A') (A') (A') (A') (A') (A') (A') (A') (A')
                 (A') (A') (A') (A") (A') (A') (A') (A') (A') (A')
                 (A') (A') (A') (A') (A') (A') (A') (A') (A') (A')
                 (A') (A') (A') (A') (A') (A') (A') (A') (A') (A')
                 (A') (A')
     4 initial guesses have been made.
 Convergence on wavefunction:    0.001000000000000
 Iteration     1 Dimension     4 NMult     0 NNew      4
 CISAX will form     4 AO SS matrices at one time.
 Iteration     2 Dimension     6 NMult     4 NNew      2
 Iteration     3 Dimension     8 NMult     6 NNew      2
 Iteration     4 Dimension    10 NMult     8 NNew      2
 Iteration     5 Dimension    12 NMult    10 NNew      2
 Iteration     6 Dimension    14 NMult    12 NNew      2
 ***********************************************************************
 Excited states from <AA,BB:AA,BB> singles matrix:
 ***********************************************************************
 
 Ground to excited state transition densities written to RWF  633
 Ground to excited state transition electric dipole moments (Au):
       state          X           Y           Z        Dip. S.      Osc.
         1         0.4825      0.2992     -0.0000      0.3223      0.0214
 Ground to excited state transition velocity dipole moments (Au):
       state          X           Y           Z        Dip. S.      Osc.
         1        -0.0560     -0.0302     -0.0000      0.0040      0.0270
 Ground to excited state transition magnetic dipole moments (Au):
       state          X           Y           Z
         1         0.0000     -0.0000      0.1759
 Ground to excited state transition velocity quadrupole moments (Au):
       state          XX          YY          ZZ          XY          XZ          YZ
         1         0.1423      0.1405     -0.0086     -0.1381      0.0000     -0.0000
 <0|del|b> * <b|rxdel|0> + <0|del|b> * <b|delr+rdel|0>
 Rotatory Strengths (R) in cgs (10**-40 erg-esu-cm/Gauss)
       state          XX          YY          ZZ    R(velocity)    E-M Angle
         1         0.0000     -0.0000     -0.0000     -0.0000       90.00
 1/2[<0|r|b>*<b|rxdel|0> + (<0|rxdel|b>*<b|r|0>)*]
 Rotatory Strengths (R) in cgs (10**-40 erg-esu-cm/Gauss)
       state          XX          YY          ZZ     R(length)
         1        -0.0000      0.0000      0.0000     -0.0000
  1/2[<0|del|b>*<b|r|0> + (<0|r|b>*<b|del|0>)*] (Au)
       state          X           Y           Z        Dip. S.   Osc.(frdel)
         1        -0.0270     -0.0090      0.0000      0.0360      0.0240

 Excitation energies and oscillator strengths:
 
 Excited State   1:      Singlet-A'     2.7159 eV  456.51 nm  f=0.0214  <S**2>=0.000
      47 -> 48         0.70362
 This state for optimization and/or second-order correction.
 Total Energy, E(TD-HF/TD-DFT) =  -539.656557876    
 Copying the excited state density for this state as the 1-particle RhoCI density.
 SavETr:  write IOETrn=   770 NScale= 10 NData=  16 NLR=1 NState=    1 LETran=      28.

 **********************************************************************

            Population analysis using the SCF Density.

 **********************************************************************

 Orbital symmetries:
       Occupied  (A') (A') (A') (A') (A') (A') (A') (A') (A') (A')
                 (A') (A') (A') (A') (A') (A') (A') (A') (A') (A')
                 (A') (A') (A') (A') (A') (A') (A') (A') (A') (A')
                 (A') (A") (A') (A') (A') (A') (A') (A") (A") (A')
                 (A') (A') (A') (A") (A") (A") (A")
       Virtual   (A") (A") (A") (A") (A') (A') (A') (A') (A") (A')
                 (A') (A") (A') (A') (A") (A') (A") (A') (A') (A')
                 (A") (A") (A') (A') (A') (A") (A') (A") (A') (A')
                 (A") (A') (A") (A') (A') (A') (A') (A') (A") (A')
                 (A") (A') (A') (A") (A") (A') (A") (A') (A") (A')
                 (A') (A') (A') (A') (A') (A") (A') (A') (A') (A')
                 (A') (A") (A') (A') (A') (A") (A') (A') (A') (A')
                 (A') (A') (A') (A') (A') (A') (A') (A') (A') (A')
                 (A') (A') (A') (A') (A') (A') (A') (A') (A') (A')
                 (A') (A') (A') (A') (A") (A') (A") (A") (A') (A")
                 (A') (A') (A') (A') (A") (A") (A') (A") (A") (A')
                 (A') (A') (A") (A') (A') (A") (A') (A") (A') (A")
                 (A") (A') (A") (A') (A') (A') (A") (A') (A') (A')
                 (A') (A') (A') (A') (A') (A') (A') (A') (A') (A')
                 (A') (A') (A') (A") (A') (A') (A') (A') (A') (A')
                 (A') (A') (A") (A') (A") (A') (A") (A") (A') (A")
                 (A") (A') (A') (A") (A") (A') (A") (A") (A') (A')
                 (A') (A') (A') (A") (A") (A') (A') (A') (A') (A")
                 (A') (A') (A') (A") (A") (A') (A') (A") (A') (A")
                 (A") (A') (A') (A") (A") (A') (A') (A') (A') (A')
                 (A") (A") (A") (A') (A') (A") (A') (A") (A') (A')
                 (A') (A") (A') (A") (A") (A') (A") (A') (A') (A")
                 (A') (A') (A') (A') (A") (A') (A') (A') (A") (A")
                 (A') (A') (A') (A") (A') (A') (A') (A") (A") (A')
                 (A") (A') (A') (A") (A') (A') (A') (A') (A') (A')
                 (A") (A') (A') (A') (A') (A") (A") (A") (A') (A')
                 (A') (A') (A') (A') (A') (A') (A") (A') (A') (A')
                 (A') (A") (A') (A") (A") (A") (A') (A") (A') (A")
                 (A') (A") (A") (A') (A") (A") (A') (A') (A') (A')
                 (A') (A') (A') (A') (A') (A') (A') (A') (A') (A')
                 (A') (A') (A') (A") (A') (A') (A') (A') (A') (A')
                 (A') (A') (A') (A') (A') (A') (A') (A') (A') (A')
                 (A') (A') (A') (A') (A') (A') (A') (A') (A') (A')
                 (A') (A')
 The electronic state is 1-A'.
 Alpha  occ. eigenvalues --  -10.77627 -10.73706 -10.72839 -10.72773 -10.72075
 Alpha  occ. eigenvalues --  -10.71792 -10.71765 -10.71003 -10.70947 -10.70252
 Alpha  occ. eigenvalues --  -10.70171 -10.69882 -10.69778 -10.69394  -1.16468
 Alpha  occ. eigenvalues --   -1.12445  -1.06941  -1.05747  -1.01295  -1.00288
 Alpha  occ. eigenvalues --   -0.95650  -0.91025  -0.86428  -0.85883  -0.83781
 Alpha  occ. eigenvalues --   -0.78353  -0.76065  -0.74381  -0.69718  -0.69287
 Alpha  occ. eigenvalues --   -0.68367  -0.68106  -0.68096  -0.65077  -0.64231
 Alpha  occ. eigenvalues --   -0.62809  -0.61682  -0.60352  -0.59373  -0.59145
 Alpha  occ. eigenvalues --   -0.56909  -0.55258  -0.54629  -0.52444  -0.47048
 Alpha  occ. eigenvalues --   -0.46111  -0.44046
 Alpha virt. eigenvalues --   -0.26112  -0.14664  -0.14087  -0.12769  -0.11184
 Alpha virt. eigenvalues --   -0.10086  -0.09248  -0.07968  -0.07951  -0.07480
 Alpha virt. eigenvalues --   -0.07204  -0.07136  -0.05647  -0.05575  -0.05342
 Alpha virt. eigenvalues --   -0.03841  -0.03657  -0.03274  -0.03135  -0.02162
 Alpha virt. eigenvalues --   -0.01353  -0.00945   0.00195   0.00593   0.00630
 Alpha virt. eigenvalues --    0.01061   0.01509   0.01939   0.02169   0.02307
 Alpha virt. eigenvalues --    0.02449   0.02670   0.02772   0.03286   0.03452
 Alpha virt. eigenvalues --    0.04230   0.04493   0.04717   0.05040   0.05382
 Alpha virt. eigenvalues --    0.06030   0.06286   0.06583   0.07038   0.07270
 Alpha virt. eigenvalues --    0.07898   0.08100   0.08347   0.08593   0.08916
 Alpha virt. eigenvalues --    0.09499   0.09582   0.09983   0.10819   0.10955
 Alpha virt. eigenvalues --    0.11130   0.12112   0.12243   0.12745   0.13011
 Alpha virt. eigenvalues --    0.13445   0.13526   0.13982   0.14351   0.15933
 Alpha virt. eigenvalues --    0.16411   0.16422   0.17331   0.17510   0.17790
 Alpha virt. eigenvalues --    0.18115   0.19081   0.19340   0.19620   0.19844
 Alpha virt. eigenvalues --    0.21475   0.21617   0.22669   0.23155   0.23550
 Alpha virt. eigenvalues --    0.23930   0.24574   0.25475   0.26936   0.27604
 Alpha virt. eigenvalues --    0.28830   0.29253   0.29877   0.31339   0.35747
 Alpha virt. eigenvalues --    0.36426   0.38207   0.39274   0.41079   0.41331
 Alpha virt. eigenvalues --    0.41940   0.42167   0.42984   0.43674   0.44355
 Alpha virt. eigenvalues --    0.44816   0.45098   0.45935   0.46335   0.47947
 Alpha virt. eigenvalues --    0.48439   0.48787   0.49048   0.50482   0.51025
 Alpha virt. eigenvalues --    0.51264   0.51936   0.52135   0.52781   0.54082
 Alpha virt. eigenvalues --    0.54114   0.54581   0.55656   0.55880   0.57632
 Alpha virt. eigenvalues --    0.58226   0.58906   0.61470   0.62266   0.62385
 Alpha virt. eigenvalues --    0.63168   0.63475   0.64879   0.65149   0.67312
 Alpha virt. eigenvalues --    0.70389   0.70531   0.71139   0.72465   0.72881
 Alpha virt. eigenvalues --    0.75634   0.76038   0.76374   0.76786   0.77114
 Alpha virt. eigenvalues --    0.77849   0.77938   0.78241   0.79923   0.80384
 Alpha virt. eigenvalues --    0.81222   0.81572   0.82340   0.82988   0.85192
 Alpha virt. eigenvalues --    0.87059   0.88123   0.88257   0.89261   0.90556
 Alpha virt. eigenvalues --    0.91004   0.91376   0.93261   0.94591   0.96292
 Alpha virt. eigenvalues --    0.96843   1.00267   1.01255   1.01579   1.02794
 Alpha virt. eigenvalues --    1.03156   1.03242   1.04826   1.06185   1.08815
 Alpha virt. eigenvalues --    1.19552   1.23055   1.24121   1.24514   1.28574
 Alpha virt. eigenvalues --    1.29443   1.32076   1.34339   1.35733   1.35968
 Alpha virt. eigenvalues --    1.39294   1.39778   1.40874   1.43014   1.43447
 Alpha virt. eigenvalues --    1.43512   1.44263   1.46344   1.46559   1.46611
 Alpha virt. eigenvalues --    1.47682   1.48102   1.51702   1.53646   1.55569
 Alpha virt. eigenvalues --    1.55795   1.56298   1.56594   1.57775   1.61414
 Alpha virt. eigenvalues --    1.63084   1.63409   1.64120   1.66061   1.68284
 Alpha virt. eigenvalues --    1.68314   1.68742   1.69833   1.74360   1.75992
 Alpha virt. eigenvalues --    1.77123   1.78069   1.79779   1.80003   1.80793
 Alpha virt. eigenvalues --    1.82908   1.83206   1.83566   1.83801   1.84202
 Alpha virt. eigenvalues --    1.84491   1.85540   1.86344   1.88306   1.91392
 Alpha virt. eigenvalues --    1.92093   1.94052   1.95261   1.97742   1.98128
 Alpha virt. eigenvalues --    1.99746   2.02216   2.04439   2.07297   2.11726
 Alpha virt. eigenvalues --    2.12097   2.14204   2.15258   2.19009   2.21122
 Alpha virt. eigenvalues --    2.22749   2.28577   2.30083   2.34459   2.34804
 Alpha virt. eigenvalues --    2.36311   2.38619   2.39658   2.42320   2.44861
 Alpha virt. eigenvalues --    2.46105   2.46259   2.49210   2.52901   2.53767
 Alpha virt. eigenvalues --    2.54123   2.56933   2.57879   2.58385   2.59464
 Alpha virt. eigenvalues --    2.59886   2.61534   2.62107   2.63533   2.63704
 Alpha virt. eigenvalues --    2.64805   2.65056   2.65075   2.65521   2.67813
 Alpha virt. eigenvalues --    2.68350   2.70917   2.71450   2.73355   2.74800
 Alpha virt. eigenvalues --    2.76290   2.78340   2.79638   2.82881   2.83144
 Alpha virt. eigenvalues --    2.84831   2.86208   2.92086   2.97100   2.99419
 Alpha virt. eigenvalues --    3.00088   3.04744   3.09773   3.11166   3.13818
 Alpha virt. eigenvalues --    3.20576   3.22238   3.26299   3.28442   3.30605
 Alpha virt. eigenvalues --    3.32774   3.34438   3.43749   3.46096   3.46560
 Alpha virt. eigenvalues --    3.48205   3.49949   3.56325   3.66455   3.66708
 Alpha virt. eigenvalues --    3.67700   3.93876   3.94109   3.95384   3.96382
 Alpha virt. eigenvalues --    4.03934   4.06542   4.07541   4.12549   4.35154
 Alpha virt. eigenvalues --    4.60670   4.69281   4.71277  23.45273  23.60142
 Alpha virt. eigenvalues --   23.80645  23.83100  23.85780  23.88986  23.91588
 Alpha virt. eigenvalues --   23.94854  23.95905  23.97615  24.02356  24.04466
 Alpha virt. eigenvalues --   24.11040  24.12149
          Condensed to atoms (all electrons):
               1          2          3          4          5          6
     1  C    8.989208  -0.028681  -0.391573   2.309400  -0.097276  -0.104955
     2  C   -0.028681   7.230788   0.250168  -1.226045   0.015610  -0.013051
     3  C   -0.391573   0.250168   6.600280   0.833394  -0.140804   0.016897
     4  C    2.309400  -1.226045   0.833394  10.865614  -0.420446  -0.116488
     5  C   -0.097276   0.015610  -0.140804  -0.420446  11.574608   0.736675
     6  C   -0.104955  -0.013051   0.016897  -0.116488   0.736675   6.604553
     7  C    0.000941  -0.000954  -0.014727  -0.030530  -1.046663   0.402675
     8  C    0.403238  -0.025552  -0.088069  -0.023000   1.882567  -0.622544
     9  C   -1.075868  -0.799778   0.299605  -0.355436   0.024860   0.299908
    10  C   -1.401897   0.342678  -0.419909  -2.424794  -2.769152  -0.274159
    11  C    0.316105  -0.951366   1.082258  -0.348608  -1.586414  -0.215588
    12  C   -2.671372   1.723651  -1.510014  -1.723042  -0.442803  -0.127477
    13  C    0.313083  -0.294599  -0.119457  -1.439005  -0.362599   0.898650
    14  C   -1.068805  -0.088807  -0.271673  -0.245619  -1.734235  -1.368600
    15  H    0.372064  -0.110228   0.001348   0.030294   0.004517   0.001000
    16  H   -0.017084   0.375544  -0.013529   0.010510  -0.001345  -0.000301
    17  H   -0.032776  -0.008641   0.369417  -0.067320   0.000439   0.000391
    18  H    0.054801   0.001810  -0.084265   0.457779   0.005239  -0.005309
    19  H   -0.048042  -0.007586   0.051978  -0.062485  -0.078944   0.051550
    20  H    0.006860   0.002177  -0.005112   0.005186   0.468583  -0.083627
    21  H   -0.001386  -0.000379   0.000415   0.000177  -0.070604   0.380795
    22  H    0.001008   0.000402  -0.000354  -0.001667   0.016292  -0.021386
    23  H    0.004802  -0.002830   0.001214   0.006167   0.026354  -0.002550
    24  H    0.029745   0.013379  -0.001828  -0.012986  -0.011323  -0.001407
    25  H    0.029745   0.013379  -0.001828  -0.012986  -0.011323  -0.001407
               7          8          9         10         11         12
     1  C    0.000941   0.403238  -1.075868  -1.401897   0.316105  -2.671372
     2  C   -0.000954  -0.025552  -0.799778   0.342678  -0.951366   1.723651
     3  C   -0.014727  -0.088069   0.299605  -0.419909   1.082258  -1.510014
     4  C   -0.030530  -0.023000  -0.355436  -2.424794  -0.348608  -1.723042
     5  C   -1.046663   1.882567   0.024860  -2.769152  -1.586414  -0.442803
     6  C    0.402675  -0.622544   0.299908  -0.274159  -0.215588  -0.127477
     7  C    7.215618   0.428930  -0.868896   0.184377  -0.214150  -0.273963
     8  C    0.428930   8.438735  -1.087485  -1.248031   0.228107  -1.137690
     9  C   -0.868896  -1.087485   9.562490   0.262113   1.398845  -1.707942
    10  C    0.184377  -1.248031   0.262113   9.056555  -0.401482   2.446574
    11  C   -0.214150   0.228107   1.398845  -0.401482  14.196872  -3.344080
    12  C   -0.273963  -1.137690  -1.707942   2.446574  -3.344080  15.889496
    13  C   -0.788907   0.351321   1.516995  -0.266306   1.088720  -4.775365
    14  C    1.127419  -1.995412  -2.027576   2.381276  -4.678673   3.194718
    15  H   -0.002302   0.006319   0.094035  -0.010967  -0.033455  -0.034676
    16  H    0.000329   0.000473   0.003281  -0.007857   0.024366  -0.031481
    17  H   -0.000417  -0.001239  -0.006115   0.020058  -0.026320   0.097283
    18  H    0.002093   0.006830  -0.025449   0.012099  -0.001488  -0.066101
    19  H   -0.008288  -0.044402   0.074461   0.422010   0.080858  -0.049593
    20  H    0.003528   0.049003  -0.022518   0.005708  -0.012405  -0.021189
    21  H   -0.021389  -0.021921  -0.004770   0.019980  -0.006268   0.005291
    22  H    0.383590  -0.020138   0.001372  -0.009926   0.003333  -0.010180
    23  H   -0.108124   0.368950   0.087552  -0.008181  -0.002804   0.007427
    24  H    0.015877   0.037849   0.355018   0.005222   0.004386  -0.060608
    25  H    0.015877   0.037849   0.355018   0.005222   0.004386  -0.060608
              13         14         15         16         17         18
     1  C    0.313083  -1.068805   0.372064  -0.017084  -0.032776   0.054801
     2  C   -0.294599  -0.088807  -0.110228   0.375544  -0.008641   0.001810
     3  C   -0.119457  -0.271673   0.001348  -0.013529   0.369417  -0.084265
     4  C   -1.439005  -0.245619   0.030294   0.010510  -0.067320   0.457779
     5  C   -0.362599  -1.734235   0.004517  -0.001345   0.000439   0.005239
     6  C    0.898650  -1.368600   0.001000  -0.000301   0.000391  -0.005309
     7  C   -0.788907   1.127419  -0.002302   0.000329  -0.000417   0.002093
     8  C    0.351321  -1.995412   0.006319   0.000473  -0.001239   0.006830
     9  C    1.516995  -2.027576   0.094035   0.003281  -0.006115  -0.025449
    10  C   -0.266306   2.381276  -0.010967  -0.007857   0.020058   0.012099
    11  C    1.088720  -4.678673  -0.033455   0.024366  -0.026320  -0.001488
    12  C   -4.775365   3.194718  -0.034676  -0.031481   0.097283  -0.066101
    13  C   14.453662  -4.003614   0.006268   0.002468  -0.006183  -0.012121
    14  C   -4.003614  16.276080   0.004784  -0.007803   0.005309  -0.010208
    15  H    0.006268   0.004784   0.444115  -0.009007   0.001270   0.000056
    16  H    0.002468  -0.007803  -0.009007   0.422139  -0.006064   0.001901
    17  H   -0.006183   0.005309   0.001270  -0.006064   0.424449  -0.010459
    18  H   -0.012121  -0.010208   0.000056   0.001901  -0.010459   0.458754
    19  H    0.077197  -0.083172   0.000251  -0.000497   0.001187  -0.006825
    20  H   -0.006980  -0.051299  -0.000105   0.000012  -0.000125   0.001238
    21  H   -0.025180   0.087802   0.000012  -0.000007   0.000010  -0.000164
    22  H    0.023596  -0.028879  -0.000131   0.000008  -0.000007   0.000019
    23  H   -0.029823  -0.014766   0.000545  -0.000125   0.000017  -0.000125
    24  H    0.023101  -0.060426  -0.000896   0.000637  -0.000150   0.000224
    25  H    0.023101  -0.060426  -0.000896   0.000637  -0.000150   0.000224
              19         20         21         22         23         24
     1  C   -0.048042   0.006860  -0.001386   0.001008   0.004802   0.029745
     2  C   -0.007586   0.002177  -0.000379   0.000402  -0.002830   0.013379
     3  C    0.051978  -0.005112   0.000415  -0.000354   0.001214  -0.001828
     4  C   -0.062485   0.005186   0.000177  -0.001667   0.006167  -0.012986
     5  C   -0.078944   0.468583  -0.070604   0.016292   0.026354  -0.011323
     6  C    0.051550  -0.083627   0.380795  -0.021386  -0.002550  -0.001407
     7  C   -0.008288   0.003528  -0.021389   0.383590  -0.108124   0.015877
     8  C   -0.044402   0.049003  -0.021921  -0.020138   0.368950   0.037849
     9  C    0.074461  -0.022518  -0.004770   0.001372   0.087552   0.355018
    10  C    0.422010   0.005708   0.019980  -0.009926  -0.008181   0.005222
    11  C    0.080858  -0.012405  -0.006268   0.003333  -0.002804   0.004386
    12  C   -0.049593  -0.021189   0.005291  -0.010180   0.007427  -0.060608
    13  C    0.077197  -0.006980  -0.025180   0.023596  -0.029823   0.023101
    14  C   -0.083172  -0.051299   0.087802  -0.028879  -0.014766  -0.060426
    15  H    0.000251  -0.000105   0.000012  -0.000131   0.000545  -0.000896
    16  H   -0.000497   0.000012  -0.000007   0.000008  -0.000125   0.000637
    17  H    0.001187  -0.000125   0.000010  -0.000007   0.000017  -0.000150
    18  H   -0.006825   0.001238  -0.000164   0.000019  -0.000125   0.000224
    19  H    0.443574  -0.005909   0.001689  -0.000603   0.000404   0.000571
    20  H   -0.005909   0.449875  -0.010218   0.001972   0.000210   0.000155
    21  H    0.001689  -0.010218   0.420278  -0.007023   0.001646  -0.000137
    22  H   -0.000603   0.001972  -0.007023   0.416866  -0.009004   0.000631
    23  H    0.000404   0.000210   0.001646  -0.009004   0.435344  -0.000955
    24  H    0.000571   0.000155  -0.000137   0.000631  -0.000955   0.492676
    25  H    0.000571   0.000155  -0.000137   0.000631  -0.000955  -0.078253
              25
     1  C    0.029745
     2  C    0.013379
     3  C   -0.001828
     4  C   -0.012986
     5  C   -0.011323
     6  C   -0.001407
     7  C    0.015877
     8  C    0.037849
     9  C    0.355018
    10  C    0.005222
    11  C    0.004386
    12  C   -0.060608
    13  C    0.023101
    14  C   -0.060426
    15  H   -0.000896
    16  H    0.000637
    17  H   -0.000150
    18  H    0.000224
    19  H    0.000571
    20  H    0.000155
    21  H   -0.000137
    22  H    0.000631
    23  H   -0.000955
    24  H   -0.078253
    25  H    0.492676
 Mulliken charges:
               1
     1  C    0.108714
     2  C   -0.411090
     3  C   -0.443833
     4  C   -0.008063
     5  C    0.018185
     6  C   -0.434246
     7  C   -0.401944
     8  C    0.075313
     9  C   -0.353718
    10  C    0.078790
    11  C   -0.605134
    12  C    0.683745
    13  C   -0.648025
    14  C    0.722603
    15  H    0.235784
    16  H    0.252797
    17  H    0.246136
    18  H    0.219449
    19  H    0.190044
    20  H    0.224826
    21  H    0.251487
    22  H    0.259578
    23  H    0.239611
    24  H    0.249496
    25  H    0.249496
 Sum of Mulliken charges =   1.00000
 Mulliken charges with hydrogens summed into heavy atoms:
               1
     1  C    0.344498
     2  C   -0.158293
     3  C   -0.197698
     4  C    0.211386
     5  C    0.243011
     6  C   -0.182759
     7  C   -0.142366
     8  C    0.314924
     9  C    0.145274
    10  C    0.268834
    11  C   -0.605134
    12  C    0.683745
    13  C   -0.648025
    14  C    0.722603
 Electronic spatial extent (au):  <R**2>=           2858.0679
 Charge=              1.0000 electrons
 Dipole moment (field-independent basis, Debye):
    X=              0.2311    Y=             -0.8265    Z=             -0.0000  Tot=              0.8582
 Quadrupole moment (field-independent basis, Debye-Ang):
   XX=            -51.0798   YY=            -36.2182   ZZ=            -84.1367
   XY=            -10.2264   XZ=             -0.0000   YZ=             -0.0000
 Traceless Quadrupole moment (field-independent basis, Debye-Ang):
   XX=              6.0651   YY=             20.9267   ZZ=            -26.9918
   XY=            -10.2264   XZ=             -0.0000   YZ=             -0.0000
 Octapole moment (field-independent basis, Debye-Ang**2):
  XXX=              2.6026  YYY=             -2.0059  ZZZ=             -0.0000  XYY=              2.4089
  XXY=             -7.5425  XXZ=             -0.0000  XZZ=              3.3229  YZZ=              0.3820
  YYZ=             -0.0000  XYZ=             -0.0000
 Hexadecapole moment (field-independent basis, Debye-Ang**3):
 XXXX=           -987.3643 YYYY=          -1850.9878 ZZZZ=            -99.3354 XXXY=            347.5337
 XXXZ=             -0.0000 YYYX=            273.2300 YYYZ=              0.0000 ZZZX=             -0.0000
 ZZZY=             -0.0000 XXYY=           -455.1064 XXZZ=           -241.1623 YYZZ=           -495.7682
 XXYZ=             -0.0000 YYXZ=             -0.0000 ZZXY=            182.7159
 N-N= 7.809286249621D+02 E-N=-2.798198469928D+03  KE= 5.375058418070D+02
 Symmetry A'   KE= 5.228545996686D+02
 Symmetry A"   KE= 1.465124213842D+01
 Unable to Open any file for archive entry.
 1\1\GINC-GADI-CPU-CLX-1762\SP\RM062X TD-FC\6-311++G(d,p)\C14H11(1+)\TS
 1578\02-Aug-2022\0\\#n M062X/6-311++G(d,p) TD(NStates=1) EmpiricalDisp
 ersion=GD3 SP\\SP_0\\1,1\C,0,2.516055,1.358631,0.\C,0,3.727608,0.68203
 9,0.\C,0,3.691661,-0.69673,0.\C,0,2.439906,-1.394188,0.\C,0,-2.486706,
 -1.421488,0.\C,0,-3.677861,-0.73393,0.\C,0,-3.678258,0.660889,0.\C,0,-
 2.474955,1.360431,0.\C,0,0.01305,1.459969,0.\C,0,-0.0366,-1.429489,0.\
 C,0,1.256805,0.665665,0.\C,0,1.221871,-0.728554,0.\C,0,-1.267755,0.688
 615,0.\C,0,-1.251871,-0.732154,0.\H,0,2.497671,2.441997,0.\H,0,4.66345
 3,1.219189,0.\H,0,4.605362,-1.274899,0.\H,0,2.45615,-2.477009,0.\H,0,-
 0.03375,-2.510416,0.\H,0,-2.47805,-2.503559,0.\H,0,-4.614062,-1.273549
 ,0.\H,0,-4.613503,1.201939,0.\H,0,-2.485071,2.443347,0.\H,0,0.048,2.14
 7287,-0.861235\H,0,0.048,2.147287,0.861235\\Version=ES64L-G16RevC.01\S
 tate=1-A'\HF=-539.7563667\RMSD=8.983e-09\PG=CS [SG(C14H9),X(H2)]\\@
 The archive entry for this job was punched.


 WHERE THERE IS MUCH DESIRE TO LEARN, THERE OF NECESSITY WILL BE
 MUCH ARGUING, MUCH WRITING, MANY OPINIONS; FOR OPINION IN GOOD MEN
 IS BUT KNOWLEDGE IN THE MAKING. -- JOHN MILTON.
 Job cpu time:       0 days  0 hours 52 minutes  3.7 seconds.
 Elapsed time:       0 days  0 hours  1 minutes  5.2 seconds.
 File lengths (MBytes):  RWF=    460 Int=      0 D2E=      0 Chk=     15 Scr=      1
 Normal termination of Gaussian 16 at Tue Aug  2 12:12:53 2022.
