 Entering Gaussian System, Link 0=g16
 Initial command:
 /apps/gaussian/g16c01/g16/l1.exe "/jobfs/53796104.gadi-pbs/Gau-3681583.inp" -scrdir="/jobfs/53796104.gadi-pbs/"
 Entering Link 1 = /apps/gaussian/g16c01/g16/l1.exe PID=   3681584.
  
 Copyright (c) 1988-2019, Gaussian, Inc.  All Rights Reserved.
  
 This is part of the Gaussian(R) 16 program.  It is based on
 the Gaussian(R) 09 system (copyright 2009, Gaussian, Inc.),
 the Gaussian(R) 03 system (copyright 2003, Gaussian, Inc.),
 the Gaussian(R) 98 system (copyright 1998, Gaussian, Inc.),
 the Gaussian(R) 94 system (copyright 1995, Gaussian, Inc.),
 the Gaussian 92(TM) system (copyright 1992, Gaussian, Inc.),
 the Gaussian 90(TM) system (copyright 1990, Gaussian, Inc.),
 the Gaussian 88(TM) system (copyright 1988, Gaussian, Inc.),
 the Gaussian 86(TM) system (copyright 1986, Carnegie Mellon
 University), and the Gaussian 82(TM) system (copyright 1983,
 Carnegie Mellon University). Gaussian is a federally registered
 trademark of Gaussian, Inc.
  
 This software contains proprietary and confidential information,
 including trade secrets, belonging to Gaussian, Inc.
  
 This software is provided under written license and may be
 used, copied, transmitted, or stored only in accord with that
 written license.
  
 The following legend is applicable only to US Government
 contracts under FAR:
  
                    RESTRICTED RIGHTS LEGEND
  
 Use, reproduction and disclosure by the US Government is
 subject to restrictions as set forth in subparagraphs (a)
 and (c) of the Commercial Computer Software - Restricted
 Rights clause in FAR 52.227-19.
  
 Gaussian, Inc.
 340 Quinnipiac St., Bldg. 40, Wallingford CT 06492
  
  
 ---------------------------------------------------------------
 Warning -- This program may not be used in any manner that
 competes with the business of Gaussian, Inc. or will provide
 assistance to any competitor of Gaussian, Inc.  The licensee
 of this program is prohibited from giving any competitor of
 Gaussian, Inc. access to this program.  By using this program,
 the user acknowledges that Gaussian, Inc. is engaged in the
 business of creating and licensing software in the field of
 computational chemistry and represents and warrants to the
 licensee that it is not a competitor of Gaussian, Inc. and that
 it will not use this program in any manner prohibited above.
 ---------------------------------------------------------------
  

 Cite this work as:
 Gaussian 16, Revision C.01,
 M. J. Frisch, G. W. Trucks, H. B. Schlegel, G. E. Scuseria, 
 M. A. Robb, J. R. Cheeseman, G. Scalmani, V. Barone, 
 G. A. Petersson, H. Nakatsuji, X. Li, M. Caricato, A. V. Marenich, 
 J. Bloino, B. G. Janesko, R. Gomperts, B. Mennucci, H. P. Hratchian, 
 J. V. Ortiz, A. F. Izmaylov, J. L. Sonnenberg, D. Williams-Young, 
 F. Ding, F. Lipparini, F. Egidi, J. Goings, B. Peng, A. Petrone, 
 T. Henderson, D. Ranasinghe, V. G. Zakrzewski, J. Gao, N. Rega, 
 G. Zheng, W. Liang, M. Hada, M. Ehara, K. Toyota, R. Fukuda, 
 J. Hasegawa, M. Ishida, T. Nakajima, Y. Honda, O. Kitao, H. Nakai, 
 T. Vreven, K. Throssell, J. A. Montgomery, Jr., J. E. Peralta, 
 F. Ogliaro, M. J. Bearpark, J. J. Heyd, E. N. Brothers, K. N. Kudin, 
 V. N. Staroverov, T. A. Keith, R. Kobayashi, J. Normand, 
 K. Raghavachari, A. P. Rendell, J. C. Burant, S. S. Iyengar, 
 J. Tomasi, M. Cossi, J. M. Millam, M. Klene, C. Adamo, R. Cammi, 
 J. W. Ochterski, R. L. Martin, K. Morokuma, O. Farkas, 
 J. B. Foresman, and D. J. Fox, Gaussian, Inc., Wallingford CT, 2019.
 
 ******************************************
 Gaussian 16:  ES64L-G16RevC.01  3-Jul-2019
                 2-Aug-2022 
 ******************************************
 %NProcShared=48
 Will use up to   48 processors via shared memory.
 %mem = 190GB
 ---------------------------------------------------------------
 #n M062X/6-311++G(d,p) TD(NStates=1) EmpiricalDispersion=GD3 SP
 ---------------------------------------------------------------
 1/38=1,172=1/1;
 2/12=2,17=6,18=5,40=1/2;
 3/5=4,6=6,7=1111,11=9,25=1,30=1,74=-55,124=31/1,2,3,8;
 4//1;
 5/5=2,38=5/2;
 8/6=1,10=2,108=1/1;
 9/41=1,42=1,70=2/14;
 6/7=2,8=2,9=2,10=2/1;
 99/5=1,9=1/99;
 ------
 SP_150
 ------
 Symbolic Z-matrix:
 Charge =  1 Multiplicity = 1
 C                     2.47496   1.36043   0. 
 C                     3.67826   0.66089   0. 
 C                     3.67786  -0.73393   0. 
 C                     2.48671  -1.42149   0. 
 C                    -2.43991  -1.39419   0. 
 C                    -3.69166  -0.69673   0. 
 C                    -3.72761   0.68204   0. 
 C                    -2.51606   1.35863   0. 
 C                    -0.0132    1.45997   0. 
 C                     0.0366   -1.42949   0. 
 C                     1.26776   0.68862   0. 
 C                     1.25187  -0.73215   0. 
 C                    -1.25681   0.66567   0. 
 C                    -1.22187  -0.72855   0. 
 H                     2.48507   2.44335   0. 
 H                     4.6135    1.20194   0. 
 H                     4.61406  -1.27355   0. 
 H                     2.47805  -2.50356   0. 
 H                     0.03375  -2.51042   0. 
 H                    -2.45615  -2.47701   0. 
 H                    -4.60536  -1.2749    0. 
 H                    -4.66345   1.21919   0. 
 H                    -2.49767   2.442     0. 
 H                    -0.048     2.14729  -0.86124 
 H                    -0.048     2.14729   0.86124 
 
                          Input orientation:                          
 ---------------------------------------------------------------------
 Center     Atomic      Atomic             Coordinates (Angstroms)
 Number     Number       Type             X           Y           Z
 ---------------------------------------------------------------------
      1          6           0        2.474955    1.360431    0.000000
      2          6           0        3.678258    0.660889    0.000000
      3          6           0        3.677861   -0.733930    0.000000
      4          6           0        2.486706   -1.421488    0.000000
      5          6           0       -2.439906   -1.394188    0.000000
      6          6           0       -3.691661   -0.696730    0.000000
      7          6           0       -3.727608    0.682039    0.000000
      8          6           0       -2.516055    1.358631    0.000000
      9          6           0       -0.013200    1.459969    0.000000
     10          6           0        0.036600   -1.429489    0.000000
     11          6           0        1.267755    0.688615    0.000000
     12          6           0        1.251871   -0.732154    0.000000
     13          6           0       -1.256805    0.665665    0.000000
     14          6           0       -1.221871   -0.728554    0.000000
     15          1           0        2.485071    2.443347    0.000000
     16          1           0        4.613503    1.201939    0.000000
     17          1           0        4.614062   -1.273549    0.000000
     18          1           0        2.478050   -2.503559    0.000000
     19          1           0        0.033750   -2.510416    0.000000
     20          1           0       -2.456150   -2.477009    0.000000
     21          1           0       -4.605362   -1.274899    0.000000
     22          1           0       -4.663453    1.219189    0.000000
     23          1           0       -2.497671    2.441997    0.000000
     24          1           0       -0.048000    2.147287   -0.861235
     25          1           0       -0.048000    2.147287    0.861235
 ---------------------------------------------------------------------
                    Distance matrix (angstroms):
                    1          2          3          4          5
     1  C    0.000000
     2  C    1.391868   0.000000
     3  C    2.415229   1.394819   0.000000
     4  C    2.781944   2.399185   1.375349   0.000000
     5  C    5.634162   6.454090   6.153293   4.926688   0.000000
     6  C    6.500697   7.493920   7.369616   6.220731   1.432947
     7  C    6.239552   7.405896   7.539625   6.560680   2.443132
     8  C    4.991010   6.233487   6.537844   5.723345   2.753872
     9  C    2.490145   3.776955   4.293847   3.814751   3.746347
    10  C    3.705297   4.198970   3.707099   2.450119   2.476758
    11  C    1.381546   2.410662   2.798615   2.436878   4.252625
    12  C    2.423808   2.797843   2.425991   1.414213   3.750667
    13  C    3.795884   4.935065   5.129307   4.286033   2.375442
    14  C    4.246220   5.093311   4.899735   3.772758   1.388048
    15  H    1.082963   2.144960   3.393794   3.864835   6.243563
    16  H    2.144413   1.080471   2.150120   3.377223   7.516013
    17  H    3.393174   2.148902   1.080584   2.132494   7.055000
    18  H    3.863991   3.384410   2.138021   1.082106   5.041527
    19  H    4.576346   4.831109   4.054066   2.683795   2.713842
    20  H    6.248339   6.890382   6.376866   5.054300   1.082943
    21  H    7.554856   8.506799   8.300869   7.093583   2.168739
    22  H    7.139805   8.360373   8.566924   7.622201   3.431312
    23  H    5.088889   6.427631   6.944329   6.306388   3.836620
    24  H    2.779599   4.103182   4.788024   4.461235   4.359471
    25  H    2.779599   4.103182   4.788024   4.461235   4.359471
                    6          7          8          9         10
     6  C    0.000000
     7  C    1.379238   0.000000
     8  C    2.367817   1.387673   0.000000
     9  C    4.264086   3.794997   2.504906   0.000000
    10  C    3.799588   4.315995   3.780167   2.889887   0.000000
    11  C    5.149271   4.995367   3.842673   1.495270   2.449920
    12  C    4.943659   5.176403   4.309135   2.530970   1.401128
    13  C    2.790097   2.470857   1.437328   1.475626   2.462228
    14  C    2.469995   2.875498   2.455861   2.500104   1.440507
    15  H    6.929077   6.457522   5.117409   2.684845   4.581907
    16  H    8.519430   8.357298   7.131280   4.633893   5.279437
    17  H    8.325728   8.567834   7.600457   5.374353   4.580117
    18  H    6.428839   6.975545   6.313287   4.681440   2.667265
    19  H    4.143446   4.933516   4.633684   3.970663   1.080931
    20  H    2.166998   3.405318   3.836108   4.633336   2.703905
    21  H    1.081263   2.144775   3.361649   5.344853   4.644535
    22  H    2.148284   1.079044   2.151921   4.656482   5.394997
    23  H    3.358157   2.147137   1.083522   2.671512   4.627195
    24  H    4.701747   4.053171   2.730384   1.102426   3.679974
    25  H    4.701747   4.053171   2.730384   1.102426   3.679974
                   11         12         13         14         15
    11  C    0.000000
    12  C    1.420858   0.000000
    13  C    2.524664   2.871821   0.000000
    14  C    2.864717   2.473745   1.394657   0.000000
    15  H    2.135636   3.406551   4.142679   4.878768   0.000000
    16  H    3.384898   3.878310   5.894752   6.146413   2.464004
    17  H    3.879157   3.405501   6.182850   5.861325   4.283447
    18  H    3.413911   2.154389   4.898278   4.103664   4.946911
    19  H    3.428785   2.155466   3.428268   2.179820   5.527092
    20  H    4.887601   4.098041   3.363752   2.140220   6.973204
    21  H    6.192648   5.882325   3.870223   3.427317   8.006222
    22  H    5.954892   6.228868   3.451324   3.954515   7.252583
    23  H    4.153647   4.912667   2.166819   3.417610   4.982742
    24  H    2.144915   3.274534   2.097174   3.223377   2.691807
    25  H    2.144915   3.274534   2.097174   3.223377   2.691807
                   16         17         18         19         20
    16  H    0.000000
    17  H    2.475488   0.000000
    18  H    4.276783   2.464847   0.000000
    19  H    5.895398   4.744375   2.444310   0.000000
    20  H    7.969608   7.171904   4.934271   2.490124   0.000000
    21  H    9.545795   9.219424   7.189182   4.800819   2.462556
    22  H    9.276972   9.606562   8.053566   5.997805   4.305121
    23  H    7.218486   8.023841   7.015435   5.561878   4.919181
    24  H    4.833738   5.846252   5.362185   4.737363   5.284413
    25  H    4.833738   5.846252   5.362185   4.737363   5.284413
                   21         22         23         24         25
    21  H    0.000000
    22  H    2.494764   0.000000
    23  H    4.272900   2.487141   0.000000
    24  H    5.763908   4.785969   2.613325   0.000000
    25  H    5.763908   4.785969   2.613325   1.722470   0.000000
 Stoichiometry    C14H11(1+)
 Framework group  CS[SG(C14H9),X(H2)]
 Deg. of freedom    46
 Full point group                 CS      NOp   2
 Largest Abelian subgroup         CS      NOp   2
 Largest concise Abelian subgroup CS      NOp   2
                         Standard orientation:                         
 ---------------------------------------------------------------------
 Center     Atomic      Atomic             Coordinates (Angstroms)
 Number     Number       Type             X           Y           Z
 ---------------------------------------------------------------------
      1          6           0       -2.361167   -1.550426    0.000000
      2          6           0       -2.306444   -2.941218    0.000000
      3          6           0       -1.073775   -3.593941    0.000000
      4          6           0        0.091477   -2.863342    0.000000
      5          6           0        2.374062    1.502670    0.000000
      6          6           0        2.343866    2.935299    0.000000
      7          6           0        1.142396    3.612621    0.000000
      8          6           0       -0.022717    2.858864    0.000000
      9          6           0       -1.284132    0.694751    0.000000
     10          6           0        1.245720   -0.702137    0.000000
     11          6           0       -1.202313   -0.798279    0.000000
     12          6           0        0.060538   -1.449467    0.000000
     13          6           0        0.000000    1.421715    0.000000
     14          6           0        1.215597    0.738054    0.000000
     15          1           0       -3.322785   -1.052328    0.000000
     16          1           0       -3.222419   -3.514288    0.000000
     17          1           0       -1.035302   -4.673839    0.000000
     18          1           0        1.051664   -3.362334    0.000000
     19          1           0        2.202178   -1.205724    0.000000
     20          1           0        3.338464    1.010032    0.000000
     21          1           0        3.282552    3.471952    0.000000
     22          1           0        1.105937    4.691049    0.000000
     23          1           0       -0.988604    3.349866    0.000000
     24          1           0       -1.875163    1.047312    0.861235
     25          1           0       -1.875163    1.047312   -0.861235
 ---------------------------------------------------------------------
 Rotational constants (GHZ):           2.1342987           0.4442591           0.3685196
 Standard basis: 6-311++G(d,p) (5D, 7F)
 There are   299 symmetry adapted cartesian basis functions of A'  symmetry.
 There are   100 symmetry adapted cartesian basis functions of A"  symmetry.
 There are   285 symmetry adapted basis functions of A'  symmetry.
 There are   100 symmetry adapted basis functions of A"  symmetry.
   385 basis functions,   603 primitive gaussians,   399 cartesian basis functions
    47 alpha electrons       47 beta electrons
       nuclear repulsion energy       780.9296309426 Hartrees.
 NAtoms=   25 NActive=   25 NUniq=   24 SFac= 1.09D+00 NAtFMM=   60 NAOKFM=F Big=F
 Integral buffers will be    131072 words long.
 Regular integral format.
 Two-electron integral symmetry is turned on.
 Nuclear repulsion after empirical dispersion term =      780.9286515985 Hartrees.
 One-electron integrals computed using PRISM.
 NBasis=   385 RedAO= T EigKep=  1.13D-06  NBF=   285   100
 NBsUse=   379 1.00D-06 EigRej=  8.41D-07 NBFU=   279   100
 ExpMin= 3.60D-02 ExpMax= 4.56D+03 ExpMxC= 6.82D+02 IAcc=3 IRadAn=         5 AccDes= 0.00D+00
 Harris functional with IExCor= 1009 and IRadAn=       5 diagonalized for initial guess.
 HarFok:  IExCor= 1009 AccDes= 0.00D+00 IRadAn=         5 IDoV= 1 UseB2=F ITyADJ=14
 ICtDFT=  3500011 ScaDFX=  1.000000  1.000000  1.000000  1.000000
 FoFCou: FMM=F IPFlag=           0 FMFlag=      100000 FMFlg1=           0
         NFxFlg=           0 DoJE=T BraDBF=F KetDBF=T FulRan=T
         wScrn=  0.000000 ICntrl=       500 IOpCl=  0 I1Cent=   200000004 NGrid=           0
         NMat0=    1 NMatS0=      1 NMatT0=    0 NMatD0=    1 NMtDS0=    0 NMtDT0=    0
 Petite list used in FoFCou.
 Initial guess orbital symmetries:
       Occupied  (A') (A') (A') (A') (A') (A') (A') (A') (A') (A')
                 (A') (A') (A') (A') (A') (A') (A') (A') (A') (A')
                 (A') (A') (A') (A') (A') (A') (A') (A') (A') (A')
                 (A') (A') (A") (A') (A') (A') (A') (A') (A") (A')
                 (A") (A') (A') (A") (A") (A") (A")
       Virtual   (A") (A") (A") (A") (A") (A') (A') (A') (A') (A")
                 (A") (A') (A') (A') (A") (A') (A') (A') (A') (A")
                 (A') (A") (A') (A') (A') (A") (A') (A") (A') (A')
                 (A') (A') (A') (A') (A") (A') (A") (A') (A') (A')
                 (A") (A') (A') (A") (A') (A') (A') (A') (A") (A')
                 (A') (A') (A") (A") (A') (A') (A') (A") (A") (A')
                 (A') (A') (A') (A') (A') (A') (A") (A') (A') (A")
                 (A') (A') (A') (A') (A') (A') (A') (A') (A') (A')
                 (A') (A') (A') (A') (A') (A') (A') (A') (A') (A')
                 (A') (A') (A') (A') (A') (A') (A') (A") (A') (A")
                 (A') (A') (A") (A") (A') (A") (A') (A") (A") (A')
                 (A") (A') (A') (A') (A") (A') (A') (A") (A") (A')
                 (A") (A") (A') (A') (A') (A") (A') (A') (A') (A")
                 (A') (A') (A') (A') (A') (A') (A") (A') (A') (A')
                 (A') (A') (A') (A') (A') (A') (A') (A') (A') (A")
                 (A") (A') (A") (A") (A') (A') (A') (A") (A") (A')
                 (A") (A') (A") (A") (A") (A') (A') (A') (A') (A')
                 (A') (A") (A') (A") (A') (A') (A') (A') (A') (A")
                 (A') (A') (A') (A') (A") (A') (A") (A') (A") (A")
                 (A') (A") (A') (A") (A') (A') (A') (A") (A') (A')
                 (A") (A") (A") (A') (A') (A") (A') (A") (A') (A')
                 (A") (A") (A') (A") (A') (A") (A') (A') (A') (A")
                 (A') (A') (A') (A') (A") (A') (A') (A') (A") (A")
                 (A') (A') (A') (A") (A') (A') (A") (A') (A") (A')
                 (A") (A') (A') (A') (A') (A") (A') (A') (A') (A")
                 (A') (A') (A") (A') (A") (A') (A') (A") (A') (A')
                 (A') (A") (A') (A") (A') (A') (A') (A") (A') (A")
                 (A') (A') (A') (A') (A") (A') (A") (A') (A") (A')
                 (A") (A') (A") (A") (A") (A') (A') (A') (A') (A')
                 (A') (A') (A') (A') (A') (A') (A') (A') (A') (A')
                 (A') (A') (A') (A') (A') (A") (A') (A') (A') (A')
                 (A') (A') (A') (A') (A') (A') (A') (A') (A') (A')
                 (A') (A') (A') (A') (A') (A') (A') (A') (A') (A')
                 (A') (A')
 The electronic state of the initial guess is 1-A'.
 Requested convergence on RMS density matrix=1.00D-08 within 128 cycles.
 Requested convergence on MAX density matrix=1.00D-06.
 Requested convergence on             energy=1.00D-06.
 No special actions if energy rises.
 SCF Done:  E(RM062X) =  -539.756365568     A.U. after   15 cycles
            NFock= 15  Conv=0.89D-08     -V/T= 2.0042
 DoSCS=F DFT=T ScalE2(SS,OS)=  1.000000  1.000000
 ExpMin= 3.60D-02 ExpMax= 4.56D+03 ExpMxC= 6.82D+02 IAcc=3 IRadAn=         5 AccDes= 0.00D+00
 HarFok:  IExCor=  205 AccDes= 0.00D+00 IRadAn=         5 IDoV=-2 UseB2=F ITyADJ=14
 ICtDFT= 12500011 ScaDFX=  1.000000  1.000000  1.000000  1.000000
 Range of M.O.s used for correlation:    15   379
 NBasis=   385 NAE=    47 NBE=    47 NFC=    14 NFV=     0
 NROrb=    365 NOA=    33 NOB=    33 NVA=   332 NVB=   332

 **** Warning!!: The largest alpha MO coefficient is  0.13605213D+03

 Orbital symmetries:
       Occupied  (A') (A') (A') (A') (A') (A') (A') (A') (A') (A')
                 (A') (A') (A') (A') (A') (A') (A') (A') (A') (A')
                 (A') (A') (A') (A') (A') (A') (A') (A') (A') (A')
                 (A') (A") (A') (A') (A') (A') (A') (A") (A") (A')
                 (A') (A') (A') (A") (A") (A") (A")
       Virtual   (A") (A") (A") (A") (A') (A') (A') (A') (A") (A')
                 (A') (A") (A') (A') (A") (A') (A") (A') (A') (A')
                 (A") (A") (A') (A') (A') (A") (A') (A") (A') (A')
                 (A") (A') (A") (A') (A') (A') (A') (A') (A") (A')
                 (A") (A') (A') (A") (A") (A') (A") (A') (A") (A')
                 (A') (A') (A') (A') (A') (A") (A') (A') (A') (A')
                 (A') (A") (A') (A') (A') (A") (A') (A') (A') (A')
                 (A') (A') (A') (A') (A') (A') (A') (A') (A') (A')
                 (A') (A') (A') (A') (A') (A') (A') (A') (A') (A')
                 (A') (A') (A') (A') (A") (A') (A") (A") (A') (A")
                 (A') (A') (A') (A') (A") (A") (A') (A") (A") (A')
                 (A') (A') (A") (A') (A') (A") (A') (A") (A') (A")
                 (A") (A') (A") (A') (A') (A') (A") (A') (A') (A')
                 (A') (A') (A') (A') (A') (A') (A') (A') (A') (A')
                 (A') (A') (A') (A") (A') (A') (A') (A') (A') (A')
                 (A') (A') (A") (A') (A") (A') (A") (A") (A') (A")
                 (A") (A') (A') (A") (A") (A') (A") (A") (A') (A')
                 (A') (A') (A') (A") (A") (A') (A') (A') (A') (A")
                 (A') (A') (A') (A") (A") (A') (A') (A") (A') (A")
                 (A") (A') (A') (A") (A") (A') (A') (A') (A') (A')
                 (A") (A") (A") (A') (A') (A") (A') (A") (A') (A')
                 (A') (A") (A') (A") (A") (A') (A") (A') (A') (A")
                 (A') (A') (A') (A') (A") (A') (A') (A') (A") (A")
                 (A') (A') (A') (A") (A') (A') (A') (A") (A") (A')
                 (A") (A') (A') (A") (A') (A') (A') (A') (A') (A')
                 (A") (A') (A') (A') (A') (A") (A") (A") (A') (A')
                 (A') (A') (A') (A') (A') (A') (A") (A') (A') (A')
                 (A') (A") (A') (A") (A") (A") (A') (A") (A') (A")
                 (A') (A") (A") (A') (A") (A") (A') (A') (A') (A')
                 (A') (A') (A') (A') (A') (A') (A') (A') (A') (A')
                 (A') (A') (A') (A") (A') (A') (A') (A') (A') (A')
                 (A') (A') (A') (A') (A') (A') (A') (A') (A') (A')
                 (A') (A') (A') (A') (A') (A') (A') (A') (A') (A')
                 (A') (A')
     4 initial guesses have been made.
 Convergence on wavefunction:    0.001000000000000
 Iteration     1 Dimension     4 NMult     0 NNew      4
 CISAX will form     4 AO SS matrices at one time.
 Iteration     2 Dimension     6 NMult     4 NNew      2
 Iteration     3 Dimension     8 NMult     6 NNew      2
 Iteration     4 Dimension    10 NMult     8 NNew      2
 Iteration     5 Dimension    12 NMult    10 NNew      2
 Iteration     6 Dimension    14 NMult    12 NNew      2
 ***********************************************************************
 Excited states from <AA,BB:AA,BB> singles matrix:
 ***********************************************************************
 
 Ground to excited state transition densities written to RWF  633
 Ground to excited state transition electric dipole moments (Au):
       state          X           Y           Z        Dip. S.      Osc.
         1        -0.4825      0.2992     -0.0000      0.3223      0.0214
 Ground to excited state transition velocity dipole moments (Au):
       state          X           Y           Z        Dip. S.      Osc.
         1         0.0559     -0.0302     -0.0000      0.0040      0.0270
 Ground to excited state transition magnetic dipole moments (Au):
       state          X           Y           Z
         1         0.0000     -0.0000     -0.1760
 Ground to excited state transition velocity quadrupole moments (Au):
       state          XX          YY          ZZ          XY          XZ          YZ
         1         0.1423      0.1405     -0.0086      0.1381     -0.0000     -0.0000
 <0|del|b> * <b|rxdel|0> + <0|del|b> * <b|delr+rdel|0>
 Rotatory Strengths (R) in cgs (10**-40 erg-esu-cm/Gauss)
       state          XX          YY          ZZ    R(velocity)    E-M Angle
         1         0.0000      0.0000      0.0000      0.0000       90.00
 1/2[<0|r|b>*<b|rxdel|0> + (<0|rxdel|b>*<b|r|0>)*]
 Rotatory Strengths (R) in cgs (10**-40 erg-esu-cm/Gauss)
       state          XX          YY          ZZ     R(length)
         1         0.0000      0.0000     -0.0000      0.0000
  1/2[<0|del|b>*<b|r|0> + (<0|r|b>*<b|del|0>)*] (Au)
       state          X           Y           Z        Dip. S.   Osc.(frdel)
         1        -0.0270     -0.0090      0.0000      0.0360      0.0240

 Excitation energies and oscillator strengths:
 
 Excited State   1:      Singlet-A'     2.7159 eV  456.51 nm  f=0.0214  <S**2>=0.000
      47 -> 48         0.70362
 This state for optimization and/or second-order correction.
 Total Energy, E(TD-HF/TD-DFT) =  -539.656557716    
 Copying the excited state density for this state as the 1-particle RhoCI density.
 SavETr:  write IOETrn=   770 NScale= 10 NData=  16 NLR=1 NState=    1 LETran=      28.

 **********************************************************************

            Population analysis using the SCF Density.

 **********************************************************************

 Orbital symmetries:
       Occupied  (A') (A') (A') (A') (A') (A') (A') (A') (A') (A')
                 (A') (A') (A') (A') (A') (A') (A') (A') (A') (A')
                 (A') (A') (A') (A') (A') (A') (A') (A') (A') (A')
                 (A') (A") (A') (A') (A') (A') (A') (A") (A") (A')
                 (A') (A') (A') (A") (A") (A") (A")
       Virtual   (A") (A") (A") (A") (A') (A') (A') (A') (A") (A')
                 (A') (A") (A') (A') (A") (A') (A") (A') (A') (A')
                 (A") (A") (A') (A') (A') (A") (A') (A") (A') (A')
                 (A") (A') (A") (A') (A') (A') (A') (A') (A") (A')
                 (A") (A') (A') (A") (A") (A') (A") (A') (A") (A')
                 (A') (A') (A') (A') (A') (A") (A') (A') (A') (A')
                 (A') (A") (A') (A') (A') (A") (A') (A') (A') (A')
                 (A') (A') (A') (A') (A') (A') (A') (A') (A') (A')
                 (A') (A') (A') (A') (A') (A') (A') (A') (A') (A')
                 (A') (A') (A') (A') (A") (A') (A") (A") (A') (A")
                 (A') (A') (A') (A') (A") (A") (A') (A") (A") (A')
                 (A') (A') (A") (A') (A') (A") (A') (A") (A') (A")
                 (A") (A') (A") (A') (A') (A') (A") (A') (A') (A')
                 (A') (A') (A') (A') (A') (A') (A') (A') (A') (A')
                 (A') (A') (A') (A") (A') (A') (A') (A') (A') (A')
                 (A') (A') (A") (A') (A") (A') (A") (A") (A') (A")
                 (A") (A') (A') (A") (A") (A') (A") (A") (A') (A')
                 (A') (A') (A') (A") (A") (A') (A') (A') (A') (A")
                 (A') (A') (A') (A") (A") (A') (A') (A") (A') (A")
                 (A") (A') (A') (A") (A") (A') (A') (A') (A') (A')
                 (A") (A") (A") (A') (A') (A") (A') (A") (A') (A')
                 (A') (A") (A') (A") (A") (A') (A") (A') (A') (A")
                 (A') (A') (A') (A') (A") (A') (A') (A') (A") (A")
                 (A') (A') (A') (A") (A') (A') (A') (A") (A") (A')
                 (A") (A') (A') (A") (A') (A') (A') (A') (A') (A')
                 (A") (A') (A') (A') (A') (A") (A") (A") (A') (A')
                 (A') (A') (A') (A') (A') (A') (A") (A') (A') (A')
                 (A') (A") (A') (A") (A") (A") (A') (A") (A') (A")
                 (A') (A") (A") (A') (A") (A") (A') (A') (A') (A')
                 (A') (A') (A') (A') (A') (A') (A') (A') (A') (A')
                 (A') (A') (A') (A") (A') (A') (A') (A') (A') (A')
                 (A') (A') (A') (A') (A') (A') (A') (A') (A') (A')
                 (A') (A') (A') (A') (A') (A') (A') (A') (A') (A')
                 (A') (A')
 The electronic state is 1-A'.
 Alpha  occ. eigenvalues --  -10.77627 -10.73707 -10.72838 -10.72773 -10.72075
 Alpha  occ. eigenvalues --  -10.71792 -10.71765 -10.71003 -10.70947 -10.70252
 Alpha  occ. eigenvalues --  -10.70171 -10.69882 -10.69778 -10.69394  -1.16467
 Alpha  occ. eigenvalues --   -1.12445  -1.06941  -1.05747  -1.01295  -1.00288
 Alpha  occ. eigenvalues --   -0.95650  -0.91025  -0.86428  -0.85883  -0.83781
 Alpha  occ. eigenvalues --   -0.78353  -0.76065  -0.74381  -0.69717  -0.69287
 Alpha  occ. eigenvalues --   -0.68367  -0.68106  -0.68096  -0.65077  -0.64230
 Alpha  occ. eigenvalues --   -0.62809  -0.61682  -0.60352  -0.59372  -0.59145
 Alpha  occ. eigenvalues --   -0.56909  -0.55259  -0.54628  -0.52444  -0.47048
 Alpha  occ. eigenvalues --   -0.46111  -0.44046
 Alpha virt. eigenvalues --   -0.26112  -0.14664  -0.14087  -0.12769  -0.11184
 Alpha virt. eigenvalues --   -0.10086  -0.09248  -0.07968  -0.07951  -0.07480
 Alpha virt. eigenvalues --   -0.07204  -0.07136  -0.05647  -0.05575  -0.05342
 Alpha virt. eigenvalues --   -0.03841  -0.03657  -0.03274  -0.03135  -0.02162
 Alpha virt. eigenvalues --   -0.01353  -0.00945   0.00195   0.00593   0.00630
 Alpha virt. eigenvalues --    0.01061   0.01509   0.01939   0.02169   0.02307
 Alpha virt. eigenvalues --    0.02449   0.02670   0.02772   0.03286   0.03452
 Alpha virt. eigenvalues --    0.04230   0.04493   0.04717   0.05040   0.05382
 Alpha virt. eigenvalues --    0.06030   0.06286   0.06583   0.07038   0.07270
 Alpha virt. eigenvalues --    0.07898   0.08100   0.08347   0.08593   0.08916
 Alpha virt. eigenvalues --    0.09499   0.09582   0.09983   0.10819   0.10955
 Alpha virt. eigenvalues --    0.11130   0.12112   0.12244   0.12744   0.13011
 Alpha virt. eigenvalues --    0.13446   0.13526   0.13982   0.14351   0.15933
 Alpha virt. eigenvalues --    0.16411   0.16422   0.17331   0.17510   0.17790
 Alpha virt. eigenvalues --    0.18115   0.19081   0.19340   0.19621   0.19844
 Alpha virt. eigenvalues --    0.21475   0.21617   0.22669   0.23155   0.23550
 Alpha virt. eigenvalues --    0.23930   0.24574   0.25475   0.26936   0.27604
 Alpha virt. eigenvalues --    0.28830   0.29253   0.29877   0.31339   0.35747
 Alpha virt. eigenvalues --    0.36425   0.38207   0.39274   0.41079   0.41331
 Alpha virt. eigenvalues --    0.41940   0.42167   0.42983   0.43674   0.44355
 Alpha virt. eigenvalues --    0.44817   0.45098   0.45935   0.46335   0.47947
 Alpha virt. eigenvalues --    0.48439   0.48787   0.49048   0.50482   0.51025
 Alpha virt. eigenvalues --    0.51264   0.51936   0.52135   0.52781   0.54082
 Alpha virt. eigenvalues --    0.54114   0.54581   0.55656   0.55880   0.57632
 Alpha virt. eigenvalues --    0.58226   0.58906   0.61470   0.62266   0.62385
 Alpha virt. eigenvalues --    0.63168   0.63476   0.64879   0.65149   0.67312
 Alpha virt. eigenvalues --    0.70390   0.70530   0.71139   0.72465   0.72881
 Alpha virt. eigenvalues --    0.75634   0.76038   0.76374   0.76785   0.77114
 Alpha virt. eigenvalues --    0.77848   0.77938   0.78241   0.79923   0.80384
 Alpha virt. eigenvalues --    0.81222   0.81572   0.82340   0.82988   0.85192
 Alpha virt. eigenvalues --    0.87059   0.88123   0.88257   0.89261   0.90556
 Alpha virt. eigenvalues --    0.91004   0.91376   0.93261   0.94591   0.96293
 Alpha virt. eigenvalues --    0.96843   1.00267   1.01255   1.01579   1.02794
 Alpha virt. eigenvalues --    1.03156   1.03242   1.04826   1.06185   1.08815
 Alpha virt. eigenvalues --    1.19552   1.23055   1.24121   1.24516   1.28573
 Alpha virt. eigenvalues --    1.29442   1.32077   1.34339   1.35733   1.35968
 Alpha virt. eigenvalues --    1.39294   1.39778   1.40874   1.43014   1.43447
 Alpha virt. eigenvalues --    1.43511   1.44263   1.46344   1.46560   1.46611
 Alpha virt. eigenvalues --    1.47682   1.48102   1.51702   1.53646   1.55569
 Alpha virt. eigenvalues --    1.55795   1.56298   1.56594   1.57775   1.61415
 Alpha virt. eigenvalues --    1.63084   1.63409   1.64120   1.66061   1.68283
 Alpha virt. eigenvalues --    1.68314   1.68742   1.69833   1.74360   1.75992
 Alpha virt. eigenvalues --    1.77123   1.78070   1.79780   1.80003   1.80794
 Alpha virt. eigenvalues --    1.82908   1.83206   1.83565   1.83801   1.84202
 Alpha virt. eigenvalues --    1.84491   1.85540   1.86344   1.88306   1.91393
 Alpha virt. eigenvalues --    1.92093   1.94052   1.95261   1.97742   1.98128
 Alpha virt. eigenvalues --    1.99746   2.02217   2.04438   2.07298   2.11727
 Alpha virt. eigenvalues --    2.12096   2.14204   2.15258   2.19009   2.21123
 Alpha virt. eigenvalues --    2.22749   2.28577   2.30082   2.34460   2.34804
 Alpha virt. eigenvalues --    2.36311   2.38619   2.39658   2.42320   2.44862
 Alpha virt. eigenvalues --    2.46106   2.46259   2.49210   2.52901   2.53767
 Alpha virt. eigenvalues --    2.54122   2.56932   2.57879   2.58385   2.59464
 Alpha virt. eigenvalues --    2.59886   2.61534   2.62107   2.63533   2.63704
 Alpha virt. eigenvalues --    2.64805   2.65056   2.65075   2.65522   2.67813
 Alpha virt. eigenvalues --    2.68350   2.70916   2.71450   2.73355   2.74800
 Alpha virt. eigenvalues --    2.76289   2.78342   2.79638   2.82879   2.83144
 Alpha virt. eigenvalues --    2.84831   2.86208   2.92086   2.97100   2.99419
 Alpha virt. eigenvalues --    3.00089   3.04744   3.09773   3.11166   3.13819
 Alpha virt. eigenvalues --    3.20577   3.22235   3.26299   3.28444   3.30606
 Alpha virt. eigenvalues --    3.32774   3.34437   3.43749   3.46096   3.46561
 Alpha virt. eigenvalues --    3.48206   3.49949   3.56325   3.66457   3.66706
 Alpha virt. eigenvalues --    3.67702   3.93876   3.94109   3.95384   3.96383
 Alpha virt. eigenvalues --    4.03934   4.06543   4.07540   4.12549   4.35153
 Alpha virt. eigenvalues --    4.60669   4.69281   4.71277  23.45273  23.60141
 Alpha virt. eigenvalues --   23.80645  23.83099  23.85778  23.88991  23.91587
 Alpha virt. eigenvalues --   23.94856  23.95905  23.97615  24.02356  24.04466
 Alpha virt. eigenvalues --   24.11040  24.12149
          Condensed to atoms (all electrons):
               1          2          3          4          5          6
     1  C    8.438508   0.428954  -0.622552   1.882793  -0.023107  -0.088069
     2  C    0.428954   7.215292   0.402604  -1.046577  -0.030552  -0.014727
     3  C   -0.622552   0.402604   6.604570   0.736647  -0.116469   0.016897
     4  C    1.882793  -1.046577   0.736647  11.574940  -0.420421  -0.140825
     5  C   -0.023107  -0.030552  -0.116469  -0.420421  10.865339   0.833409
     6  C   -0.088069  -0.014727   0.016897  -0.140825   0.833409   6.600291
     7  C   -0.025513  -0.000953  -0.013051   0.015628  -1.226081   0.250190
     8  C    0.403205   0.000905  -0.104957  -0.097143   2.309078  -0.391570
     9  C   -1.087152  -0.868799   0.299918   0.025229  -0.355768   0.299589
    10  C   -1.248052   0.184301  -0.274082  -2.769165  -2.424768  -0.419996
    11  C    0.350883  -0.788767   0.898575  -0.362647  -1.438955  -0.119425
    12  C   -1.995691   1.127342  -1.368513  -1.734907  -0.245372  -0.271681
    13  C    0.228317  -0.213996  -0.215602  -1.586542  -0.348617   1.082378
    14  C   -1.137486  -0.273906  -0.127471  -0.443094  -1.722305  -1.510093
    15  H    0.368958  -0.108119  -0.002549   0.026353   0.006167   0.001214
    16  H   -0.020124   0.383586  -0.021393   0.016297  -0.001667  -0.000354
    17  H   -0.021916  -0.021392   0.380792  -0.070605   0.000177   0.000415
    18  H    0.049004   0.003533  -0.083631   0.468588   0.005183  -0.005113
    19  H   -0.044401  -0.008288   0.051547  -0.078973  -0.062464   0.051983
    20  H    0.006828   0.002093  -0.005308   0.005243   0.457773  -0.084264
    21  H   -0.001238  -0.000417   0.000391   0.000438  -0.067321   0.369419
    22  H    0.000472   0.000329  -0.000301  -0.001345   0.010506  -0.013526
    23  H    0.006318  -0.002301   0.001000   0.004518   0.030293   0.001349
    24  H    0.037841   0.015876  -0.001408  -0.011324  -0.012985  -0.001827
    25  H    0.037841   0.015876  -0.001408  -0.011324  -0.012985  -0.001827
               7          8          9         10         11         12
     1  C   -0.025513   0.403205  -1.087152  -1.248052   0.350883  -1.995691
     2  C   -0.000953   0.000905  -0.868799   0.184301  -0.788767   1.127342
     3  C   -0.013051  -0.104957   0.299918  -0.274082   0.898575  -1.368513
     4  C    0.015628  -0.097143   0.025229  -2.769165  -0.362647  -1.734907
     5  C   -1.226081   2.309078  -0.355768  -2.424768  -1.438955  -0.245372
     6  C    0.250190  -0.391570   0.299589  -0.419996  -0.119425  -0.271681
     7  C    7.231098  -0.028642  -0.799812   0.342744  -0.294751  -0.088861
     8  C   -0.028642   8.989188  -1.076287  -1.401850   0.312852  -1.068915
     9  C   -0.799812  -1.076287   9.562481   0.262105   1.516636  -2.027781
    10  C    0.342744  -1.401850   0.262105   9.056588  -0.266221   2.381516
    11  C   -0.294751   0.312852   1.516636  -0.266221  14.454620  -4.003535
    12  C   -0.088861  -1.068915  -2.027781   2.381516  -4.003535  16.276820
    13  C   -0.951549   0.316553   1.399046  -0.401648   1.088878  -4.678517
    14  C    1.723651  -2.670772  -1.707566   2.446365  -4.775626   3.194677
    15  H   -0.002831   0.004801   0.087559  -0.008180  -0.029832  -0.014773
    16  H    0.000402   0.001009   0.001379  -0.009928   0.023605  -0.028902
    17  H   -0.000379  -0.001386  -0.004771   0.019980  -0.025180   0.087803
    18  H    0.002177   0.006862  -0.022512   0.005702  -0.006967  -0.051314
    19  H   -0.007587  -0.048042   0.074457   0.422010   0.077182  -0.083176
    20  H    0.001808   0.054798  -0.025455   0.012106  -0.012121  -0.010202
    21  H   -0.008637  -0.032781  -0.006114   0.020059  -0.006183   0.005309
    22  H    0.375552  -0.017099   0.003275  -0.007856   0.002466  -0.007802
    23  H   -0.110234   0.372048   0.094025  -0.010967   0.006270   0.004786
    24  H    0.013381   0.029752   0.355017   0.005222   0.023093  -0.060429
    25  H    0.013381   0.029752   0.355017   0.005222   0.023093  -0.060429
              13         14         15         16         17         18
     1  C    0.228317  -1.137486   0.368958  -0.020124  -0.021916   0.049004
     2  C   -0.213996  -0.273906  -0.108119   0.383586  -0.021392   0.003533
     3  C   -0.215602  -0.127471  -0.002549  -0.021393   0.380792  -0.083631
     4  C   -1.586542  -0.443094   0.026353   0.016297  -0.070605   0.468588
     5  C   -0.348617  -1.722305   0.006167  -0.001667   0.000177   0.005183
     6  C    1.082378  -1.510093   0.001214  -0.000354   0.000415  -0.005113
     7  C   -0.951549   1.723651  -0.002831   0.000402  -0.000379   0.002177
     8  C    0.316553  -2.670772   0.004801   0.001009  -0.001386   0.006862
     9  C    1.399046  -1.707566   0.087559   0.001379  -0.004771  -0.022512
    10  C   -0.401648   2.446365  -0.008180  -0.009928   0.019980   0.005702
    11  C    1.088878  -4.775626  -0.029832   0.023605  -0.025180  -0.006967
    12  C   -4.678517   3.194677  -0.014773  -0.028902   0.087803  -0.051314
    13  C   14.196172  -3.344305  -0.002806   0.003335  -0.006268  -0.012405
    14  C   -3.344305  15.888544   0.007427  -0.010182   0.005291  -0.021195
    15  H   -0.002806   0.007427   0.435344  -0.009004   0.001646   0.000210
    16  H    0.003335  -0.010182  -0.009004   0.416866  -0.007023   0.001972
    17  H   -0.006268   0.005291   0.001646  -0.007023   0.420278  -0.010218
    18  H   -0.012405  -0.021195   0.000210   0.001972  -0.010218   0.449877
    19  H    0.080880  -0.049587   0.000404  -0.000603   0.001689  -0.005909
    20  H   -0.001503  -0.066084  -0.000125   0.000019  -0.000164   0.001238
    21  H   -0.026323   0.097284   0.000017  -0.000007   0.000010  -0.000125
    22  H    0.024360  -0.031461  -0.000125   0.000008  -0.000007   0.000012
    23  H   -0.033440  -0.034664   0.000545  -0.000131   0.000012  -0.000105
    24  H    0.004399  -0.060609  -0.000955   0.000631  -0.000137   0.000155
    25  H    0.004399  -0.060609  -0.000955   0.000631  -0.000137   0.000155
              19         20         21         22         23         24
     1  C   -0.044401   0.006828  -0.001238   0.000472   0.006318   0.037841
     2  C   -0.008288   0.002093  -0.000417   0.000329  -0.002301   0.015876
     3  C    0.051547  -0.005308   0.000391  -0.000301   0.001000  -0.001408
     4  C   -0.078973   0.005243   0.000438  -0.001345   0.004518  -0.011324
     5  C   -0.062464   0.457773  -0.067321   0.010506   0.030293  -0.012985
     6  C    0.051983  -0.084264   0.369419  -0.013526   0.001349  -0.001827
     7  C   -0.007587   0.001808  -0.008637   0.375552  -0.110234   0.013381
     8  C   -0.048042   0.054798  -0.032781  -0.017099   0.372048   0.029752
     9  C    0.074457  -0.025455  -0.006114   0.003275   0.094025   0.355017
    10  C    0.422010   0.012106   0.020059  -0.007856  -0.010967   0.005222
    11  C    0.077182  -0.012121  -0.006183   0.002466   0.006270   0.023093
    12  C   -0.083176  -0.010202   0.005309  -0.007802   0.004786  -0.060429
    13  C    0.080880  -0.001503  -0.026323   0.024360  -0.033440   0.004399
    14  C   -0.049587  -0.066084   0.097284  -0.031461  -0.034664  -0.060609
    15  H    0.000404  -0.000125   0.000017  -0.000125   0.000545  -0.000955
    16  H   -0.000603   0.000019  -0.000007   0.000008  -0.000131   0.000631
    17  H    0.001689  -0.000164   0.000010  -0.000007   0.000012  -0.000137
    18  H   -0.005909   0.001238  -0.000125   0.000012  -0.000105   0.000155
    19  H    0.443575  -0.006825   0.001187  -0.000497   0.000251   0.000571
    20  H   -0.006825   0.458752  -0.010460   0.001900   0.000056   0.000224
    21  H    0.001187  -0.010460   0.424449  -0.006064   0.001271  -0.000150
    22  H   -0.000497   0.001900  -0.006064   0.422140  -0.009006   0.000637
    23  H    0.000251   0.000056   0.001271  -0.009006   0.444114  -0.000896
    24  H    0.000571   0.000224  -0.000150   0.000637  -0.000896   0.492681
    25  H    0.000571   0.000224  -0.000150   0.000637  -0.000896  -0.078255
              25
     1  C    0.037841
     2  C    0.015876
     3  C   -0.001408
     4  C   -0.011324
     5  C   -0.012985
     6  C   -0.001827
     7  C    0.013381
     8  C    0.029752
     9  C    0.355017
    10  C    0.005222
    11  C    0.023093
    12  C   -0.060429
    13  C    0.004399
    14  C   -0.060609
    15  H   -0.000955
    16  H    0.000631
    17  H   -0.000137
    18  H    0.000155
    19  H    0.000571
    20  H    0.000224
    21  H   -0.000150
    22  H    0.000637
    23  H   -0.000896
    24  H   -0.078255
    25  H    0.492681
 Mulliken charges:
               1
     1  C    0.075378
     2  C   -0.401896
     3  C   -0.434247
     4  C    0.018222
     5  C   -0.008090
     6  C   -0.443837
     7  C   -0.411132
     8  C    0.108643
     9  C   -0.353718
    10  C    0.078791
    11  C   -0.647942
    12  C    0.722547
    13  C   -0.605196
    14  C    0.683776
    15  H    0.239609
    16  H    0.259578
    17  H    0.251488
    18  H    0.224827
    19  H    0.190044
    20  H    0.219449
    21  H    0.246135
    22  H    0.252797
    23  H    0.235787
    24  H    0.249494
    25  H    0.249494
 Sum of Mulliken charges =   1.00000
 Mulliken charges with hydrogens summed into heavy atoms:
               1
     1  C    0.314987
     2  C   -0.142318
     3  C   -0.182759
     4  C    0.243048
     5  C    0.211360
     6  C   -0.197702
     7  C   -0.158335
     8  C    0.344429
     9  C    0.145270
    10  C    0.268835
    11  C   -0.647942
    12  C    0.722547
    13  C   -0.605196
    14  C    0.683776
 Electronic spatial extent (au):  <R**2>=           2858.0679
 Charge=              1.0000 electrons
 Dipole moment (field-independent basis, Debye):
    X=             -0.2311    Y=             -0.8265    Z=             -0.0000  Tot=              0.8582
 Quadrupole moment (field-independent basis, Debye-Ang):
   XX=            -51.0796   YY=            -36.2184   ZZ=            -84.1367
   XY=             10.2265   XZ=              0.0000   YZ=             -0.0000
 Traceless Quadrupole moment (field-independent basis, Debye-Ang):
   XX=              6.0653   YY=             20.9265   ZZ=            -26.9918
   XY=             10.2265   XZ=              0.0000   YZ=             -0.0000
 Octapole moment (field-independent basis, Debye-Ang**2):
  XXX=             -2.6033  YYY=             -2.0073  ZZZ=             -0.0000  XYY=             -2.4093
  XXY=             -7.5430  XXZ=             -0.0000  XZZ=             -3.3228  YZZ=              0.3822
  YYZ=             -0.0000  XYZ=              0.0000
 Hexadecapole moment (field-independent basis, Debye-Ang**3):
 XXXX=           -987.3614 YYYY=          -1850.9912 ZZZZ=            -99.3353 XXXY=           -347.5325
 XXXZ=              0.0000 YYYX=           -273.2292 YYYZ=             -0.0000 ZZZX=              0.0000
 ZZZY=              0.0000 XXYY=           -455.1057 XXZZ=           -241.1625 YYZZ=           -495.7679
 XXYZ=             -0.0000 YYXZ=              0.0000 ZZXY=           -182.7161
 N-N= 7.809286515985D+02 E-N=-2.798198544650D+03  KE= 5.375058659702D+02
 Symmetry A'   KE= 5.228546167867D+02
 Symmetry A"   KE= 1.465124918352D+01
 Unable to Open any file for archive entry.
 1\1\GINC-GADI-CPU-CLX-1762\SP\RM062X TD-FC\6-311++G(d,p)\C14H11(1+)\TS
 1578\02-Aug-2022\0\\#n M062X/6-311++G(d,p) TD(NStates=1) EmpiricalDisp
 ersion=GD3 SP\\SP_150\\1,1\C,0,2.474955,1.360431,0.\C,0,3.678258,0.660
 889,0.\C,0,3.677861,-0.73393,0.\C,0,2.486706,-1.421488,0.\C,0,-2.43990
 6,-1.394188,0.\C,0,-3.691661,-0.69673,0.\C,0,-3.727608,0.682039,0.\C,0
 ,-2.516055,1.358631,0.\C,0,-0.0132,1.459969,0.\C,0,0.0366,-1.429489,0.
 \C,0,1.267755,0.688615,0.\C,0,1.251871,-0.732154,0.\C,0,-1.256805,0.66
 5665,0.\C,0,-1.221871,-0.728554,0.\H,0,2.485071,2.443347,0.\H,0,4.6135
 03,1.201939,0.\H,0,4.614062,-1.273549,0.\H,0,2.47805,-2.503559,0.\H,0,
 0.03375,-2.510416,0.\H,0,-2.45615,-2.477009,0.\H,0,-4.605362,-1.274899
 ,0.\H,0,-4.663453,1.219189,0.\H,0,-2.497671,2.441997,0.\H,0,-0.048,2.1
 47287,-0.861235\H,0,-0.048,2.147287,0.861235\\Version=ES64L-G16RevC.01
 \State=1-A'\HF=-539.7563656\RMSD=8.856e-09\PG=CS [SG(C14H9),X(H2)]\\@
 The archive entry for this job was punched.


 Democracy is the recurrent suspicion that more than half of the people
 are right more than half of the time.
 -- E. B. White
 Job cpu time:       0 days  0 hours 53 minutes  7.5 seconds.
 Elapsed time:       0 days  0 hours  1 minutes 11.5 seconds.
 File lengths (MBytes):  RWF=    460 Int=      0 D2E=      0 Chk=     15 Scr=      1
 Normal termination of Gaussian 16 at Tue Aug  2 13:32:28 2022.
