 Entering Gaussian System, Link 0=g16
 Initial command:
 /apps/gaussian/g16c01/g16/l1.exe "/jobfs/53796104.gadi-pbs/Gau-3679723.inp" -scrdir="/jobfs/53796104.gadi-pbs/"
 Entering Link 1 = /apps/gaussian/g16c01/g16/l1.exe PID=   3679724.
  
 Copyright (c) 1988-2019, Gaussian, Inc.  All Rights Reserved.
  
 This is part of the Gaussian(R) 16 program.  It is based on
 the Gaussian(R) 09 system (copyright 2009, Gaussian, Inc.),
 the Gaussian(R) 03 system (copyright 2003, Gaussian, Inc.),
 the Gaussian(R) 98 system (copyright 1998, Gaussian, Inc.),
 the Gaussian(R) 94 system (copyright 1995, Gaussian, Inc.),
 the Gaussian 92(TM) system (copyright 1992, Gaussian, Inc.),
 the Gaussian 90(TM) system (copyright 1990, Gaussian, Inc.),
 the Gaussian 88(TM) system (copyright 1988, Gaussian, Inc.),
 the Gaussian 86(TM) system (copyright 1986, Carnegie Mellon
 University), and the Gaussian 82(TM) system (copyright 1983,
 Carnegie Mellon University). Gaussian is a federally registered
 trademark of Gaussian, Inc.
  
 This software contains proprietary and confidential information,
 including trade secrets, belonging to Gaussian, Inc.
  
 This software is provided under written license and may be
 used, copied, transmitted, or stored only in accord with that
 written license.
  
 The following legend is applicable only to US Government
 contracts under FAR:
  
                    RESTRICTED RIGHTS LEGEND
  
 Use, reproduction and disclosure by the US Government is
 subject to restrictions as set forth in subparagraphs (a)
 and (c) of the Commercial Computer Software - Restricted
 Rights clause in FAR 52.227-19.
  
 Gaussian, Inc.
 340 Quinnipiac St., Bldg. 40, Wallingford CT 06492
  
  
 ---------------------------------------------------------------
 Warning -- This program may not be used in any manner that
 competes with the business of Gaussian, Inc. or will provide
 assistance to any competitor of Gaussian, Inc.  The licensee
 of this program is prohibited from giving any competitor of
 Gaussian, Inc. access to this program.  By using this program,
 the user acknowledges that Gaussian, Inc. is engaged in the
 business of creating and licensing software in the field of
 computational chemistry and represents and warrants to the
 licensee that it is not a competitor of Gaussian, Inc. and that
 it will not use this program in any manner prohibited above.
 ---------------------------------------------------------------
  

 Cite this work as:
 Gaussian 16, Revision C.01,
 M. J. Frisch, G. W. Trucks, H. B. Schlegel, G. E. Scuseria, 
 M. A. Robb, J. R. Cheeseman, G. Scalmani, V. Barone, 
 G. A. Petersson, H. Nakatsuji, X. Li, M. Caricato, A. V. Marenich, 
 J. Bloino, B. G. Janesko, R. Gomperts, B. Mennucci, H. P. Hratchian, 
 J. V. Ortiz, A. F. Izmaylov, J. L. Sonnenberg, D. Williams-Young, 
 F. Ding, F. Lipparini, F. Egidi, J. Goings, B. Peng, A. Petrone, 
 T. Henderson, D. Ranasinghe, V. G. Zakrzewski, J. Gao, N. Rega, 
 G. Zheng, W. Liang, M. Hada, M. Ehara, K. Toyota, R. Fukuda, 
 J. Hasegawa, M. Ishida, T. Nakajima, Y. Honda, O. Kitao, H. Nakai, 
 T. Vreven, K. Throssell, J. A. Montgomery, Jr., J. E. Peralta, 
 F. Ogliaro, M. J. Bearpark, J. J. Heyd, E. N. Brothers, K. N. Kudin, 
 V. N. Staroverov, T. A. Keith, R. Kobayashi, J. Normand, 
 K. Raghavachari, A. P. Rendell, J. C. Burant, S. S. Iyengar, 
 J. Tomasi, M. Cossi, J. M. Millam, M. Klene, C. Adamo, R. Cammi, 
 J. W. Ochterski, R. L. Martin, K. Morokuma, O. Farkas, 
 J. B. Foresman, and D. J. Fox, Gaussian, Inc., Wallingford CT, 2019.
 
 ******************************************
 Gaussian 16:  ES64L-G16RevC.01  3-Jul-2019
                 2-Aug-2022 
 ******************************************
 %NProcShared=48
 Will use up to   48 processors via shared memory.
 %mem = 190GB
 ---------------------------------------------------------------
 #n M062X/6-311++G(d,p) TD(NStates=1) EmpiricalDispersion=GD3 SP
 ---------------------------------------------------------------
 1/38=1,172=1/1;
 2/12=2,17=6,18=5,40=1/2;
 3/5=4,6=6,7=1111,11=9,25=1,30=1,74=-55,124=31/1,2,3,8;
 4//1;
 5/5=2,38=5/2;
 8/6=1,10=2,108=1/1;
 9/41=1,42=1,70=2/14;
 6/7=2,8=2,9=2,10=2/1;
 99/5=1,9=1/99;
 ------
 SP_150
 ------
 Symbolic Z-matrix:
 Charge =  1 Multiplicity = 1
 C                     2.46326   1.36133   0. 
 C                     3.66521   0.65586   0. 
 C                     3.67396  -0.74248   0. 
 C                     2.49833  -1.42816   0. 
 C                    -2.42813  -1.38721   0. 
 C                    -3.69466  -0.68668   0. 
 C                    -3.73923   0.68759   0. 
 C                    -2.52491   1.35863   0. 
 C                    -0.01973   1.45667   0. 
 C                     0.0549   -1.42934   0. 
 C                     1.27038   0.69432   0. 
 C                     1.25967  -0.73328   0. 
 C                    -1.25396   0.65989   0. 
 C                    -1.21467  -0.72788   0. 
 H                     2.48027   2.44417   0. 
 H                     4.60015   1.19819   0. 
 H                     4.61601  -1.27227   0. 
 H                     2.48375  -2.51008   0. 
 H                     0.05063  -2.51034   0. 
 H                    -2.4509   -2.47026   0. 
 H                    -4.60296  -1.2743    0. 
 H                    -4.67508   1.22406   0. 
 H                    -2.49917   2.44215   0. 
 H                    -0.072     2.14654  -0.86041 
 H                    -0.072     2.14654   0.86041 
 
                          Input orientation:                          
 ---------------------------------------------------------------------
 Center     Atomic      Atomic             Coordinates (Angstroms)
 Number     Number       Type             X           Y           Z
 ---------------------------------------------------------------------
      1          6           0        2.463255    1.361331    0.000000
      2          6           0        3.665208    0.655864    0.000000
      3          6           0        3.673961   -0.742480    0.000000
      4          6           0        2.498331   -1.428163    0.000000
      5          6           0       -2.428131   -1.387213    0.000000
      6          6           0       -3.694661   -0.686680    0.000000
      7          6           0       -3.739233    0.687589    0.000000
      8          6           0       -2.524905    1.358631    0.000000
      9          6           0       -0.019725    1.456669    0.000000
     10          6           0        0.054900   -1.429339    0.000000
     11          6           0        1.270380    0.694315    0.000000
     12          6           0        1.259671   -0.733279    0.000000
     13          6           0       -1.253955    0.659890    0.000000
     14          6           0       -1.214671   -0.727879    0.000000
     15          1           0        2.480271    2.444172    0.000000
     16          1           0        4.600153    1.198189    0.000000
     17          1           0        4.616012   -1.272274    0.000000
     18          1           0        2.483750   -2.510084    0.000000
     19          1           0        0.050625   -2.510341    0.000000
     20          1           0       -2.450900   -2.470259    0.000000
     21          1           0       -4.602962   -1.274299    0.000000
     22          1           0       -4.675078    1.224064    0.000000
     23          1           0       -2.499171    2.442147    0.000000
     24          1           0       -0.072000    2.146537   -0.860410
     25          1           0       -0.072000    2.146537    0.860410
 ---------------------------------------------------------------------
                    Distance matrix (angstroms):
                    1          2          3          4          5
     1  C    0.000000
     2  C    1.393691   0.000000
     3  C    2.427309   1.398371   0.000000
     4  C    2.789715   2.388466   1.360980   0.000000
     5  C    5.610718   6.426737   6.136058   4.926632   0.000000
     6  C    6.489551   7.481316   7.368833   6.237223   1.447358
     7  C    6.238973   7.404509   7.549870   6.586624   2.454341
     8  C    4.988161   6.229878   6.545274   5.744486   2.747549
     9  C    2.484810   3.770944   4.298787   3.829212   3.726672
    10  C    3.686192   4.169220   3.683664   2.443431   2.483388
    11  C    1.366697   2.395137   2.800282   2.452096   4.244024
    12  C    2.415783   2.777828   2.414308   1.420261   3.745332
    13  C    3.782812   4.919165   5.123573   4.294137   2.359941
    14  C    4.229886   5.072274   4.888654   3.778463   1.381016
    15  H    1.082975   2.145256   3.402888   3.872377   6.226710
    16  H    2.143117   1.080851   2.150355   3.363834   7.488730
    17  H    3.401505   2.149824   1.080806   2.123411   7.045081
    18  H    3.871469   3.379211   2.130968   1.082019   5.038592
    19  H    4.561867   4.805212   4.031612   2.676261   2.721332
    20  H    6.231372   6.868728   6.363894   5.057752   1.083285
    21  H    7.541748   8.490475   8.293991   7.102960   2.177760
    22  H    7.139653   8.359619   8.577514   7.648013   3.444929
    23  H    5.078763   6.417973   6.946179   6.320943   3.830019
    24  H    2.790049   4.114503   4.808217   4.486133   4.333480
    25  H    2.790049   4.114503   4.808217   4.486133   4.333480
                    6          7          8          9         10
     6  C    0.000000
     7  C    1.374992   0.000000
     8  C    2.356189   1.387404   0.000000
     9  C    4.254304   3.798187   2.507098   0.000000
    10  C    3.822401   4.344747   3.798443   2.886973   0.000000
    11  C    5.153521   5.009618   3.852986   1.498517   2.446896
    12  C    4.954551   5.196913   4.324246   2.536282   1.391392
    13  C    2.787525   2.485432   1.450363   1.469075   2.465356
    14  C    2.480332   2.894298   2.463785   2.490009   1.450468
    15  H    6.923295   6.462802   5.121541   2.687962   4.570176
    16  H    8.506272   8.355003   7.126864   4.627103   5.250069
    17  H    8.331279   8.582027   7.610148   5.379330   4.563816
    18  H    6.441860   6.996473   6.328790   4.690684   2.658444
    19  H    4.165682   4.958808   4.647827   3.967634   1.081010
    20  H    2.174418   3.410543   3.829605   4.618590   2.713402
    21  H    1.081807   2.143603   3.354198   5.335190   4.660442
    22  H    2.147594   1.078708   2.154380   4.661160   5.423397
    23  H    3.349441   2.148541   1.083822   2.668112   4.638069
    24  H    4.678792   4.039484   2.716219   1.104063   3.680122
    25  H    4.678792   4.039484   2.716219   1.104063   3.680122
                   11         12         13         14         15
    11  C    0.000000
    12  C    1.427634   0.000000
    13  C    2.524570   2.873889   0.000000
    14  C    2.863235   2.474348   1.388325   0.000000
    15  H    2.127401   3.403830   4.138612   4.869754   0.000000
    16  H    3.367681   3.858677   5.878805   6.125514   2.458937
    17  H    3.880815   3.399344   6.179787   5.856042   4.286416
    18  H    3.426433   2.157639   4.900936   4.105432   4.954257
    19  H    3.428939   2.149358   3.428162   2.185897   5.518186
    20  H    4.884921   4.097003   3.351195   2.136387   6.961902
    21  H    6.194480   5.887543   3.867420   3.432068   7.999951
    22  H    5.969012   6.249195   3.467330   3.972971   7.258628
    23  H    4.155049   4.920592   2.174167   3.420381   4.979442
    24  H    2.156673   3.287399   2.085052   3.210649   2.709793
    25  H    2.156673   3.287399   2.085052   3.210649   2.709793
                   16         17         18         19         20
    16  H    0.000000
    17  H    2.470514   0.000000
    18  H    4.269713   2.465505   0.000000
    19  H    5.869531   4.730282   2.433125   0.000000
    20  H    7.948261   7.167734   4.934811   2.501846   0.000000
    21  H    9.529456   9.218974   7.193654   4.814943   2.462050
    22  H    9.275267   9.620606   8.074198   6.023126   4.312191
    23  H    7.207484   8.026379   7.025247   5.570332   4.912643
    24  H    4.844449   5.865665   5.381104   4.737284   5.264435
    25  H    4.844449   5.865665   5.381104   4.737284   5.264435
                   21         22         23         24         25
    21  H    0.000000
    22  H    2.499404   0.000000
    23  H    4.270586   2.493651   0.000000
    24  H    5.742129   4.772797   2.592074   0.000000
    25  H    5.742129   4.772797   2.592074   1.720820   0.000000
 Stoichiometry    C14H11(1+)
 Framework group  CS[SG(C14H9),X(H2)]
 Deg. of freedom    46
 Full point group                 CS      NOp   2
 Largest Abelian subgroup         CS      NOp   2
 Largest concise Abelian subgroup CS      NOp   2
                         Standard orientation:                         
 ---------------------------------------------------------------------
 Center     Atomic      Atomic             Coordinates (Angstroms)
 Number     Number       Type             X           Y           Z
 ---------------------------------------------------------------------
      1          6           0        0.099701   -2.813360    0.000000
      2          6           0        1.322860   -3.481383    0.000000
      3          6           0        2.526618   -2.769758    0.000000
      4          6           0        2.510082   -1.408878    0.000000
      5          6           0       -0.058589    2.795124    0.000000
      6          6           0       -1.310727    3.521068    0.000000
      7          6           0       -2.512258    2.852543    0.000000
      8          6           0       -2.463264    1.466004    0.000000
      9          6           0       -1.258996   -0.732922    0.000000
     10          6           0        1.254498    0.687277    0.000000
     11          6           0        0.058286   -1.447290    0.000000
     12          6           0        1.277121   -0.703932    0.000000
     13          6           0       -1.210390    0.735349    0.000000
     14          6           0        0.000000    1.415351    0.000000
     15          1           0       -0.820221   -3.384830    0.000000
     16          1           0        1.338566   -4.562119    0.000000
     17          1           0        3.465455   -3.305226    0.000000
     18          1           0        3.430467   -0.839969    0.000000
     19          1           0        2.179394    1.246874    0.000000
     20          1           0        0.858550    3.371634    0.000000
     21          1           0       -1.273886    4.602247    0.000000
     22          1           0       -3.453634    3.379253    0.000000
     23          1           0       -3.379282    0.886710    0.000000
     24          1           0       -1.877528   -1.042870    0.860410
     25          1           0       -1.877528   -1.042870   -0.860410
 ---------------------------------------------------------------------
 Rotational constants (GHZ):           2.1356793           0.4443634           0.3686310
 Standard basis: 6-311++G(d,p) (5D, 7F)
 There are   299 symmetry adapted cartesian basis functions of A'  symmetry.
 There are   100 symmetry adapted cartesian basis functions of A"  symmetry.
 There are   285 symmetry adapted basis functions of A'  symmetry.
 There are   100 symmetry adapted basis functions of A"  symmetry.
   385 basis functions,   603 primitive gaussians,   399 cartesian basis functions
    47 alpha electrons       47 beta electrons
       nuclear repulsion energy       781.1170649285 Hartrees.
 NAtoms=   25 NActive=   25 NUniq=   24 SFac= 1.09D+00 NAtFMM=   60 NAOKFM=F Big=F
 Integral buffers will be    131072 words long.
 Regular integral format.
 Two-electron integral symmetry is turned on.
 Nuclear repulsion after empirical dispersion term =      781.1160859397 Hartrees.
 One-electron integrals computed using PRISM.
 NBasis=   385 RedAO= T EigKep=  1.12D-06  NBF=   285   100
 NBsUse=   379 1.00D-06 EigRej=  8.37D-07 NBFU=   279   100
 ExpMin= 3.60D-02 ExpMax= 4.56D+03 ExpMxC= 6.82D+02 IAcc=3 IRadAn=         5 AccDes= 0.00D+00
 Harris functional with IExCor= 1009 and IRadAn=       5 diagonalized for initial guess.
 HarFok:  IExCor= 1009 AccDes= 0.00D+00 IRadAn=         5 IDoV= 1 UseB2=F ITyADJ=14
 ICtDFT=  3500011 ScaDFX=  1.000000  1.000000  1.000000  1.000000
 FoFCou: FMM=F IPFlag=           0 FMFlag=      100000 FMFlg1=           0
         NFxFlg=           0 DoJE=T BraDBF=F KetDBF=T FulRan=T
         wScrn=  0.000000 ICntrl=       500 IOpCl=  0 I1Cent=   200000004 NGrid=           0
         NMat0=    1 NMatS0=      1 NMatT0=    0 NMatD0=    1 NMtDS0=    0 NMtDT0=    0
 Petite list used in FoFCou.
 Initial guess orbital symmetries:
       Occupied  (A') (A') (A') (A') (A') (A') (A') (A') (A') (A')
                 (A') (A') (A') (A') (A') (A') (A') (A') (A') (A')
                 (A') (A') (A') (A') (A') (A') (A') (A') (A') (A')
                 (A') (A') (A") (A') (A') (A') (A') (A') (A") (A')
                 (A") (A') (A') (A") (A") (A") (A")
       Virtual   (A") (A") (A") (A") (A") (A') (A') (A') (A') (A")
                 (A") (A') (A') (A') (A") (A') (A') (A') (A') (A")
                 (A') (A") (A') (A') (A') (A") (A') (A") (A') (A')
                 (A') (A') (A') (A') (A") (A') (A") (A') (A') (A')
                 (A") (A') (A") (A') (A') (A') (A') (A') (A") (A')
                 (A') (A') (A") (A") (A') (A') (A') (A") (A") (A')
                 (A') (A') (A') (A') (A') (A') (A") (A') (A') (A")
                 (A') (A') (A') (A') (A') (A') (A') (A') (A') (A')
                 (A') (A') (A') (A') (A') (A') (A') (A') (A') (A')
                 (A') (A') (A') (A') (A') (A') (A') (A") (A') (A")
                 (A') (A') (A") (A") (A') (A") (A') (A") (A") (A')
                 (A") (A') (A') (A') (A") (A') (A') (A") (A") (A')
                 (A") (A") (A') (A') (A') (A") (A') (A') (A') (A")
                 (A') (A') (A') (A') (A') (A') (A") (A') (A') (A')
                 (A') (A') (A') (A') (A') (A') (A') (A') (A') (A")
                 (A") (A') (A") (A") (A') (A') (A') (A") (A') (A")
                 (A") (A') (A") (A") (A") (A') (A') (A') (A') (A')
                 (A') (A") (A') (A') (A") (A') (A') (A') (A') (A")
                 (A') (A') (A') (A') (A") (A") (A') (A') (A") (A")
                 (A") (A') (A') (A") (A') (A') (A') (A") (A') (A')
                 (A") (A") (A") (A') (A') (A") (A') (A") (A') (A')
                 (A") (A") (A') (A") (A') (A") (A') (A') (A') (A')
                 (A") (A') (A') (A') (A") (A') (A') (A') (A") (A")
                 (A') (A') (A') (A") (A') (A') (A") (A') (A") (A')
                 (A") (A') (A') (A') (A') (A") (A') (A') (A') (A")
                 (A') (A') (A') (A") (A") (A') (A') (A") (A') (A')
                 (A') (A") (A') (A") (A') (A') (A') (A") (A') (A")
                 (A') (A') (A') (A') (A") (A') (A") (A') (A") (A')
                 (A") (A') (A") (A") (A") (A') (A') (A') (A') (A')
                 (A') (A') (A') (A') (A') (A') (A') (A') (A') (A')
                 (A') (A') (A') (A') (A') (A") (A') (A') (A') (A')
                 (A') (A') (A') (A') (A') (A') (A') (A') (A') (A')
                 (A') (A') (A') (A') (A') (A') (A') (A') (A') (A')
                 (A') (A')
 The electronic state of the initial guess is 1-A'.
 Requested convergence on RMS density matrix=1.00D-08 within 128 cycles.
 Requested convergence on MAX density matrix=1.00D-06.
 Requested convergence on             energy=1.00D-06.
 No special actions if energy rises.
 SCF Done:  E(RM062X) =  -539.751462395     A.U. after   16 cycles
            NFock= 16  Conv=0.35D-08     -V/T= 2.0041
 DoSCS=F DFT=T ScalE2(SS,OS)=  1.000000  1.000000
 ExpMin= 3.60D-02 ExpMax= 4.56D+03 ExpMxC= 6.82D+02 IAcc=3 IRadAn=         5 AccDes= 0.00D+00
 HarFok:  IExCor=  205 AccDes= 0.00D+00 IRadAn=         5 IDoV=-2 UseB2=F ITyADJ=14
 ICtDFT= 12500011 ScaDFX=  1.000000  1.000000  1.000000  1.000000
 Range of M.O.s used for correlation:    15   379
 NBasis=   385 NAE=    47 NBE=    47 NFC=    14 NFV=     0
 NROrb=    365 NOA=    33 NOB=    33 NVA=   332 NVB=   332

 **** Warning!!: The largest alpha MO coefficient is  0.14014458D+03

 Orbital symmetries:
       Occupied  (A') (A') (A') (A') (A') (A') (A') (A') (A') (A')
                 (A') (A') (A') (A') (A') (A') (A') (A') (A') (A')
                 (A') (A') (A') (A') (A') (A') (A') (A') (A') (A')
                 (A') (A") (A') (A') (A') (A') (A') (A") (A') (A")
                 (A') (A') (A') (A") (A") (A") (A")
       Virtual   (A") (A") (A") (A") (A') (A') (A') (A') (A") (A')
                 (A') (A") (A') (A') (A") (A') (A") (A') (A') (A')
                 (A") (A") (A') (A') (A') (A") (A') (A") (A') (A')
                 (A") (A') (A") (A') (A') (A') (A') (A') (A") (A')
                 (A") (A') (A') (A") (A") (A') (A") (A') (A") (A')
                 (A') (A') (A') (A') (A') (A") (A') (A') (A') (A')
                 (A') (A") (A') (A') (A') (A") (A') (A') (A') (A')
                 (A') (A') (A') (A') (A') (A') (A') (A') (A') (A')
                 (A') (A') (A') (A') (A') (A') (A') (A') (A') (A')
                 (A') (A') (A') (A') (A") (A') (A") (A") (A') (A")
                 (A') (A') (A') (A') (A") (A") (A') (A") (A") (A')
                 (A') (A') (A") (A') (A") (A') (A') (A") (A') (A")
                 (A") (A') (A") (A') (A') (A') (A") (A') (A') (A')
                 (A') (A') (A') (A') (A') (A') (A') (A') (A') (A')
                 (A') (A') (A') (A") (A') (A') (A') (A') (A') (A')
                 (A') (A") (A') (A') (A") (A') (A") (A") (A') (A")
                 (A") (A') (A') (A") (A') (A") (A") (A") (A') (A')
                 (A') (A') (A") (A') (A') (A") (A') (A') (A') (A")
                 (A') (A') (A') (A") (A") (A') (A') (A") (A") (A')
                 (A") (A') (A') (A") (A") (A') (A') (A') (A') (A')
                 (A") (A") (A") (A') (A") (A') (A') (A") (A') (A')
                 (A') (A") (A') (A") (A") (A') (A") (A') (A') (A")
                 (A') (A') (A') (A') (A") (A') (A') (A') (A") (A")
                 (A') (A') (A') (A") (A') (A') (A') (A") (A") (A')
                 (A") (A') (A') (A") (A') (A') (A') (A') (A') (A')
                 (A") (A') (A') (A') (A') (A") (A") (A") (A') (A')
                 (A') (A') (A') (A') (A') (A') (A') (A") (A') (A')
                 (A') (A") (A') (A") (A") (A") (A') (A") (A') (A")
                 (A') (A") (A") (A') (A") (A") (A') (A') (A') (A')
                 (A') (A') (A') (A') (A') (A') (A') (A') (A') (A')
                 (A') (A') (A') (A") (A') (A') (A') (A') (A') (A')
                 (A') (A') (A') (A') (A') (A') (A') (A') (A') (A')
                 (A') (A') (A') (A') (A') (A') (A') (A') (A') (A')
                 (A') (A')
     4 initial guesses have been made.
 Convergence on wavefunction:    0.001000000000000
 Iteration     1 Dimension     4 NMult     0 NNew      4
 CISAX will form     4 AO SS matrices at one time.
 Iteration     2 Dimension     6 NMult     4 NNew      2
 Iteration     3 Dimension     8 NMult     6 NNew      2
 Iteration     4 Dimension    10 NMult     8 NNew      2
 Iteration     5 Dimension    12 NMult    10 NNew      2
 Iteration     6 Dimension    14 NMult    12 NNew      2
 ***********************************************************************
 Excited states from <AA,BB:AA,BB> singles matrix:
 ***********************************************************************
 
 Ground to excited state transition densities written to RWF  633
 Ground to excited state transition electric dipole moments (Au):
       state          X           Y           Z        Dip. S.      Osc.
         1        -0.4860     -0.2147      0.0000      0.2823      0.0181
 Ground to excited state transition velocity dipole moments (Au):
       state          X           Y           Z        Dip. S.      Osc.
         1         0.0505      0.0276      0.0000      0.0033      0.0229
 Ground to excited state transition magnetic dipole moments (Au):
       state          X           Y           Z
         1        -0.0000      0.0000     -0.1737
 Ground to excited state transition velocity quadrupole moments (Au):
       state          XX          YY          ZZ          XY          XZ          YZ
         1         0.0002      0.2505     -0.0079     -0.0498     -0.0000      0.0000
 <0|del|b> * <b|rxdel|0> + <0|del|b> * <b|delr+rdel|0>
 Rotatory Strengths (R) in cgs (10**-40 erg-esu-cm/Gauss)
       state          XX          YY          ZZ    R(velocity)    E-M Angle
         1         0.0000      0.0000     -0.0000     -0.0000       90.00
 1/2[<0|r|b>*<b|rxdel|0> + (<0|rxdel|b>*<b|r|0>)*]
 Rotatory Strengths (R) in cgs (10**-40 erg-esu-cm/Gauss)
       state          XX          YY          ZZ     R(length)
         1        -0.0000      0.0000      0.0000      0.0000
  1/2[<0|del|b>*<b|r|0> + (<0|r|b>*<b|del|0>)*] (Au)
       state          X           Y           Z        Dip. S.   Osc.(frdel)
         1        -0.0245     -0.0059      0.0000      0.0305      0.0203

 Excitation energies and oscillator strengths:
 
 Excited State   1:      Singlet-A'     2.6207 eV  473.10 nm  f=0.0181  <S**2>=0.000
      47 -> 48         0.70347
 This state for optimization and/or second-order correction.
 Total Energy, E(TD-HF/TD-DFT) =  -539.655153730    
 Copying the excited state density for this state as the 1-particle RhoCI density.
 SavETr:  write IOETrn=   770 NScale= 10 NData=  16 NLR=1 NState=    1 LETran=      28.

 **********************************************************************

            Population analysis using the SCF Density.

 **********************************************************************

 Orbital symmetries:
       Occupied  (A') (A') (A') (A') (A') (A') (A') (A') (A') (A')
                 (A') (A') (A') (A') (A') (A') (A') (A') (A') (A')
                 (A') (A') (A') (A') (A') (A') (A') (A') (A') (A')
                 (A') (A") (A') (A') (A') (A') (A') (A") (A') (A")
                 (A') (A') (A') (A") (A") (A") (A")
       Virtual   (A") (A") (A") (A") (A') (A') (A') (A') (A") (A')
                 (A') (A") (A') (A') (A") (A') (A") (A') (A') (A')
                 (A") (A") (A') (A') (A') (A") (A') (A") (A') (A')
                 (A") (A') (A") (A') (A') (A') (A') (A') (A") (A')
                 (A") (A') (A') (A") (A") (A') (A") (A') (A") (A')
                 (A') (A') (A') (A') (A') (A") (A') (A') (A') (A')
                 (A') (A") (A') (A') (A') (A") (A') (A') (A') (A')
                 (A') (A') (A') (A') (A') (A') (A') (A') (A') (A')
                 (A') (A') (A') (A') (A') (A') (A') (A') (A') (A')
                 (A') (A') (A') (A') (A") (A') (A") (A") (A') (A")
                 (A') (A') (A') (A') (A") (A") (A') (A") (A") (A')
                 (A') (A') (A") (A') (A") (A') (A') (A") (A') (A")
                 (A") (A') (A") (A') (A') (A') (A") (A') (A') (A')
                 (A') (A') (A') (A') (A') (A') (A') (A') (A') (A')
                 (A') (A') (A') (A") (A') (A') (A') (A') (A') (A')
                 (A') (A") (A') (A') (A") (A') (A") (A") (A') (A")
                 (A") (A') (A') (A") (A') (A") (A") (A") (A') (A')
                 (A') (A') (A") (A') (A') (A") (A') (A') (A') (A")
                 (A') (A') (A') (A") (A") (A') (A') (A") (A") (A')
                 (A") (A') (A') (A") (A") (A') (A') (A') (A') (A')
                 (A") (A") (A") (A') (A") (A') (A') (A") (A') (A')
                 (A') (A") (A') (A") (A") (A') (A") (A') (A') (A")
                 (A') (A') (A') (A') (A") (A') (A') (A') (A") (A")
                 (A') (A') (A') (A") (A') (A') (A') (A") (A") (A')
                 (A") (A') (A') (A") (A') (A') (A') (A') (A') (A')
                 (A") (A') (A') (A') (A') (A") (A") (A") (A') (A')
                 (A') (A') (A') (A') (A') (A') (A') (A") (A') (A')
                 (A') (A") (A') (A") (A") (A") (A') (A") (A') (A")
                 (A') (A") (A") (A') (A") (A") (A') (A') (A') (A')
                 (A') (A') (A') (A') (A') (A') (A') (A') (A') (A')
                 (A') (A') (A') (A") (A') (A') (A') (A') (A') (A')
                 (A') (A') (A') (A') (A') (A') (A') (A') (A') (A')
                 (A') (A') (A') (A') (A') (A') (A') (A') (A') (A')
                 (A') (A')
 The electronic state is 1-A'.
 Alpha  occ. eigenvalues --  -10.77554 -10.73889 -10.72906 -10.72597 -10.72206
 Alpha  occ. eigenvalues --  -10.71942 -10.71865 -10.70996 -10.70722 -10.70267
 Alpha  occ. eigenvalues --  -10.69995 -10.69906 -10.69680 -10.69267  -1.16564
 Alpha  occ. eigenvalues --   -1.12464  -1.06936  -1.05876  -1.01275  -1.00475
 Alpha  occ. eigenvalues --   -0.95499  -0.91011  -0.86448  -0.85883  -0.83758
 Alpha  occ. eigenvalues --   -0.78307  -0.76165  -0.74349  -0.69854  -0.69341
 Alpha  occ. eigenvalues --   -0.68247  -0.68091  -0.68022  -0.65390  -0.64222
 Alpha  occ. eigenvalues --   -0.62667  -0.61482  -0.60562  -0.59184  -0.59170
 Alpha  occ. eigenvalues --   -0.56950  -0.55267  -0.54455  -0.52442  -0.47488
 Alpha  occ. eigenvalues --   -0.46135  -0.43612
 Alpha virt. eigenvalues --   -0.26117  -0.14665  -0.14070  -0.12757  -0.11194
 Alpha virt. eigenvalues --   -0.10095  -0.09269  -0.07952  -0.07915  -0.07487
 Alpha virt. eigenvalues --   -0.07213  -0.07130  -0.05648  -0.05571  -0.05359
 Alpha virt. eigenvalues --   -0.03858  -0.03671  -0.03270  -0.03133  -0.02153
 Alpha virt. eigenvalues --   -0.01341  -0.00966   0.00187   0.00592   0.00630
 Alpha virt. eigenvalues --    0.01067   0.01500   0.01930   0.02123   0.02305
 Alpha virt. eigenvalues --    0.02448   0.02674   0.02811   0.03236   0.03474
 Alpha virt. eigenvalues --    0.04213   0.04492   0.04735   0.05045   0.05400
 Alpha virt. eigenvalues --    0.06021   0.06285   0.06570   0.07054   0.07280
 Alpha virt. eigenvalues --    0.07909   0.08051   0.08344   0.08669   0.08901
 Alpha virt. eigenvalues --    0.09463   0.09589   0.09938   0.10790   0.10929
 Alpha virt. eigenvalues --    0.11135   0.12068   0.12244   0.12628   0.13038
 Alpha virt. eigenvalues --    0.13481   0.13525   0.13961   0.14301   0.15779
 Alpha virt. eigenvalues --    0.16389   0.16504   0.17322   0.17389   0.17763
 Alpha virt. eigenvalues --    0.18128   0.19075   0.19372   0.19697   0.19987
 Alpha virt. eigenvalues --    0.21451   0.21661   0.22632   0.23225   0.23573
 Alpha virt. eigenvalues --    0.23993   0.24523   0.25493   0.26957   0.27621
 Alpha virt. eigenvalues --    0.28856   0.29235   0.29945   0.31346   0.35740
 Alpha virt. eigenvalues --    0.36477   0.38228   0.39281   0.41000   0.41237
 Alpha virt. eigenvalues --    0.41976   0.42081   0.42983   0.43708   0.44431
 Alpha virt. eigenvalues --    0.44740   0.45138   0.45838   0.46454   0.47877
 Alpha virt. eigenvalues --    0.48346   0.48742   0.49049   0.50565   0.51030
 Alpha virt. eigenvalues --    0.51169   0.52140   0.52155   0.52718   0.54138
 Alpha virt. eigenvalues --    0.54207   0.54580   0.55616   0.56033   0.57638
 Alpha virt. eigenvalues --    0.58214   0.59030   0.61528   0.62296   0.62455
 Alpha virt. eigenvalues --    0.63144   0.63466   0.64894   0.65168   0.67531
 Alpha virt. eigenvalues --    0.70282   0.70448   0.71288   0.72560   0.72927
 Alpha virt. eigenvalues --    0.75503   0.76060   0.76468   0.76706   0.77122
 Alpha virt. eigenvalues --    0.77878   0.78057   0.78310   0.79940   0.80384
 Alpha virt. eigenvalues --    0.81228   0.81526   0.82519   0.82981   0.85262
 Alpha virt. eigenvalues --    0.86989   0.87965   0.88157   0.89401   0.90685
 Alpha virt. eigenvalues --    0.91019   0.91517   0.93357   0.94579   0.96224
 Alpha virt. eigenvalues --    0.97007   1.00017   1.01292   1.01453   1.02764
 Alpha virt. eigenvalues --    1.02890   1.03313   1.04945   1.06702   1.08952
 Alpha virt. eigenvalues --    1.19592   1.22826   1.23913   1.24184   1.29160
 Alpha virt. eigenvalues --    1.29237   1.32435   1.34278   1.35731   1.35942
 Alpha virt. eigenvalues --    1.39264   1.39472   1.40737   1.42906   1.43369
 Alpha virt. eigenvalues --    1.43419   1.44289   1.46362   1.46552   1.47220
 Alpha virt. eigenvalues --    1.47733   1.48308   1.51794   1.53703   1.55698
 Alpha virt. eigenvalues --    1.55741   1.56255   1.56597   1.57837   1.61482
 Alpha virt. eigenvalues --    1.62848   1.63417   1.64319   1.66066   1.68266
 Alpha virt. eigenvalues --    1.68387   1.68741   1.69901   1.74423   1.76044
 Alpha virt. eigenvalues --    1.77163   1.78103   1.79721   1.79940   1.80940
 Alpha virt. eigenvalues --    1.82710   1.83184   1.83602   1.83784   1.84196
 Alpha virt. eigenvalues --    1.84705   1.85363   1.86517   1.88428   1.91444
 Alpha virt. eigenvalues --    1.92189   1.94027   1.95409   1.97841   1.98154
 Alpha virt. eigenvalues --    1.99836   2.02345   2.04599   2.07348   2.11680
 Alpha virt. eigenvalues --    2.12220   2.14339   2.15297   2.19036   2.21168
 Alpha virt. eigenvalues --    2.22709   2.28413   2.30314   2.34370   2.34710
 Alpha virt. eigenvalues --    2.36419   2.38558   2.39724   2.42313   2.44580
 Alpha virt. eigenvalues --    2.46084   2.46423   2.49102   2.52963   2.53771
 Alpha virt. eigenvalues --    2.54258   2.56916   2.57954   2.58483   2.59347
 Alpha virt. eigenvalues --    2.59944   2.61496   2.62138   2.63579   2.63684
 Alpha virt. eigenvalues --    2.64859   2.65033   2.65047   2.65683   2.67900
 Alpha virt. eigenvalues --    2.68311   2.70910   2.71498   2.73390   2.74804
 Alpha virt. eigenvalues --    2.76271   2.78194   2.79602   2.83174   2.83290
 Alpha virt. eigenvalues --    2.84842   2.86246   2.92118   2.97172   2.99371
 Alpha virt. eigenvalues --    3.00183   3.04846   3.08930   3.11077   3.14422
 Alpha virt. eigenvalues --    3.20334   3.21577   3.25904   3.28832   3.30891
 Alpha virt. eigenvalues --    3.32830   3.35027   3.44184   3.46387   3.46785
 Alpha virt. eigenvalues --    3.48265   3.49975   3.56393   3.65955   3.66989
 Alpha virt. eigenvalues --    3.68101   3.93384   3.93929   3.95319   3.96635
 Alpha virt. eigenvalues --    4.03872   4.06308   4.07699   4.12530   4.35109
 Alpha virt. eigenvalues --    4.60588   4.68809   4.70934  23.45172  23.59841
 Alpha virt. eigenvalues --   23.79134  23.81316  23.84316  23.89171  23.92162
 Alpha virt. eigenvalues --   23.95168  23.96067  23.98116  24.04495  24.07560
 Alpha virt. eigenvalues --   24.11733  24.14237
          Condensed to atoms (all electrons):
               1          2          3          4          5          6
     1  C    8.330137   0.541198  -0.668486   1.740599  -0.004860  -0.083183
     2  C    0.541198   7.222128   0.431413  -0.988478  -0.042147  -0.015188
     3  C   -0.668486   0.431413   6.616593   0.709097  -0.110682   0.016878
     4  C    1.740599  -0.988478   0.709097  11.720884  -0.405625  -0.146925
     5  C   -0.004860  -0.042147  -0.110682  -0.405625  10.665242   0.853952
     6  C   -0.083183  -0.015188   0.016878  -0.146925   0.853952   6.610494
     7  C   -0.034660  -0.001069  -0.012628   0.026827  -1.256561   0.201108
     8  C    0.409900   0.005435  -0.108827  -0.114381   2.382583  -0.322762
     9  C   -1.112752  -0.888384   0.296073   0.119738  -0.447028   0.297013
    10  C   -1.196740   0.140573  -0.236472  -2.845465  -2.332948  -0.456438
    11  C    0.356688  -0.750391   0.852511  -0.375195  -1.399193  -0.092489
    12  C   -1.813217   0.987186  -1.341937  -1.703910  -0.197893  -0.309532
    13  C    0.208104  -0.206214  -0.236837  -1.613665  -0.360091   1.126560
    14  C   -1.165439  -0.317348  -0.093900  -0.496899  -1.685592  -1.552557
    15  H    0.367751  -0.106875  -0.003435   0.024782   0.006494   0.001273
    16  H   -0.020128   0.384297  -0.022996   0.017852  -0.001723  -0.000366
    17  H   -0.019294  -0.023686   0.383013  -0.070960   0.000094   0.000418
    18  H    0.047051   0.003863  -0.083045   0.471173   0.005541  -0.005062
    19  H   -0.042979  -0.008540   0.051418  -0.084501  -0.059592   0.052080
    20  H    0.006785   0.002055  -0.005352   0.005667   0.454865  -0.084076
    21  H   -0.001212  -0.000422   0.000380   0.000483  -0.066030   0.366154
    22  H    0.000332   0.000303  -0.000287  -0.001242   0.009094  -0.011157
    23  H    0.006901  -0.002149   0.000948   0.004043   0.030785   0.002405
    24  H    0.039201   0.016282  -0.001257  -0.010898  -0.013447  -0.001891
    25  H    0.039201   0.016282  -0.001257  -0.010898  -0.013447  -0.001891
               7          8          9         10         11         12
     1  C   -0.034660   0.409900  -1.112752  -1.196740   0.356688  -1.813217
     2  C   -0.001069   0.005435  -0.888384   0.140573  -0.750391   0.987186
     3  C   -0.012628  -0.108827   0.296073  -0.236472   0.852511  -1.341937
     4  C    0.026827  -0.114381   0.119738  -2.845465  -0.375195  -1.703910
     5  C   -1.256561   2.382583  -0.447028  -2.332948  -1.399193  -0.197893
     6  C    0.201108  -0.322762   0.297013  -0.456438  -0.092489  -0.309532
     7  C    7.249998  -0.147616  -0.788065   0.379664  -0.326492  -0.039843
     8  C   -0.147616   9.149848  -1.088890  -1.429792   0.335303  -1.059645
     9  C   -0.788065  -1.088890   9.625261   0.248943   1.565583  -2.127049
    10  C    0.379664  -1.429792   0.248943   9.070420  -0.251031   2.367156
    11  C   -0.326492   0.335303   1.565583  -0.251031  14.552072  -4.151165
    12  C   -0.039843  -1.059645  -2.127049   2.367156  -4.151165  16.385563
    13  C   -0.990849   0.299907   1.387574  -0.455627   1.051881  -4.648679
    14  C    1.879073  -2.824408  -1.651787   2.466028  -4.797663   3.147711
    15  H   -0.002949   0.004578   0.086246  -0.007316  -0.029651  -0.009693
    16  H    0.000413   0.001143   0.000963  -0.010513   0.023502  -0.028204
    17  H   -0.000365  -0.001433  -0.004436   0.019874  -0.024500   0.084503
    18  H    0.002182   0.006861  -0.021657   0.004416  -0.008664  -0.047731
    19  H   -0.007493  -0.048561   0.074283   0.422692   0.077274  -0.092116
    20  H    0.001358   0.055759  -0.026057   0.014026  -0.012215  -0.007239
    21  H   -0.004843  -0.035407  -0.006462   0.020012  -0.006178   0.005261
    22  H    0.372362  -0.015695   0.003747  -0.007379   0.002180  -0.007167
    23  H   -0.110305   0.372438   0.096507  -0.011589   0.009085   0.003892
    24  H    0.012608   0.026968   0.356067   0.005424   0.027375  -0.059816
    25  H    0.012608   0.026968   0.356067   0.005424   0.027375  -0.059816
              13         14         15         16         17         18
     1  C    0.208104  -1.165439   0.367751  -0.020128  -0.019294   0.047051
     2  C   -0.206214  -0.317348  -0.106875   0.384297  -0.023686   0.003863
     3  C   -0.236837  -0.093900  -0.003435  -0.022996   0.383013  -0.083045
     4  C   -1.613665  -0.496899   0.024782   0.017852  -0.070960   0.471173
     5  C   -0.360091  -1.685592   0.006494  -0.001723   0.000094   0.005541
     6  C    1.126560  -1.552557   0.001273  -0.000366   0.000418  -0.005062
     7  C   -0.990849   1.879073  -0.002949   0.000413  -0.000365   0.002182
     8  C    0.299907  -2.824408   0.004578   0.001143  -0.001433   0.006861
     9  C    1.387574  -1.651787   0.086246   0.000963  -0.004436  -0.021657
    10  C   -0.455627   2.466028  -0.007316  -0.010513   0.019874   0.004416
    11  C    1.051881  -4.797663  -0.029651   0.023502  -0.024500  -0.008664
    12  C   -4.648679   3.147711  -0.009693  -0.028204   0.084503  -0.047731
    13  C   14.167331  -3.161793  -0.004674   0.003496  -0.006306  -0.012556
    14  C   -3.161793  15.815736   0.007813  -0.010743   0.005260  -0.023819
    15  H   -0.004674   0.007813   0.433197  -0.008858   0.001713   0.000235
    16  H    0.003496  -0.010743  -0.008858   0.415232  -0.007155   0.001989
    17  H   -0.006306   0.005260   0.001713  -0.007155   0.419083  -0.010080
    18  H   -0.012556  -0.023819   0.000235   0.001989  -0.010080   0.447479
    19  H    0.082941  -0.041413   0.000446  -0.000626   0.001817  -0.005727
    20  H   -0.000626  -0.069692  -0.000130   0.000021  -0.000173   0.001249
    21  H   -0.026214   0.098605   0.000018  -0.000007   0.000010  -0.000115
    22  H    0.024621  -0.031891  -0.000124   0.000007  -0.000007   0.000011
    23  H   -0.035351  -0.039876   0.000550  -0.000132   0.000010  -0.000101
    24  H   -0.000795  -0.060119  -0.000950   0.000626  -0.000132   0.000136
    25  H   -0.000795  -0.060119  -0.000950   0.000626  -0.000132   0.000136
              19         20         21         22         23         24
     1  C   -0.042979   0.006785  -0.001212   0.000332   0.006901   0.039201
     2  C   -0.008540   0.002055  -0.000422   0.000303  -0.002149   0.016282
     3  C    0.051418  -0.005352   0.000380  -0.000287   0.000948  -0.001257
     4  C   -0.084501   0.005667   0.000483  -0.001242   0.004043  -0.010898
     5  C   -0.059592   0.454865  -0.066030   0.009094   0.030785  -0.013447
     6  C    0.052080  -0.084076   0.366154  -0.011157   0.002405  -0.001891
     7  C   -0.007493   0.001358  -0.004843   0.372362  -0.110305   0.012608
     8  C   -0.048561   0.055759  -0.035407  -0.015695   0.372438   0.026968
     9  C    0.074283  -0.026057  -0.006462   0.003747   0.096507   0.356067
    10  C    0.422692   0.014026   0.020012  -0.007379  -0.011589   0.005424
    11  C    0.077274  -0.012215  -0.006178   0.002180   0.009085   0.027375
    12  C   -0.092116  -0.007239   0.005261  -0.007167   0.003892  -0.059816
    13  C    0.082941  -0.000626  -0.026214   0.024621  -0.035351  -0.000795
    14  C   -0.041413  -0.069692   0.098605  -0.031891  -0.039876  -0.060119
    15  H    0.000446  -0.000130   0.000018  -0.000124   0.000550  -0.000950
    16  H   -0.000626   0.000021  -0.000007   0.000007  -0.000132   0.000626
    17  H    0.001817  -0.000173   0.000010  -0.000007   0.000010  -0.000132
    18  H   -0.005727   0.001249  -0.000115   0.000011  -0.000101   0.000136
    19  H    0.444417  -0.007089   0.001068  -0.000468   0.000214   0.000585
    20  H   -0.007089   0.460752  -0.010437   0.001878   0.000006   0.000238
    21  H    0.001068  -0.010437   0.425364  -0.005738   0.001157  -0.000152
    22  H   -0.000468   0.001878  -0.005738   0.423029  -0.008871   0.000634
    23  H    0.000214   0.000006   0.001157  -0.008871   0.446309  -0.000867
    24  H    0.000585   0.000238  -0.000152   0.000634  -0.000867   0.492820
    25  H    0.000585   0.000238  -0.000152   0.000634  -0.000867  -0.078688
              25
     1  C    0.039201
     2  C    0.016282
     3  C   -0.001257
     4  C   -0.010898
     5  C   -0.013447
     6  C   -0.001891
     7  C    0.012608
     8  C    0.026968
     9  C    0.356067
    10  C    0.005424
    11  C    0.027375
    12  C   -0.059816
    13  C   -0.000795
    14  C   -0.060119
    15  H   -0.000950
    16  H    0.000626
    17  H   -0.000132
    18  H    0.000136
    19  H    0.000585
    20  H    0.000238
    21  H   -0.000152
    22  H    0.000634
    23  H   -0.000867
    24  H   -0.078688
    25  H    0.492820
 Mulliken charges:
               1
     1  C    0.069101
     2  C   -0.400126
     3  C   -0.430924
     4  C    0.027897
     5  C   -0.011791
     6  C   -0.444818
     7  C   -0.414463
     8  C    0.119727
     9  C   -0.351497
    10  C    0.076656
    11  C   -0.656002
    12  C    0.723383
    13  C   -0.591341
    14  C    0.664833
    15  H    0.240509
    16  H    0.261285
    17  H    0.252864
    18  H    0.226235
    19  H    0.189284
    20  H    0.218191
    21  H    0.244856
    22  H    0.251191
    23  H    0.234858
    24  H    0.250047
    25  H    0.250047
 Sum of Mulliken charges =   1.00000
 Mulliken charges with hydrogens summed into heavy atoms:
               1
     1  C    0.309610
     2  C   -0.138841
     3  C   -0.178060
     4  C    0.254131
     5  C    0.206399
     6  C   -0.199962
     7  C   -0.163272
     8  C    0.354585
     9  C    0.148597
    10  C    0.265940
    11  C   -0.656002
    12  C    0.723383
    13  C   -0.591341
    14  C    0.664833
 Electronic spatial extent (au):  <R**2>=           2857.2159
 Charge=              1.0000 electrons
 Dipole moment (field-independent basis, Debye):
    X=              0.7877    Y=             -0.9882    Z=              0.0000  Tot=              1.2637
 Quadrupole moment (field-independent basis, Debye-Ang):
   XX=            -49.0523   YY=            -38.1879   ZZ=            -84.1281
   XY=            -11.4649   XZ=             -0.0000   YZ=             -0.0000
 Traceless Quadrupole moment (field-independent basis, Debye-Ang):
   XX=              8.0705   YY=             18.9349   ZZ=            -27.0054
   XY=            -11.4649   XZ=             -0.0000   YZ=             -0.0000
 Octapole moment (field-independent basis, Debye-Ang**2):
  XXX=              5.0407  YYY=            -15.6302  ZZZ=              0.0000  XYY=              3.1957
  XXY=              1.7923  XXZ=              0.0000  XZZ=             -1.7235  YZZ=             -3.1583
  YYZ=              0.0000  XYZ=              0.0000
 Hexadecapole moment (field-independent basis, Debye-Ang**3):
 XXXX=          -1084.0150 YYYY=          -1772.8552 ZZZZ=            -99.3150 XXXY=            368.0988
 XXXZ=             -0.0000 YYYX=            304.5626 YYYZ=             -0.0000 ZZZX=             -0.0000
 ZZZY=             -0.0000 XXYY=           -444.8559 XXZZ=           -267.1034 YYZZ=           -469.5212
 XXYZ=             -0.0000 YYXZ=             -0.0000 ZZXY=            198.2302
 N-N= 7.811160859397D+02 E-N=-2.798590946368D+03  KE= 5.375340970838D+02
 Symmetry A'   KE= 5.228778359746D+02
 Symmetry A"   KE= 1.465626110911D+01
 Unable to Open any file for archive entry.
 1\1\GINC-GADI-CPU-CLX-1762\SP\RM062X TD-FC\6-311++G(d,p)\C14H11(1+)\TS
 1578\02-Aug-2022\0\\#n M062X/6-311++G(d,p) TD(NStates=1) EmpiricalDisp
 ersion=GD3 SP\\SP_150\\1,1\C,0,2.463255,1.361331,0.\C,0,3.665208,0.655
 864,0.\C,0,3.673961,-0.74248,0.\C,0,2.498331,-1.428163,0.\C,0,-2.42813
 1,-1.387213,0.\C,0,-3.694661,-0.68668,0.\C,0,-3.739233,0.687589,0.\C,0
 ,-2.524905,1.358631,0.\C,0,-0.019725,1.456669,0.\C,0,0.0549,-1.429339,
 0.\C,0,1.27038,0.694315,0.\C,0,1.259671,-0.733279,0.\C,0,-1.253955,0.6
 5989,0.\C,0,-1.214671,-0.727879,0.\H,0,2.480271,2.444172,0.\H,0,4.6001
 53,1.198189,0.\H,0,4.616012,-1.272274,0.\H,0,2.48375,-2.510084,0.\H,0,
 0.050625,-2.510341,0.\H,0,-2.4509,-2.470259,0.\H,0,-4.602962,-1.274299
 ,0.\H,0,-4.675078,1.224064,0.\H,0,-2.499171,2.442147,0.\H,0,-0.072,2.1
 46537,-0.86041\H,0,-0.072,2.146537,0.86041\\Version=ES64L-G16RevC.01\S
 tate=1-A'\HF=-539.7514624\RMSD=3.487e-09\PG=CS [SG(C14H9),X(H2)]\\@
 The archive entry for this job was punched.


 THE TRULY SUCCESSFUL PERFORMANCE OF RESEARCHES IN
 INORGANIC CHEMISTRY IS POSSIBLE ONLY TO ONE WHO IS NOT
 ONLY A THEORETICAL CHEMIST, BUT ALSO AN ACCOMPLISHED
 ANALYST AND, MOREOVER, NOT MERELY A PRACTICALLY TRAINED,
 MECHANICAL WORKER, BUT A THINKING CREATIVE ARTIST.
   --  CLEMENS WINKLER, BER. 33, 1697(1900)
 Job cpu time:       0 days  0 hours 53 minutes  9.3 seconds.
 Elapsed time:       0 days  0 hours  1 minutes  7.1 seconds.
 File lengths (MBytes):  RWF=    460 Int=      0 D2E=      0 Chk=     15 Scr=      1
 Normal termination of Gaussian 16 at Tue Aug  2 13:29:00 2022.
