 Entering Gaussian System, Link 0=g16
 Initial command:
 /apps/gaussian/g16c01/g16/l1.exe "/jobfs/53796104.gadi-pbs/Gau-3667346.inp" -scrdir="/jobfs/53796104.gadi-pbs/"
 Entering Link 1 = /apps/gaussian/g16c01/g16/l1.exe PID=   3667347.
  
 Copyright (c) 1988-2019, Gaussian, Inc.  All Rights Reserved.
  
 This is part of the Gaussian(R) 16 program.  It is based on
 the Gaussian(R) 09 system (copyright 2009, Gaussian, Inc.),
 the Gaussian(R) 03 system (copyright 2003, Gaussian, Inc.),
 the Gaussian(R) 98 system (copyright 1998, Gaussian, Inc.),
 the Gaussian(R) 94 system (copyright 1995, Gaussian, Inc.),
 the Gaussian 92(TM) system (copyright 1992, Gaussian, Inc.),
 the Gaussian 90(TM) system (copyright 1990, Gaussian, Inc.),
 the Gaussian 88(TM) system (copyright 1988, Gaussian, Inc.),
 the Gaussian 86(TM) system (copyright 1986, Carnegie Mellon
 University), and the Gaussian 82(TM) system (copyright 1983,
 Carnegie Mellon University). Gaussian is a federally registered
 trademark of Gaussian, Inc.
  
 This software contains proprietary and confidential information,
 including trade secrets, belonging to Gaussian, Inc.
  
 This software is provided under written license and may be
 used, copied, transmitted, or stored only in accord with that
 written license.
  
 The following legend is applicable only to US Government
 contracts under FAR:
  
                    RESTRICTED RIGHTS LEGEND
  
 Use, reproduction and disclosure by the US Government is
 subject to restrictions as set forth in subparagraphs (a)
 and (c) of the Commercial Computer Software - Restricted
 Rights clause in FAR 52.227-19.
  
 Gaussian, Inc.
 340 Quinnipiac St., Bldg. 40, Wallingford CT 06492
  
  
 ---------------------------------------------------------------
 Warning -- This program may not be used in any manner that
 competes with the business of Gaussian, Inc. or will provide
 assistance to any competitor of Gaussian, Inc.  The licensee
 of this program is prohibited from giving any competitor of
 Gaussian, Inc. access to this program.  By using this program,
 the user acknowledges that Gaussian, Inc. is engaged in the
 business of creating and licensing software in the field of
 computational chemistry and represents and warrants to the
 licensee that it is not a competitor of Gaussian, Inc. and that
 it will not use this program in any manner prohibited above.
 ---------------------------------------------------------------
  

 Cite this work as:
 Gaussian 16, Revision C.01,
 M. J. Frisch, G. W. Trucks, H. B. Schlegel, G. E. Scuseria, 
 M. A. Robb, J. R. Cheeseman, G. Scalmani, V. Barone, 
 G. A. Petersson, H. Nakatsuji, X. Li, M. Caricato, A. V. Marenich, 
 J. Bloino, B. G. Janesko, R. Gomperts, B. Mennucci, H. P. Hratchian, 
 J. V. Ortiz, A. F. Izmaylov, J. L. Sonnenberg, D. Williams-Young, 
 F. Ding, F. Lipparini, F. Egidi, J. Goings, B. Peng, A. Petrone, 
 T. Henderson, D. Ranasinghe, V. G. Zakrzewski, J. Gao, N. Rega, 
 G. Zheng, W. Liang, M. Hada, M. Ehara, K. Toyota, R. Fukuda, 
 J. Hasegawa, M. Ishida, T. Nakajima, Y. Honda, O. Kitao, H. Nakai, 
 T. Vreven, K. Throssell, J. A. Montgomery, Jr., J. E. Peralta, 
 F. Ogliaro, M. J. Bearpark, J. J. Heyd, E. N. Brothers, K. N. Kudin, 
 V. N. Staroverov, T. A. Keith, R. Kobayashi, J. Normand, 
 K. Raghavachari, A. P. Rendell, J. C. Burant, S. S. Iyengar, 
 J. Tomasi, M. Cossi, J. M. Millam, M. Klene, C. Adamo, R. Cammi, 
 J. W. Ochterski, R. L. Martin, K. Morokuma, O. Farkas, 
 J. B. Foresman, and D. J. Fox, Gaussian, Inc., Wallingford CT, 2019.
 
 ******************************************
 Gaussian 16:  ES64L-G16RevC.01  3-Jul-2019
                 2-Aug-2022 
 ******************************************
 %NProcShared=48
 Will use up to   48 processors via shared memory.
 %mem = 190GB
 ---------------------------------------------------------------
 #n M062X/6-311++G(d,p) TD(NStates=1) EmpiricalDispersion=GD3 SP
 ---------------------------------------------------------------
 1/38=1,172=1/1;
 2/12=2,17=6,18=5,40=1/2;
 3/5=4,6=6,7=1111,11=9,25=1,30=1,74=-55,124=31/1,2,3,8;
 4//1;
 5/5=2,38=5/2;
 8/6=1,10=2,108=1/1;
 9/41=1,42=1,70=2/14;
 6/7=2,8=2,9=2,10=2/1;
 99/5=1,9=1/99;
 ------
 SP_100
 ------
 Symbolic Z-matrix:
 Charge =  1 Multiplicity = 1
 C                     2.49256   1.35953   0. 
 C                     3.69906   0.66961   0. 
 C                     3.68376  -0.71868   0. 
 C                     2.46723  -1.41016   0. 
 C                    -2.45943  -1.40561   0. 
 C                    -3.68606  -0.71248   0. 
 C                    -3.70728   0.67314   0. 
 C                    -2.49941   1.35923   0. 
 C                    -0.00228   1.46107   0. 
 C                     0.0061   -1.42954   0. 
 C                     1.26323   0.67907   0. 
 C                     1.23927  -0.73058   0. 
 C                    -1.26141   0.67524   0. 
 C                    -1.23427  -0.72998   0. 
 H                     2.49087   2.44262   0. 
 H                     4.6346    1.20894   0. 
 H                     4.61051  -1.27442   0. 
 H                     2.46885  -2.49253   0. 
 H                     0.00563  -2.51044   0. 
 H                    -2.4652   -2.48811   0. 
 H                    -4.60906  -1.27465   0. 
 H                    -4.64293   1.21181   0. 
 H                    -2.49297   2.4424    0. 
 H                    -0.008     2.14754  -0.86151 
 H                    -0.008     2.14754   0.86151 
 
                          Input orientation:                          
 ---------------------------------------------------------------------
 Center     Atomic      Atomic             Coordinates (Angstroms)
 Number     Number       Type             X           Y           Z
 ---------------------------------------------------------------------
      1          6           0        2.492555    1.359531    0.000000
      2          6           0        3.699058    0.669614    0.000000
      3          6           0        3.683761   -0.718680    0.000000
      4          6           0        2.467231   -1.410163    0.000000
      5          6           0       -2.459431   -1.405613    0.000000
      6          6           0       -3.686061   -0.712480    0.000000
      7          6           0       -3.707283    0.673139    0.000000
      8          6           0       -2.499405    1.359231    0.000000
      9          6           0       -0.002275    1.461069    0.000000
     10          6           0        0.006100   -1.429539    0.000000
     11          6           0        1.263230    0.679065    0.000000
     12          6           0        1.239271   -0.730579    0.000000
     13          6           0       -1.261405    0.675240    0.000000
     14          6           0       -1.234271   -0.729979    0.000000
     15          1           0        2.490871    2.442622    0.000000
     16          1           0        4.634603    1.208939    0.000000
     17          1           0        4.610512   -1.274424    0.000000
     18          1           0        2.468850   -2.492534    0.000000
     19          1           0        0.005625   -2.510441    0.000000
     20          1           0       -2.465200   -2.488109    0.000000
     21          1           0       -4.609062   -1.274649    0.000000
     22          1           0       -4.642928    1.211814    0.000000
     23          1           0       -2.492971    2.442397    0.000000
     24          1           0       -0.008000    2.147537   -0.861510
     25          1           0       -0.008000    2.147537    0.861510
 ---------------------------------------------------------------------
                    Distance matrix (angstroms):
                    1          2          3          4          5
     1  C    0.000000
     2  C    1.389833   0.000000
     3  C    2.395398   1.388378   0.000000
     4  C    2.769810   2.417203   1.399319   0.000000
     5  C    5.671701   6.498735   6.181479   4.926664   0.000000
     6  C    6.516788   7.513333   7.369825   6.192719   1.408920
     7  C    6.237718   7.406342   7.520950   6.516500   2.424530
     8  C    4.991960   6.236707   6.522979   5.686565   2.765133
     9  C    2.496895   3.785006   4.282309   3.787140   3.775643
    10  C    3.736492   4.247868   3.745732   2.461207   2.465647
    11  C    1.405089   2.435846   2.795114   2.411326   4.266625
    12  C    2.437064   2.830387   2.444519   1.403467   3.759796
    13  C    3.815818   4.960466   5.137867   4.272193   2.401086
    14  C    4.272620   5.128021   4.918045   3.763478   1.399106
    15  H    1.083092   2.145524   3.378878   3.852858   6.270120
    16  H    2.147335   1.079868   2.149376   3.399588   7.560503
    17  H    3.379861   2.147099   1.080610   2.147575   7.071160
    18  H    3.852138   3.393021   2.150016   1.082372   5.046717
    19  H    4.600163   4.873828   4.091344   2.696315   2.701323
    20  H    6.275641   6.925987   6.398484   5.048846   1.082511
    21  H    7.574422   8.532586   8.311439   7.077590   2.153617
    22  H    7.137012   8.359588   8.547547   7.578201   3.408604
    23  H    5.101771   6.440806   6.938618   6.280591   3.848156
    24  H    2.759697   4.082736   4.752526   4.418846   4.401885
    25  H    2.759697   4.082736   4.752526   4.418846   4.401885
                    6          7          8          9         10
     6  C    0.000000
     7  C    1.385782   0.000000
     8  C    2.387496   1.389133   0.000000
     9  C    4.277218   3.787865   2.499206   0.000000
    10  C    3.761147   4.267373   3.748972   2.890620   0.000000
    11  C    5.141194   4.970517   3.823617   1.487627   2.454911
    12  C    4.925365   5.141869   4.283107   2.518880   1.417482
    13  C    2.793694   2.445879   1.414386   1.484229   2.456962
    14  C    2.451852   2.843331   2.442409   2.513664   1.424045
    15  H    6.936077   6.445788   5.106524   2.679407   4.600839
    16  H    8.539631   8.359076   7.135591   4.643728   5.327721
    17  H    8.315582   8.542758   7.582022   5.362903   4.607024
    18  H    6.407146   6.940180   6.286466   4.662342   2.682368
    19  H    4.106240   4.890896   4.609722   3.971518   1.080902
    20  H    2.154846   3.396507   3.847492   4.654246   2.688474
    21  H    1.080724   2.146412   3.374608   5.357858   4.617760
    22  H    2.149070   1.079631   2.148586   4.647342   5.346981
    23  H    3.372938   2.145886   1.083185   2.677045   4.608388
    24  H    4.738146   4.074401   2.751495   1.101576   3.679385
    25  H    4.738146   4.074401   2.751495   1.101576   3.679385
                   11         12         13         14         15
    11  C    0.000000
    12  C    1.409848   0.000000
    13  C    2.524638   2.868747   0.000000
    14  C    2.867563   2.473542   1.405481   0.000000
    15  H    2.148775   3.411115   4.147676   4.893064   0.000000
    16  H    3.412759   3.910244   5.920114   6.180864   2.473370
    17  H    3.875618   3.414826   6.187132   5.870086   4.278938
    18  H    3.393016   2.148569   4.893832   4.101183   4.935205
    19  H    3.428486   2.165593   3.428400   2.169651   5.541596
    20  H    4.892053   4.100246   3.384656   2.146208   6.991048
    21  H    6.188765   5.873586   3.874129   3.418462   8.014184
    22  H    5.930137   6.194607   3.423830   3.922946   7.239197
    23  H    4.149504   4.898715   2.153973   3.412960   4.983842
    24  H    2.124767   3.252912   2.116809   3.244386   2.659630
    25  H    2.124767   3.252912   2.116809   3.244386   2.659630
                   16         17         18         19         20
    16  H    0.000000
    17  H    2.483480   0.000000
    18  H    4.288518   2.463840   0.000000
    19  H    5.938116   4.767884   2.463290   0.000000
    20  H    8.004709   7.179048   4.934052   2.470926   0.000000
    21  H    9.571497   9.219574   7.181927   4.777292   2.463459
    22  H    9.277531   9.581625   8.018702   5.955185   4.293242
    23  H    7.233514   8.017121   6.998086   5.547395   4.930584
    24  H    4.814242   5.812286   5.329845   4.736997   5.316883
    25  H    4.814242   5.812286   5.329845   4.736997   5.316883
                   21         22         23         24         25
    21  H    0.000000
    22  H    2.486694   0.000000
    23  H    4.277180   2.477226   0.000000
    24  H    5.798563   4.806281   2.646549   0.000000
    25  H    5.798563   4.806281   2.646549   1.723020   0.000000
 Stoichiometry    C14H11(1+)
 Framework group  CS[SG(C14H9),X(H2)]
 Deg. of freedom    46
 Full point group                 CS      NOp   2
 Largest Abelian subgroup         CS      NOp   2
 Largest concise Abelian subgroup CS      NOp   2
                         Standard orientation:                         
 ---------------------------------------------------------------------
 Center     Atomic      Atomic             Coordinates (Angstroms)
 Number     Number       Type             X           Y           Z
 ---------------------------------------------------------------------
      1          6           0        2.498523   -1.348714    0.000000
      2          6           0        3.702024   -0.653573    0.000000
      3          6           0        3.680708    0.734642    0.000000
      4          6           0        2.461192    1.420844    0.000000
      5          6           0       -2.465404    1.394936    0.000000
      6          6           0       -3.689018    0.696492    0.000000
      7          6           0       -3.704233   -0.689206    0.000000
      8          6           0       -2.493392   -1.370055    0.000000
      9          6           0        0.004156   -1.461067    0.000000
     10          6           0        0.000000    1.429551    0.000000
     11          6           0        1.266259   -0.673584    0.000000
     12          6           0        1.236190    0.735943    0.000000
     13          6           0       -1.258368   -0.680704    0.000000
     14          6           0       -1.237327    0.724620    0.000000
     15          1           0        2.501534   -2.431802    0.000000
     16          1           0        4.639898   -1.188837    0.000000
     17          1           0        4.605041    1.294398    0.000000
     18          1           0        2.458119    2.503212    0.000000
     19          1           0       -0.005161    2.510440    0.000000
     20          1           0       -2.475866    2.477397    0.000000
     21          1           0       -4.614447    1.254654    0.000000
     22          1           0       -4.637534   -1.231932    0.000000
     23          1           0       -2.482262   -2.453183    0.000000
     24          1           0        0.001407   -2.147553    0.861510
     25          1           0        0.001407   -2.147553   -0.861510
 ---------------------------------------------------------------------
 Rotational constants (GHZ):           2.1337064           0.4442496           0.3684959
 Standard basis: 6-311++G(d,p) (5D, 7F)
 There are   299 symmetry adapted cartesian basis functions of A'  symmetry.
 There are   100 symmetry adapted cartesian basis functions of A"  symmetry.
 There are   285 symmetry adapted basis functions of A'  symmetry.
 There are   100 symmetry adapted basis functions of A"  symmetry.
   385 basis functions,   603 primitive gaussians,   399 cartesian basis functions
    47 alpha electrons       47 beta electrons
       nuclear repulsion energy       780.8502313463 Hartrees.
 NAtoms=   25 NActive=   25 NUniq=   24 SFac= 1.09D+00 NAtFMM=   60 NAOKFM=F Big=F
 Integral buffers will be    131072 words long.
 Regular integral format.
 Two-electron integral symmetry is turned on.
 Nuclear repulsion after empirical dispersion term =      780.8492517490 Hartrees.
 One-electron integrals computed using PRISM.
 NBasis=   385 RedAO= T EigKep=  1.14D-06  NBF=   285   100
 NBsUse=   379 1.00D-06 EigRej=  8.43D-07 NBFU=   279   100
 ExpMin= 3.60D-02 ExpMax= 4.56D+03 ExpMxC= 6.82D+02 IAcc=3 IRadAn=         5 AccDes= 0.00D+00
 Harris functional with IExCor= 1009 and IRadAn=       5 diagonalized for initial guess.
 HarFok:  IExCor= 1009 AccDes= 0.00D+00 IRadAn=         5 IDoV= 1 UseB2=F ITyADJ=14
 ICtDFT=  3500011 ScaDFX=  1.000000  1.000000  1.000000  1.000000
 FoFCou: FMM=F IPFlag=           0 FMFlag=      100000 FMFlg1=           0
         NFxFlg=           0 DoJE=T BraDBF=F KetDBF=T FulRan=T
         wScrn=  0.000000 ICntrl=       500 IOpCl=  0 I1Cent=   200000004 NGrid=           0
         NMat0=    1 NMatS0=      1 NMatT0=    0 NMatD0=    1 NMtDS0=    0 NMtDT0=    0
 Petite list used in FoFCou.
 Initial guess orbital symmetries:
       Occupied  (A') (A') (A') (A') (A') (A') (A') (A') (A') (A')
                 (A') (A') (A') (A') (A') (A') (A') (A') (A') (A')
                 (A') (A') (A') (A') (A') (A') (A') (A') (A') (A')
                 (A') (A') (A") (A') (A') (A') (A') (A') (A') (A")
                 (A") (A') (A') (A") (A") (A") (A")
       Virtual   (A") (A") (A") (A") (A") (A') (A') (A') (A') (A")
                 (A") (A') (A') (A') (A") (A') (A') (A') (A') (A")
                 (A') (A") (A') (A') (A') (A") (A') (A") (A') (A')
                 (A') (A') (A') (A') (A") (A') (A") (A') (A') (A")
                 (A') (A') (A') (A") (A') (A') (A') (A') (A') (A")
                 (A') (A') (A") (A") (A') (A') (A') (A") (A") (A')
                 (A') (A') (A') (A') (A') (A') (A") (A') (A') (A")
                 (A') (A') (A') (A') (A') (A') (A') (A') (A') (A')
                 (A') (A') (A') (A') (A') (A') (A') (A') (A') (A')
                 (A') (A') (A') (A') (A') (A') (A') (A") (A') (A")
                 (A') (A') (A") (A") (A') (A") (A') (A") (A') (A")
                 (A") (A') (A') (A') (A") (A') (A') (A") (A') (A")
                 (A") (A") (A') (A') (A') (A") (A') (A') (A') (A")
                 (A') (A') (A') (A') (A') (A') (A") (A') (A') (A')
                 (A') (A') (A') (A') (A') (A') (A') (A') (A') (A")
                 (A') (A") (A") (A") (A') (A') (A') (A") (A") (A')
                 (A") (A') (A") (A") (A") (A') (A') (A') (A') (A')
                 (A') (A") (A") (A') (A') (A') (A') (A') (A') (A")
                 (A') (A') (A') (A') (A') (A") (A") (A') (A") (A")
                 (A') (A") (A') (A") (A') (A') (A') (A") (A') (A')
                 (A") (A") (A") (A') (A') (A") (A') (A") (A') (A')
                 (A") (A") (A') (A") (A') (A") (A') (A') (A') (A')
                 (A") (A') (A') (A') (A") (A') (A') (A') (A") (A")
                 (A') (A') (A') (A") (A') (A') (A") (A') (A") (A')
                 (A") (A') (A') (A') (A') (A") (A') (A') (A') (A")
                 (A') (A') (A") (A') (A") (A') (A') (A") (A') (A')
                 (A') (A") (A') (A") (A') (A') (A') (A") (A') (A")
                 (A') (A') (A') (A') (A") (A') (A") (A') (A") (A')
                 (A") (A') (A") (A") (A") (A') (A') (A') (A') (A')
                 (A') (A') (A') (A') (A') (A') (A') (A') (A') (A')
                 (A') (A') (A') (A') (A') (A") (A') (A') (A') (A')
                 (A') (A') (A') (A') (A') (A') (A') (A') (A') (A')
                 (A') (A') (A') (A') (A') (A') (A') (A') (A') (A')
                 (A') (A')
 The electronic state of the initial guess is 1-A'.
 Requested convergence on RMS density matrix=1.00D-08 within 128 cycles.
 Requested convergence on MAX density matrix=1.00D-06.
 Requested convergence on             energy=1.00D-06.
 No special actions if energy rises.
 SCF Done:  E(RM062X) =  -539.760165140     A.U. after   15 cycles
            NFock= 15  Conv=0.48D-08     -V/T= 2.0042
 DoSCS=F DFT=T ScalE2(SS,OS)=  1.000000  1.000000
 ExpMin= 3.60D-02 ExpMax= 4.56D+03 ExpMxC= 6.82D+02 IAcc=3 IRadAn=         5 AccDes= 0.00D+00
 HarFok:  IExCor=  205 AccDes= 0.00D+00 IRadAn=         5 IDoV=-2 UseB2=F ITyADJ=14
 ICtDFT= 12500011 ScaDFX=  1.000000  1.000000  1.000000  1.000000
 Range of M.O.s used for correlation:    15   379
 NBasis=   385 NAE=    47 NBE=    47 NFC=    14 NFV=     0
 NROrb=    365 NOA=    33 NOB=    33 NVA=   332 NVB=   332

 **** Warning!!: The largest alpha MO coefficient is  0.14815316D+03

 Orbital symmetries:
       Occupied  (A') (A') (A') (A') (A') (A') (A') (A') (A') (A')
                 (A') (A') (A') (A') (A') (A') (A') (A') (A') (A')
                 (A') (A') (A') (A') (A') (A') (A') (A') (A') (A')
                 (A') (A') (A") (A') (A') (A') (A') (A") (A") (A')
                 (A') (A') (A') (A") (A") (A") (A")
       Virtual   (A") (A") (A") (A") (A') (A') (A') (A') (A") (A')
                 (A') (A") (A') (A') (A") (A') (A") (A') (A') (A')
                 (A") (A") (A') (A') (A') (A") (A') (A") (A') (A')
                 (A") (A') (A") (A') (A') (A') (A') (A') (A") (A')
                 (A") (A') (A') (A") (A") (A') (A") (A') (A") (A')
                 (A') (A') (A') (A') (A') (A") (A') (A') (A') (A')
                 (A') (A") (A') (A') (A') (A') (A") (A') (A') (A')
                 (A') (A') (A') (A') (A') (A') (A') (A') (A') (A')
                 (A') (A') (A') (A') (A') (A') (A') (A') (A') (A')
                 (A') (A') (A') (A') (A") (A') (A") (A") (A') (A")
                 (A') (A') (A') (A') (A") (A") (A') (A") (A") (A')
                 (A') (A') (A") (A') (A') (A") (A') (A") (A') (A")
                 (A") (A') (A") (A') (A') (A') (A") (A') (A') (A')
                 (A') (A') (A') (A') (A') (A') (A') (A') (A') (A')
                 (A') (A') (A') (A") (A') (A') (A') (A') (A') (A')
                 (A') (A') (A") (A') (A") (A') (A") (A") (A') (A")
                 (A") (A') (A') (A") (A") (A") (A') (A") (A') (A')
                 (A') (A') (A') (A") (A") (A') (A') (A') (A') (A")
                 (A') (A') (A') (A") (A') (A") (A') (A') (A") (A")
                 (A") (A') (A') (A") (A") (A') (A') (A') (A') (A')
                 (A") (A") (A") (A') (A') (A") (A') (A") (A') (A')
                 (A') (A") (A') (A") (A") (A') (A") (A') (A') (A")
                 (A') (A') (A') (A') (A") (A') (A') (A') (A") (A")
                 (A') (A') (A') (A") (A') (A') (A') (A") (A") (A')
                 (A") (A') (A') (A") (A') (A') (A') (A') (A') (A')
                 (A") (A') (A') (A') (A') (A") (A") (A") (A') (A')
                 (A') (A') (A') (A') (A') (A') (A") (A') (A') (A')
                 (A') (A") (A') (A") (A") (A") (A') (A") (A') (A")
                 (A') (A") (A") (A') (A") (A") (A') (A') (A') (A')
                 (A') (A') (A') (A') (A') (A') (A') (A') (A') (A')
                 (A') (A') (A') (A') (A") (A') (A') (A') (A') (A')
                 (A') (A') (A') (A') (A') (A') (A') (A') (A') (A')
                 (A') (A') (A') (A') (A') (A') (A') (A') (A') (A')
                 (A') (A')
     4 initial guesses have been made.
 Convergence on wavefunction:    0.001000000000000
 Iteration     1 Dimension     4 NMult     0 NNew      4
 CISAX will form     4 AO SS matrices at one time.
 Iteration     2 Dimension     6 NMult     4 NNew      2
 Iteration     3 Dimension     8 NMult     6 NNew      2
 Iteration     4 Dimension    10 NMult     8 NNew      2
 Iteration     5 Dimension    12 NMult    10 NNew      2
 Iteration     6 Dimension    14 NMult    12 NNew      2
 ***********************************************************************
 Excited states from <AA,BB:AA,BB> singles matrix:
 ***********************************************************************
 
 Ground to excited state transition densities written to RWF  633
 Ground to excited state transition electric dipole moments (Au):
       state          X           Y           Z        Dip. S.      Osc.
         1        -0.0031     -0.6367      0.0000      0.4054      0.0280
 Ground to excited state transition velocity dipole moments (Au):
       state          X           Y           Z        Dip. S.      Osc.
         1        -0.0005      0.0736     -0.0000      0.0054      0.0349
 Ground to excited state transition magnetic dipole moments (Au):
       state          X           Y           Z
         1         0.0000     -0.0000     -0.0482
 Ground to excited state transition velocity quadrupole moments (Au):
       state          XX          YY          ZZ          XY          XZ          YZ
         1         0.2977      0.0352     -0.0098     -0.0184     -0.0000     -0.0000
 <0|del|b> * <b|rxdel|0> + <0|del|b> * <b|delr+rdel|0>
 Rotatory Strengths (R) in cgs (10**-40 erg-esu-cm/Gauss)
       state          XX          YY          ZZ    R(velocity)    E-M Angle
         1         0.0000      0.0000     -0.0000      0.0000       90.00
 1/2[<0|r|b>*<b|rxdel|0> + (<0|rxdel|b>*<b|r|0>)*]
 Rotatory Strengths (R) in cgs (10**-40 erg-esu-cm/Gauss)
       state          XX          YY          ZZ     R(length)
         1         0.0000     -0.0000      0.0000      0.0000
  1/2[<0|del|b>*<b|r|0> + (<0|r|b>*<b|del|0>)*] (Au)
       state          X           Y           Z        Dip. S.   Osc.(frdel)
         1         0.0000     -0.0469     -0.0000      0.0469      0.0313

 Excitation energies and oscillator strengths:
 
 Excited State   1:      Singlet-A'     2.8198 eV  439.70 nm  f=0.0280  <S**2>=0.000
      47 -> 48         0.70422
 This state for optimization and/or second-order correction.
 Total Energy, E(TD-HF/TD-DFT) =  -539.656541043    
 Copying the excited state density for this state as the 1-particle RhoCI density.
 SavETr:  write IOETrn=   770 NScale= 10 NData=  16 NLR=1 NState=    1 LETran=      28.

 **********************************************************************

            Population analysis using the SCF Density.

 **********************************************************************

 Orbital symmetries:
       Occupied  (A') (A') (A') (A') (A') (A') (A') (A') (A') (A')
                 (A') (A') (A') (A') (A') (A') (A') (A') (A') (A')
                 (A') (A') (A') (A') (A') (A') (A') (A') (A') (A')
                 (A') (A') (A") (A') (A') (A') (A') (A") (A") (A')
                 (A') (A') (A') (A") (A") (A") (A")
       Virtual   (A") (A") (A") (A") (A') (A') (A') (A') (A") (A')
                 (A') (A") (A') (A') (A") (A') (A") (A') (A') (A')
                 (A") (A") (A') (A') (A') (A") (A') (A") (A') (A')
                 (A") (A') (A") (A') (A') (A') (A') (A') (A") (A')
                 (A") (A') (A') (A") (A") (A') (A") (A') (A") (A')
                 (A') (A') (A') (A') (A') (A") (A') (A') (A') (A')
                 (A') (A") (A') (A') (A') (A') (A") (A') (A') (A')
                 (A') (A') (A') (A') (A') (A') (A') (A') (A') (A')
                 (A') (A') (A') (A') (A') (A') (A') (A') (A') (A')
                 (A') (A') (A') (A') (A") (A') (A") (A") (A') (A")
                 (A') (A') (A') (A') (A") (A") (A') (A") (A") (A')
                 (A') (A') (A") (A') (A') (A") (A') (A") (A') (A")
                 (A") (A') (A") (A') (A') (A') (A") (A') (A') (A')
                 (A') (A') (A') (A') (A') (A') (A') (A') (A') (A')
                 (A') (A') (A') (A") (A') (A') (A') (A') (A') (A')
                 (A') (A') (A") (A') (A") (A') (A") (A") (A') (A")
                 (A") (A') (A') (A") (A") (A") (A') (A") (A') (A')
                 (A') (A') (A') (A") (A") (A') (A') (A') (A') (A")
                 (A') (A') (A') (A") (A') (A") (A') (A') (A") (A")
                 (A") (A') (A') (A") (A") (A') (A') (A') (A') (A')
                 (A") (A") (A") (A') (A') (A") (A') (A") (A') (A')
                 (A') (A") (A') (A") (A") (A') (A") (A') (A') (A")
                 (A') (A') (A') (A') (A") (A') (A') (A') (A") (A")
                 (A') (A') (A') (A") (A') (A') (A') (A") (A") (A')
                 (A") (A') (A') (A") (A') (A') (A') (A') (A') (A')
                 (A") (A') (A') (A') (A') (A") (A") (A") (A') (A')
                 (A') (A') (A') (A') (A') (A') (A") (A') (A') (A')
                 (A') (A") (A') (A") (A") (A") (A') (A") (A') (A")
                 (A') (A") (A") (A') (A") (A") (A') (A') (A') (A')
                 (A') (A') (A') (A') (A') (A') (A') (A') (A') (A')
                 (A') (A') (A') (A') (A") (A') (A') (A') (A') (A')
                 (A') (A') (A') (A') (A') (A') (A') (A') (A') (A')
                 (A') (A') (A') (A') (A') (A') (A') (A') (A') (A')
                 (A') (A')
 The electronic state is 1-A'.
 Alpha  occ. eigenvalues --  -10.77679 -10.73359 -10.73213 -10.72509 -10.72392
 Alpha  occ. eigenvalues --  -10.71441 -10.71304 -10.71127 -10.71004 -10.70869
 Alpha  occ. eigenvalues --  -10.70007 -10.69941 -10.69682 -10.69601  -1.16400
 Alpha  occ. eigenvalues --   -1.12436  -1.06945  -1.05659  -1.01312  -1.00137
 Alpha  occ. eigenvalues --   -0.95784  -0.91038  -0.86413  -0.85885  -0.83802
 Alpha  occ. eigenvalues --   -0.78391  -0.75988  -0.74412  -0.69586  -0.69236
 Alpha  occ. eigenvalues --   -0.68486  -0.68172  -0.68116  -0.64741  -0.64262
 Alpha  occ. eigenvalues --   -0.62992  -0.61857  -0.60068  -0.59645  -0.59104
 Alpha  occ. eigenvalues --   -0.56875  -0.55228  -0.54799  -0.52443  -0.46613
 Alpha  occ. eigenvalues --   -0.46059  -0.44510
 Alpha virt. eigenvalues --   -0.26106  -0.14665  -0.14099  -0.12776  -0.11177
 Alpha virt. eigenvalues --   -0.10081  -0.09231  -0.07982  -0.07978  -0.07475
 Alpha virt. eigenvalues --   -0.07197  -0.07142  -0.05645  -0.05579  -0.05329
 Alpha virt. eigenvalues --   -0.03826  -0.03645  -0.03278  -0.03136  -0.02168
 Alpha virt. eigenvalues --   -0.01365  -0.00929   0.00200   0.00592   0.00637
 Alpha virt. eigenvalues --    0.01054   0.01516   0.01948   0.02212   0.02301
 Alpha virt. eigenvalues --    0.02449   0.02667   0.02741   0.03357   0.03391
 Alpha virt. eigenvalues --    0.04243   0.04498   0.04700   0.05035   0.05366
 Alpha virt. eigenvalues --    0.06038   0.06289   0.06593   0.07028   0.07262
 Alpha virt. eigenvalues --    0.07889   0.08155   0.08352   0.08522   0.08928
 Alpha virt. eigenvalues --    0.09539   0.09558   0.10023   0.10847   0.10984
 Alpha virt. eigenvalues --    0.11124   0.12154   0.12236   0.12901   0.12950
 Alpha virt. eigenvalues --    0.13403   0.13526   0.14003   0.14392   0.16161
 Alpha virt. eigenvalues --    0.16281   0.16417   0.17344   0.17613   0.17795
 Alpha virt. eigenvalues --    0.18109   0.19096   0.19245   0.19615   0.19717
 Alpha virt. eigenvalues --    0.21511   0.21578   0.22713   0.23088   0.23539
 Alpha virt. eigenvalues --    0.23869   0.24610   0.25437   0.26919   0.27590
 Alpha virt. eigenvalues --    0.28820   0.29275   0.29825   0.31338   0.35762
 Alpha virt. eigenvalues --    0.36393   0.38189   0.39269   0.41145   0.41405
 Alpha virt. eigenvalues --    0.41924   0.42231   0.42985   0.43640   0.44290
 Alpha virt. eigenvalues --    0.44960   0.45009   0.46085   0.46156   0.47995
 Alpha virt. eigenvalues --    0.48522   0.48830   0.49043   0.50413   0.51038
 Alpha virt. eigenvalues --    0.51481   0.51658   0.52118   0.52860   0.53967
 Alpha virt. eigenvalues --    0.54093   0.54602   0.55686   0.55757   0.57605
 Alpha virt. eigenvalues --    0.58237   0.58809   0.61425   0.62234   0.62332
 Alpha virt. eigenvalues --    0.63195   0.63485   0.64887   0.65141   0.67149
 Alpha virt. eigenvalues --    0.70445   0.70648   0.70992   0.72389   0.72849
 Alpha virt. eigenvalues --    0.75787   0.76006   0.76258   0.76900   0.77087
 Alpha virt. eigenvalues --    0.77825   0.77835   0.78197   0.79905   0.80382
 Alpha virt. eigenvalues --    0.81208   0.81680   0.82145   0.83001   0.85143
 Alpha virt. eigenvalues --    0.87128   0.88114   0.88554   0.89137   0.90388
 Alpha virt. eigenvalues --    0.91005   0.91272   0.93188   0.94608   0.96415
 Alpha virt. eigenvalues --    0.96651   1.00421   1.01247   1.01701   1.02701
 Alpha virt. eigenvalues --    1.03188   1.03782   1.04730   1.05469   1.08731
 Alpha virt. eigenvalues --    1.19523   1.23288   1.24014   1.25201   1.27878
 Alpha virt. eigenvalues --    1.29758   1.31708   1.34376   1.35734   1.35991
 Alpha virt. eigenvalues --    1.39300   1.40133   1.40916   1.43090   1.43411
 Alpha virt. eigenvalues --    1.43507   1.45009   1.45438   1.46337   1.46664
 Alpha virt. eigenvalues --    1.47637   1.47972   1.51647   1.53603   1.55515
 Alpha virt. eigenvalues --    1.55837   1.56326   1.56602   1.57729   1.61374
 Alpha virt. eigenvalues --    1.63284   1.63529   1.63805   1.66067   1.68217
 Alpha virt. eigenvalues --    1.68358   1.68735   1.69767   1.74323   1.75957
 Alpha virt. eigenvalues --    1.77102   1.78046   1.79857   1.80079   1.80669
 Alpha virt. eigenvalues --    1.83112   1.83221   1.83548   1.83836   1.84200
 Alpha virt. eigenvalues --    1.84248   1.85868   1.86052   1.88200   1.91357
 Alpha virt. eigenvalues --    1.92023   1.94093   1.95149   1.97669   1.98115
 Alpha virt. eigenvalues --    1.99684   2.02167   2.04328   2.07259   2.11787
 Alpha virt. eigenvalues --    2.11996   2.14097   2.15226   2.19006   2.21114
 Alpha virt. eigenvalues --    2.22783   2.28720   2.29911   2.34550   2.34896
 Alpha virt. eigenvalues --    2.36217   2.38683   2.39591   2.42332   2.45018
 Alpha virt. eigenvalues --    2.46129   2.46190   2.49311   2.52854   2.53774
 Alpha virt. eigenvalues --    2.54051   2.56922   2.57825   2.58303   2.59611
 Alpha virt. eigenvalues --    2.59805   2.61568   2.62093   2.63501   2.63731
 Alpha virt. eigenvalues --    2.64767   2.65072   2.65215   2.65294   2.67778
 Alpha virt. eigenvalues --    2.68408   2.70927   2.71413   2.73330   2.74801
 Alpha virt. eigenvalues --    2.76304   2.78527   2.79678   2.82656   2.83030
 Alpha virt. eigenvalues --    2.84838   2.86198   2.92069   2.97038   2.99476
 Alpha virt. eigenvalues --    3.00011   3.04731   3.10832   3.11263   3.13002
 Alpha virt. eigenvalues --    3.20793   3.23029   3.26550   3.28120   3.30717
 Alpha virt. eigenvalues --    3.32796   3.33560   3.43418   3.45886   3.46336
 Alpha virt. eigenvalues --    3.48301   3.49971   3.56309   3.66562   3.66691
 Alpha virt. eigenvalues --    3.67364   3.94187   3.94567   3.95212   3.96167
 Alpha virt. eigenvalues --    4.03983   4.06822   4.07365   4.12564   4.35242
 Alpha virt. eigenvalues --    4.60829   4.69694   4.71551  23.45351  23.60410
 Alpha virt. eigenvalues --   23.82083  23.85062  23.87623  23.89125  23.90599
 Alpha virt. eigenvalues --   23.92360  23.97384  23.99216  23.99884  24.00442
 Alpha virt. eigenvalues --   24.10489  24.10633
          Condensed to atoms (all electrons):
               1          2          3          4          5          6
     1  C    8.629866   0.260088  -0.540221   2.061632  -0.049377  -0.095418
     2  C    0.260088   7.200812   0.349349  -1.120641  -0.012695  -0.014138
     3  C   -0.540221   0.349349   6.594126   0.774564  -0.125922   0.016948
     4  C    2.061632  -1.120641   0.774564  11.258555  -0.423013  -0.129983
     5  C   -0.049377  -0.012695  -0.125922  -0.423013  11.139731   0.790492
     6  C   -0.095418  -0.014138   0.016948  -0.129983   0.790492   6.593145
     7  C   -0.013688  -0.000443  -0.013860  -0.005025  -1.150517   0.324274
     8  C    0.400769  -0.009332  -0.098241  -0.061557   2.132481  -0.502154
     9  C   -1.083231  -0.834328   0.301849  -0.140175  -0.204284   0.301728
    10  C   -1.313254   0.250012  -0.335774  -2.625148  -2.567403  -0.360052
    11  C    0.336581  -0.865255   0.979924  -0.327903  -1.498771  -0.162413
    12  C   -2.249313   1.360730  -1.415913  -1.735745  -0.325217  -0.210229
    13  C    0.255552  -0.237977  -0.178544  -1.524129  -0.325771   1.011212
    14  C   -1.099619  -0.200527  -0.186212  -0.358422  -1.733062  -1.439712
    15  H    0.369870  -0.109011  -0.001094   0.028074   0.005579   0.001124
    16  H   -0.019367   0.380995  -0.018279   0.013921  -0.001552  -0.000333
    17  H   -0.026079  -0.016814   0.376369  -0.069458   0.000299   0.000408
    18  H    0.051415   0.002946  -0.084403   0.463215   0.005121  -0.005187
    19  H   -0.046364  -0.007982   0.051799  -0.070812  -0.068031   0.051883
    20  H    0.006937   0.002133  -0.005220   0.005131   0.461439  -0.084496
    21  H   -0.001295  -0.000405   0.000403   0.000343  -0.068916   0.374472
    22  H    0.000700   0.000365  -0.000325  -0.001499   0.012948  -0.016955
    23  H    0.005598  -0.002545   0.001088   0.005308   0.028731  -0.000453
    24  H    0.034790   0.014912  -0.001591  -0.011966  -0.012233  -0.001658
    25  H    0.034790   0.014912  -0.001591  -0.011966  -0.012233  -0.001658
               7          8          9         10         11         12
     1  C   -0.013688   0.400769  -1.083231  -1.313254   0.336581  -2.249313
     2  C   -0.000443  -0.009332  -0.834328   0.250012  -0.865255   1.360730
     3  C   -0.013860  -0.098241   0.301849  -0.335774   0.979924  -1.415913
     4  C   -0.005025  -0.061557  -0.140175  -2.625148  -0.327903  -1.735745
     5  C   -1.150517   2.132481  -0.204284  -2.567403  -1.498771  -0.325217
     6  C    0.324274  -0.502154   0.301728  -0.360052  -0.162413  -0.210229
     7  C    7.203062   0.184764  -0.822660   0.276463  -0.251602  -0.169855
     8  C    0.184764   8.720343  -1.081884  -1.338838   0.268832  -1.087970
     9  C   -0.822660  -1.081884   9.527245   0.268453   1.477655  -1.890497
    10  C    0.276463  -1.338838   0.268453   9.062169  -0.334378   2.414168
    11  C   -0.251602   0.268832   1.477655  -0.334378  14.344065  -3.754225
    12  C   -0.169855  -1.087970  -1.890497   2.414168  -3.754225  16.098782
    13  C   -0.893134   0.332084   1.458269  -0.357266   1.109449  -4.730953
    14  C    1.460042  -2.361013  -1.836632   2.424750  -4.747003   3.207651
    15  H   -0.002634   0.005343   0.090183  -0.009363  -0.030438  -0.023085
    16  H    0.000378   0.000791   0.002311  -0.009113   0.024211  -0.030584
    17  H   -0.000399  -0.001320  -0.005360   0.020163  -0.026136   0.092360
    18  H    0.002145   0.006945  -0.023961   0.008821  -0.004808  -0.056769
    19  H   -0.007859  -0.046976   0.074784   0.421572   0.077208  -0.068570
    20  H    0.002672   0.052373  -0.024463   0.009887  -0.011993  -0.014571
    21  H   -0.014678  -0.027903  -0.005584   0.020184  -0.006217   0.005333
    22  H    0.379655  -0.018877   0.002623  -0.008768   0.002915  -0.008831
    23  H   -0.109346   0.370367   0.091223  -0.009831   0.002222   0.006109
    24  H    0.014494   0.033450   0.354427   0.005044   0.015452  -0.060641
    25  H    0.014494   0.033450   0.354427   0.005044   0.015452  -0.060641
              13         14         15         16         17         18
     1  C    0.255552  -1.099619   0.369870  -0.019367  -0.026079   0.051415
     2  C   -0.237977  -0.200527  -0.109011   0.380995  -0.016814   0.002946
     3  C   -0.178544  -0.186212  -0.001094  -0.018279   0.376369  -0.084403
     4  C   -1.524129  -0.358422   0.028074   0.013921  -0.069458   0.463215
     5  C   -0.325771  -1.733062   0.005579  -0.001552   0.000299   0.005121
     6  C    1.011212  -1.439712   0.001124  -0.000333   0.000408  -0.005187
     7  C   -0.893134   1.460042  -0.002634   0.000378  -0.000399   0.002145
     8  C    0.332084  -2.361013   0.005343   0.000791  -0.001320   0.006945
     9  C    1.458269  -1.836632   0.090183   0.002311  -0.005360  -0.023961
    10  C   -0.357266   2.424750  -0.009363  -0.009113   0.020163   0.008821
    11  C    1.109449  -4.747003  -0.030438   0.024211  -0.026136  -0.004808
    12  C   -4.730953   3.207651  -0.023085  -0.030584   0.092360  -0.056769
    13  C   14.302386  -3.646356   0.000717   0.003059  -0.006230  -0.012043
    14  C   -3.646356  16.034941   0.006538  -0.009226   0.005327  -0.016408
    15  H    0.000717   0.006538   0.438892  -0.009102   0.001507   0.000157
    16  H    0.003059  -0.009226  -0.009102   0.419312  -0.006701   0.001944
    17  H   -0.006230   0.005327   0.001507  -0.006701   0.422131  -0.010366
    18  H   -0.012043  -0.016408   0.000157   0.001944  -0.010366   0.453610
    19  H    0.077892  -0.062973   0.000339  -0.000561   0.001480  -0.006261
    20  H   -0.003931  -0.059227  -0.000117   0.000016  -0.000148   0.001240
    21  H   -0.026347   0.093965   0.000015  -0.000007   0.000011  -0.000142
    22  H    0.024344  -0.031003  -0.000128   0.000008  -0.000007   0.000015
    23  H   -0.031023  -0.026369   0.000546  -0.000129   0.000014  -0.000113
    24  H    0.012337  -0.060686  -0.000936   0.000635  -0.000143   0.000185
    25  H    0.012337  -0.060686  -0.000936   0.000635  -0.000143   0.000185
              19         20         21         22         23         24
     1  C   -0.046364   0.006937  -0.001295   0.000700   0.005598   0.034790
     2  C   -0.007982   0.002133  -0.000405   0.000365  -0.002545   0.014912
     3  C    0.051799  -0.005220   0.000403  -0.000325   0.001088  -0.001591
     4  C   -0.070812   0.005131   0.000343  -0.001499   0.005308  -0.011966
     5  C   -0.068031   0.461439  -0.068916   0.012948   0.028731  -0.012233
     6  C    0.051883  -0.084496   0.374472  -0.016955  -0.000453  -0.001658
     7  C   -0.007859   0.002672  -0.014678   0.379655  -0.109346   0.014494
     8  C   -0.046976   0.052373  -0.027903  -0.018877   0.370367   0.033450
     9  C    0.074784  -0.024463  -0.005584   0.002623   0.091223   0.354427
    10  C    0.421572   0.009887   0.020184  -0.008768  -0.009831   0.005044
    11  C    0.077208  -0.011993  -0.006217   0.002915   0.002222   0.015452
    12  C   -0.068570  -0.014571   0.005333  -0.008831   0.006109  -0.060641
    13  C    0.077892  -0.003931  -0.026347   0.024344  -0.031023   0.012337
    14  C   -0.062973  -0.059227   0.093965  -0.031003  -0.026369  -0.060686
    15  H    0.000339  -0.000117   0.000015  -0.000128   0.000546  -0.000936
    16  H   -0.000561   0.000016  -0.000007   0.000008  -0.000129   0.000635
    17  H    0.001480  -0.000148   0.000011  -0.000007   0.000014  -0.000143
    18  H   -0.006261   0.001240  -0.000142   0.000015  -0.000113   0.000185
    19  H    0.442957  -0.006416   0.001396  -0.000543   0.000313   0.000563
    20  H   -0.006416   0.455093  -0.010408   0.001932   0.000131   0.000196
    21  H    0.001396  -0.010408   0.422826  -0.006540   0.001444  -0.000145
    22  H   -0.000543   0.001932  -0.006540   0.420198  -0.009101   0.000636
    23  H    0.000313   0.000131   0.001444  -0.009101   0.440350  -0.000926
    24  H    0.000563   0.000196  -0.000145   0.000636  -0.000926   0.492783
    25  H    0.000563   0.000196  -0.000145   0.000636  -0.000926  -0.078228
              25
     1  C    0.034790
     2  C    0.014912
     3  C   -0.001591
     4  C   -0.011966
     5  C   -0.012233
     6  C   -0.001658
     7  C    0.014494
     8  C    0.033450
     9  C    0.354427
    10  C    0.005044
    11  C    0.015452
    12  C   -0.060641
    13  C    0.012337
    14  C   -0.060686
    15  H   -0.000936
    16  H    0.000635
    17  H   -0.000143
    18  H    0.000185
    19  H    0.000563
    20  H    0.000196
    21  H   -0.000145
    22  H    0.000636
    23  H   -0.000926
    24  H   -0.078228
    25  H    0.492783
 Mulliken charges:
               1
     1  C    0.088637
     2  C   -0.405159
     3  C   -0.439232
     4  C    0.006698
     5  C    0.002178
     6  C   -0.440847
     7  C   -0.406741
     8  C    0.094073
     9  C   -0.352118
    10  C    0.082458
    11  C   -0.632826
    12  C    0.708475
    13  C   -0.625934
    14  C    0.701921
    15  H    0.237958
    16  H    0.256738
    17  H    0.249234
    18  H    0.222517
    19  H    0.190600
    20  H    0.221614
    21  H    0.248339
    22  H    0.255602
    23  H    0.237317
    24  H    0.249249
    25  H    0.249249
 Sum of Mulliken charges =   1.00000
 Mulliken charges with hydrogens summed into heavy atoms:
               1
     1  C    0.326594
     2  C   -0.148421
     3  C   -0.189998
     4  C    0.229216
     5  C    0.223792
     6  C   -0.192508
     7  C   -0.151140
     8  C    0.331391
     9  C    0.146379
    10  C    0.273057
    11  C   -0.632826
    12  C    0.708475
    13  C   -0.625934
    14  C    0.701921
 Electronic spatial extent (au):  <R**2>=           2858.2814
 Charge=              1.0000 electrons
 Dipole moment (field-independent basis, Debye):
    X=              0.1394    Y=              0.1941    Z=              0.0000  Tot=              0.2389
 Quadrupole moment (field-independent basis, Debye-Ang):
   XX=            -31.0756   YY=            -56.2732   ZZ=            -84.1432
   XY=              0.1769   XZ=             -0.0000   YZ=             -0.0000
 Traceless Quadrupole moment (field-independent basis, Debye-Ang):
   XX=             26.0884   YY=              0.8908   ZZ=            -26.9792
   XY=              0.1769   XZ=             -0.0000   YZ=             -0.0000
 Octapole moment (field-independent basis, Debye-Ang**2):
  XXX=              1.5197  YYY=              5.2868  ZZZ=             -0.0000  XYY=              0.2845
  XXY=             -5.1773  XXZ=              0.0000  XZZ=              0.2168  YZZ=             -3.1181
  YYZ=             -0.0000  XYZ=              0.0000
 Hexadecapole moment (field-independent basis, Debye-Ang**3):
 XXXX=          -2123.1406 YYYY=           -610.1057 ZZZZ=            -99.3482 XXXY=             -3.1232
 XXXZ=             -0.0000 YYYX=             -4.8931 YYYZ=              0.0000 ZZZX=             -0.0000
 ZZZY=             -0.0000 XXYY=           -508.1929 XXZZ=           -591.2562 YYZZ=           -145.7982
 XXYZ=              0.0000 YYXZ=             -0.0000 ZZXY=             -2.3868
 N-N= 7.808492517490D+02 E-N=-2.798028593951D+03  KE= 5.374876775559D+02
 Symmetry A'   KE= 5.228403874275D+02
 Symmetry A"   KE= 1.464729012843D+01
 Unable to Open any file for archive entry.
 1\1\GINC-GADI-CPU-CLX-1762\SP\RM062X TD-FC\6-311++G(d,p)\C14H11(1+)\TS
 1578\02-Aug-2022\0\\#n M062X/6-311++G(d,p) TD(NStates=1) EmpiricalDisp
 ersion=GD3 SP\\SP_100\\1,1\C,0,2.492555,1.359531,0.\C,0,3.699058,0.669
 614,0.\C,0,3.683761,-0.71868,0.\C,0,2.467231,-1.410163,0.\C,0,-2.45943
 1,-1.405613,0.\C,0,-3.686061,-0.71248,0.\C,0,-3.707283,0.673139,0.\C,0
 ,-2.499405,1.359231,0.\C,0,-0.002275,1.461069,0.\C,0,0.0061,-1.429539,
 0.\C,0,1.26323,0.679065,0.\C,0,1.239271,-0.730579,0.\C,0,-1.261405,0.6
 7524,0.\C,0,-1.234271,-0.729979,0.\H,0,2.490871,2.442622,0.\H,0,4.6346
 03,1.208939,0.\H,0,4.610512,-1.274424,0.\H,0,2.46885,-2.492534,0.\H,0,
 0.005625,-2.510441,0.\H,0,-2.4652,-2.488109,0.\H,0,-4.609062,-1.274649
 ,0.\H,0,-4.642928,1.211814,0.\H,0,-2.492971,2.442397,0.\H,0,-0.008,2.1
 47537,-0.86151\H,0,-0.008,2.147537,0.86151\\Version=ES64L-G16RevC.01\S
 tate=1-A'\HF=-539.7601651\RMSD=4.775e-09\PG=CS [SG(C14H9),X(H2)]\\@
 The archive entry for this job was punched.


 THERE ARE TWO THINGS THAT EVERYBODY THINKS THEY CAN DO BETTER THAN
 ANYONE ELSE - PUNCH THE FIRE, AND EDIT A DAILY PAPER.
 -- UNCLE ESEK, "CENTURY MAGAZINE", 1885
 Job cpu time:       0 days  0 hours 53 minutes  0.9 seconds.
 Elapsed time:       0 days  0 hours  1 minutes  6.8 seconds.
 File lengths (MBytes):  RWF=    460 Int=      0 D2E=      0 Chk=     15 Scr=      1
 Normal termination of Gaussian 16 at Tue Aug  2 13:06:48 2022.
