 Entering Gaussian System, Link 0=g16
 Initial command:
 /apps/gaussian/g16c01/g16/l1.exe "/jobfs/53796104.gadi-pbs/Gau-3671056.inp" -scrdir="/jobfs/53796104.gadi-pbs/"
 Entering Link 1 = /apps/gaussian/g16c01/g16/l1.exe PID=   3671057.
  
 Copyright (c) 1988-2019, Gaussian, Inc.  All Rights Reserved.
  
 This is part of the Gaussian(R) 16 program.  It is based on
 the Gaussian(R) 09 system (copyright 2009, Gaussian, Inc.),
 the Gaussian(R) 03 system (copyright 2003, Gaussian, Inc.),
 the Gaussian(R) 98 system (copyright 1998, Gaussian, Inc.),
 the Gaussian(R) 94 system (copyright 1995, Gaussian, Inc.),
 the Gaussian 92(TM) system (copyright 1992, Gaussian, Inc.),
 the Gaussian 90(TM) system (copyright 1990, Gaussian, Inc.),
 the Gaussian 88(TM) system (copyright 1988, Gaussian, Inc.),
 the Gaussian 86(TM) system (copyright 1986, Carnegie Mellon
 University), and the Gaussian 82(TM) system (copyright 1983,
 Carnegie Mellon University). Gaussian is a federally registered
 trademark of Gaussian, Inc.
  
 This software contains proprietary and confidential information,
 including trade secrets, belonging to Gaussian, Inc.
  
 This software is provided under written license and may be
 used, copied, transmitted, or stored only in accord with that
 written license.
  
 The following legend is applicable only to US Government
 contracts under FAR:
  
                    RESTRICTED RIGHTS LEGEND
  
 Use, reproduction and disclosure by the US Government is
 subject to restrictions as set forth in subparagraphs (a)
 and (c) of the Commercial Computer Software - Restricted
 Rights clause in FAR 52.227-19.
  
 Gaussian, Inc.
 340 Quinnipiac St., Bldg. 40, Wallingford CT 06492
  
  
 ---------------------------------------------------------------
 Warning -- This program may not be used in any manner that
 competes with the business of Gaussian, Inc. or will provide
 assistance to any competitor of Gaussian, Inc.  The licensee
 of this program is prohibited from giving any competitor of
 Gaussian, Inc. access to this program.  By using this program,
 the user acknowledges that Gaussian, Inc. is engaged in the
 business of creating and licensing software in the field of
 computational chemistry and represents and warrants to the
 licensee that it is not a competitor of Gaussian, Inc. and that
 it will not use this program in any manner prohibited above.
 ---------------------------------------------------------------
  

 Cite this work as:
 Gaussian 16, Revision C.01,
 M. J. Frisch, G. W. Trucks, H. B. Schlegel, G. E. Scuseria, 
 M. A. Robb, J. R. Cheeseman, G. Scalmani, V. Barone, 
 G. A. Petersson, H. Nakatsuji, X. Li, M. Caricato, A. V. Marenich, 
 J. Bloino, B. G. Janesko, R. Gomperts, B. Mennucci, H. P. Hratchian, 
 J. V. Ortiz, A. F. Izmaylov, J. L. Sonnenberg, D. Williams-Young, 
 F. Ding, F. Lipparini, F. Egidi, J. Goings, B. Peng, A. Petrone, 
 T. Henderson, D. Ranasinghe, V. G. Zakrzewski, J. Gao, N. Rega, 
 G. Zheng, W. Liang, M. Hada, M. Ehara, K. Toyota, R. Fukuda, 
 J. Hasegawa, M. Ishida, T. Nakajima, Y. Honda, O. Kitao, H. Nakai, 
 T. Vreven, K. Throssell, J. A. Montgomery, Jr., J. E. Peralta, 
 F. Ogliaro, M. J. Bearpark, J. J. Heyd, E. N. Brothers, K. N. Kudin, 
 V. N. Staroverov, T. A. Keith, R. Kobayashi, J. Normand, 
 K. Raghavachari, A. P. Rendell, J. C. Burant, S. S. Iyengar, 
 J. Tomasi, M. Cossi, J. M. Millam, M. Klene, C. Adamo, R. Cammi, 
 J. W. Ochterski, R. L. Martin, K. Morokuma, O. Farkas, 
 J. B. Foresman, and D. J. Fox, Gaussian, Inc., Wallingford CT, 2019.
 
 ******************************************
 Gaussian 16:  ES64L-G16RevC.01  3-Jul-2019
                 2-Aug-2022 
 ******************************************
 %NProcShared=48
 Will use up to   48 processors via shared memory.
 %mem = 190GB
 ---------------------------------------------------------------
 #n M062X/6-311++G(d,p) TD(NStates=1) EmpiricalDispersion=GD3 SP
 ---------------------------------------------------------------
 1/38=1,172=1/1;
 2/12=2,17=6,18=5,40=1/2;
 3/5=4,6=6,7=1111,11=9,25=1,30=1,74=-55,124=31/1,2,3,8;
 4//1;
 5/5=2,38=5/2;
 8/6=1,10=2,108=1/1;
 9/41=1,42=1,70=2/14;
 6/7=2,8=2,9=2,10=2/1;
 99/5=1,9=1/99;
 ------
 SP_125
 ------
 Symbolic Z-matrix:
 Charge =  1 Multiplicity = 1
 C                     2.46231   1.36163   0. 
 C                     3.66473   0.65604   0. 
 C                     3.67366  -0.74198   0. 
 C                     2.49828  -1.42806   0. 
 C                    -2.42808  -1.38711   0. 
 C                    -3.69436  -0.68618   0. 
 C                    -3.73876   0.68776   0. 
 C                    -2.52395   1.35893   0. 
 C                    -0.0197    1.45447   0. 
 C                     0.0549   -1.42924   0. 
 C                     1.27031   0.69429   0. 
 C                     1.25987  -0.73343   0. 
 C                    -1.25388   0.65987   0. 
 C                    -1.21487  -0.72803   0. 
 H                     2.47917   2.4445    0. 
 H                     4.59958   1.19856   0. 
 H                     4.61586  -1.27165   0. 
 H                     2.4839   -2.51001   0. 
 H                     0.05063  -2.51029   0. 
 H                    -2.45105  -2.47018   0. 
 H                    -4.60281  -1.27367   0. 
 H                    -4.6745    1.22444   0. 
 H                    -2.49807   2.44247   0. 
 H                    -0.072     2.14604  -0.85986 
 H                    -0.072     2.14604   0.85986 
 
                          Input orientation:                          
 ---------------------------------------------------------------------
 Center     Atomic      Atomic             Coordinates (Angstroms)
 Number     Number       Type             X           Y           Z
 ---------------------------------------------------------------------
      1          6           0        2.462305    1.361631    0.000000
      2          6           0        3.664733    0.656039    0.000000
      3          6           0        3.673661   -0.741980    0.000000
      4          6           0        2.498281   -1.428063    0.000000
      5          6           0       -2.428081   -1.387113    0.000000
      6          6           0       -3.694361   -0.686180    0.000000
      7          6           0       -3.738758    0.687764    0.000000
      8          6           0       -2.523955    1.358931    0.000000
      9          6           0       -0.019700    1.454469    0.000000
     10          6           0        0.054900   -1.429239    0.000000
     11          6           0        1.270305    0.694290    0.000000
     12          6           0        1.259871   -0.733429    0.000000
     13          6           0       -1.253880    0.659865    0.000000
     14          6           0       -1.214871   -0.728029    0.000000
     15          1           0        2.479171    2.444497    0.000000
     16          1           0        4.599578    1.198564    0.000000
     17          1           0        4.615862   -1.271649    0.000000
     18          1           0        2.483900   -2.510009    0.000000
     19          1           0        0.050625   -2.510291    0.000000
     20          1           0       -2.451050   -2.470184    0.000000
     21          1           0       -4.602812   -1.273674    0.000000
     22          1           0       -4.674503    1.224439    0.000000
     23          1           0       -2.498071    2.442472    0.000000
     24          1           0       -0.072000    2.146037   -0.859860
     25          1           0       -0.072000    2.146037    0.859860
 ---------------------------------------------------------------------
                    Distance matrix (angstroms):
                    1          2          3          4          5
     1  C    0.000000
     2  C    1.394164   0.000000
     3  C    2.427460   1.398048   0.000000
     4  C    2.789926   2.388324   1.360966   0.000000
     5  C    5.609944   6.426263   6.135752   4.926532   0.000000
     6  C    6.488302   7.480496   7.368233   6.236923   1.447333
     7  C    6.237570   7.403559   7.549048   6.586151   2.454178
     8  C    4.986261   6.228476   6.544026   5.743709   2.747717
     9  C    2.483741   3.769952   4.297127   3.827430   3.724901
    10  C    3.685723   4.168846   3.683444   2.443381   2.483338
    11  C    1.366092   2.394734   2.799820   2.452001   4.243854
    12  C    2.415600   2.777406   2.413805   1.419921   3.745436
    13  C    3.781865   4.918614   5.123068   4.293967   2.359845
    14  C    4.229456   5.072098   4.888552   3.778564   1.380677
    15  H    1.082997   2.145726   3.403005   3.872607   6.225942
    16  H    2.143485   1.080865   2.150124   3.363721   7.488239
    17  H    3.401760   2.149564   1.080876   2.123350   7.044889
    18  H    3.871700   3.379087   2.131070   1.082042   5.038696
    19  H    4.561577   4.804937   4.031540   2.676236   2.721307
    20  H    6.230880   6.868484   6.363865   5.057855   1.083315
    21  H    7.540604   8.489764   8.293534   7.102771   2.177688
    22  H    7.138127   8.358585   8.576634   7.647522   3.444795
    23  H    5.076765   6.416502   6.944855   6.320172   3.830225
    24  H    2.788791   4.113712   4.807284   4.485521   4.332854
    25  H    2.788791   4.113712   4.807284   4.485521   4.332854
                    6          7          8          9         10
     6  C    0.000000
     7  C    1.374661   0.000000
     8  C    2.356338   1.387880   0.000000
     9  C    4.252706   3.797266   2.506077   0.000000
    10  C    3.822185   4.344369   3.797945   2.884673   0.000000
    11  C    5.153019   5.009067   3.852033   1.497326   2.446750
    12  C    4.954457   5.196738   4.323807   2.534600   1.391441
    13  C    2.787075   2.485035   1.449753   1.467854   2.465210
    14  C    2.479843   2.893869   2.463555   2.488319   1.450522
    15  H    6.921968   6.461327   5.119543   2.687845   4.569783
    16  H    8.505391   8.353967   7.125338   4.626361   5.249709
    17  H    8.330821   8.581315   7.609004   5.377746   4.563684
    18  H    6.441837   6.996229   6.328294   4.688827   2.658591
    19  H    4.165609   4.958526   4.647509   3.965384   1.081060
    20  H    2.174510   3.410400   3.829809   4.616748   2.713550
    21  H    1.081865   2.143322   3.354438   5.333637   4.660309
    22  H    2.147357   1.078721   2.154749   4.660483   5.423030
    23  H    3.349563   2.149024   1.083850   2.668047   4.637651
    24  H    4.677853   4.038692   2.714955   1.104699   3.679410
    25  H    4.677853   4.038692   2.714955   1.104699   3.679410
                   11         12         13         14         15
    11  C    0.000000
    12  C    1.427757   0.000000
    13  C    2.524420   2.874058   0.000000
    14  C    2.863406   2.474748   1.388442   0.000000
    15  H    2.127106   3.403808   4.137702   4.869381   0.000000
    16  H    3.367247   3.858269   5.878194   6.125323   2.459365
    17  H    3.880421   3.398876   6.179370   5.856020   4.286629
    18  H    3.426419   2.157425   4.900929   4.105650   4.954508
    19  H    3.428842   2.149306   3.428064   2.185849   5.517949
    20  H    4.884913   4.097225   3.351182   2.136175   6.961406
    21  H    6.194061   5.887522   3.867030   3.431599   7.998705
    22  H    5.968400   6.249003   3.466901   3.972554   7.256969
    23  H    4.154130   4.920211   2.173867   3.420333   4.977242
    24  H    2.156087   3.287030   2.084444   3.210260   2.708673
    25  H    2.156087   3.287030   2.084444   3.210260   2.708673
                   16         17         18         19         20
    16  H    0.000000
    17  H    2.470267   0.000000
    18  H    4.269614   2.465522   0.000000
    19  H    5.869291   4.730288   2.433275   0.000000
    20  H    7.948023   7.167826   4.935111   2.501996   0.000000
    21  H    9.528690   9.218674   7.193748   4.814945   2.462055
    22  H    9.274117   9.619841   8.073960   6.022877   4.312074
    23  H    7.205826   8.025132   7.024749   5.570073   4.912881
    24  H    4.843625   5.864809   5.380590   4.736643   5.263909
    25  H    4.843625   5.864809   5.380590   4.736643   5.263909
                   21         22         23         24         25
    21  H    0.000000
    22  H    2.499141   0.000000
    23  H    4.270793   2.494085   0.000000
    24  H    5.741258   4.771974   2.590956   0.000000
    25  H    5.741258   4.771974   2.590956   1.719720   0.000000
 Stoichiometry    C14H11(1+)
 Framework group  CS[SG(C14H9),X(H2)]
 Deg. of freedom    46
 Full point group                 CS      NOp   2
 Largest Abelian subgroup         CS      NOp   2
 Largest concise Abelian subgroup CS      NOp   2
                         Standard orientation:                         
 ---------------------------------------------------------------------
 Center     Atomic      Atomic             Coordinates (Angstroms)
 Number     Number       Type             X           Y           Z
 ---------------------------------------------------------------------
      1          6           0        0.099005   -2.812696    0.000000
      2          6           0        1.322528   -3.481040    0.000000
      3          6           0        2.526084   -2.769711    0.000000
      4          6           0        2.509995   -1.408840    0.000000
      5          6           0       -0.058699    2.795031    0.000000
      6          6           0       -1.311066    3.520531    0.000000
      7          6           0       -2.512216    2.852002    0.000000
      8          6           0       -2.463060    1.464993    0.000000
      9          6           0       -1.257083   -0.731832    0.000000
     10          6           0        1.254399    0.687249    0.000000
     11          6           0        0.058295   -1.447210    0.000000
     12          6           0        1.277364   -0.704002    0.000000
     13          6           0       -1.210343    0.735277    0.000000
     14          6           0        0.000000    1.415602    0.000000
     15          1           0       -0.821005   -3.384067    0.000000
     16          1           0        1.338030   -4.561794    0.000000
     17          1           0        3.464901   -3.305355    0.000000
     18          1           0        3.430494   -0.840073    0.000000
     19          1           0        2.179329    1.246889    0.000000
     20          1           0        0.858348    3.371741    0.000000
     21          1           0       -1.274428    4.601776    0.000000
     22          1           0       -3.453721    3.378507    0.000000
     23          1           0       -3.379011    0.885541    0.000000
     24          1           0       -1.877081   -1.042645    0.859860
     25          1           0       -1.877081   -1.042645   -0.859860
 ---------------------------------------------------------------------
 Rotational constants (GHZ):           2.1364011           0.4444708           0.3687253
 Standard basis: 6-311++G(d,p) (5D, 7F)
 There are   299 symmetry adapted cartesian basis functions of A'  symmetry.
 There are   100 symmetry adapted cartesian basis functions of A"  symmetry.
 There are   285 symmetry adapted basis functions of A'  symmetry.
 There are   100 symmetry adapted basis functions of A"  symmetry.
   385 basis functions,   603 primitive gaussians,   399 cartesian basis functions
    47 alpha electrons       47 beta electrons
       nuclear repulsion energy       781.2165826130 Hartrees.
 NAtoms=   25 NActive=   25 NUniq=   24 SFac= 1.09D+00 NAtFMM=   60 NAOKFM=F Big=F
 Integral buffers will be    131072 words long.
 Regular integral format.
 Two-electron integral symmetry is turned on.
 Nuclear repulsion after empirical dispersion term =      781.2156036574 Hartrees.
 One-electron integrals computed using PRISM.
 NBasis=   385 RedAO= T EigKep=  1.12D-06  NBF=   285   100
 NBsUse=   379 1.00D-06 EigRej=  8.36D-07 NBFU=   279   100
 ExpMin= 3.60D-02 ExpMax= 4.56D+03 ExpMxC= 6.82D+02 IAcc=3 IRadAn=         5 AccDes= 0.00D+00
 Harris functional with IExCor= 1009 and IRadAn=       5 diagonalized for initial guess.
 HarFok:  IExCor= 1009 AccDes= 0.00D+00 IRadAn=         5 IDoV= 1 UseB2=F ITyADJ=14
 ICtDFT=  3500011 ScaDFX=  1.000000  1.000000  1.000000  1.000000
 FoFCou: FMM=F IPFlag=           0 FMFlag=      100000 FMFlg1=           0
         NFxFlg=           0 DoJE=T BraDBF=F KetDBF=T FulRan=T
         wScrn=  0.000000 ICntrl=       500 IOpCl=  0 I1Cent=   200000004 NGrid=           0
         NMat0=    1 NMatS0=      1 NMatT0=    0 NMatD0=    1 NMtDS0=    0 NMtDT0=    0
 Petite list used in FoFCou.
 Initial guess orbital symmetries:
       Occupied  (A') (A') (A') (A') (A') (A') (A') (A') (A') (A')
                 (A') (A') (A') (A') (A') (A') (A') (A') (A') (A')
                 (A') (A') (A') (A') (A') (A') (A') (A') (A') (A')
                 (A') (A') (A") (A') (A') (A') (A') (A') (A") (A')
                 (A") (A') (A') (A") (A") (A") (A")
       Virtual   (A") (A") (A") (A") (A") (A') (A') (A') (A') (A")
                 (A") (A') (A') (A') (A") (A') (A') (A') (A') (A")
                 (A') (A") (A') (A') (A') (A") (A') (A") (A') (A')
                 (A') (A') (A') (A') (A") (A') (A") (A') (A') (A')
                 (A") (A') (A") (A') (A') (A') (A') (A') (A") (A')
                 (A') (A') (A") (A") (A') (A') (A') (A") (A") (A')
                 (A') (A') (A') (A') (A') (A') (A") (A') (A') (A")
                 (A') (A') (A') (A') (A') (A') (A') (A') (A') (A')
                 (A') (A') (A') (A') (A') (A') (A') (A') (A') (A')
                 (A') (A') (A') (A') (A') (A') (A') (A") (A') (A")
                 (A') (A') (A") (A") (A') (A") (A') (A") (A") (A')
                 (A") (A') (A') (A') (A") (A') (A') (A") (A") (A')
                 (A") (A") (A') (A') (A') (A") (A') (A') (A') (A")
                 (A') (A') (A') (A') (A') (A') (A") (A') (A') (A')
                 (A') (A') (A') (A') (A') (A') (A') (A') (A') (A")
                 (A") (A') (A") (A") (A') (A') (A') (A") (A') (A")
                 (A") (A') (A") (A") (A") (A') (A') (A') (A') (A')
                 (A') (A") (A') (A') (A") (A') (A') (A') (A') (A")
                 (A') (A') (A') (A') (A") (A") (A') (A') (A") (A")
                 (A") (A') (A') (A") (A') (A') (A') (A") (A') (A')
                 (A") (A") (A") (A') (A') (A") (A') (A") (A') (A')
                 (A") (A") (A') (A") (A') (A") (A') (A') (A') (A')
                 (A") (A') (A') (A') (A") (A') (A') (A') (A") (A")
                 (A') (A') (A') (A") (A') (A') (A") (A') (A") (A')
                 (A") (A') (A') (A') (A') (A") (A') (A') (A') (A")
                 (A') (A') (A') (A") (A") (A') (A') (A") (A') (A')
                 (A') (A") (A') (A") (A') (A') (A') (A") (A') (A")
                 (A') (A') (A') (A') (A") (A') (A") (A') (A") (A')
                 (A") (A') (A") (A") (A") (A') (A') (A') (A') (A')
                 (A') (A') (A') (A') (A') (A') (A') (A') (A') (A')
                 (A') (A') (A') (A') (A") (A') (A') (A') (A') (A')
                 (A') (A') (A') (A') (A') (A') (A') (A') (A') (A')
                 (A') (A') (A') (A') (A') (A') (A') (A') (A') (A')
                 (A') (A')
 The electronic state of the initial guess is 1-A'.
 Requested convergence on RMS density matrix=1.00D-08 within 128 cycles.
 Requested convergence on MAX density matrix=1.00D-06.
 Requested convergence on             energy=1.00D-06.
 No special actions if energy rises.
 SCF Done:  E(RM062X) =  -539.751430718     A.U. after   16 cycles
            NFock= 16  Conv=0.34D-08     -V/T= 2.0041
 DoSCS=F DFT=T ScalE2(SS,OS)=  1.000000  1.000000
 ExpMin= 3.60D-02 ExpMax= 4.56D+03 ExpMxC= 6.82D+02 IAcc=3 IRadAn=         5 AccDes= 0.00D+00
 HarFok:  IExCor=  205 AccDes= 0.00D+00 IRadAn=         5 IDoV=-2 UseB2=F ITyADJ=14
 ICtDFT= 12500011 ScaDFX=  1.000000  1.000000  1.000000  1.000000
 Range of M.O.s used for correlation:    15   379
 NBasis=   385 NAE=    47 NBE=    47 NFC=    14 NFV=     0
 NROrb=    365 NOA=    33 NOB=    33 NVA=   332 NVB=   332

 **** Warning!!: The largest alpha MO coefficient is  0.14057603D+03

 Orbital symmetries:
       Occupied  (A') (A') (A') (A') (A') (A') (A') (A') (A') (A')
                 (A') (A') (A') (A') (A') (A') (A') (A') (A') (A')
                 (A') (A') (A') (A') (A') (A') (A') (A') (A') (A')
                 (A') (A") (A') (A') (A') (A') (A') (A") (A') (A")
                 (A') (A') (A') (A") (A") (A") (A")
       Virtual   (A") (A") (A") (A") (A') (A') (A') (A') (A") (A')
                 (A') (A") (A') (A') (A") (A') (A") (A') (A') (A')
                 (A") (A") (A') (A') (A') (A") (A') (A") (A') (A')
                 (A") (A') (A") (A') (A') (A') (A') (A') (A") (A')
                 (A") (A') (A') (A") (A") (A') (A") (A') (A") (A')
                 (A') (A') (A') (A') (A') (A") (A') (A') (A') (A')
                 (A') (A") (A') (A') (A') (A") (A') (A') (A') (A')
                 (A') (A') (A') (A') (A') (A') (A') (A') (A') (A')
                 (A') (A') (A') (A') (A') (A') (A') (A') (A') (A')
                 (A') (A') (A') (A') (A") (A') (A") (A") (A') (A")
                 (A') (A') (A') (A') (A") (A") (A') (A") (A") (A')
                 (A') (A") (A') (A') (A") (A') (A') (A") (A') (A")
                 (A") (A') (A") (A') (A') (A') (A") (A') (A') (A')
                 (A') (A') (A') (A') (A') (A') (A') (A') (A') (A')
                 (A') (A') (A') (A") (A') (A') (A') (A') (A') (A')
                 (A') (A") (A') (A') (A") (A') (A") (A") (A') (A")
                 (A") (A') (A') (A") (A') (A") (A") (A") (A') (A')
                 (A') (A') (A") (A') (A') (A") (A') (A') (A') (A")
                 (A') (A') (A') (A") (A") (A') (A') (A") (A") (A')
                 (A") (A') (A') (A") (A') (A") (A') (A') (A') (A')
                 (A") (A") (A") (A') (A") (A') (A') (A") (A') (A')
                 (A') (A") (A') (A") (A") (A') (A") (A') (A') (A")
                 (A') (A') (A') (A') (A") (A') (A') (A') (A") (A")
                 (A') (A') (A') (A") (A') (A') (A') (A") (A") (A')
                 (A") (A') (A') (A") (A') (A') (A') (A') (A') (A')
                 (A") (A') (A') (A') (A') (A") (A") (A") (A') (A')
                 (A') (A') (A') (A') (A') (A') (A') (A") (A') (A')
                 (A') (A") (A') (A") (A") (A") (A') (A") (A') (A")
                 (A') (A") (A") (A') (A") (A") (A') (A') (A') (A')
                 (A') (A') (A') (A') (A') (A') (A') (A') (A') (A')
                 (A') (A') (A') (A") (A') (A') (A') (A') (A') (A')
                 (A') (A') (A') (A') (A') (A') (A') (A') (A') (A')
                 (A') (A') (A') (A') (A') (A') (A') (A') (A') (A')
                 (A') (A')
     4 initial guesses have been made.
 Convergence on wavefunction:    0.001000000000000
 Iteration     1 Dimension     4 NMult     0 NNew      4
 CISAX will form     4 AO SS matrices at one time.
 Iteration     2 Dimension     6 NMult     4 NNew      2
 Iteration     3 Dimension     8 NMult     6 NNew      2
 Iteration     4 Dimension    10 NMult     8 NNew      2
 Iteration     5 Dimension    12 NMult    10 NNew      2
 Iteration     6 Dimension    14 NMult    12 NNew      2
 ***********************************************************************
 Excited states from <AA,BB:AA,BB> singles matrix:
 ***********************************************************************
 
 Ground to excited state transition densities written to RWF  633
 Ground to excited state transition electric dipole moments (Au):
       state          X           Y           Z        Dip. S.      Osc.
         1        -0.4880     -0.2149     -0.0000      0.2843      0.0183
 Ground to excited state transition velocity dipole moments (Au):
       state          X           Y           Z        Dip. S.      Osc.
         1         0.0507      0.0276      0.0000      0.0033      0.0231
 Ground to excited state transition magnetic dipole moments (Au):
       state          X           Y           Z
         1        -0.0000      0.0000     -0.1709
 Ground to excited state transition velocity quadrupole moments (Au):
       state          XX          YY          ZZ          XY          XZ          YZ
         1         0.0005      0.2501     -0.0079     -0.0500      0.0000     -0.0000
 <0|del|b> * <b|rxdel|0> + <0|del|b> * <b|delr+rdel|0>
 Rotatory Strengths (R) in cgs (10**-40 erg-esu-cm/Gauss)
       state          XX          YY          ZZ    R(velocity)    E-M Angle
         1        -0.0000     -0.0000      0.0000     -0.0000       90.00
 1/2[<0|r|b>*<b|rxdel|0> + (<0|rxdel|b>*<b|r|0>)*]
 Rotatory Strengths (R) in cgs (10**-40 erg-esu-cm/Gauss)
       state          XX          YY          ZZ     R(length)
         1        -0.0000      0.0000     -0.0000      0.0000
  1/2[<0|del|b>*<b|r|0> + (<0|r|b>*<b|del|0>)*] (Au)
       state          X           Y           Z        Dip. S.   Osc.(frdel)
         1        -0.0247     -0.0059     -0.0000      0.0307      0.0204

 Excitation energies and oscillator strengths:
 
 Excited State   1:      Singlet-A'     2.6214 eV  472.96 nm  f=0.0183  <S**2>=0.000
      47 -> 48         0.70346
 This state for optimization and/or second-order correction.
 Total Energy, E(TD-HF/TD-DFT) =  -539.655094492    
 Copying the excited state density for this state as the 1-particle RhoCI density.
 SavETr:  write IOETrn=   770 NScale= 10 NData=  16 NLR=1 NState=    1 LETran=      28.

 **********************************************************************

            Population analysis using the SCF Density.

 **********************************************************************

 Orbital symmetries:
       Occupied  (A') (A') (A') (A') (A') (A') (A') (A') (A') (A')
                 (A') (A') (A') (A') (A') (A') (A') (A') (A') (A')
                 (A') (A') (A') (A') (A') (A') (A') (A') (A') (A')
                 (A') (A") (A') (A') (A') (A') (A') (A") (A') (A")
                 (A') (A') (A') (A") (A") (A") (A")
       Virtual   (A") (A") (A") (A") (A') (A') (A') (A') (A") (A')
                 (A') (A") (A') (A') (A") (A') (A") (A') (A') (A')
                 (A") (A") (A') (A') (A') (A") (A') (A") (A') (A')
                 (A") (A') (A") (A') (A') (A') (A') (A') (A") (A')
                 (A") (A') (A') (A") (A") (A') (A") (A') (A") (A')
                 (A') (A') (A') (A') (A') (A") (A') (A') (A') (A')
                 (A') (A") (A') (A') (A') (A") (A') (A') (A') (A')
                 (A') (A') (A') (A') (A') (A') (A') (A') (A') (A')
                 (A') (A') (A') (A') (A') (A') (A') (A') (A') (A')
                 (A') (A') (A') (A') (A") (A') (A") (A") (A') (A")
                 (A') (A') (A') (A') (A") (A") (A') (A") (A") (A')
                 (A') (A") (A') (A') (A") (A') (A') (A") (A') (A")
                 (A") (A') (A") (A') (A') (A') (A") (A') (A') (A')
                 (A') (A') (A') (A') (A') (A') (A') (A') (A') (A')
                 (A') (A') (A') (A") (A') (A') (A') (A') (A') (A')
                 (A') (A") (A') (A') (A") (A') (A") (A") (A') (A")
                 (A") (A') (A') (A") (A') (A") (A") (A") (A') (A')
                 (A') (A') (A") (A') (A') (A") (A') (A') (A') (A")
                 (A') (A') (A') (A") (A") (A') (A') (A") (A") (A')
                 (A") (A') (A') (A") (A') (A") (A') (A') (A') (A')
                 (A") (A") (A") (A') (A") (A') (A') (A") (A') (A')
                 (A') (A") (A') (A") (A") (A') (A") (A') (A') (A")
                 (A') (A') (A') (A') (A") (A') (A') (A') (A") (A")
                 (A') (A') (A') (A") (A') (A') (A') (A") (A") (A')
                 (A") (A') (A') (A") (A') (A') (A') (A') (A') (A')
                 (A") (A') (A') (A') (A') (A") (A") (A") (A') (A')
                 (A') (A') (A') (A') (A') (A') (A') (A") (A') (A')
                 (A') (A") (A') (A") (A") (A") (A') (A") (A') (A")
                 (A') (A") (A") (A') (A") (A") (A') (A') (A') (A')
                 (A') (A') (A') (A') (A') (A') (A') (A') (A') (A')
                 (A') (A') (A') (A") (A') (A') (A') (A') (A') (A')
                 (A') (A') (A') (A') (A') (A') (A') (A') (A') (A')
                 (A') (A') (A') (A') (A') (A') (A') (A') (A') (A')
                 (A') (A')
 The electronic state is 1-A'.
 Alpha  occ. eigenvalues --  -10.77550 -10.73874 -10.72901 -10.72585 -10.72208
 Alpha  occ. eigenvalues --  -10.71941 -10.71861 -10.70989 -10.70720 -10.70266
 Alpha  occ. eigenvalues --  -10.69992 -10.69908 -10.69680 -10.69263  -1.16577
 Alpha  occ. eigenvalues --   -1.12473  -1.06935  -1.05897  -1.01276  -1.00489
 Alpha  occ. eigenvalues --   -0.95498  -0.91017  -0.86450  -0.85888  -0.83762
 Alpha  occ. eigenvalues --   -0.78309  -0.76176  -0.74351  -0.69851  -0.69343
 Alpha  occ. eigenvalues --   -0.68251  -0.68088  -0.68027  -0.65396  -0.64227
 Alpha  occ. eigenvalues --   -0.62676  -0.61490  -0.60555  -0.59183  -0.59168
 Alpha  occ. eigenvalues --   -0.56955  -0.55267  -0.54461  -0.52441  -0.47493
 Alpha  occ. eigenvalues --   -0.46134  -0.43609
 Alpha virt. eigenvalues --   -0.26112  -0.14666  -0.14069  -0.12756  -0.11195
 Alpha virt. eigenvalues --   -0.10096  -0.09269  -0.07952  -0.07912  -0.07487
 Alpha virt. eigenvalues --   -0.07215  -0.07131  -0.05648  -0.05571  -0.05360
 Alpha virt. eigenvalues --   -0.03858  -0.03671  -0.03270  -0.03132  -0.02153
 Alpha virt. eigenvalues --   -0.01342  -0.00966   0.00185   0.00593   0.00636
 Alpha virt. eigenvalues --    0.01068   0.01500   0.01928   0.02122   0.02304
 Alpha virt. eigenvalues --    0.02448   0.02675   0.02813   0.03227   0.03468
 Alpha virt. eigenvalues --    0.04212   0.04494   0.04733   0.05044   0.05400
 Alpha virt. eigenvalues --    0.06020   0.06287   0.06571   0.07059   0.07278
 Alpha virt. eigenvalues --    0.07910   0.08054   0.08347   0.08674   0.08901
 Alpha virt. eigenvalues --    0.09465   0.09590   0.09942   0.10797   0.10941
 Alpha virt. eigenvalues --    0.11133   0.12071   0.12247   0.12633   0.13042
 Alpha virt. eigenvalues --    0.13483   0.13525   0.13965   0.14299   0.15789
 Alpha virt. eigenvalues --    0.16371   0.16517   0.17323   0.17395   0.17763
 Alpha virt. eigenvalues --    0.18131   0.19068   0.19372   0.19705   0.19989
 Alpha virt. eigenvalues --    0.21460   0.21670   0.22641   0.23217   0.23578
 Alpha virt. eigenvalues --    0.23986   0.24514   0.25463   0.26957   0.27624
 Alpha virt. eigenvalues --    0.28866   0.29240   0.29956   0.31352   0.35754
 Alpha virt. eigenvalues --    0.36488   0.38227   0.39283   0.41005   0.41236
 Alpha virt. eigenvalues --    0.41985   0.42072   0.42983   0.43717   0.44432
 Alpha virt. eigenvalues --    0.44740   0.45145   0.45838   0.46458   0.47864
 Alpha virt. eigenvalues --    0.48348   0.48751   0.49044   0.50568   0.51067
 Alpha virt. eigenvalues --    0.51185   0.52155   0.52156   0.52729   0.54136
 Alpha virt. eigenvalues --    0.54210   0.54590   0.55611   0.56037   0.57604
 Alpha virt. eigenvalues --    0.58215   0.59033   0.61533   0.62285   0.62461
 Alpha virt. eigenvalues --    0.63146   0.63468   0.64919   0.65172   0.67559
 Alpha virt. eigenvalues --    0.70272   0.70440   0.71296   0.72565   0.72932
 Alpha virt. eigenvalues --    0.75501   0.76066   0.76471   0.76707   0.77125
 Alpha virt. eigenvalues --    0.77884   0.78067   0.78320   0.79934   0.80388
 Alpha virt. eigenvalues --    0.81231   0.81525   0.82517   0.82985   0.85274
 Alpha virt. eigenvalues --    0.86997   0.87976   0.88175   0.89399   0.90687
 Alpha virt. eigenvalues --    0.91040   0.91520   0.93358   0.94586   0.96231
 Alpha virt. eigenvalues --    0.97009   1.00019   1.01295   1.01451   1.02770
 Alpha virt. eigenvalues --    1.02893   1.03315   1.04947   1.06698   1.08963
 Alpha virt. eigenvalues --    1.19600   1.22826   1.23935   1.24188   1.29149
 Alpha virt. eigenvalues --    1.29270   1.32450   1.34258   1.35742   1.35945
 Alpha virt. eigenvalues --    1.39284   1.39477   1.40738   1.42890   1.43369
 Alpha virt. eigenvalues --    1.43426   1.44310   1.46370   1.46557   1.47230
 Alpha virt. eigenvalues --    1.47733   1.48323   1.51818   1.53707   1.55736
 Alpha virt. eigenvalues --    1.55771   1.56257   1.56596   1.57849   1.61501
 Alpha virt. eigenvalues --    1.62845   1.63398   1.64315   1.66079   1.68266
 Alpha virt. eigenvalues --    1.68410   1.68730   1.69892   1.74442   1.76053
 Alpha virt. eigenvalues --    1.77183   1.78104   1.79762   1.79954   1.80953
 Alpha virt. eigenvalues --    1.82713   1.83181   1.83622   1.83802   1.84187
 Alpha virt. eigenvalues --    1.84701   1.85361   1.86522   1.88434   1.91451
 Alpha virt. eigenvalues --    1.92201   1.94039   1.95423   1.97848   1.98165
 Alpha virt. eigenvalues --    1.99851   2.02419   2.04622   2.07349   2.11690
 Alpha virt. eigenvalues --    2.12235   2.14344   2.15296   2.19063   2.21206
 Alpha virt. eigenvalues --    2.22711   2.28394   2.30373   2.34397   2.34724
 Alpha virt. eigenvalues --    2.36422   2.38557   2.39726   2.42324   2.44483
 Alpha virt. eigenvalues --    2.46094   2.46515   2.49117   2.52978   2.53780
 Alpha virt. eigenvalues --    2.54311   2.56879   2.57960   2.58484   2.59352
 Alpha virt. eigenvalues --    2.59951   2.61506   2.62149   2.63591   2.63700
 Alpha virt. eigenvalues --    2.64866   2.65036   2.65059   2.65690   2.67952
 Alpha virt. eigenvalues --    2.68343   2.70919   2.71501   2.73393   2.74809
 Alpha virt. eigenvalues --    2.76270   2.78263   2.79615   2.83232   2.83299
 Alpha virt. eigenvalues --    2.84858   2.86272   2.92130   2.97163   2.99381
 Alpha virt. eigenvalues --    3.00195   3.04949   3.08985   3.11122   3.14455
 Alpha virt. eigenvalues --    3.20401   3.21692   3.25944   3.28943   3.30889
 Alpha virt. eigenvalues --    3.32846   3.35024   3.44189   3.46404   3.46851
 Alpha virt. eigenvalues --    3.48323   3.50026   3.56438   3.65721   3.67068
 Alpha virt. eigenvalues --    3.68119   3.93379   3.93935   3.95320   3.96641
 Alpha virt. eigenvalues --    4.03879   4.06332   4.07732   4.12528   4.35189
 Alpha virt. eigenvalues --    4.60736   4.68850   4.70951  23.45169  23.59874
 Alpha virt. eigenvalues --   23.79187  23.81359  23.84360  23.89255  23.92178
 Alpha virt. eigenvalues --   23.95158  23.96088  23.98128  24.04556  24.07636
 Alpha virt. eigenvalues --   24.11748  24.14279
          Condensed to atoms (all electrons):
               1          2          3          4          5          6
     1  C    8.318020   0.564822  -0.672694   1.703598   0.001227  -0.082630
     2  C    0.564822   7.205609   0.435489  -0.972900  -0.044406  -0.015365
     3  C   -0.672694   0.435489   6.616958   0.704941  -0.109970   0.016873
     4  C    1.703598  -0.972900   0.704941  11.661487  -0.389153  -0.145479
     5  C    0.001227  -0.044406  -0.109970  -0.389153  10.619390   0.847669
     6  C   -0.082630  -0.015365   0.016873  -0.145479   0.847669   6.607513
     7  C   -0.036679  -0.000462  -0.012753   0.023660  -1.238948   0.207627
     8  C    0.411437   0.003399  -0.108708  -0.105667   2.351379  -0.332393
     9  C   -1.140213  -0.881502   0.294268   0.106524  -0.459064   0.294821
    10  C   -1.182706   0.136280  -0.238460  -2.838421  -2.330133  -0.458398
    11  C    0.346892  -0.760298   0.856035  -0.351911  -1.398103  -0.093643
    12  C   -1.754641   0.974480  -1.335058  -1.663706  -0.193908  -0.309164
    13  C    0.197580  -0.206773  -0.238226  -1.611716  -0.346031   1.133192
    14  C   -1.165978  -0.319649  -0.095270  -0.496950  -1.652182  -1.543750
    15  H    0.366999  -0.106001  -0.003587   0.024432   0.006556   0.001274
    16  H   -0.020066   0.383792  -0.022799   0.017964  -0.001722  -0.000366
    17  H   -0.018758  -0.023733   0.382774  -0.070545   0.000084   0.000417
    18  H    0.046557   0.003818  -0.083181   0.469723   0.005912  -0.005025
    19  H   -0.042861  -0.008491   0.051259  -0.084600  -0.059816   0.051909
    20  H    0.006847   0.002033  -0.005325   0.005974   0.453726  -0.084129
    21  H   -0.001215  -0.000422   0.000379   0.000494  -0.065775   0.366086
    22  H    0.000322   0.000303  -0.000287  -0.001256   0.009132  -0.010843
    23  H    0.006991  -0.002180   0.000946   0.004161   0.030509   0.002174
    24  H    0.038923   0.016218  -0.001231  -0.010947  -0.013475  -0.001865
    25  H    0.038923   0.016218  -0.001231  -0.010947  -0.013475  -0.001865
               7          8          9         10         11         12
     1  C   -0.036679   0.411437  -1.140213  -1.182706   0.346892  -1.754641
     2  C   -0.000462   0.003399  -0.881502   0.136280  -0.760298   0.974480
     3  C   -0.012753  -0.108708   0.294268  -0.238460   0.856035  -1.335058
     4  C    0.023660  -0.105667   0.106524  -2.838421  -0.351911  -1.663706
     5  C   -1.238948   2.351379  -0.459064  -2.330133  -1.398103  -0.193908
     6  C    0.207627  -0.332393   0.294821  -0.458398  -0.093643  -0.309164
     7  C    7.227607  -0.114243  -0.781028   0.376264  -0.324681  -0.043971
     8  C   -0.114243   9.111581  -1.110676  -1.420212   0.315958  -1.050982
     9  C   -0.781028  -1.110676   9.646573   0.245506   1.609925  -2.148658
    10  C    0.376264  -1.420212   0.245506   9.100500  -0.281339   2.371208
    11  C   -0.324681   0.315958   1.609925  -0.281339  14.586461  -4.164689
    12  C   -0.043971  -1.050982  -2.148658   2.371208  -4.164689  16.374113
    13  C   -1.003104   0.295219   1.427410  -0.490870   1.047759  -4.671047
    14  C    1.859617  -2.758734  -1.674582   2.473830  -4.816571   3.114075
    15  H   -0.002963   0.004664   0.086411  -0.007278  -0.029505  -0.009657
    16  H    0.000411   0.001135   0.001285  -0.010630   0.024158  -0.028898
    17  H   -0.000364  -0.001434  -0.004497   0.019895  -0.024707   0.084095
    18  H    0.002149   0.006964  -0.021851   0.005468  -0.009340  -0.046630
    19  H   -0.007425  -0.048713   0.074524   0.422762   0.077060  -0.092188
    20  H    0.001513   0.055227  -0.026231   0.014874  -0.012198  -0.006841
    21  H   -0.005123  -0.034788  -0.006564   0.020200  -0.006218   0.005287
    22  H    0.372034  -0.015752   0.004020  -0.007532   0.002233  -0.007206
    23  H   -0.109405   0.371516   0.096857  -0.011622   0.009065   0.004043
    24  H    0.012536   0.026531   0.356578   0.005501   0.027408  -0.059560
    25  H    0.012536   0.026531   0.356578   0.005501   0.027408  -0.059560
              13         14         15         16         17         18
     1  C    0.197580  -1.165978   0.366999  -0.020066  -0.018758   0.046557
     2  C   -0.206773  -0.319649  -0.106001   0.383792  -0.023733   0.003818
     3  C   -0.238226  -0.095270  -0.003587  -0.022799   0.382774  -0.083181
     4  C   -1.611716  -0.496950   0.024432   0.017964  -0.070545   0.469723
     5  C   -0.346031  -1.652182   0.006556  -0.001722   0.000084   0.005912
     6  C    1.133192  -1.543750   0.001274  -0.000366   0.000417  -0.005025
     7  C   -1.003104   1.859617  -0.002963   0.000411  -0.000364   0.002149
     8  C    0.295219  -2.758734   0.004664   0.001135  -0.001434   0.006964
     9  C    1.427410  -1.674582   0.086411   0.001285  -0.004497  -0.021851
    10  C   -0.490870   2.473830  -0.007278  -0.010630   0.019895   0.005468
    11  C    1.047759  -4.816571  -0.029505   0.024158  -0.024707  -0.009340
    12  C   -4.671047   3.114075  -0.009657  -0.028898   0.084095  -0.046630
    13  C   14.230931  -3.192965  -0.004610   0.003501  -0.006318  -0.012509
    14  C   -3.192965  15.835504   0.007805  -0.010745   0.005232  -0.023380
    15  H   -0.004610   0.007805   0.433038  -0.008828   0.001709   0.000243
    16  H    0.003501  -0.010745  -0.008828   0.415144  -0.007151   0.001986
    17  H   -0.006318   0.005232   0.001709  -0.007151   0.419055  -0.010036
    18  H   -0.012509  -0.023380   0.000243   0.001986  -0.010036   0.447257
    19  H    0.083246  -0.041129   0.000443  -0.000623   0.001811  -0.005696
    20  H   -0.001335  -0.068697  -0.000130   0.000021  -0.000173   0.001256
    21  H   -0.026742   0.098485   0.000018  -0.000007   0.000010  -0.000115
    22  H    0.025353  -0.032670  -0.000123   0.000007  -0.000007   0.000010
    23  H   -0.035235  -0.039855   0.000559  -0.000132   0.000010  -0.000100
    24  H   -0.001002  -0.060079  -0.000941   0.000624  -0.000131   0.000133
    25  H   -0.001002  -0.060079  -0.000941   0.000624  -0.000131   0.000133
              19         20         21         22         23         24
     1  C   -0.042861   0.006847  -0.001215   0.000322   0.006991   0.038923
     2  C   -0.008491   0.002033  -0.000422   0.000303  -0.002180   0.016218
     3  C    0.051259  -0.005325   0.000379  -0.000287   0.000946  -0.001231
     4  C   -0.084600   0.005974   0.000494  -0.001256   0.004161  -0.010947
     5  C   -0.059816   0.453726  -0.065775   0.009132   0.030509  -0.013475
     6  C    0.051909  -0.084129   0.366086  -0.010843   0.002174  -0.001865
     7  C   -0.007425   0.001513  -0.005123   0.372034  -0.109405   0.012536
     8  C   -0.048713   0.055227  -0.034788  -0.015752   0.371516   0.026531
     9  C    0.074524  -0.026231  -0.006564   0.004020   0.096857   0.356578
    10  C    0.422762   0.014874   0.020200  -0.007532  -0.011622   0.005501
    11  C    0.077060  -0.012198  -0.006218   0.002233   0.009065   0.027408
    12  C   -0.092188  -0.006841   0.005287  -0.007206   0.004043  -0.059560
    13  C    0.083246  -0.001335  -0.026742   0.025353  -0.035235  -0.001002
    14  C   -0.041129  -0.068697   0.098485  -0.032670  -0.039855  -0.060079
    15  H    0.000443  -0.000130   0.000018  -0.000123   0.000559  -0.000941
    16  H   -0.000623   0.000021  -0.000007   0.000007  -0.000132   0.000624
    17  H    0.001811  -0.000173   0.000010  -0.000007   0.000010  -0.000131
    18  H   -0.005696   0.001256  -0.000115   0.000010  -0.000100   0.000133
    19  H    0.444374  -0.007052   0.001062  -0.000464   0.000208   0.000594
    20  H   -0.007052   0.460557  -0.010417   0.001875   0.000016   0.000235
    21  H    0.001062  -0.010417   0.425377  -0.005749   0.001158  -0.000151
    22  H   -0.000464   0.001875  -0.005749   0.422952  -0.008850   0.000633
    23  H    0.000208   0.000016   0.001158  -0.008850   0.446129  -0.000862
    24  H    0.000594   0.000235  -0.000151   0.000633  -0.000862   0.493142
    25  H    0.000594   0.000235  -0.000151   0.000633  -0.000862  -0.079096
              25
     1  C    0.038923
     2  C    0.016218
     3  C   -0.001231
     4  C   -0.010947
     5  C   -0.013475
     6  C   -0.001865
     7  C    0.012536
     8  C    0.026531
     9  C    0.356578
    10  C    0.005501
    11  C    0.027408
    12  C   -0.059560
    13  C   -0.001002
    14  C   -0.060079
    15  H   -0.000941
    16  H    0.000624
    17  H   -0.000131
    18  H    0.000133
    19  H    0.000594
    20  H    0.000235
    21  H   -0.000151
    22  H    0.000633
    23  H   -0.000862
    24  H   -0.079096
    25  H    0.493142
 Mulliken charges:
               1
     1  C    0.069304
     2  C   -0.400280
     3  C   -0.431141
     4  C    0.031239
     5  C   -0.009426
     6  C   -0.444639
     7  C   -0.414803
     8  C    0.120761
     9  C   -0.346415
    10  C    0.079813
    11  C   -0.657158
    12  C    0.719063
    13  C   -0.594705
    14  C    0.658718
    15  H    0.240413
    16  H    0.261316
    17  H    0.252895
    18  H    0.226254
    19  H    0.189212
    20  H    0.218138
    21  H    0.244879
    22  H    0.251231
    23  H    0.234761
    24  H    0.250284
    25  H    0.250284
 Sum of Mulliken charges =   1.00000
 Mulliken charges with hydrogens summed into heavy atoms:
               1
     1  C    0.309717
     2  C   -0.138964
     3  C   -0.178246
     4  C    0.257493
     5  C    0.208712
     6  C   -0.199760
     7  C   -0.163573
     8  C    0.355522
     9  C    0.154154
    10  C    0.269025
    11  C   -0.657158
    12  C    0.719063
    13  C   -0.594705
    14  C    0.658718
 Electronic spatial extent (au):  <R**2>=           2856.5418
 Charge=              1.0000 electrons
 Dipole moment (field-independent basis, Debye):
    X=              0.7860    Y=             -0.9889    Z=             -0.0000  Tot=              1.2633
 Quadrupole moment (field-independent basis, Debye-Ang):
   XX=            -49.0523   YY=            -38.1962   ZZ=            -84.1277
   XY=            -11.4587   XZ=              0.0000   YZ=              0.0000
 Traceless Quadrupole moment (field-independent basis, Debye-Ang):
   XX=              8.0731   YY=             18.9292   ZZ=            -27.0023
   XY=            -11.4587   XZ=              0.0000   YZ=              0.0000
 Octapole moment (field-independent basis, Debye-Ang**2):
  XXX=              5.0283  YYY=            -15.6295  ZZZ=              0.0000  XYY=              3.1908
  XXY=              1.7838  XXZ=             -0.0000  XZZ=             -1.7161  YZZ=             -3.1534
  YYZ=             -0.0000  XYZ=             -0.0000
 Hexadecapole moment (field-independent basis, Debye-Ang**3):
 XXXX=          -1083.7373 YYYY=          -1772.5421 ZZZZ=            -99.3096 XXXY=            368.0647
 XXXZ=              0.0000 YYYX=            304.6161 YYYZ=              0.0000 ZZZX=             -0.0000
 ZZZY=             -0.0000 XXYY=           -444.7900 XXZZ=           -267.0553 YYZZ=           -469.3979
 XXYZ=              0.0000 YYXZ=              0.0000 ZZXY=            198.1795
 N-N= 7.812156036574D+02 E-N=-2.798793383721D+03  KE= 5.375394074493D+02
 Symmetry A'   KE= 5.228831407957D+02
 Symmetry A"   KE= 1.465626665356D+01
 Unable to Open any file for archive entry.
 1\1\GINC-GADI-CPU-CLX-1762\SP\RM062X TD-FC\6-311++G(d,p)\C14H11(1+)\TS
 1578\02-Aug-2022\0\\#n M062X/6-311++G(d,p) TD(NStates=1) EmpiricalDisp
 ersion=GD3 SP\\SP_125\\1,1\C,0,2.462305,1.361631,0.\C,0,3.664733,0.656
 039,0.\C,0,3.673661,-0.74198,0.\C,0,2.498281,-1.428063,0.\C,0,-2.42808
 1,-1.387113,0.\C,0,-3.694361,-0.68618,0.\C,0,-3.738758,0.687764,0.\C,0
 ,-2.523955,1.358931,0.\C,0,-0.0197,1.454469,0.\C,0,0.0549,-1.429239,0.
 \C,0,1.270305,0.69429,0.\C,0,1.259871,-0.733429,0.\C,0,-1.25388,0.6598
 65,0.\C,0,-1.214871,-0.728029,0.\H,0,2.479171,2.444497,0.\H,0,4.599578
 ,1.198564,0.\H,0,4.615862,-1.271649,0.\H,0,2.4839,-2.510009,0.\H,0,0.0
 50625,-2.510291,0.\H,0,-2.45105,-2.470184,0.\H,0,-4.602812,-1.273674,0
 .\H,0,-4.674503,1.224439,0.\H,0,-2.498071,2.442472,0.\H,0,-0.072,2.146
 037,-0.85986\H,0,-0.072,2.146037,0.85986\\Version=ES64L-G16RevC.01\Sta
 te=1-A'\HF=-539.7514307\RMSD=3.408e-09\PG=CS [SG(C14H9),X(H2)]\\@
 The archive entry for this job was punched.


 THE THINKER DIES, BUT HIS THOUGHTS ARE BEYOND THE 
 REACH OF DESTRUCTION.  MEN ARE MORTAL; BUT IDEAS 
 ARE IMMORTAL.
                              -- WALTER LIPPMANN
 Job cpu time:       0 days  0 hours 54 minutes 57.6 seconds.
 Elapsed time:       0 days  0 hours  1 minutes  9.2 seconds.
 File lengths (MBytes):  RWF=    460 Int=      0 D2E=      0 Chk=     15 Scr=      1
 Normal termination of Gaussian 16 at Tue Aug  2 13:13:35 2022.
