 Entering Gaussian System, Link 0=g16
 Initial command:
 /apps/gaussian/g16c01/g16/l1.exe "/jobfs/53796104.gadi-pbs/Gau-3600340.inp" -scrdir="/jobfs/53796104.gadi-pbs/"
 Entering Link 1 = /apps/gaussian/g16c01/g16/l1.exe PID=   3600341.
  
 Copyright (c) 1988-2019, Gaussian, Inc.  All Rights Reserved.
  
 This is part of the Gaussian(R) 16 program.  It is based on
 the Gaussian(R) 09 system (copyright 2009, Gaussian, Inc.),
 the Gaussian(R) 03 system (copyright 2003, Gaussian, Inc.),
 the Gaussian(R) 98 system (copyright 1998, Gaussian, Inc.),
 the Gaussian(R) 94 system (copyright 1995, Gaussian, Inc.),
 the Gaussian 92(TM) system (copyright 1992, Gaussian, Inc.),
 the Gaussian 90(TM) system (copyright 1990, Gaussian, Inc.),
 the Gaussian 88(TM) system (copyright 1988, Gaussian, Inc.),
 the Gaussian 86(TM) system (copyright 1986, Carnegie Mellon
 University), and the Gaussian 82(TM) system (copyright 1983,
 Carnegie Mellon University). Gaussian is a federally registered
 trademark of Gaussian, Inc.
  
 This software contains proprietary and confidential information,
 including trade secrets, belonging to Gaussian, Inc.
  
 This software is provided under written license and may be
 used, copied, transmitted, or stored only in accord with that
 written license.
  
 The following legend is applicable only to US Government
 contracts under FAR:
  
                    RESTRICTED RIGHTS LEGEND
  
 Use, reproduction and disclosure by the US Government is
 subject to restrictions as set forth in subparagraphs (a)
 and (c) of the Commercial Computer Software - Restricted
 Rights clause in FAR 52.227-19.
  
 Gaussian, Inc.
 340 Quinnipiac St., Bldg. 40, Wallingford CT 06492
  
  
 ---------------------------------------------------------------
 Warning -- This program may not be used in any manner that
 competes with the business of Gaussian, Inc. or will provide
 assistance to any competitor of Gaussian, Inc.  The licensee
 of this program is prohibited from giving any competitor of
 Gaussian, Inc. access to this program.  By using this program,
 the user acknowledges that Gaussian, Inc. is engaged in the
 business of creating and licensing software in the field of
 computational chemistry and represents and warrants to the
 licensee that it is not a competitor of Gaussian, Inc. and that
 it will not use this program in any manner prohibited above.
 ---------------------------------------------------------------
  

 Cite this work as:
 Gaussian 16, Revision C.01,
 M. J. Frisch, G. W. Trucks, H. B. Schlegel, G. E. Scuseria, 
 M. A. Robb, J. R. Cheeseman, G. Scalmani, V. Barone, 
 G. A. Petersson, H. Nakatsuji, X. Li, M. Caricato, A. V. Marenich, 
 J. Bloino, B. G. Janesko, R. Gomperts, B. Mennucci, H. P. Hratchian, 
 J. V. Ortiz, A. F. Izmaylov, J. L. Sonnenberg, D. Williams-Young, 
 F. Ding, F. Lipparini, F. Egidi, J. Goings, B. Peng, A. Petrone, 
 T. Henderson, D. Ranasinghe, V. G. Zakrzewski, J. Gao, N. Rega, 
 G. Zheng, W. Liang, M. Hada, M. Ehara, K. Toyota, R. Fukuda, 
 J. Hasegawa, M. Ishida, T. Nakajima, Y. Honda, O. Kitao, H. Nakai, 
 T. Vreven, K. Throssell, J. A. Montgomery, Jr., J. E. Peralta, 
 F. Ogliaro, M. J. Bearpark, J. J. Heyd, E. N. Brothers, K. N. Kudin, 
 V. N. Staroverov, T. A. Keith, R. Kobayashi, J. Normand, 
 K. Raghavachari, A. P. Rendell, J. C. Burant, S. S. Iyengar, 
 J. Tomasi, M. Cossi, J. M. Millam, M. Klene, C. Adamo, R. Cammi, 
 J. W. Ochterski, R. L. Martin, K. Morokuma, O. Farkas, 
 J. B. Foresman, and D. J. Fox, Gaussian, Inc., Wallingford CT, 2019.
 
 ******************************************
 Gaussian 16:  ES64L-G16RevC.01  3-Jul-2019
                 2-Aug-2022 
 ******************************************
 %NProcShared=48
 Will use up to   48 processors via shared memory.
 %mem = 190GB
 ---------------------------------------------------------------
 #n M062X/6-311++G(d,p) TD(NStates=1) EmpiricalDispersion=GD3 SP
 ---------------------------------------------------------------
 1/38=1,172=1/1;
 2/12=2,17=6,18=5,40=1/2;
 3/5=4,6=6,7=1111,11=9,25=1,30=1,74=-55,124=31/1,2,3,8;
 4//1;
 5/5=2,38=5/2;
 8/6=1,10=2,108=1/1;
 9/41=1,42=1,70=2/14;
 6/7=2,8=2,9=2,10=2/1;
 99/5=1,9=1/99;
 -------
 SP_-100
 -------
 Symbolic Z-matrix:
 Charge =  1 Multiplicity = 1
 C                     2.50056   1.36073   0. 
 C                     3.71266   0.67771   0. 
 C                     3.68656  -0.70328   0. 
 C                     2.45133  -1.40046   0. 
 C                    -2.47473  -1.41411   0. 
 C                    -3.67966  -0.72188   0. 
 C                    -3.68798   0.66714   0. 
 C                    -2.48001   1.36163   0. 
 C                     0.00663   1.44787   0. 
 C                    -0.0183   -1.42894   0. 
 C                     1.25913   0.67127   0. 
 C                     1.23047  -0.73028   0. 
 C                    -1.2646    0.68274   0. 
 C                    -1.24547  -0.73208   0. 
 H                     2.48847   2.44412   0. 
 H                     4.6478    1.21694   0. 
 H                     4.60671  -1.27112   0. 
 H                     2.46245  -2.48323   0. 
 H                    -0.01688  -2.51014   0. 
 H                    -2.4734   -2.49651   0. 
 H                    -4.61106  -1.27045   0. 
 H                    -4.62283   1.20831   0. 
 H                    -2.48217   2.4448    0. 
 H                     0.024     2.14454  -0.85821 
 H                     0.024     2.14454   0.85821 
 
                          Input orientation:                          
 ---------------------------------------------------------------------
 Center     Atomic      Atomic             Coordinates (Angstroms)
 Number     Number       Type             X           Y           Z
 ---------------------------------------------------------------------
      1          6           0        2.500555    1.360731    0.000000
      2          6           0        3.712658    0.677714    0.000000
      3          6           0        3.686561   -0.703280    0.000000
      4          6           0        2.451331   -1.400463    0.000000
      5          6           0       -2.474731   -1.414113    0.000000
      6          6           0       -3.679661   -0.721880    0.000000
      7          6           0       -3.687983    0.667139    0.000000
      8          6           0       -2.480005    1.361631    0.000000
      9          6           0        0.006625    1.447869    0.000000
     10          6           0       -0.018300   -1.428939    0.000000
     11          6           0        1.259130    0.671265    0.000000
     12          6           0        1.230471   -0.730279    0.000000
     13          6           0       -1.264605    0.682740    0.000000
     14          6           0       -1.245471   -0.732079    0.000000
     15          1           0        2.488471    2.444122    0.000000
     16          1           0        4.647803    1.216939    0.000000
     17          1           0        4.606712   -1.271124    0.000000
     18          1           0        2.462450   -2.483234    0.000000
     19          1           0       -0.016875   -2.510141    0.000000
     20          1           0       -2.473400   -2.496509    0.000000
     21          1           0       -4.611062   -1.270449    0.000000
     22          1           0       -4.622828    1.208314    0.000000
     23          1           0       -2.482171    2.444797    0.000000
     24          1           0        0.024000    2.144537   -0.858210
     25          1           0        0.024000    2.144537    0.858210
 ---------------------------------------------------------------------
                    Distance matrix (angstroms):
                    1          2          3          4          5
     1  C    0.000000
     2  C    1.391296   0.000000
     3  C    2.380494   1.381241   0.000000
     4  C    2.761633   2.431001   1.418400   0.000000
     5  C    5.696774   6.531426   6.202161   4.926081   0.000000
     6  C    6.521682   7.523646   7.366245   6.168431   1.389620
     7  C    6.227285   7.400649   7.500796   6.478129   2.409064
     8  C    4.980560   6.230314   6.503106   5.652189   2.775749
     9  C    2.495452   3.785211   4.262555   3.753609   3.787884
    10  C    3.758575   4.284628   3.775258   2.469795   2.456476
    11  C    1.420035   2.453536   2.789587   2.390272   4.276742
    12  C    2.446515   2.853716   2.456238   1.392712   3.767778
    13  C    3.825716   4.977266   5.141507   4.260037   2.420991
    14  C    4.290986   5.154664   4.932116   3.756738   1.405792
    15  H    1.083458   2.149147   3.367723   3.844764   6.286442
    16  H    2.152057   1.079472   2.147377   3.416911   7.592952
    17  H    3.370839   2.144132   1.081261   2.159258   7.082886
    18  H    3.844154   3.399208   2.160251   1.082828   5.051611
    19  H    4.617478   4.906306   4.120702   2.706183   2.691158
    20  H    6.294325   6.952913   6.415668   5.045225   1.082397
    21  H    7.582757   8.548664   8.316984   7.063590   2.141156
    22  H    7.125013   8.352357   8.526438   7.539857   3.389903
    23  H    5.099290   6.441932   6.925579   6.255035   3.858917
    24  H    2.735727   4.061317   4.718150   4.381265   4.432175
    25  H    2.735727   4.061317   4.718150   4.381265   4.432175
                    6          7          8          9         10
     6  C    0.000000
     7  C    1.389044   0.000000
     8  C    2.404203   1.393388   0.000000
     9  C    4.277443   3.776198   2.488125   0.000000
    10  C    3.729007   4.226123   3.721192   2.876916   0.000000
    11  C    5.131521   4.947115   3.802333   1.473731   2.458187
    12  C    4.910139   5.113117   4.259545   2.498425   1.430928
    13  C    2.793824   2.423428   1.392153   1.483728   2.452033
    14  C    2.434211   2.814902   2.430575   2.513945   1.411227
    15  H    6.933211   6.426994   5.085031   2.674337   4.613513
    16  H    8.550186   8.353898   7.129276   4.646920   5.364064
    17  H    8.304556   8.518147   7.559957   5.343568   4.627704
    18  H    6.389671   6.910331   6.261857   4.635153   2.695489
    19  H    4.076013   4.855115   4.588859   3.958080   1.081203
    20  H    2.145780   3.388787   3.858146   4.659253   2.677167
    21  H    1.080942   2.146234   3.386628   5.358385   4.595496
    22  H    2.148305   1.080188   2.148301   4.635647   5.306296
    23  H    3.385532   2.148034   1.083168   2.681039   4.590914
    24  H    4.761300   4.086324   2.760345   1.105519   3.675329
    25  H    4.761300   4.086324   2.760345   1.105519   3.675329
                   11         12         13         14         15
    11  C    0.000000
    12  C    1.401837   0.000000
    13  C    2.523761   2.867408   0.000000
    14  C    2.870958   2.475943   1.414948   0.000000
    15  H    2.157383   3.414584   4.145847   4.902099   0.000000
    16  H    3.432326   3.933169   5.936492   6.207201   2.483685
    17  H    3.870295   3.419286   6.187887   5.876956   4.276681
    18  H    3.376217   2.142574   4.890228   4.100637   4.927425
    19  H    3.427759   2.173426   3.428020   2.161239   5.551710
    20  H    4.895567   4.103441   3.401295   2.149656   7.002142
    21  H    6.182993   5.866455   3.874754   3.408379   8.012578
    22  H    5.906425   6.165975   3.399101   3.895082   7.217880
    23  H    4.140380   4.885163   2.141801   3.409101   4.970642
    24  H    2.105374   3.233677   2.129290   3.259294   2.626765
    25  H    2.105374   3.233677   2.129290   3.259294   2.626765
                   16         17         18         19         20
    16  H    0.000000
    17  H    2.488402   0.000000
    18  H    4.297330   2.463142   0.000000
    19  H    5.970791   4.786723   2.479471   0.000000
    20  H    8.031266   7.185371   4.935868   2.456563   0.000000
    21  H    9.587162   9.217774   7.176728   4.758507   2.464310
    22  H    9.270635   9.556779   7.989286   5.919604   4.283194
    23  H    7.234927   8.003770   6.981029   5.534356   4.941314
    24  H    4.793383   5.779664   5.300833   4.733310   5.339741
    25  H    4.793383   5.779664   5.300833   4.733310   5.339741
                   21         22         23         24         25
    21  H    0.000000
    22  H    2.478791   0.000000
    23  H    4.281966   2.472105   0.000000
    24  H    5.820864   4.817266   2.666003   0.000000
    25  H    5.820864   4.817266   2.666003   1.716420   0.000000
 Stoichiometry    C14H11(1+)
 Framework group  CS[SG(C14H9),X(H2)]
 Deg. of freedom    46
 Full point group                 CS      NOp   2
 Largest Abelian subgroup         CS      NOp   2
 Largest concise Abelian subgroup CS      NOp   2
                         Standard orientation:                         
 ---------------------------------------------------------------------
 Center     Atomic      Atomic             Coordinates (Angstroms)
 Number     Number       Type             X           Y           Z
 ---------------------------------------------------------------------
      1          6           0        0.024261    2.846467    0.000000
      2          6           0       -1.148746    3.594639    0.000000
      3          6           0       -2.355040    2.921825    0.000000
      4          6           0       -2.389025    1.503833    0.000000
      5          6           0       -0.083254   -2.849292    0.000000
      6          6           0        1.094509   -3.586799    0.000000
      7          6           0        2.324080   -2.940579    0.000000
      8          6           0        2.368513   -1.547900    0.000000
      9          6           0        1.274597    0.686851    0.000000
     10          6           0       -1.252139   -0.688741    0.000000
     11          6           0        0.000000    1.426639    0.000000
     12          6           0       -1.223222    0.741895    0.000000
     13          6           0        1.197596   -0.794877    0.000000
     14          6           0       -0.059828   -1.443695    0.000000
     15          1           0        0.985918    3.345562    0.000000
     16          1           0       -1.112945    4.673517    0.000000
     17          1           0       -3.289050    3.466573    0.000000
     18          1           0       -3.349682    1.004177    0.000000
     19          1           0       -2.206850   -1.196212    0.000000
     20          1           0       -1.038975   -3.357408    0.000000
     21          1           0        1.048702   -4.666770    0.000000
     22          1           0        3.241471   -3.510842    0.000000
     23          1           0        3.325305   -1.040159    0.000000
     24          1           0        1.881153    1.029980    0.858210
     25          1           0        1.881153    1.029980   -0.858210
 ---------------------------------------------------------------------
 Rotational constants (GHZ):           2.1380858           0.4448841           0.3690569
 Standard basis: 6-311++G(d,p) (5D, 7F)
 There are   299 symmetry adapted cartesian basis functions of A'  symmetry.
 There are   100 symmetry adapted cartesian basis functions of A"  symmetry.
 There are   285 symmetry adapted basis functions of A'  symmetry.
 There are   100 symmetry adapted basis functions of A"  symmetry.
   385 basis functions,   603 primitive gaussians,   399 cartesian basis functions
    47 alpha electrons       47 beta electrons
       nuclear repulsion energy       781.4538799500 Hartrees.
 NAtoms=   25 NActive=   25 NUniq=   24 SFac= 1.09D+00 NAtFMM=   60 NAOKFM=F Big=F
 Integral buffers will be    131072 words long.
 Regular integral format.
 Two-electron integral symmetry is turned on.
 Nuclear repulsion after empirical dispersion term =      781.4529006005 Hartrees.
 One-electron integrals computed using PRISM.
 NBasis=   385 RedAO= T EigKep=  1.11D-06  NBF=   285   100
 NBsUse=   379 1.00D-06 EigRej=  8.35D-07 NBFU=   279   100
 ExpMin= 3.60D-02 ExpMax= 4.56D+03 ExpMxC= 6.82D+02 IAcc=3 IRadAn=         5 AccDes= 0.00D+00
 Harris functional with IExCor= 1009 and IRadAn=       5 diagonalized for initial guess.
 HarFok:  IExCor= 1009 AccDes= 0.00D+00 IRadAn=         5 IDoV= 1 UseB2=F ITyADJ=14
 ICtDFT=  3500011 ScaDFX=  1.000000  1.000000  1.000000  1.000000
 FoFCou: FMM=F IPFlag=           0 FMFlag=      100000 FMFlg1=           0
         NFxFlg=           0 DoJE=T BraDBF=F KetDBF=T FulRan=T
         wScrn=  0.000000 ICntrl=       500 IOpCl=  0 I1Cent=   200000004 NGrid=           0
         NMat0=    1 NMatS0=      1 NMatT0=    0 NMatD0=    1 NMtDS0=    0 NMtDT0=    0
 Petite list used in FoFCou.
 Initial guess orbital symmetries:
       Occupied  (A') (A') (A') (A') (A') (A') (A') (A') (A') (A')
                 (A') (A') (A') (A') (A') (A') (A') (A') (A') (A')
                 (A') (A') (A') (A') (A') (A') (A') (A') (A') (A')
                 (A') (A') (A") (A') (A') (A') (A') (A') (A') (A")
                 (A") (A') (A') (A") (A") (A") (A")
       Virtual   (A") (A") (A") (A") (A") (A') (A') (A') (A') (A")
                 (A") (A') (A') (A') (A") (A') (A') (A') (A') (A")
                 (A') (A") (A') (A') (A') (A") (A') (A") (A') (A')
                 (A') (A') (A') (A") (A') (A') (A") (A') (A') (A")
                 (A') (A') (A') (A") (A') (A') (A') (A') (A') (A")
                 (A') (A') (A") (A") (A') (A') (A') (A") (A") (A')
                 (A') (A') (A') (A') (A') (A") (A') (A') (A') (A")
                 (A') (A') (A') (A') (A') (A') (A') (A') (A') (A')
                 (A') (A') (A') (A') (A') (A') (A') (A') (A') (A')
                 (A') (A') (A') (A') (A') (A') (A') (A") (A') (A")
                 (A') (A') (A") (A") (A') (A") (A') (A") (A') (A")
                 (A") (A') (A') (A') (A") (A') (A') (A") (A") (A')
                 (A") (A") (A') (A') (A') (A") (A') (A') (A') (A")
                 (A') (A') (A') (A') (A') (A') (A") (A') (A') (A')
                 (A') (A') (A') (A') (A') (A') (A') (A') (A') (A")
                 (A") (A') (A") (A") (A') (A') (A') (A") (A") (A')
                 (A") (A') (A") (A") (A") (A') (A') (A') (A') (A')
                 (A') (A") (A') (A") (A') (A') (A') (A') (A') (A")
                 (A') (A') (A') (A') (A") (A') (A") (A') (A") (A")
                 (A') (A") (A') (A") (A') (A') (A') (A") (A') (A')
                 (A") (A") (A") (A') (A') (A") (A') (A") (A') (A')
                 (A") (A") (A') (A") (A') (A") (A') (A') (A') (A")
                 (A') (A') (A') (A') (A") (A') (A') (A') (A") (A")
                 (A') (A') (A') (A") (A') (A') (A") (A') (A") (A')
                 (A") (A') (A') (A') (A') (A") (A') (A') (A') (A")
                 (A') (A') (A") (A') (A") (A') (A') (A") (A') (A')
                 (A') (A') (A") (A") (A') (A') (A') (A") (A") (A')
                 (A') (A') (A') (A') (A") (A') (A") (A') (A") (A')
                 (A") (A') (A") (A") (A") (A') (A') (A') (A') (A')
                 (A') (A') (A') (A') (A') (A') (A') (A') (A') (A')
                 (A') (A') (A') (A') (A") (A') (A') (A') (A') (A')
                 (A') (A') (A') (A') (A') (A') (A') (A') (A') (A')
                 (A') (A') (A') (A') (A') (A') (A') (A') (A') (A')
                 (A') (A')
 The electronic state of the initial guess is 1-A'.
 Requested convergence on RMS density matrix=1.00D-08 within 128 cycles.
 Requested convergence on MAX density matrix=1.00D-06.
 Requested convergence on             energy=1.00D-06.
 No special actions if energy rises.
 SCF Done:  E(RM062X) =  -539.759139712     A.U. after   15 cycles
            NFock= 15  Conv=0.68D-08     -V/T= 2.0042
 DoSCS=F DFT=T ScalE2(SS,OS)=  1.000000  1.000000
 ExpMin= 3.60D-02 ExpMax= 4.56D+03 ExpMxC= 6.82D+02 IAcc=3 IRadAn=         5 AccDes= 0.00D+00
 HarFok:  IExCor=  205 AccDes= 0.00D+00 IRadAn=         5 IDoV=-2 UseB2=F ITyADJ=14
 ICtDFT= 12500011 ScaDFX=  1.000000  1.000000  1.000000  1.000000
 Range of M.O.s used for correlation:    15   379
 NBasis=   385 NAE=    47 NBE=    47 NFC=    14 NFV=     0
 NROrb=    365 NOA=    33 NOB=    33 NVA=   332 NVB=   332

 **** Warning!!: The largest alpha MO coefficient is  0.14473139D+03

 Orbital symmetries:
       Occupied  (A') (A') (A') (A') (A') (A') (A') (A') (A') (A')
                 (A') (A') (A') (A') (A') (A') (A') (A') (A') (A')
                 (A') (A') (A') (A') (A') (A') (A') (A') (A') (A')
                 (A') (A') (A") (A') (A') (A') (A') (A") (A") (A')
                 (A') (A') (A') (A") (A") (A") (A")
       Virtual   (A") (A") (A") (A") (A') (A') (A') (A') (A") (A')
                 (A') (A") (A') (A') (A") (A') (A") (A') (A') (A')
                 (A") (A") (A') (A') (A') (A") (A') (A") (A') (A')
                 (A") (A') (A") (A') (A') (A') (A') (A') (A") (A')
                 (A") (A') (A') (A") (A") (A') (A") (A') (A") (A')
                 (A') (A') (A') (A') (A') (A") (A') (A') (A') (A')
                 (A') (A") (A') (A') (A') (A") (A') (A') (A') (A')
                 (A') (A') (A') (A') (A') (A') (A') (A') (A') (A')
                 (A') (A') (A') (A') (A') (A') (A') (A') (A') (A')
                 (A') (A') (A') (A') (A") (A') (A") (A") (A') (A")
                 (A') (A') (A') (A') (A") (A") (A') (A") (A") (A')
                 (A') (A') (A") (A') (A') (A") (A') (A") (A') (A")
                 (A") (A') (A") (A') (A') (A') (A") (A') (A') (A')
                 (A') (A') (A') (A') (A') (A') (A') (A') (A') (A')
                 (A') (A') (A') (A") (A') (A') (A') (A') (A') (A')
                 (A') (A') (A") (A') (A") (A') (A") (A") (A') (A")
                 (A") (A') (A') (A") (A") (A") (A') (A") (A') (A')
                 (A') (A') (A') (A") (A") (A') (A') (A') (A') (A")
                 (A') (A') (A') (A") (A") (A') (A') (A') (A") (A")
                 (A") (A') (A') (A") (A') (A") (A') (A') (A') (A')
                 (A") (A") (A") (A') (A") (A') (A') (A") (A') (A')
                 (A') (A") (A') (A") (A") (A') (A") (A') (A') (A")
                 (A') (A') (A') (A') (A") (A') (A') (A') (A") (A")
                 (A') (A') (A') (A") (A') (A') (A') (A") (A") (A')
                 (A") (A') (A') (A") (A') (A') (A') (A') (A') (A')
                 (A") (A') (A') (A') (A') (A") (A") (A") (A') (A')
                 (A') (A') (A') (A') (A') (A') (A") (A') (A') (A')
                 (A') (A") (A') (A") (A") (A") (A') (A") (A') (A")
                 (A') (A") (A") (A') (A") (A") (A') (A') (A') (A')
                 (A') (A') (A') (A') (A') (A') (A') (A') (A') (A')
                 (A') (A') (A') (A") (A') (A') (A') (A') (A') (A')
                 (A') (A') (A') (A') (A') (A') (A') (A') (A') (A')
                 (A') (A') (A') (A') (A') (A') (A') (A') (A') (A')
                 (A') (A')
     4 initial guesses have been made.
 Convergence on wavefunction:    0.001000000000000
 Iteration     1 Dimension     4 NMult     0 NNew      4
 CISAX will form     4 AO SS matrices at one time.
 Iteration     2 Dimension     6 NMult     4 NNew      2
 Iteration     3 Dimension     8 NMult     6 NNew      2
 Iteration     4 Dimension    10 NMult     8 NNew      2
 Iteration     5 Dimension    12 NMult    10 NNew      2
 Iteration     6 Dimension    14 NMult    12 NNew      2
 ***********************************************************************
 Excited states from <AA,BB:AA,BB> singles matrix:
 ***********************************************************************
 
 Ground to excited state transition densities written to RWF  633
 Ground to excited state transition electric dipole moments (Au):
       state          X           Y           Z        Dip. S.      Osc.
         1         0.5401      0.3098     -0.0000      0.3876      0.0265
 Ground to excited state transition velocity dipole moments (Au):
       state          X           Y           Z        Dip. S.      Osc.
         1        -0.0630     -0.0335      0.0000      0.0051      0.0331
 Ground to excited state transition magnetic dipole moments (Au):
       state          X           Y           Z
         1         0.0000     -0.0000      0.1120
 Ground to excited state transition velocity quadrupole moments (Au):
       state          XX          YY          ZZ          XY          XZ          YZ
         1         0.1283      0.1856     -0.0094     -0.1310     -0.0000      0.0000
 <0|del|b> * <b|rxdel|0> + <0|del|b> * <b|delr+rdel|0>
 Rotatory Strengths (R) in cgs (10**-40 erg-esu-cm/Gauss)
       state          XX          YY          ZZ    R(velocity)    E-M Angle
         1        -0.0000     -0.0000      0.0000      0.0000       90.00
 1/2[<0|r|b>*<b|rxdel|0> + (<0|rxdel|b>*<b|r|0>)*]
 Rotatory Strengths (R) in cgs (10**-40 erg-esu-cm/Gauss)
       state          XX          YY          ZZ     R(length)
         1        -0.0000      0.0000      0.0000     -0.0000
  1/2[<0|del|b>*<b|r|0> + (<0|r|b>*<b|del|0>)*] (Au)
       state          X           Y           Z        Dip. S.   Osc.(frdel)
         1        -0.0340     -0.0104     -0.0000      0.0444      0.0296

 Excitation energies and oscillator strengths:
 
 Excited State   1:      Singlet-A'     2.7921 eV  444.05 nm  f=0.0265  <S**2>=0.000
      47 -> 48         0.70395
 This state for optimization and/or second-order correction.
 Total Energy, E(TD-HF/TD-DFT) =  -539.656530923    
 Copying the excited state density for this state as the 1-particle RhoCI density.
 SavETr:  write IOETrn=   770 NScale= 10 NData=  16 NLR=1 NState=    1 LETran=      28.

 **********************************************************************

            Population analysis using the SCF Density.

 **********************************************************************

 Orbital symmetries:
       Occupied  (A') (A') (A') (A') (A') (A') (A') (A') (A') (A')
                 (A') (A') (A') (A') (A') (A') (A') (A') (A') (A')
                 (A') (A') (A') (A') (A') (A') (A') (A') (A') (A')
                 (A') (A') (A") (A') (A') (A') (A') (A") (A") (A')
                 (A') (A') (A') (A") (A") (A") (A")
       Virtual   (A") (A") (A") (A") (A') (A') (A') (A') (A") (A')
                 (A') (A") (A') (A') (A") (A') (A") (A') (A') (A')
                 (A") (A") (A') (A') (A') (A") (A') (A") (A') (A')
                 (A") (A') (A") (A') (A') (A') (A') (A') (A") (A')
                 (A") (A') (A') (A") (A") (A') (A") (A') (A") (A')
                 (A') (A') (A') (A') (A') (A") (A') (A') (A') (A')
                 (A') (A") (A') (A') (A') (A") (A') (A') (A') (A')
                 (A') (A') (A') (A') (A') (A') (A') (A') (A') (A')
                 (A') (A') (A') (A') (A') (A') (A') (A') (A') (A')
                 (A') (A') (A') (A') (A") (A') (A") (A") (A') (A")
                 (A') (A') (A') (A') (A") (A") (A') (A") (A") (A')
                 (A') (A') (A") (A') (A') (A") (A') (A") (A') (A")
                 (A") (A') (A") (A') (A') (A') (A") (A') (A') (A')
                 (A') (A') (A') (A') (A') (A') (A') (A') (A') (A')
                 (A') (A') (A') (A") (A') (A') (A') (A') (A') (A')
                 (A') (A') (A") (A') (A") (A') (A") (A") (A') (A")
                 (A") (A') (A') (A") (A") (A") (A') (A") (A') (A')
                 (A') (A') (A') (A") (A") (A') (A') (A') (A') (A")
                 (A') (A') (A') (A") (A") (A') (A') (A') (A") (A")
                 (A") (A') (A') (A") (A') (A") (A') (A') (A') (A')
                 (A") (A") (A") (A') (A") (A') (A') (A") (A') (A')
                 (A') (A") (A') (A") (A") (A') (A") (A') (A') (A")
                 (A') (A') (A') (A') (A") (A') (A') (A') (A") (A")
                 (A') (A') (A') (A") (A') (A') (A') (A") (A") (A')
                 (A") (A') (A') (A") (A') (A') (A') (A') (A') (A')
                 (A") (A') (A') (A') (A') (A") (A") (A") (A') (A')
                 (A') (A') (A') (A') (A') (A') (A") (A') (A') (A')
                 (A') (A") (A') (A") (A") (A") (A') (A") (A') (A")
                 (A') (A") (A") (A') (A") (A") (A') (A') (A') (A')
                 (A') (A') (A') (A') (A') (A') (A') (A') (A') (A')
                 (A') (A') (A') (A") (A') (A') (A') (A') (A') (A')
                 (A') (A') (A') (A') (A') (A') (A') (A') (A') (A')
                 (A') (A') (A') (A') (A') (A') (A') (A') (A') (A')
                 (A') (A')
 The electronic state is 1-A'.
 Alpha  occ. eigenvalues --  -10.77641 -10.73421 -10.72990 -10.72593 -10.72243
 Alpha  occ. eigenvalues --  -10.71567 -10.71402 -10.71155 -10.70962 -10.70630
 Alpha  occ. eigenvalues --  -10.70069 -10.69874 -10.69744 -10.69497  -1.16490
 Alpha  occ. eigenvalues --   -1.12488  -1.06943  -1.05802  -1.01310  -1.00260
 Alpha  occ. eigenvalues --   -0.95742  -0.91065  -0.86426  -0.85912  -0.83820
 Alpha  occ. eigenvalues --   -0.78395  -0.76076  -0.74413  -0.69587  -0.69266
 Alpha  occ. eigenvalues --   -0.68481  -0.68183  -0.68091  -0.64854  -0.64281
 Alpha  occ. eigenvalues --   -0.63044  -0.61830  -0.60096  -0.59568  -0.59098
 Alpha  occ. eigenvalues --   -0.56921  -0.55225  -0.54806  -0.52434  -0.46765
 Alpha  occ. eigenvalues --   -0.46075  -0.44349
 Alpha virt. eigenvalues --   -0.26078  -0.14672  -0.14093  -0.12769  -0.11182
 Alpha virt. eigenvalues --   -0.10091  -0.09234  -0.07979  -0.07957  -0.07478
 Alpha virt. eigenvalues --   -0.07209  -0.07146  -0.05642  -0.05582  -0.05338
 Alpha virt. eigenvalues --   -0.03831  -0.03651  -0.03279  -0.03130  -0.02162
 Alpha virt. eigenvalues --   -0.01367  -0.00935   0.00186   0.00593   0.00678
 Alpha virt. eigenvalues --    0.01060   0.01510   0.01934   0.02205   0.02284
 Alpha virt. eigenvalues --    0.02450   0.02673   0.02758   0.03258   0.03387
 Alpha virt. eigenvalues --    0.04235   0.04508   0.04697   0.05029   0.05368
 Alpha virt. eigenvalues --    0.06028   0.06300   0.06596   0.07056   0.07252
 Alpha virt. eigenvalues --    0.07896   0.08154   0.08368   0.08569   0.08925
 Alpha virt. eigenvalues --    0.09534   0.09574   0.10038   0.10879   0.11049
 Alpha virt. eigenvalues --    0.11113   0.12173   0.12252   0.12873   0.13015
 Alpha virt. eigenvalues --    0.13425   0.13522   0.14022   0.14367   0.16151
 Alpha virt. eigenvalues --    0.16314   0.16403   0.17345   0.17605   0.17795
 Alpha virt. eigenvalues --    0.18132   0.19048   0.19268   0.19644   0.19782
 Alpha virt. eigenvalues --    0.21561   0.21629   0.22725   0.23126   0.23573
 Alpha virt. eigenvalues --    0.23780   0.24542   0.25275   0.26927   0.27617
 Alpha virt. eigenvalues --    0.28867   0.29301   0.29900   0.31375   0.35852
 Alpha virt. eigenvalues --    0.36462   0.38185   0.39282   0.41149   0.41383
 Alpha virt. eigenvalues --    0.41998   0.42163   0.42982   0.43715   0.44314
 Alpha virt. eigenvalues --    0.44892   0.45074   0.46034   0.46250   0.47901
 Alpha virt. eigenvalues --    0.48511   0.48879   0.49015   0.50450   0.51234
 Alpha virt. eigenvalues --    0.51515   0.51850   0.52118   0.52910   0.54007
 Alpha virt. eigenvalues --    0.54092   0.54674   0.55673   0.55796   0.57391
 Alpha virt. eigenvalues --    0.58240   0.58843   0.61464   0.62175   0.62367
 Alpha virt. eigenvalues --    0.63218   0.63493   0.65021   0.65165   0.67379
 Alpha virt. eigenvalues --    0.70381   0.70542   0.71080   0.72445   0.72890
 Alpha virt. eigenvalues --    0.75722   0.76039   0.76333   0.76870   0.77110
 Alpha virt. eigenvalues --    0.77858   0.77934   0.78274   0.79871   0.80404
 Alpha virt. eigenvalues --    0.81272   0.81605   0.82188   0.83019   0.85225
 Alpha virt. eigenvalues --    0.87165   0.88220   0.88549   0.89146   0.90472
 Alpha virt. eigenvalues --    0.91135   0.91277   0.93212   0.94642   0.96420
 Alpha virt. eigenvalues --    0.96711   1.00348   1.01307   1.01651   1.02740
 Alpha virt. eigenvalues --    1.03216   1.03645   1.04764   1.05634   1.08813
 Alpha virt. eigenvalues --    1.19579   1.23199   1.24110   1.25112   1.28297
 Alpha virt. eigenvalues --    1.29580   1.31899   1.34246   1.35791   1.36005
 Alpha virt. eigenvalues --    1.39384   1.40088   1.40958   1.42952   1.43525
 Alpha virt. eigenvalues --    1.43528   1.44721   1.45944   1.46385   1.46673
 Alpha virt. eigenvalues --    1.47651   1.48074   1.51797   1.53640   1.55802
 Alpha virt. eigenvalues --    1.55966   1.56347   1.56565   1.57819   1.61497
 Alpha virt. eigenvalues --    1.63189   1.63392   1.63876   1.66139   1.68346
 Alpha virt. eigenvalues --    1.68372   1.68669   1.69730   1.74442   1.76017
 Alpha virt. eigenvalues --    1.77221   1.78054   1.80103   1.80151   1.80769
 Alpha virt. eigenvalues --    1.83119   1.83200   1.83660   1.83832   1.84142
 Alpha virt. eigenvalues --    1.84344   1.85737   1.86195   1.88264   1.91411
 Alpha virt. eigenvalues --    1.92119   1.94141   1.95258   1.97723   1.98182
 Alpha virt. eigenvalues --    1.99789   2.02618   2.04488   2.07272   2.11819
 Alpha virt. eigenvalues --    2.12117   2.14144   2.15225   2.19167   2.21340
 Alpha virt. eigenvalues --    2.22790   2.28522   2.30358   2.34687   2.34958
 Alpha virt. eigenvalues --    2.36249   2.38672   2.39614   2.42396   2.44402
 Alpha virt. eigenvalues --    2.46185   2.46753   2.49370   2.52952   2.53824
 Alpha virt. eigenvalues --    2.54383   2.56701   2.57865   2.58320   2.59607
 Alpha virt. eigenvalues --    2.59861   2.61616   2.62164   2.63570   2.63830
 Alpha virt. eigenvalues --    2.64800   2.65138   2.65173   2.65429   2.68081
 Alpha virt. eigenvalues --    2.68607   2.70972   2.71430   2.73360   2.74831
 Alpha virt. eigenvalues --    2.76299   2.78905   2.79741   2.83052   2.83107
 Alpha virt. eigenvalues --    2.84913   2.86357   2.92144   2.96992   2.99515
 Alpha virt. eigenvalues --    3.00110   3.05366   3.10870   3.11517   3.13414
 Alpha virt. eigenvalues --    3.21099   3.23815   3.26810   3.28443   3.30701
 Alpha virt. eigenvalues --    3.32813   3.33888   3.43498   3.45975   3.46815
 Alpha virt. eigenvalues --    3.48646   3.50248   3.56602   3.65261   3.67058
 Alpha virt. eigenvalues --    3.67558   3.94133   3.94401   3.95258   3.96296
 Alpha virt. eigenvalues --    4.04019   4.06871   4.07626   4.12535   4.35685
 Alpha virt. eigenvalues --    4.61681   4.69805   4.71606  23.45314  23.60540
 Alpha virt. eigenvalues --   23.81952  23.85135  23.87489  23.89245  23.90765
 Alpha virt. eigenvalues --   23.93374  23.97088  23.98522  24.00848  24.02136
 Alpha virt. eigenvalues --   24.10687  24.11130
          Condensed to atoms (all electrons):
               1          2          3          4          5          6
     1  C    8.662127   0.275197  -0.506422   2.008017  -0.027448  -0.099319
     2  C    0.275197   7.090484   0.330787  -1.076964  -0.014487  -0.014414
     3  C   -0.506422   0.330787   6.582098   0.770504  -0.126592   0.016915
     4  C    2.008017  -1.076964   0.770504  10.712692  -0.318974  -0.115985
     5  C   -0.027448  -0.014487  -0.126592  -0.318974  11.036014   0.726748
     6  C   -0.099319  -0.014414   0.016915  -0.115985   0.726748   6.591895
     7  C   -0.017155   0.002979  -0.015347  -0.035510  -0.991466   0.401010
     8  C    0.406399  -0.030105  -0.090034   0.003373   1.784405  -0.610001
     9  C   -1.228159  -0.765430   0.286674  -0.348680  -0.161200   0.288036
    10  C   -1.289856   0.277829  -0.393810  -2.477670  -2.641090  -0.321294
    11  C    0.258957  -0.977145   1.068557  -0.248761  -1.536145  -0.201224
    12  C   -2.076863   1.449832  -1.409551  -1.497532  -0.379354  -0.166697
    13  C    0.180781  -0.259805  -0.152763  -1.464265  -0.235323   0.969938
    14  C   -1.044250  -0.159159  -0.235073  -0.271245  -1.488783  -1.343078
    15  H    0.365932  -0.104087  -0.000938   0.027653   0.005573   0.001043
    16  H   -0.018785   0.375971  -0.013895   0.012181  -0.001486  -0.000316
    17  H   -0.025982  -0.013738   0.371733  -0.066165   0.000396   0.000389
    18  H    0.050363   0.002726  -0.084971   0.452342   0.007250  -0.005048
    19  H   -0.047929  -0.007320   0.050826  -0.066739  -0.074640   0.050634
    20  H    0.007472   0.001977  -0.004932   0.007350   0.457020  -0.084900
    21  H   -0.001361  -0.000388   0.000400   0.000224  -0.067461   0.377075
    22  H    0.000830   0.000376  -0.000340  -0.001617   0.015241  -0.018079
    23  H    0.005539  -0.002821   0.001157   0.006273   0.025539  -0.002700
    24  H    0.029668   0.013662  -0.001583  -0.012738  -0.011963  -0.001375
    25  H    0.029668   0.013662  -0.001583  -0.012738  -0.011963  -0.001375
               7          8          9         10         11         12
     1  C   -0.017155   0.406399  -1.228159  -1.289856   0.258957  -2.076863
     2  C    0.002979  -0.030105  -0.765430   0.277829  -0.977145   1.449832
     3  C   -0.015347  -0.090034   0.286674  -0.393810   1.068557  -1.409551
     4  C   -0.035510   0.003373  -0.348680  -2.477670  -0.248761  -1.497532
     5  C   -0.991466   1.784405  -0.161200  -2.641090  -1.536145  -0.379354
     6  C    0.401010  -0.610001   0.288036  -0.321294  -0.201224  -0.166697
     7  C    7.095372   0.482309  -0.800990   0.197460  -0.224676  -0.247207
     8  C    0.482309   8.444964  -1.243990  -1.205022   0.159876  -1.099028
     9  C   -0.800990  -1.243990   9.650909   0.252151   1.687578  -1.907057
    10  C    0.197460  -1.205022   0.252151   9.235441  -0.571529   2.451899
    11  C   -0.224676   0.159876   1.687578  -0.571529  14.587016  -3.670639
    12  C   -0.247207  -1.099028  -1.907057   2.451899  -3.670639  15.993033
    13  C   -0.891633   0.265273   1.755353  -0.491813   1.085133  -4.866525
    14  C    1.168007  -1.759792  -2.064720   2.410974  -4.828032   2.982628
    15  H   -0.002594   0.006295   0.093585  -0.010365  -0.031038  -0.029204
    16  H    0.000342   0.000556   0.004648  -0.009297   0.029055  -0.035795
    17  H   -0.000407  -0.001291  -0.006282   0.020892  -0.028814   0.093587
    18  H    0.001962   0.007366  -0.026043   0.016944  -0.007828  -0.055909
    19  H   -0.007729  -0.045516   0.076221   0.422275   0.079650  -0.056482
    20  H    0.003158   0.047582  -0.024618   0.014171  -0.011886  -0.015494
    21  H   -0.019601  -0.020749  -0.005529   0.020466  -0.006350   0.005219
    22  H    0.379582  -0.019994   0.003815  -0.010250   0.003285  -0.009686
    23  H   -0.103151   0.364791   0.090106  -0.008839  -0.000620   0.007134
    24  H    0.014930   0.034063   0.357710   0.005601   0.008410  -0.060002
    25  H    0.014930   0.034063   0.357710   0.005601   0.008410  -0.060002
              13         14         15         16         17         18
     1  C    0.180781  -1.044250   0.365932  -0.018785  -0.025982   0.050363
     2  C   -0.259805  -0.159159  -0.104087   0.375971  -0.013738   0.002726
     3  C   -0.152763  -0.235073  -0.000938  -0.013895   0.371733  -0.084971
     4  C   -1.464265  -0.271245   0.027653   0.012181  -0.066165   0.452342
     5  C   -0.235323  -1.488783   0.005573  -0.001486   0.000396   0.007250
     6  C    0.969938  -1.343078   0.001043  -0.000316   0.000389  -0.005048
     7  C   -0.891633   1.168007  -0.002594   0.000342  -0.000407   0.001962
     8  C    0.265273  -1.759792   0.006295   0.000556  -0.001291   0.007366
     9  C    1.755353  -2.064720   0.093585   0.004648  -0.006282  -0.026043
    10  C   -0.491813   2.410974  -0.010365  -0.009297   0.020892   0.016944
    11  C    1.085133  -4.828032  -0.031038   0.029055  -0.028814  -0.007828
    12  C   -4.866525   2.982628  -0.029204  -0.035795   0.093587  -0.055909
    13  C   14.648549  -3.958222   0.003683   0.002951  -0.006366  -0.011817
    14  C   -3.958222  16.121278   0.006171  -0.008576   0.005350  -0.010100
    15  H    0.003683   0.006171   0.440753  -0.008936   0.001369   0.000160
    16  H    0.002951  -0.008576  -0.008936   0.420532  -0.006399   0.001892
    17  H   -0.006366   0.005350   0.001369  -0.006399   0.423482  -0.010247
    18  H   -0.011817  -0.010100   0.000160   0.001892  -0.010247   0.455297
    19  H    0.076623  -0.074063   0.000252  -0.000504   0.001276  -0.006338
    20  H   -0.010445  -0.048263  -0.000106   0.000013  -0.000132   0.001285
    21  H   -0.027511   0.088205   0.000012  -0.000007   0.000010  -0.000152
    22  H    0.028504  -0.034353  -0.000128   0.000007  -0.000007   0.000016
    23  H   -0.029200  -0.019400   0.000602  -0.000125   0.000014  -0.000116
    24  H    0.018192  -0.059426  -0.000880   0.000630  -0.000145   0.000192
    25  H    0.018192  -0.059426  -0.000880   0.000630  -0.000145   0.000192
              19         20         21         22         23         24
     1  C   -0.047929   0.007472  -0.001361   0.000830   0.005539   0.029668
     2  C   -0.007320   0.001977  -0.000388   0.000376  -0.002821   0.013662
     3  C    0.050826  -0.004932   0.000400  -0.000340   0.001157  -0.001583
     4  C   -0.066739   0.007350   0.000224  -0.001617   0.006273  -0.012738
     5  C   -0.074640   0.457020  -0.067461   0.015241   0.025539  -0.011963
     6  C    0.050634  -0.084900   0.377075  -0.018079  -0.002700  -0.001375
     7  C   -0.007729   0.003158  -0.019601   0.379582  -0.103151   0.014930
     8  C   -0.045516   0.047582  -0.020749  -0.019994   0.364791   0.034063
     9  C    0.076221  -0.024618  -0.005529   0.003815   0.090106   0.357710
    10  C    0.422275   0.014171   0.020466  -0.010250  -0.008839   0.005601
    11  C    0.079650  -0.011886  -0.006350   0.003285  -0.000620   0.008410
    12  C   -0.056482  -0.015494   0.005219  -0.009686   0.007134  -0.060002
    13  C    0.076623  -0.010445  -0.027511   0.028504  -0.029200   0.018192
    14  C   -0.074063  -0.048263   0.088205  -0.034353  -0.019400  -0.059426
    15  H    0.000252  -0.000106   0.000012  -0.000128   0.000602  -0.000880
    16  H   -0.000504   0.000013  -0.000007   0.000007  -0.000125   0.000630
    17  H    0.001276  -0.000132   0.000010  -0.000007   0.000014  -0.000145
    18  H   -0.006338   0.001285  -0.000152   0.000016  -0.000116   0.000192
    19  H    0.442748  -0.005894   0.001526  -0.000557   0.000337   0.000620
    20  H   -0.005894   0.450801  -0.010073   0.001928   0.000234   0.000157
    21  H    0.001526  -0.010073   0.421306  -0.006850   0.001547  -0.000138
    22  H   -0.000557   0.001928  -0.006850   0.417850  -0.008918   0.000626
    23  H    0.000337   0.000234   0.001547  -0.008918   0.436409  -0.000899
    24  H    0.000620   0.000157  -0.000138   0.000626  -0.000899   0.494630
    25  H    0.000620   0.000157  -0.000138   0.000626  -0.000899  -0.080607
              25
     1  C    0.029668
     2  C    0.013662
     3  C   -0.001583
     4  C   -0.012738
     5  C   -0.011963
     6  C   -0.001375
     7  C    0.014930
     8  C    0.034063
     9  C    0.357710
    10  C    0.005601
    11  C    0.008410
    12  C   -0.060002
    13  C    0.018192
    14  C   -0.059426
    15  H   -0.000880
    16  H    0.000630
    17  H   -0.000145
    18  H    0.000192
    19  H    0.000620
    20  H    0.000157
    21  H   -0.000138
    22  H    0.000626
    23  H   -0.000899
    24  H   -0.080607
    25  H    0.494630
 Mulliken charges:
               1
     1  C    0.102579
     2  C   -0.409619
     3  C   -0.441816
     4  C    0.014972
     5  C    0.030191
     6  C   -0.437875
     7  C   -0.404575
     8  C    0.084208
     9  C   -0.321800
    10  C    0.099131
    11  C   -0.631240
    12  C    0.659697
    13  C   -0.647483
    14  C    0.683349
    15  H    0.236072
    16  H    0.254713
    17  H    0.247620
    18  H    0.220581
    19  H    0.190106
    20  H    0.223437
    21  H    0.250317
    22  H    0.258093
    23  H    0.238008
    24  H    0.250666
    25  H    0.250666
 Sum of Mulliken charges =   1.00000
 Mulliken charges with hydrogens summed into heavy atoms:
               1
     1  C    0.338651
     2  C   -0.154906
     3  C   -0.194195
     4  C    0.235554
     5  C    0.253628
     6  C   -0.187559
     7  C   -0.146482
     8  C    0.322217
     9  C    0.179532
    10  C    0.289237
    11  C   -0.631240
    12  C    0.659697
    13  C   -0.647483
    14  C    0.683349
 Electronic spatial extent (au):  <R**2>=           2854.2660
 Charge=              1.0000 electrons
 Dipole moment (field-independent basis, Debye):
    X=              0.0382    Y=             -0.4554    Z=              0.0000  Tot=              0.4570
 Quadrupole moment (field-independent basis, Debye-Ang):
   XX=            -50.8630   YY=            -36.5227   ZZ=            -84.1390
   XY=            -10.3200   XZ=              0.0000   YZ=              0.0000
 Traceless Quadrupole moment (field-independent basis, Debye-Ang):
   XX=              6.3119   YY=             20.6522   ZZ=            -26.9641
   XY=            -10.3200   XZ=              0.0000   YZ=              0.0000
 Octapole moment (field-independent basis, Debye-Ang**2):
  XXX=              1.1069  YYY=              1.5547  ZZZ=              0.0000  XYY=              1.4573
  XXY=             -6.3124  XXZ=              0.0000  XZZ=              2.9926  YZZ=              0.9055
  YYZ=              0.0000  XYZ=              0.0000
 Hexadecapole moment (field-independent basis, Debye-Ang**3):
 XXXX=           -993.5649 YYYY=          -1843.8806 ZZZZ=            -99.3128 XXXY=            349.3819
 XXXZ=              0.0000 YYYX=            276.3618 YYYZ=              0.0000 ZZZX=             -0.0000
 ZZZY=              0.0000 XXYY=           -453.8386 XXZZ=           -242.9694 YYZZ=           -493.0479
 XXYZ=              0.0000 YYXZ=              0.0000 ZZXY=            183.8767
 N-N= 7.814529006005D+02 E-N=-2.799258340364D+03  KE= 5.375228886368D+02
 Symmetry A'   KE= 5.228746597557D+02
 Symmetry A"   KE= 1.464822888110D+01
 Unable to Open any file for archive entry.
 1\1\GINC-GADI-CPU-CLX-1762\SP\RM062X TD-FC\6-311++G(d,p)\C14H11(1+)\TS
 1578\02-Aug-2022\0\\#n M062X/6-311++G(d,p) TD(NStates=1) EmpiricalDisp
 ersion=GD3 SP\\SP_-100\\1,1\C,0,2.500555,1.360731,0.\C,0,3.712658,0.67
 7714,0.\C,0,3.686561,-0.70328,0.\C,0,2.451331,-1.400463,0.\C,0,-2.4747
 31,-1.414113,0.\C,0,-3.679661,-0.72188,0.\C,0,-3.687983,0.667139,0.\C,
 0,-2.480005,1.361631,0.\C,0,0.006625,1.447869,0.\C,0,-0.0183,-1.428939
 ,0.\C,0,1.25913,0.671265,0.\C,0,1.230471,-0.730279,0.\C,0,-1.264605,0.
 68274,0.\C,0,-1.245471,-0.732079,0.\H,0,2.488471,2.444122,0.\H,0,4.647
 803,1.216939,0.\H,0,4.606712,-1.271124,0.\H,0,2.46245,-2.483234,0.\H,0
 ,-0.016875,-2.510141,0.\H,0,-2.4734,-2.496509,0.\H,0,-4.611062,-1.2704
 49,0.\H,0,-4.622828,1.208314,0.\H,0,-2.482171,2.444797,0.\H,0,0.024,2.
 144537,-0.85821\H,0,0.024,2.144537,0.85821\\Version=ES64L-G16RevC.01\S
 tate=1-A'\HF=-539.7591397\RMSD=6.752e-09\PG=CS [SG(C14H9),X(H2)]\\@
 The archive entry for this job was punched.


 EDUCATION IS NOT TRAINING BUT RATHER THE PROCESS THAT EQUIPS YOU TO
 ENTERTAIN YOURSELF, A FRIEND, OR AN IDEA.  -- WALLACE STERLING
 Job cpu time:       0 days  0 hours 52 minutes 12.0 seconds.
 Elapsed time:       0 days  0 hours  1 minutes  5.4 seconds.
 File lengths (MBytes):  RWF=    460 Int=      0 D2E=      0 Chk=     15 Scr=      1
 Normal termination of Gaussian 16 at Tue Aug  2 11:08:00 2022.
