 Entering Gaussian System, Link 0=g16
 Initial command:
 /apps/gaussian/g16c01/g16/l1.exe "/jobfs/53796104.gadi-pbs/Gau-3584255.inp" -scrdir="/jobfs/53796104.gadi-pbs/"
 Entering Link 1 = /apps/gaussian/g16c01/g16/l1.exe PID=   3584256.
  
 Copyright (c) 1988-2019, Gaussian, Inc.  All Rights Reserved.
  
 This is part of the Gaussian(R) 16 program.  It is based on
 the Gaussian(R) 09 system (copyright 2009, Gaussian, Inc.),
 the Gaussian(R) 03 system (copyright 2003, Gaussian, Inc.),
 the Gaussian(R) 98 system (copyright 1998, Gaussian, Inc.),
 the Gaussian(R) 94 system (copyright 1995, Gaussian, Inc.),
 the Gaussian 92(TM) system (copyright 1992, Gaussian, Inc.),
 the Gaussian 90(TM) system (copyright 1990, Gaussian, Inc.),
 the Gaussian 88(TM) system (copyright 1988, Gaussian, Inc.),
 the Gaussian 86(TM) system (copyright 1986, Carnegie Mellon
 University), and the Gaussian 82(TM) system (copyright 1983,
 Carnegie Mellon University). Gaussian is a federally registered
 trademark of Gaussian, Inc.
  
 This software contains proprietary and confidential information,
 including trade secrets, belonging to Gaussian, Inc.
  
 This software is provided under written license and may be
 used, copied, transmitted, or stored only in accord with that
 written license.
  
 The following legend is applicable only to US Government
 contracts under FAR:
  
                    RESTRICTED RIGHTS LEGEND
  
 Use, reproduction and disclosure by the US Government is
 subject to restrictions as set forth in subparagraphs (a)
 and (c) of the Commercial Computer Software - Restricted
 Rights clause in FAR 52.227-19.
  
 Gaussian, Inc.
 340 Quinnipiac St., Bldg. 40, Wallingford CT 06492
  
  
 ---------------------------------------------------------------
 Warning -- This program may not be used in any manner that
 competes with the business of Gaussian, Inc. or will provide
 assistance to any competitor of Gaussian, Inc.  The licensee
 of this program is prohibited from giving any competitor of
 Gaussian, Inc. access to this program.  By using this program,
 the user acknowledges that Gaussian, Inc. is engaged in the
 business of creating and licensing software in the field of
 computational chemistry and represents and warrants to the
 licensee that it is not a competitor of Gaussian, Inc. and that
 it will not use this program in any manner prohibited above.
 ---------------------------------------------------------------
  

 Cite this work as:
 Gaussian 16, Revision C.01,
 M. J. Frisch, G. W. Trucks, H. B. Schlegel, G. E. Scuseria, 
 M. A. Robb, J. R. Cheeseman, G. Scalmani, V. Barone, 
 G. A. Petersson, H. Nakatsuji, X. Li, M. Caricato, A. V. Marenich, 
 J. Bloino, B. G. Janesko, R. Gomperts, B. Mennucci, H. P. Hratchian, 
 J. V. Ortiz, A. F. Izmaylov, J. L. Sonnenberg, D. Williams-Young, 
 F. Ding, F. Lipparini, F. Egidi, J. Goings, B. Peng, A. Petrone, 
 T. Henderson, D. Ranasinghe, V. G. Zakrzewski, J. Gao, N. Rega, 
 G. Zheng, W. Liang, M. Hada, M. Ehara, K. Toyota, R. Fukuda, 
 J. Hasegawa, M. Ishida, T. Nakajima, Y. Honda, O. Kitao, H. Nakai, 
 T. Vreven, K. Throssell, J. A. Montgomery, Jr., J. E. Peralta, 
 F. Ogliaro, M. J. Bearpark, J. J. Heyd, E. N. Brothers, K. N. Kudin, 
 V. N. Staroverov, T. A. Keith, R. Kobayashi, J. Normand, 
 K. Raghavachari, A. P. Rendell, J. C. Burant, S. S. Iyengar, 
 J. Tomasi, M. Cossi, J. M. Millam, M. Klene, C. Adamo, R. Cammi, 
 J. W. Ochterski, R. L. Martin, K. Morokuma, O. Farkas, 
 J. B. Foresman, and D. J. Fox, Gaussian, Inc., Wallingford CT, 2019.
 
 ******************************************
 Gaussian 16:  ES64L-G16RevC.01  3-Jul-2019
                 2-Aug-2022 
 ******************************************
 %NProcShared=48
 Will use up to   48 processors via shared memory.
 %mem = 190GB
 ---------------------------------------------------------------
 #n M062X/6-311++G(d,p) TD(NStates=1) EmpiricalDispersion=GD3 SP
 ---------------------------------------------------------------
 1/38=1,172=1/1;
 2/12=2,17=6,18=5,40=1/2;
 3/5=4,6=6,7=1111,11=9,25=1,30=1,74=-55,124=31/1,2,3,8;
 4//1;
 5/5=2,38=5/2;
 8/6=1,10=2,108=1/1;
 9/41=1,42=1,70=2/14;
 6/7=2,8=2,9=2,10=2/1;
 99/5=1,9=1/99;
 -------
 SP_-150
 -------
 Symbolic Z-matrix:
 Charge =  1 Multiplicity = 1
 C                     2.50646   1.36073   0. 
 C                     3.72041   0.68141   0. 
 C                     3.68856  -0.69658   0. 
 C                     2.44348  -1.39581   0. 
 C                    -2.48248  -1.41856   0. 
 C                    -3.67706  -0.72758   0. 
 C                    -3.67928   0.66379   0. 
 C                    -2.47221   1.36223   0. 
 C                     0.01103   1.44567   0. 
 C                    -0.0305   -1.42884   0. 
 C                     1.25723   0.66742   0. 
 C                     1.22567  -0.72983   0. 
 C                    -1.26636   0.68654   0. 
 C                    -1.25067  -0.73283   0. 
 H                     2.48947   2.44422   0. 
 H                     4.65555   1.22019   0. 
 H                     4.60511  -1.27072   0. 
 H                     2.45895  -2.47873   0. 
 H                    -0.02813  -2.51009   0. 
 H                    -2.4772   -2.50086   0. 
 H                    -4.61236  -1.2696    0. 
 H                    -4.61393   1.20581   0. 
 H                    -2.47897   2.44535   0. 
 H                     0.04      2.14404  -0.85766 
 H                     0.04      2.14404   0.85766 
 
                          Input orientation:                          
 ---------------------------------------------------------------------
 Center     Atomic      Atomic             Coordinates (Angstroms)
 Number     Number       Type             X           Y           Z
 ---------------------------------------------------------------------
      1          6           0        2.506455    1.360731    0.000000
      2          6           0        3.720408    0.681414    0.000000
      3          6           0        3.688561   -0.696580    0.000000
      4          6           0        2.443481   -1.395813    0.000000
      5          6           0       -2.482481   -1.418563    0.000000
      6          6           0       -3.677061   -0.727580    0.000000
      7          6           0       -3.679283    0.663789    0.000000
      8          6           0       -2.472205    1.362231    0.000000
      9          6           0        0.011025    1.445669    0.000000
     10          6           0       -0.030500   -1.428839    0.000000
     11          6           0        1.257230    0.667415    0.000000
     12          6           0        1.225671   -0.729829    0.000000
     13          6           0       -1.266355    0.686540    0.000000
     14          6           0       -1.250671   -0.732829    0.000000
     15          1           0        2.489471    2.444222    0.000000
     16          1           0        4.655553    1.220189    0.000000
     17          1           0        4.605112   -1.270724    0.000000
     18          1           0        2.458950   -2.478734    0.000000
     19          1           0       -0.028125   -2.510091    0.000000
     20          1           0       -2.477200   -2.500859    0.000000
     21          1           0       -4.612362   -1.269599    0.000000
     22          1           0       -4.613928    1.205814    0.000000
     23          1           0       -2.478971    2.445347    0.000000
     24          1           0        0.040000    2.144037   -0.857660
     25          1           0        0.040000    2.144037    0.857660
 ---------------------------------------------------------------------
                    Distance matrix (angstroms):
                    1          2          3          4          5
     1  C    0.000000
     2  C    1.391098   0.000000
     3  C    2.372742   1.378362   0.000000
     4  C    2.757263   2.438322   1.427988   0.000000
     5  C    5.710863   6.548720   6.213133   4.926015   0.000000
     6  C    6.526631   7.530459   7.365687   6.156912   1.380029
     7  C    6.224876   7.399712   7.492378   6.459892   2.401775
     8  C    4.978660   6.229925   6.495671   5.636557   2.780813
     9  C    2.496875   3.787296   4.255996   3.740436   3.797551
    10  C    3.770655   4.303775   3.790464   2.474201   2.452003
    11  C    1.428723   2.463218   2.787804   2.379937   4.282142
    12  C    2.451703   2.866238   2.463114   1.388019   3.771571
    13  C    3.832575   4.986766   5.144338   4.254301   2.431136
    14  C    4.301045   5.168337   4.939365   3.753173   1.409818
    15  H    1.083624   2.150046   3.361912   3.840310   6.296143
    16  H    2.153689   1.079247   2.146876   3.425891   7.610160
    17  H    3.365846   2.143255   1.081530   2.165247   7.089135
    18  H    3.839759   3.402618   2.165183   1.083031   5.053880
    19  H    4.626809   4.923129   4.135526   2.711172   2.686130
    20  H    6.304657   6.966865   6.424331   5.043236   1.082309
    21  H    7.589215   8.558125   8.320677   7.056972   2.135084
    22  H    7.122068   8.350817   8.517654   7.521668   3.380891
    23  H    5.102045   6.445445   6.921716   6.243800   3.863912
    24  H    2.726270   4.052191   4.702838   4.363810   4.448664
    25  H    2.726270   4.052191   4.702838   4.363810   4.448664
                    6          7          8          9         10
     6  C    0.000000
     7  C    1.391371   0.000000
     8  C    2.412258   1.394582   0.000000
     9  C    4.280770   3.772229   2.484631   0.000000
    10  C    3.713377   4.206270   3.708368   2.874808   0.000000
    11  C    5.127693   4.936514   3.793607   1.469254   2.460189
    12  C    4.902733   5.099093   4.248647   2.491617   1.437561
    13  C    2.794859   2.413035   1.382256   1.485926   2.449932
    14  C    2.426396   2.801553   2.425164   2.517485   1.404723
    15  H    6.934439   6.420550   5.078281   2.672041   4.620699
    16  H    8.557234   8.353387   7.129173   4.649998   5.382977
    17  H    8.299964   8.507264   7.551216   5.337080   4.638308
    18  H    6.381001   6.895894   6.250544   4.625287   2.701785
    19  H    4.061044   4.837817   4.579127   3.955954   1.081255
    20  H    2.141071   3.385262   3.863093   4.665442   2.671248
    21  H    1.081005   2.146771   3.392168   5.361752   4.584628
    22  H    2.148426   1.080441   2.147427   4.631168   5.286701
    23  H    3.391590   2.148185   1.083137   2.683177   4.583048
    24  H    4.774757   4.093871   2.767305   1.106408   3.675050
    25  H    4.774757   4.093871   2.767305   1.106408   3.675050
                   11         12         13         14         15
    11  C    0.000000
    12  C    1.397600   0.000000
    13  C    2.523657   2.866408   0.000000
    14  C    2.872325   2.476344   1.419456   0.000000
    15  H    2.162281   3.416400   4.146767   4.907374   0.000000
    16  H    3.442987   3.945461   5.945904   6.220752   2.488005
    17  H    3.868423   3.422454   6.189104   5.880436   4.275133
    18  H    3.367846   2.140011   4.888441   4.099936   4.923051
    19  H    3.427635   2.177461   3.428070   2.157146   5.557293
    20  H    4.897339   4.104607   3.409642   2.151814   7.008684
    21  H    6.180949   5.862933   3.875854   3.404275   8.014268
    22  H    5.895793   6.152043   3.387608   3.881988   7.210543
    23  H    4.137661   4.879151   2.136314   3.407275   4.968442
    24  H    2.097056   3.224981   2.136923   3.267686   2.612585
    25  H    2.097056   3.224981   2.136923   3.267686   2.612585
                   16         17         18         19         20
    16  H    0.000000
    17  H    2.491424   0.000000
    18  H    4.301987   2.462783   0.000000
    19  H    5.987640   4.796135   2.487273   0.000000
    20  H    8.045021   7.188350   4.936200   2.449092   0.000000
    21  H    9.596525   9.217474   7.173943   4.749110   2.464735
    22  H    9.269492   9.545886   7.975055   5.902333   4.278438
    23  H    7.238953   7.999588   6.973495   5.528382   4.946206
    24  H    4.784601   5.765104   5.287430   4.732983   5.352283
    25  H    4.784601   5.765104   5.287430   4.732983   5.352283
                   21         22         23         24         25
    21  H    0.000000
    22  H    2.475413   0.000000
    23  H    4.283945   2.468701   0.000000
    24  H    5.833778   4.824406   2.677981   0.000000
    25  H    5.833778   4.824406   2.677981   1.715320   0.000000
 Stoichiometry    C14H11(1+)
 Framework group  CS[SG(C14H9),X(H2)]
 Deg. of freedom    46
 Full point group                 CS      NOp   2
 Largest Abelian subgroup         CS      NOp   2
 Largest concise Abelian subgroup CS      NOp   2
                         Standard orientation:                         
 ---------------------------------------------------------------------
 Center     Atomic      Atomic             Coordinates (Angstroms)
 Number     Number       Type             X           Y           Z
 ---------------------------------------------------------------------
      1          6           0        0.026414    2.851469    0.000000
      2          6           0       -1.142921    3.605001    0.000000
      3          6           0       -2.345009    2.930565    0.000000
      4          6           0       -2.378593    1.502972    0.000000
      5          6           0       -0.088302   -2.858242    0.000000
      6          6           0        1.082249   -3.589193    0.000000
      7          6           0        2.312130   -2.938573    0.000000
      8          6           0        2.362839   -1.544914    0.000000
      9          6           0        1.271841    0.687376    0.000000
     10          6           0       -1.247410   -0.697505    0.000000
     11          6           0        0.000000    1.422990    0.000000
     12          6           0       -1.219225    0.739779    0.000000
     13          6           0        1.200507   -0.796837    0.000000
     14          6           0       -0.060416   -1.448700    0.000000
     15          1           0        0.991304    3.344650    0.000000
     16          1           0       -1.105685    4.683606    0.000000
     17          1           0       -3.281968    3.470764    0.000000
     18          1           0       -3.342269    1.008720    0.000000
     19          1           0       -2.203471   -1.202538    0.000000
     20          1           0       -1.046648   -3.361199    0.000000
     21          1           0        1.042222   -4.669457    0.000000
     22          1           0        3.229208   -3.509817    0.000000
     23          1           0        3.322605   -1.042884    0.000000
     24          1           0        1.875040    1.040516    0.857660
     25          1           0        1.875040    1.040516   -0.857660
 ---------------------------------------------------------------------
 Rotational constants (GHZ):           2.1389103           0.4449713           0.3691404
 Standard basis: 6-311++G(d,p) (5D, 7F)
 There are   299 symmetry adapted cartesian basis functions of A'  symmetry.
 There are   100 symmetry adapted cartesian basis functions of A"  symmetry.
 There are   285 symmetry adapted basis functions of A'  symmetry.
 There are   100 symmetry adapted basis functions of A"  symmetry.
   385 basis functions,   603 primitive gaussians,   399 cartesian basis functions
    47 alpha electrons       47 beta electrons
       nuclear repulsion energy       781.5670136374 Hartrees.
 NAtoms=   25 NActive=   25 NUniq=   24 SFac= 1.09D+00 NAtFMM=   60 NAOKFM=F Big=F
 Integral buffers will be    131072 words long.
 Regular integral format.
 Two-electron integral symmetry is turned on.
 Nuclear repulsion after empirical dispersion term =      781.5660344305 Hartrees.
 One-electron integrals computed using PRISM.
 NBasis=   385 RedAO= T EigKep=  1.11D-06  NBF=   285   100
 NBsUse=   379 1.00D-06 EigRej=  8.32D-07 NBFU=   279   100
 ExpMin= 3.60D-02 ExpMax= 4.56D+03 ExpMxC= 6.82D+02 IAcc=3 IRadAn=         5 AccDes= 0.00D+00
 Harris functional with IExCor= 1009 and IRadAn=       5 diagonalized for initial guess.
 HarFok:  IExCor= 1009 AccDes= 0.00D+00 IRadAn=         5 IDoV= 1 UseB2=F ITyADJ=14
 ICtDFT=  3500011 ScaDFX=  1.000000  1.000000  1.000000  1.000000
 FoFCou: FMM=F IPFlag=           0 FMFlag=      100000 FMFlg1=           0
         NFxFlg=           0 DoJE=T BraDBF=F KetDBF=T FulRan=T
         wScrn=  0.000000 ICntrl=       500 IOpCl=  0 I1Cent=   200000004 NGrid=           0
         NMat0=    1 NMatS0=      1 NMatT0=    0 NMatD0=    1 NMtDS0=    0 NMtDT0=    0
 Petite list used in FoFCou.
 Initial guess orbital symmetries:
       Occupied  (A') (A') (A') (A') (A') (A') (A') (A') (A') (A')
                 (A') (A') (A') (A') (A') (A') (A') (A') (A') (A')
                 (A') (A') (A') (A') (A') (A') (A') (A') (A') (A')
                 (A') (A') (A") (A') (A') (A') (A') (A') (A") (A')
                 (A") (A') (A') (A") (A") (A") (A")
       Virtual   (A") (A") (A") (A") (A") (A') (A') (A') (A') (A")
                 (A") (A') (A') (A') (A") (A') (A') (A') (A') (A")
                 (A') (A") (A') (A') (A') (A") (A') (A") (A') (A')
                 (A') (A') (A') (A") (A') (A') (A") (A') (A') (A')
                 (A") (A') (A') (A") (A') (A') (A') (A') (A') (A")
                 (A') (A') (A") (A") (A') (A') (A') (A") (A") (A')
                 (A') (A') (A') (A') (A') (A") (A') (A') (A') (A")
                 (A') (A') (A') (A') (A') (A') (A') (A') (A') (A')
                 (A') (A') (A') (A') (A') (A') (A') (A') (A') (A')
                 (A') (A') (A') (A') (A') (A') (A') (A") (A') (A")
                 (A') (A') (A") (A") (A') (A") (A') (A") (A") (A')
                 (A") (A') (A') (A') (A") (A') (A') (A") (A") (A')
                 (A") (A") (A') (A') (A') (A") (A') (A') (A') (A")
                 (A') (A') (A') (A') (A') (A') (A") (A') (A') (A')
                 (A') (A') (A') (A') (A') (A') (A') (A') (A') (A")
                 (A") (A') (A") (A") (A') (A') (A') (A") (A") (A')
                 (A") (A') (A") (A") (A") (A') (A') (A') (A') (A')
                 (A') (A") (A') (A") (A') (A') (A') (A') (A') (A")
                 (A') (A') (A') (A') (A") (A') (A") (A') (A") (A")
                 (A') (A") (A') (A") (A') (A') (A') (A") (A') (A')
                 (A") (A") (A") (A') (A') (A") (A') (A") (A') (A')
                 (A") (A") (A') (A") (A') (A") (A') (A') (A') (A")
                 (A') (A') (A') (A') (A") (A') (A') (A') (A") (A")
                 (A') (A') (A') (A") (A') (A') (A") (A') (A") (A')
                 (A") (A') (A') (A') (A') (A") (A') (A') (A') (A")
                 (A') (A') (A") (A') (A") (A') (A') (A") (A') (A')
                 (A') (A") (A') (A") (A') (A') (A') (A") (A') (A")
                 (A') (A') (A') (A') (A") (A') (A") (A') (A") (A')
                 (A") (A') (A") (A") (A") (A') (A') (A') (A') (A')
                 (A') (A') (A') (A') (A') (A') (A') (A') (A') (A')
                 (A') (A') (A') (A") (A') (A') (A') (A') (A') (A')
                 (A') (A') (A') (A') (A') (A') (A') (A') (A') (A')
                 (A') (A') (A') (A') (A') (A') (A') (A') (A') (A')
                 (A') (A')
 The electronic state of the initial guess is 1-A'.
 Requested convergence on RMS density matrix=1.00D-08 within 128 cycles.
 Requested convergence on MAX density matrix=1.00D-06.
 Requested convergence on             energy=1.00D-06.
 No special actions if energy rises.
 SCF Done:  E(RM062X) =  -539.757341069     A.U. after   15 cycles
            NFock= 15  Conv=0.81D-08     -V/T= 2.0041
 DoSCS=F DFT=T ScalE2(SS,OS)=  1.000000  1.000000
 ExpMin= 3.60D-02 ExpMax= 4.56D+03 ExpMxC= 6.82D+02 IAcc=3 IRadAn=         5 AccDes= 0.00D+00
 HarFok:  IExCor=  205 AccDes= 0.00D+00 IRadAn=         5 IDoV=-2 UseB2=F ITyADJ=14
 ICtDFT= 12500011 ScaDFX=  1.000000  1.000000  1.000000  1.000000
 Range of M.O.s used for correlation:    15   379
 NBasis=   385 NAE=    47 NBE=    47 NFC=    14 NFV=     0
 NROrb=    365 NOA=    33 NOB=    33 NVA=   332 NVB=   332

 **** Warning!!: The largest alpha MO coefficient is  0.13910128D+03

 Orbital symmetries:
       Occupied  (A') (A') (A') (A') (A') (A') (A') (A') (A') (A')
                 (A') (A') (A') (A') (A') (A') (A') (A') (A') (A')
                 (A') (A') (A') (A') (A') (A') (A') (A') (A') (A')
                 (A') (A') (A") (A') (A') (A') (A') (A") (A") (A')
                 (A') (A') (A') (A") (A") (A") (A")
       Virtual   (A") (A") (A") (A") (A') (A') (A') (A') (A") (A')
                 (A') (A") (A') (A') (A") (A') (A") (A') (A') (A')
                 (A") (A") (A') (A') (A') (A") (A') (A") (A') (A')
                 (A") (A') (A") (A') (A') (A') (A') (A') (A") (A')
                 (A") (A') (A') (A") (A") (A') (A") (A') (A") (A')
                 (A') (A') (A') (A') (A') (A") (A') (A') (A') (A')
                 (A') (A") (A') (A') (A') (A") (A') (A') (A') (A')
                 (A') (A') (A') (A') (A') (A') (A') (A') (A') (A')
                 (A') (A') (A') (A') (A') (A') (A') (A') (A') (A')
                 (A') (A') (A') (A') (A") (A') (A") (A") (A') (A")
                 (A') (A') (A') (A') (A") (A") (A') (A") (A") (A')
                 (A') (A') (A") (A') (A') (A") (A') (A") (A') (A")
                 (A") (A') (A") (A') (A') (A') (A") (A') (A') (A')
                 (A') (A') (A') (A') (A') (A') (A') (A') (A') (A')
                 (A') (A') (A') (A") (A') (A') (A') (A') (A') (A')
                 (A') (A') (A") (A') (A") (A') (A") (A") (A') (A")
                 (A") (A') (A') (A") (A") (A") (A') (A") (A') (A')
                 (A') (A') (A') (A") (A") (A') (A') (A') (A') (A")
                 (A') (A') (A') (A") (A") (A') (A') (A") (A') (A")
                 (A") (A') (A') (A") (A') (A") (A') (A') (A') (A')
                 (A") (A") (A") (A') (A") (A') (A') (A") (A') (A')
                 (A') (A") (A') (A") (A") (A') (A") (A') (A') (A")
                 (A') (A') (A') (A') (A") (A') (A') (A') (A") (A")
                 (A') (A') (A') (A") (A') (A') (A') (A") (A") (A')
                 (A") (A') (A') (A") (A') (A') (A') (A') (A') (A')
                 (A") (A') (A') (A') (A') (A") (A") (A") (A') (A')
                 (A') (A') (A') (A') (A') (A') (A') (A") (A') (A')
                 (A') (A") (A') (A") (A") (A") (A') (A") (A") (A')
                 (A') (A") (A") (A') (A") (A") (A') (A') (A') (A')
                 (A') (A') (A') (A') (A') (A') (A') (A') (A') (A')
                 (A') (A') (A') (A") (A') (A') (A') (A') (A') (A')
                 (A') (A') (A') (A') (A') (A') (A') (A') (A') (A')
                 (A') (A') (A') (A') (A') (A') (A') (A') (A') (A')
                 (A') (A')
     4 initial guesses have been made.
 Convergence on wavefunction:    0.001000000000000
 Iteration     1 Dimension     4 NMult     0 NNew      4
 CISAX will form     4 AO SS matrices at one time.
 Iteration     2 Dimension     6 NMult     4 NNew      2
 Iteration     3 Dimension     8 NMult     6 NNew      2
 Iteration     4 Dimension    10 NMult     8 NNew      2
 Iteration     5 Dimension    12 NMult    10 NNew      2
 Iteration     6 Dimension    14 NMult    12 NNew      2
 ***********************************************************************
 Excited states from <AA,BB:AA,BB> singles matrix:
 ***********************************************************************
 
 Ground to excited state transition densities written to RWF  633
 Ground to excited state transition electric dipole moments (Au):
       state          X           Y           Z        Dip. S.      Osc.
         1         0.5081      0.3083     -0.0000      0.3532      0.0238
 Ground to excited state transition velocity dipole moments (Au):
       state          X           Y           Z        Dip. S.      Osc.
         1        -0.0591     -0.0319     -0.0000      0.0045      0.0298
 Ground to excited state transition magnetic dipole moments (Au):
       state          X           Y           Z
         1        -0.0000      0.0000      0.1484
 Ground to excited state transition velocity quadrupole moments (Au):
       state          XX          YY          ZZ          XY          XZ          YZ
         1         0.1375      0.1548     -0.0089     -0.1356      0.0000     -0.0000
 <0|del|b> * <b|rxdel|0> + <0|del|b> * <b|delr+rdel|0>
 Rotatory Strengths (R) in cgs (10**-40 erg-esu-cm/Gauss)
       state          XX          YY          ZZ    R(velocity)    E-M Angle
         1        -0.0000      0.0000     -0.0000      0.0000       90.00
 1/2[<0|r|b>*<b|rxdel|0> + (<0|rxdel|b>*<b|r|0>)*]
 Rotatory Strengths (R) in cgs (10**-40 erg-esu-cm/Gauss)
       state          XX          YY          ZZ     R(length)
         1         0.0000     -0.0000      0.0000      0.0000
  1/2[<0|del|b>*<b|r|0> + (<0|r|b>*<b|del|0>)*] (Au)
       state          X           Y           Z        Dip. S.   Osc.(frdel)
         1        -0.0300     -0.0098      0.0000      0.0399      0.0266

 Excitation energies and oscillator strengths:
 
 Excited State   1:      Singlet-A'     2.7464 eV  451.45 nm  f=0.0238  <S**2>=0.000
      47 -> 48         0.70367
 This state for optimization and/or second-order correction.
 Total Energy, E(TD-HF/TD-DFT) =  -539.656414347    
 Copying the excited state density for this state as the 1-particle RhoCI density.
 SavETr:  write IOETrn=   770 NScale= 10 NData=  16 NLR=1 NState=    1 LETran=      28.

 **********************************************************************

            Population analysis using the SCF Density.

 **********************************************************************

 Orbital symmetries:
       Occupied  (A') (A') (A') (A') (A') (A') (A') (A') (A') (A')
                 (A') (A') (A') (A') (A') (A') (A') (A') (A') (A')
                 (A') (A') (A') (A') (A') (A') (A') (A') (A') (A')
                 (A') (A') (A") (A') (A') (A') (A') (A") (A") (A')
                 (A') (A') (A') (A") (A") (A") (A")
       Virtual   (A") (A") (A") (A") (A') (A') (A') (A') (A") (A')
                 (A') (A") (A') (A') (A") (A') (A") (A') (A') (A')
                 (A") (A") (A') (A') (A') (A") (A') (A") (A') (A')
                 (A") (A') (A") (A') (A') (A') (A') (A') (A") (A')
                 (A") (A') (A') (A") (A") (A') (A") (A') (A") (A')
                 (A') (A') (A') (A') (A') (A") (A') (A') (A') (A')
                 (A') (A") (A') (A') (A') (A") (A') (A') (A') (A')
                 (A') (A') (A') (A') (A') (A') (A') (A') (A') (A')
                 (A') (A') (A') (A') (A') (A') (A') (A') (A') (A')
                 (A') (A') (A') (A') (A") (A') (A") (A") (A') (A")
                 (A') (A') (A') (A') (A") (A") (A') (A") (A") (A')
                 (A') (A') (A") (A') (A') (A") (A') (A") (A') (A")
                 (A") (A') (A") (A') (A') (A') (A") (A') (A') (A')
                 (A') (A') (A') (A') (A') (A') (A') (A') (A') (A')
                 (A') (A') (A') (A") (A') (A') (A') (A') (A') (A')
                 (A') (A') (A") (A') (A") (A') (A") (A") (A') (A")
                 (A") (A') (A') (A") (A") (A") (A') (A") (A') (A')
                 (A') (A') (A') (A") (A") (A') (A') (A') (A') (A")
                 (A') (A') (A') (A") (A") (A') (A') (A") (A') (A")
                 (A") (A') (A') (A") (A') (A") (A') (A') (A') (A')
                 (A") (A") (A") (A') (A") (A') (A') (A") (A') (A')
                 (A') (A") (A') (A") (A") (A') (A") (A') (A') (A")
                 (A') (A') (A') (A') (A") (A') (A') (A') (A") (A")
                 (A') (A') (A') (A") (A') (A') (A') (A") (A") (A')
                 (A") (A') (A') (A") (A') (A') (A') (A') (A') (A')
                 (A") (A') (A') (A') (A') (A") (A") (A") (A') (A')
                 (A') (A') (A') (A') (A') (A') (A') (A") (A') (A')
                 (A') (A") (A') (A") (A") (A") (A') (A") (A") (A')
                 (A') (A") (A") (A') (A") (A") (A') (A') (A') (A')
                 (A') (A') (A') (A') (A') (A') (A') (A') (A') (A')
                 (A') (A') (A') (A") (A') (A') (A') (A') (A') (A')
                 (A') (A') (A') (A') (A') (A') (A') (A') (A') (A')
                 (A') (A') (A') (A') (A') (A') (A') (A') (A') (A')
                 (A') (A')
 The electronic state is 1-A'.
 Alpha  occ. eigenvalues --  -10.77614 -10.73547 -10.72831 -10.72693 -10.72112
 Alpha  occ. eigenvalues --  -10.71695 -10.71671 -10.71009 -10.70957 -10.70386
 Alpha  occ. eigenvalues --  -10.70133 -10.69822 -10.69810 -10.69411  -1.16531
 Alpha  occ. eigenvalues --   -1.12500  -1.06941  -1.05857  -1.01303  -1.00340
 Alpha  occ. eigenvalues --   -0.95681  -0.91064  -0.86434  -0.85915  -0.83814
 Alpha  occ. eigenvalues --   -0.78379  -0.76119  -0.74401  -0.69647  -0.69289
 Alpha  occ. eigenvalues --   -0.68430  -0.68152  -0.68085  -0.65016  -0.64270
 Alpha  occ. eigenvalues --   -0.62957  -0.61762  -0.60229  -0.59435  -0.59116
 Alpha  occ. eigenvalues --   -0.56940  -0.55245  -0.54726  -0.52433  -0.46967
 Alpha  occ. eigenvalues --   -0.46094  -0.44139
 Alpha virt. eigenvalues --   -0.26077  -0.14673  -0.14087  -0.12764  -0.11186
 Alpha virt. eigenvalues --   -0.10095  -0.09242  -0.07973  -0.07942  -0.07481
 Alpha virt. eigenvalues --   -0.07213  -0.07145  -0.05642  -0.05581  -0.05345
 Alpha virt. eigenvalues --   -0.03837  -0.03656  -0.03278  -0.03129  -0.02159
 Alpha virt. eigenvalues --   -0.01363  -0.00943   0.00182   0.00594   0.00681
 Alpha virt. eigenvalues --    0.01062   0.01506   0.01930   0.02180   0.02291
 Alpha virt. eigenvalues --    0.02450   0.02675   0.02773   0.03222   0.03405
 Alpha virt. eigenvalues --    0.04229   0.04508   0.04702   0.05030   0.05375
 Alpha virt. eigenvalues --    0.06024   0.06301   0.06591   0.07064   0.07254
 Alpha virt. eigenvalues --    0.07901   0.08131   0.08368   0.08605   0.08920
 Alpha virt. eigenvalues --    0.09518   0.09584   0.10022   0.10871   0.11044
 Alpha virt. eigenvalues --    0.11113   0.12154   0.12258   0.12813   0.13034
 Alpha virt. eigenvalues --    0.13448   0.13521   0.14015   0.14346   0.16057
 Alpha virt. eigenvalues --    0.16299   0.16477   0.17339   0.17563   0.17789
 Alpha virt. eigenvalues --    0.18136   0.19034   0.19313   0.19656   0.19838
 Alpha virt. eigenvalues --    0.21544   0.21660   0.22720   0.23127   0.23576
 Alpha virt. eigenvalues --    0.23814   0.24520   0.25272   0.26935   0.27625
 Alpha virt. eigenvalues --    0.28881   0.29295   0.29931   0.31381   0.35855
 Alpha virt. eigenvalues --    0.36486   0.38194   0.39287   0.41125   0.41348
 Alpha virt. eigenvalues --    0.42011   0.42125   0.42982   0.43736   0.44345
 Alpha virt. eigenvalues --    0.44832   0.45118   0.45972   0.46328   0.47870
 Alpha virt. eigenvalues --    0.48475   0.48866   0.49013   0.50484   0.51254
 Alpha virt. eigenvalues --    0.51436   0.51983   0.52125   0.52879   0.54065
 Alpha virt. eigenvalues --    0.54100   0.54671   0.55653   0.55859   0.57382
 Alpha virt. eigenvalues --    0.58235   0.58889   0.61488   0.62179   0.62398
 Alpha virt. eigenvalues --    0.63206   0.63490   0.65039   0.65173   0.67476
 Alpha virt. eigenvalues --    0.70346   0.70488   0.71149   0.72483   0.72909
 Alpha virt. eigenvalues --    0.75652   0.76062   0.76380   0.76821   0.77126
 Alpha virt. eigenvalues --    0.77874   0.77988   0.78301   0.79875   0.80409
 Alpha virt. eigenvalues --    0.81280   0.81557   0.82277   0.83017   0.85257
 Alpha virt. eigenvalues --    0.87137   0.88238   0.88420   0.89202   0.90546
 Alpha virt. eigenvalues --    0.91150   0.91331   0.93248   0.94640   0.96365
 Alpha virt. eigenvalues --    0.96804   1.00287   1.01305   1.01595   1.02784
 Alpha virt. eigenvalues --    1.03241   1.03355   1.04809   1.05966   1.08861
 Alpha virt. eigenvalues --    1.19597   1.23099   1.24155   1.24827   1.28631
 Alpha virt. eigenvalues --    1.29432   1.32076   1.34213   1.35800   1.35997
 Alpha virt. eigenvalues --    1.39393   1.39942   1.40928   1.42906   1.43495
 Alpha virt. eigenvalues --    1.43573   1.44466   1.46394   1.46402   1.46654
 Alpha virt. eigenvalues --    1.47672   1.48147   1.51841   1.53657   1.55778
 Alpha virt. eigenvalues --    1.56050   1.56326   1.56571   1.57848   1.61529
 Alpha virt. eigenvalues --    1.63124   1.63298   1.64014   1.66147   1.68326
 Alpha virt. eigenvalues --    1.68414   1.68671   1.69753   1.74474   1.76039
 Alpha virt. eigenvalues --    1.77246   1.78065   1.80098   1.80125   1.80838
 Alpha virt. eigenvalues --    1.83012   1.83192   1.83685   1.83863   1.84136
 Alpha virt. eigenvalues --    1.84435   1.85601   1.86316   1.88316   1.91433
 Alpha virt. eigenvalues --    1.92161   1.94133   1.95322   1.97762   1.98196
 Alpha virt. eigenvalues --    1.99825   2.02699   2.04556   2.07291   2.11801
 Alpha virt. eigenvalues --    2.12171   2.14197   2.15239   2.19190   2.21373
 Alpha virt. eigenvalues --    2.22775   2.28448   2.30469   2.34667   2.34926
 Alpha virt. eigenvalues --    2.36295   2.38640   2.39648   2.42398   2.44261
 Alpha virt. eigenvalues --    2.46183   2.46859   2.49335   2.52986   2.53828
 Alpha virt. eigenvalues --    2.54458   2.56678   2.57896   2.58358   2.59542
 Alpha virt. eigenvalues --    2.59907   2.61609   2.62179   2.63592   2.63829
 Alpha virt. eigenvalues --    2.64825   2.65123   2.65141   2.65528   2.68138
 Alpha virt. eigenvalues --    2.68603   2.70974   2.71451   2.73374   2.74835
 Alpha virt. eigenvalues --    2.76292   2.78872   2.79733   2.83165   2.83197
 Alpha virt. eigenvalues --    2.84925   2.86383   2.92160   2.97012   2.99498
 Alpha virt. eigenvalues --    3.00154   3.05444   3.10423   3.11499   3.13825
 Alpha virt. eigenvalues --    3.21058   3.23443   3.26738   3.28778   3.30625
 Alpha virt. eigenvalues --    3.32843   3.34260   3.43657   3.46088   3.46968
 Alpha virt. eigenvalues --    3.48646   3.50282   3.56638   3.64966   3.67186
 Alpha virt. eigenvalues --    3.67729   3.93962   3.94225   3.95340   3.96392
 Alpha virt. eigenvalues --    4.04001   4.06766   4.07726   4.12528   4.35697
 Alpha virt. eigenvalues --    4.61715   4.69653   4.71489  23.45274  23.60441
 Alpha virt. eigenvalues --   23.81346  23.84142  23.86622  23.89414  23.91235
 Alpha virt. eigenvalues --   23.94580  23.96281  23.97961  24.02069  24.03902
 Alpha virt. eigenvalues --   24.10958  24.11879
          Condensed to atoms (all electrons):
               1          2          3          4          5          6
     1  C    8.733616   0.219253  -0.472064   2.056364  -0.033648  -0.102183
     2  C    0.219253   7.082712   0.306952  -1.092211  -0.009080  -0.014169
     3  C   -0.472064   0.306952   6.581961   0.781030  -0.129423   0.016899
     4  C    2.056364  -1.092211   0.781030  10.572764  -0.304526  -0.112047
     5  C   -0.033648  -0.009080  -0.129423  -0.304526  11.103462   0.708478
     6  C   -0.102183  -0.014169   0.016899  -0.112047   0.708478   6.599371
     7  C   -0.014609   0.003226  -0.015745  -0.043789  -0.950699   0.423558
     8  C    0.408163  -0.036193  -0.086522   0.016394   1.681271  -0.643174
     9  C   -1.243511  -0.750597   0.283548  -0.417733  -0.106521   0.285829
    10  C   -1.307624   0.301598  -0.419023  -2.417376  -2.686964  -0.297916
    11  C    0.246796  -1.010605   1.103428  -0.256360  -1.557592  -0.217166
    12  C   -2.141894   1.535833  -1.429589  -1.467609  -0.414988  -0.145261
    13  C    0.177669  -0.274098  -0.136421  -1.440334  -0.229378   0.938851
    14  C   -1.026018  -0.130786  -0.258498  -0.233005  -1.450391  -1.319864
    15  H    0.365761  -0.103682  -0.000423   0.028067   0.005361   0.001004
    16  H   -0.018247   0.374191  -0.012235   0.011194  -0.001439  -0.000307
    17  H   -0.027387  -0.011642   0.369745  -0.065367   0.000449   0.000383
    18  H    0.050903   0.002585  -0.084903   0.450158   0.007521  -0.005070
    19  H   -0.048611  -0.007170   0.050776  -0.064776  -0.077872   0.050474
    20  H    0.007547   0.001961  -0.004872   0.007707   0.457880  -0.084826
    21  H   -0.001390  -0.000379   0.000401   0.000155  -0.067498   0.378558
    22  H    0.000917   0.000383  -0.000348  -0.001652   0.016320  -0.019255
    23  H    0.005368  -0.002898   0.001195   0.006509   0.024508  -0.003333
    24  H    0.027744   0.013154  -0.001627  -0.013048  -0.011744  -0.001277
    25  H    0.027744   0.013154  -0.001627  -0.013048  -0.011744  -0.001277
               7          8          9         10         11         12
     1  C   -0.014609   0.408163  -1.243511  -1.307624   0.246796  -2.141894
     2  C    0.003226  -0.036193  -0.750597   0.301598  -1.010605   1.535833
     3  C   -0.015745  -0.086522   0.283548  -0.419023   1.103428  -1.429589
     4  C   -0.043789   0.016394  -0.417733  -2.417376  -0.256360  -1.467609
     5  C   -0.950699   1.681271  -0.106521  -2.686964  -1.557592  -0.414988
     6  C    0.423558  -0.643174   0.285829  -0.297916  -0.217166  -0.145261
     7  C    7.091598   0.562040  -0.809434   0.167393  -0.216607  -0.276888
     8  C    0.562040   8.380522  -1.272236  -1.164536   0.146242  -1.120737
     9  C   -0.809434  -1.272236   9.682950   0.246350   1.691990  -1.870389
    10  C    0.167393  -1.164536   0.246350   9.254880  -0.622299   2.466957
    11  C   -0.216607   0.146242   1.691990  -0.622299  14.613070  -3.582366
    12  C   -0.276888  -1.120737  -1.870389   2.466957  -3.582366  15.961064
    13  C   -0.868435   0.257447   1.806489  -0.487201   1.076880  -4.888341
    14  C    1.069369  -1.617336  -2.131286   2.397162  -4.825262   2.946396
    15  H   -0.002527   0.006629   0.095014  -0.010859  -0.031868  -0.032439
    16  H    0.000327   0.000460   0.005079  -0.009073   0.029692  -0.036594
    17  H   -0.000412  -0.001274  -0.006575   0.021059  -0.029317   0.094834
    18  H    0.001939   0.007350  -0.026567   0.018536  -0.007585  -0.057982
    19  H   -0.007854  -0.044469   0.076234   0.422480   0.081344  -0.050666
    20  H    0.003234   0.046272  -0.024203   0.013966  -0.011936  -0.016986
    21  H   -0.021276  -0.018752  -0.005304   0.020295  -0.006361   0.005151
    22  H    0.380117  -0.020208   0.003725  -0.010650   0.003386  -0.010049
    23  H   -0.102088   0.363938   0.089058  -0.008286  -0.001931   0.007375
    24  H    0.015257   0.035147   0.358300   0.005724   0.004971  -0.060026
    25  H    0.015257   0.035147   0.358300   0.005724   0.004971  -0.060026
              13         14         15         16         17         18
     1  C    0.177669  -1.026018   0.365761  -0.018247  -0.027387   0.050903
     2  C   -0.274098  -0.130786  -0.103682   0.374191  -0.011642   0.002585
     3  C   -0.136421  -0.258498  -0.000423  -0.012235   0.369745  -0.084903
     4  C   -1.440334  -0.233005   0.028067   0.011194  -0.065367   0.450158
     5  C   -0.229378  -1.450391   0.005361  -0.001439   0.000449   0.007521
     6  C    0.938851  -1.319864   0.001004  -0.000307   0.000383  -0.005070
     7  C   -0.868435   1.069369  -0.002527   0.000327  -0.000412   0.001939
     8  C    0.257447  -1.617336   0.006629   0.000460  -0.001274   0.007350
     9  C    1.806489  -2.131286   0.095014   0.005079  -0.006575  -0.026567
    10  C   -0.487201   2.397162  -0.010859  -0.009073   0.021059   0.018536
    11  C    1.076880  -4.825262  -0.031868   0.029692  -0.029317  -0.007585
    12  C   -4.888341   2.946396  -0.032439  -0.036594   0.094834  -0.057982
    13  C   14.705741  -4.056548   0.005223   0.002841  -0.006397  -0.011856
    14  C   -4.056548  16.163664   0.005821  -0.008207   0.005381  -0.008002
    15  H    0.005223   0.005821   0.442106  -0.008882   0.001302   0.000137
    16  H    0.002841  -0.008207  -0.008882   0.421251  -0.006221   0.001876
    17  H   -0.006397   0.005381   0.001302  -0.006221   0.424153  -0.010261
    18  H   -0.011856  -0.008002   0.000137   0.001876  -0.010261   0.456618
    19  H    0.076127  -0.080198   0.000222  -0.000483   0.001190  -0.006478
    20  H   -0.011913  -0.045238  -0.000102   0.000011  -0.000124   0.001292
    21  H   -0.027036   0.085819   0.000011  -0.000007   0.000010  -0.000158
    22  H    0.028773  -0.034195  -0.000129   0.000007  -0.000007   0.000017
    23  H   -0.028786  -0.016056   0.000609  -0.000123   0.000015  -0.000120
    24  H    0.021365  -0.058996  -0.000866   0.000629  -0.000147   0.000201
    25  H    0.021365  -0.058996  -0.000866   0.000629  -0.000147   0.000201
              19         20         21         22         23         24
     1  C   -0.048611   0.007547  -0.001390   0.000917   0.005368   0.027744
     2  C   -0.007170   0.001961  -0.000379   0.000383  -0.002898   0.013154
     3  C    0.050776  -0.004872   0.000401  -0.000348   0.001195  -0.001627
     4  C   -0.064776   0.007707   0.000155  -0.001652   0.006509  -0.013048
     5  C   -0.077872   0.457880  -0.067498   0.016320   0.024508  -0.011744
     6  C    0.050474  -0.084826   0.378558  -0.019255  -0.003333  -0.001277
     7  C   -0.007854   0.003234  -0.021276   0.380117  -0.102088   0.015257
     8  C   -0.044469   0.046272  -0.018752  -0.020208   0.363938   0.035147
     9  C    0.076234  -0.024203  -0.005304   0.003725   0.089058   0.358300
    10  C    0.422480   0.013966   0.020295  -0.010650  -0.008286   0.005724
    11  C    0.081344  -0.011936  -0.006361   0.003386  -0.001931   0.004971
    12  C   -0.050666  -0.016986   0.005151  -0.010049   0.007375  -0.060026
    13  C    0.076127  -0.011913  -0.027036   0.028773  -0.028786   0.021365
    14  C   -0.080198  -0.045238   0.085819  -0.034195  -0.016056  -0.058996
    15  H    0.000222  -0.000102   0.000011  -0.000129   0.000609  -0.000866
    16  H   -0.000483   0.000011  -0.000007   0.000007  -0.000123   0.000629
    17  H    0.001190  -0.000124   0.000010  -0.000007   0.000015  -0.000147
    18  H   -0.006478   0.001292  -0.000158   0.000017  -0.000120   0.000201
    19  H    0.443027  -0.005748   0.001606  -0.000572   0.000363   0.000630
    20  H   -0.005748   0.449134  -0.009965   0.001938   0.000259   0.000143
    21  H    0.001606  -0.009965   0.420514  -0.006963   0.001596  -0.000135
    22  H   -0.000572   0.001938  -0.006963   0.416798  -0.008848   0.000623
    23  H    0.000363   0.000259   0.001596  -0.008848   0.434885  -0.000896
    24  H    0.000630   0.000143  -0.000135   0.000623  -0.000896   0.494831
    25  H    0.000630   0.000143  -0.000135   0.000623  -0.000896  -0.080943
              25
     1  C    0.027744
     2  C    0.013154
     3  C   -0.001627
     4  C   -0.013048
     5  C   -0.011744
     6  C   -0.001277
     7  C    0.015257
     8  C    0.035147
     9  C    0.358300
    10  C    0.005724
    11  C    0.004971
    12  C   -0.060026
    13  C    0.021365
    14  C   -0.058996
    15  H   -0.000866
    16  H    0.000629
    17  H   -0.000147
    18  H    0.000201
    19  H    0.000630
    20  H    0.000143
    21  H   -0.000135
    22  H    0.000623
    23  H   -0.000896
    24  H   -0.080943
    25  H    0.494831
 Mulliken charges:
               1
     1  C    0.109341
     2  C   -0.411493
     3  C   -0.442620
     4  C    0.012537
     5  C    0.038254
     6  C   -0.436280
     7  C   -0.402951
     8  C    0.078416
     9  C   -0.318510
    10  C    0.099683
    11  C   -0.625514
    12  C    0.645223
    13  C   -0.652027
    14  C    0.685270
    15  H    0.235373
    16  H    0.253631
    17  H    0.246756
    18  H    0.219647
    19  H    0.189794
    20  H    0.224426
    21  H    0.251243
    22  H    0.259249
    23  H    0.238583
    24  H    0.250985
    25  H    0.250985
 Sum of Mulliken charges =   1.00000
 Mulliken charges with hydrogens summed into heavy atoms:
               1
     1  C    0.344715
     2  C   -0.157861
     3  C   -0.195864
     4  C    0.232184
     5  C    0.262680
     6  C   -0.185037
     7  C   -0.143702
     8  C    0.316999
     9  C    0.183459
    10  C    0.289477
    11  C   -0.625514
    12  C    0.645223
    13  C   -0.652027
    14  C    0.685270
 Electronic spatial extent (au):  <R**2>=           2853.6504
 Charge=              1.0000 electrons
 Dipole moment (field-independent basis, Debye):
    X=              0.1738    Y=             -0.6987    Z=              0.0000  Tot=              0.7200
 Quadrupole moment (field-independent basis, Debye-Ang):
   XX=            -51.0076   YY=            -36.3616   ZZ=            -84.1357
   XY=            -10.2277   XZ=              0.0000   YZ=              0.0000
 Traceless Quadrupole moment (field-independent basis, Debye-Ang):
   XX=              6.1607   YY=             20.8067   ZZ=            -26.9674
   XY=            -10.2277   XZ=              0.0000   YZ=              0.0000
 Octapole moment (field-independent basis, Debye-Ang**2):
  XXX=              2.1690  YYY=             -0.8197  ZZZ=              0.0000  XYY=              2.1064
  XXY=             -7.0901  XXZ=              0.0000  XZZ=              3.1765  YZZ=              0.5389
  YYZ=              0.0000  XYZ=              0.0000
 Hexadecapole moment (field-independent basis, Debye-Ang**3):
 XXXX=           -988.1158 YYYY=          -1847.2754 ZZZZ=            -99.3029 XXXY=            347.9812
 XXXZ=              0.0000 YYYX=            274.5374 YYYZ=             -0.0000 ZZZX=              0.0000
 ZZZY=             -0.0000 XXYY=           -454.3488 XXZZ=           -241.5392 YYZZ=           -494.2898
 XXYZ=              0.0000 YYXZ=              0.0000 ZZXY=            182.8745
 N-N= 7.815660344305D+02 E-N=-2.799492381229D+03  KE= 5.375354445665D+02
 Symmetry A'   KE= 5.228853762849D+02
 Symmetry A"   KE= 1.465006828155D+01
 Unable to Open any file for archive entry.
 1\1\GINC-GADI-CPU-CLX-1762\SP\RM062X TD-FC\6-311++G(d,p)\C14H11(1+)\TS
 1578\02-Aug-2022\0\\#n M062X/6-311++G(d,p) TD(NStates=1) EmpiricalDisp
 ersion=GD3 SP\\SP_-150\\1,1\C,0,2.506455,1.360731,0.\C,0,3.720408,0.68
 1414,0.\C,0,3.688561,-0.69658,0.\C,0,2.443481,-1.395813,0.\C,0,-2.4824
 81,-1.418563,0.\C,0,-3.677061,-0.72758,0.\C,0,-3.679283,0.663789,0.\C,
 0,-2.472205,1.362231,0.\C,0,0.011025,1.445669,0.\C,0,-0.0305,-1.428839
 ,0.\C,0,1.25723,0.667415,0.\C,0,1.225671,-0.729829,0.\C,0,-1.266355,0.
 68654,0.\C,0,-1.250671,-0.732829,0.\H,0,2.489471,2.444222,0.\H,0,4.655
 553,1.220189,0.\H,0,4.605112,-1.270724,0.\H,0,2.45895,-2.478734,0.\H,0
 ,-0.028125,-2.510091,0.\H,0,-2.4772,-2.500859,0.\H,0,-4.612362,-1.2695
 99,0.\H,0,-4.613928,1.205814,0.\H,0,-2.478971,2.445347,0.\H,0,0.04,2.1
 44037,-0.85766\H,0,0.04,2.144037,0.85766\\Version=ES64L-G16RevC.01\Sta
 te=1-A'\HF=-539.7573411\RMSD=8.120e-09\PG=CS [SG(C14H9),X(H2)]\\@
 The archive entry for this job was punched.


 THE MEEK SHALL INHERIT THE EARTH.
 (THE REST OF US WILL ESCAPE TO THE STARS)
 Job cpu time:       0 days  0 hours 52 minutes 40.0 seconds.
 Elapsed time:       0 days  0 hours  1 minutes  6.0 seconds.
 File lengths (MBytes):  RWF=    460 Int=      0 D2E=      0 Chk=     15 Scr=      1
 Normal termination of Gaussian 16 at Tue Aug  2 10:38:45 2022.
