 Entering Gaussian System, Link 0=g16
 Initial command:
 /apps/gaussian/g16c01/g16/l1.exe "/jobfs/53796104.gadi-pbs/Gau-3615815.inp" -scrdir="/jobfs/53796104.gadi-pbs/"
 Entering Link 1 = /apps/gaussian/g16c01/g16/l1.exe PID=   3615816.
  
 Copyright (c) 1988-2019, Gaussian, Inc.  All Rights Reserved.
  
 This is part of the Gaussian(R) 16 program.  It is based on
 the Gaussian(R) 09 system (copyright 2009, Gaussian, Inc.),
 the Gaussian(R) 03 system (copyright 2003, Gaussian, Inc.),
 the Gaussian(R) 98 system (copyright 1998, Gaussian, Inc.),
 the Gaussian(R) 94 system (copyright 1995, Gaussian, Inc.),
 the Gaussian 92(TM) system (copyright 1992, Gaussian, Inc.),
 the Gaussian 90(TM) system (copyright 1990, Gaussian, Inc.),
 the Gaussian 88(TM) system (copyright 1988, Gaussian, Inc.),
 the Gaussian 86(TM) system (copyright 1986, Carnegie Mellon
 University), and the Gaussian 82(TM) system (copyright 1983,
 Carnegie Mellon University). Gaussian is a federally registered
 trademark of Gaussian, Inc.
  
 This software contains proprietary and confidential information,
 including trade secrets, belonging to Gaussian, Inc.
  
 This software is provided under written license and may be
 used, copied, transmitted, or stored only in accord with that
 written license.
  
 The following legend is applicable only to US Government
 contracts under FAR:
  
                    RESTRICTED RIGHTS LEGEND
  
 Use, reproduction and disclosure by the US Government is
 subject to restrictions as set forth in subparagraphs (a)
 and (c) of the Commercial Computer Software - Restricted
 Rights clause in FAR 52.227-19.
  
 Gaussian, Inc.
 340 Quinnipiac St., Bldg. 40, Wallingford CT 06492
  
  
 ---------------------------------------------------------------
 Warning -- This program may not be used in any manner that
 competes with the business of Gaussian, Inc. or will provide
 assistance to any competitor of Gaussian, Inc.  The licensee
 of this program is prohibited from giving any competitor of
 Gaussian, Inc. access to this program.  By using this program,
 the user acknowledges that Gaussian, Inc. is engaged in the
 business of creating and licensing software in the field of
 computational chemistry and represents and warrants to the
 licensee that it is not a competitor of Gaussian, Inc. and that
 it will not use this program in any manner prohibited above.
 ---------------------------------------------------------------
  

 Cite this work as:
 Gaussian 16, Revision C.01,
 M. J. Frisch, G. W. Trucks, H. B. Schlegel, G. E. Scuseria, 
 M. A. Robb, J. R. Cheeseman, G. Scalmani, V. Barone, 
 G. A. Petersson, H. Nakatsuji, X. Li, M. Caricato, A. V. Marenich, 
 J. Bloino, B. G. Janesko, R. Gomperts, B. Mennucci, H. P. Hratchian, 
 J. V. Ortiz, A. F. Izmaylov, J. L. Sonnenberg, D. Williams-Young, 
 F. Ding, F. Lipparini, F. Egidi, J. Goings, B. Peng, A. Petrone, 
 T. Henderson, D. Ranasinghe, V. G. Zakrzewski, J. Gao, N. Rega, 
 G. Zheng, W. Liang, M. Hada, M. Ehara, K. Toyota, R. Fukuda, 
 J. Hasegawa, M. Ishida, T. Nakajima, Y. Honda, O. Kitao, H. Nakai, 
 T. Vreven, K. Throssell, J. A. Montgomery, Jr., J. E. Peralta, 
 F. Ogliaro, M. J. Bearpark, J. J. Heyd, E. N. Brothers, K. N. Kudin, 
 V. N. Staroverov, T. A. Keith, R. Kobayashi, J. Normand, 
 K. Raghavachari, A. P. Rendell, J. C. Burant, S. S. Iyengar, 
 J. Tomasi, M. Cossi, J. M. Millam, M. Klene, C. Adamo, R. Cammi, 
 J. W. Ochterski, R. L. Martin, K. Morokuma, O. Farkas, 
 J. B. Foresman, and D. J. Fox, Gaussian, Inc., Wallingford CT, 2019.
 
 ******************************************
 Gaussian 16:  ES64L-G16RevC.01  3-Jul-2019
                 2-Aug-2022 
 ******************************************
 %NProcShared=48
 Will use up to   48 processors via shared memory.
 %mem = 190GB
 ---------------------------------------------------------------
 #n M062X/6-311++G(d,p) TD(NStates=1) EmpiricalDispersion=GD3 SP
 ---------------------------------------------------------------
 1/38=1,172=1/1;
 2/12=2,17=6,18=5,40=1/2;
 3/5=4,6=6,7=1111,11=9,25=1,30=1,74=-55,124=31/1,2,3,8;
 4//1;
 5/5=2,38=5/2;
 8/6=1,10=2,108=1/1;
 9/41=1,42=1,70=2/14;
 6/7=2,8=2,9=2,10=2/1;
 99/5=1,9=1/99;
 ------
 SP_-50
 ------
 Symbolic Z-matrix:
 Charge =  1 Multiplicity = 1
 C                     2.49076   1.36103   0. 
 C                     3.70056   0.67234   0. 
 C                     3.68326  -0.71283   0. 
 C                     2.46306  -1.40734   0. 
 C                    -2.46306  -1.40734   0. 
 C                    -3.68326  -0.71283   0. 
 C                    -3.70056   0.67234   0. 
 C                    -2.49076   1.36103   0. 
 C                     0.00005   1.44897   0. 
 C                     0.       -1.42899   0. 
 C                     1.26191   0.67702   0. 
 C                     1.23787  -0.7311    0. 
 C                    -1.26191   0.67702   0. 
 C                    -1.23787  -0.7311    0. 
 H                     2.48587   2.4443    0. 
 H                     4.6356    1.21244   0. 
 H                     4.60896  -1.2711    0. 
 H                     2.46785  -2.48991   0. 
 H                     0.       -2.51017   0. 
 H                    -2.46785  -2.48991   0. 
 H                    -4.60896  -1.2711    0. 
 H                    -4.6356    1.21244   0. 
 H                    -2.48587   2.4443    0. 
 H                     0.        2.14479  -0.85849 
 H                     0.        2.14479   0.85849 
 
                          Input orientation:                          
 ---------------------------------------------------------------------
 Center     Atomic      Atomic             Coordinates (Angstroms)
 Number     Number       Type             X           Y           Z
 ---------------------------------------------------------------------
      1          6           0        2.490755    1.361031    0.000000
      2          6           0        3.700558    0.672339    0.000000
      3          6           0        3.683261   -0.712830    0.000000
      4          6           0        2.463056   -1.407338    0.000000
      5          6           0       -2.463056   -1.407338    0.000000
      6          6           0       -3.683261   -0.712830    0.000000
      7          6           0       -3.700558    0.672339    0.000000
      8          6           0       -2.490755    1.361031    0.000000
      9          6           0        0.000050    1.448969    0.000000
     10          6           0        0.000000   -1.428989    0.000000
     11          6           0        1.261905    0.677015    0.000000
     12          6           0        1.237871   -0.731104    0.000000
     13          6           0       -1.261905    0.677015    0.000000
     14          6           0       -1.237871   -0.731104    0.000000
     15          1           0        2.485871    2.444297    0.000000
     16          1           0        4.635603    1.212439    0.000000
     17          1           0        4.608962   -1.271099    0.000000
     18          1           0        2.467850   -2.489909    0.000000
     19          1           0        0.000000   -2.510166    0.000000
     20          1           0       -2.467850   -2.489909    0.000000
     21          1           0       -4.608962   -1.271099    0.000000
     22          1           0       -4.635603    1.212439    0.000000
     23          1           0       -2.485871    2.444297    0.000000
     24          1           0        0.000000    2.144787   -0.858485
     25          1           0        0.000000    2.144787    0.858485
 ---------------------------------------------------------------------
                    Distance matrix (angstroms):
                    1          2          3          4          5
     1  C    0.000000
     2  C    1.392092   0.000000
     3  C    2.392273   1.385277   0.000000
     4  C    2.768508   2.420014   1.404009   0.000000
     5  C    5.674867   6.505013   6.185431   4.926112   0.000000
     6  C    6.513016   7.512621   7.366522   6.185431   1.404009
     7  C    6.229499   7.401116   7.512621   6.505013   2.420014
     8  C    4.981510   6.229499   6.513016   5.674867   2.768508
     9  C    2.492257   3.781126   4.270763   3.771590   3.771655
    10  C    3.740063   4.255550   3.752239   2.463151   2.463151
    11  C    1.406396   2.438657   2.791887   2.405679   4.268473
    12  C    2.438595   2.834516   2.445458   1.399418   3.762201
    13  C    3.814490   4.962465   5.136763   4.268473   2.405679
    14  C    4.275474   5.133978   4.921166   3.762201   1.399418
    15  H    1.083277   2.148325   3.376565   3.851703   6.271122
    16  H    2.149989   1.079823   2.147933   3.403409   7.566650
    17  H    3.378596   2.145262   1.081012   2.150226   7.073330
    18  H    3.851008   3.394021   2.152959   1.082582   5.048346
    19  H    4.603263   4.880827   4.098393   2.698680   2.698680
    20  H    6.278336   6.931744   6.402669   5.048346   1.082582
    21  H    7.571928   8.533761   8.310994   7.073330   2.150226
    22  H    7.127907   8.353639   8.538745   7.566650   3.403409
    23  H    5.093159   6.435195   6.930053   6.271122   3.851703
    24  H    2.748660   4.074215   4.740188   4.406953   4.406953
    25  H    2.748660   4.074215   4.740188   4.406953   4.406953
                    6          7          8          9         10
     6  C    0.000000
     7  C    1.385277   0.000000
     8  C    2.392273   1.392092   0.000000
     9  C    4.270849   3.781224   2.492357   0.000000
    10  C    3.752239   4.255550   3.740063   2.877958   0.000000
    11  C    5.136763   4.962465   3.814490   1.479254   2.455129
    12  C    4.921166   5.133978   4.275474   2.506974   1.421045
    13  C    2.791887   2.438657   1.406396   1.479339   2.455129
    14  C    2.445458   2.834516   2.438595   2.507023   1.421045
    15  H    6.930053   6.435195   5.093159   2.677683   4.602380
    16  H    8.538745   8.353639   7.127907   4.641584   5.335350
    17  H    8.310994   8.533761   7.571928   5.351714   4.611666
    18  H    6.402669   6.931744   6.278336   4.648096   2.686231
    19  H    4.098393   4.880827   4.603263   3.959135   1.081177
    20  H    2.152959   3.394021   3.851008   4.648149   2.686231
    21  H    1.081012   2.145262   3.378596   5.351800   4.611666
    22  H    2.147933   1.079823   2.149989   4.641683   5.335350
    23  H    3.376565   2.148325   1.083277   2.677775   4.602380
    24  H    4.740188   4.074215   2.748660   1.105061   3.675442
    25  H    4.740188   4.074215   2.748660   1.105061   3.675442
                   11         12         13         14         15
    11  C    0.000000
    12  C    1.408324   0.000000
    13  C    2.523810   2.869090   0.000000
    14  C    2.869090   2.475742   1.408324   0.000000
    15  H    2.149739   3.411843   4.143563   4.893815   0.000000
    16  H    3.415921   3.914325   5.921763   6.186684   2.477665
    17  H    3.872717   3.414066   6.185647   5.871716   4.279215
    18  H    3.388762   2.146216   4.892901   4.101922   4.934239
    19  H    3.427904   2.167345   3.427904   2.167345   5.543127
    20  H    4.892901   4.101922   3.388762   2.146216   6.991834
    21  H    6.185647   5.871716   3.872717   3.414066   8.008797
    22  H    5.921763   6.186684   3.415921   3.914325   7.227231
    23  H    4.143563   4.893815   2.149739   3.411843   4.971742
    24  H    2.117488   3.246547   2.117488   3.246547   2.646934
    25  H    2.117488   3.246547   2.117488   3.246547   2.646934
                   16         17         18         19         20
    16  H    0.000000
    17  H    2.483681   0.000000
    18  H    4.290284   2.463708   0.000000
    19  H    5.945301   4.772611   2.467933   0.000000
    20  H    8.010395   7.181000   4.935700   2.467933   0.000000
    21  H    9.572353   9.217924   7.181000   4.772611   2.463708
    22  H    9.271206   9.572353   8.010395   5.945301   4.290284
    23  H    7.227231   8.008797   6.991834   5.543127   4.934239
    24  H    4.805735   5.800673   5.320497   4.733454   5.320497
    25  H    4.805735   5.800673   5.320497   4.733454   5.320497
                   21         22         23         24         25
    21  H    0.000000
    22  H    2.483681   0.000000
    23  H    4.279215   2.477665   0.000000
    24  H    5.800673   4.805735   2.646934   0.000000
    25  H    5.800673   4.805735   2.646934   1.716970   0.000000
 Stoichiometry    C14H11(1+)
 Framework group  CS[SG(C14H9),X(H2)]
 Deg. of freedom    46
 Full point group                 CS      NOp   2
 Largest Abelian subgroup         CS      NOp   2
 Largest concise Abelian subgroup CS      NOp   2
                         Standard orientation:                         
 ---------------------------------------------------------------------
 Center     Atomic      Atomic             Coordinates (Angstroms)
 Number     Number       Type             X           Y           Z
 ---------------------------------------------------------------------
      1          6           0       -1.361030   -2.490752    0.000000
      2          6           0       -0.672338   -3.700555    0.000000
      3          6           0        0.712831   -3.683258    0.000000
      4          6           0        1.407339   -2.463053    0.000000
      5          6           0        1.407339    2.463059    0.000000
      6          6           0        0.712831    3.683264    0.000000
      7          6           0       -0.672338    3.700561    0.000000
      8          6           0       -1.361030    2.490758    0.000000
      9          6           0       -1.448968   -0.000047    0.000000
     10          6           0        1.428990    0.000003    0.000000
     11          6           0       -0.677014   -1.261902    0.000000
     12          6           0        0.731105   -1.237868    0.000000
     13          6           0       -0.677014    1.261908    0.000000
     14          6           0        0.731105    1.237874    0.000000
     15          1           0       -2.444296   -2.485868    0.000000
     16          1           0       -1.212438   -4.635600    0.000000
     17          1           0        1.271100   -4.608959    0.000000
     18          1           0        2.489910   -2.467847    0.000000
     19          1           0        2.510167    0.000003    0.000000
     20          1           0        2.489910    2.467853    0.000000
     21          1           0        1.271100    4.608965    0.000000
     22          1           0       -1.212438    4.635606    0.000000
     23          1           0       -2.444296    2.485874    0.000000
     24          1           0       -2.144786    0.000003    0.858485
     25          1           0       -2.144786    0.000003   -0.858485
 ---------------------------------------------------------------------
 Rotational constants (GHZ):           2.1376667           0.4448417           0.3690157
 Standard basis: 6-311++G(d,p) (5D, 7F)
 There are   299 symmetry adapted cartesian basis functions of A'  symmetry.
 There are   100 symmetry adapted cartesian basis functions of A"  symmetry.
 There are   285 symmetry adapted basis functions of A'  symmetry.
 There are   100 symmetry adapted basis functions of A"  symmetry.
   385 basis functions,   603 primitive gaussians,   399 cartesian basis functions
    47 alpha electrons       47 beta electrons
       nuclear repulsion energy       781.3964721920 Hartrees.
 NAtoms=   25 NActive=   25 NUniq=   24 SFac= 1.09D+00 NAtFMM=   60 NAOKFM=F Big=F
 Integral buffers will be    131072 words long.
 Regular integral format.
 Two-electron integral symmetry is turned on.
 Nuclear repulsion after empirical dispersion term =      781.3954927647 Hartrees.
 One-electron integrals computed using PRISM.
 NBasis=   385 RedAO= T EigKep=  1.11D-06  NBF=   285   100
 NBsUse=   379 1.00D-06 EigRej=  8.36D-07 NBFU=   279   100
 ExpMin= 3.60D-02 ExpMax= 4.56D+03 ExpMxC= 6.82D+02 IAcc=3 IRadAn=         5 AccDes= 0.00D+00
 Harris functional with IExCor= 1009 and IRadAn=       5 diagonalized for initial guess.
 HarFok:  IExCor= 1009 AccDes= 0.00D+00 IRadAn=         5 IDoV= 1 UseB2=F ITyADJ=14
 ICtDFT=  3500011 ScaDFX=  1.000000  1.000000  1.000000  1.000000
 FoFCou: FMM=F IPFlag=           0 FMFlag=      100000 FMFlg1=           0
         NFxFlg=           0 DoJE=T BraDBF=F KetDBF=T FulRan=T
         wScrn=  0.000000 ICntrl=       500 IOpCl=  0 I1Cent=   200000004 NGrid=           0
         NMat0=    1 NMatS0=      1 NMatT0=    0 NMatD0=    1 NMtDS0=    0 NMtDT0=    0
 Petite list used in FoFCou.
 Initial guess orbital symmetries:
       Occupied  (A') (A') (A') (A') (A') (A') (A') (A') (A') (A')
                 (A') (A') (A') (A') (A') (A') (A') (A') (A') (A')
                 (A') (A') (A') (A') (A') (A') (A') (A') (A') (A')
                 (A') (A') (A") (A') (A') (A') (A') (A') (A') (A")
                 (A") (A') (A') (A") (A") (A") (A")
       Virtual   (A") (A") (A") (A") (A") (A') (A') (A') (A') (A")
                 (A") (A') (A') (A') (A") (A') (A') (A') (A') (A")
                 (A') (A") (A') (A') (A') (A") (A') (A") (A') (A')
                 (A') (A') (A') (A") (A') (A') (A") (A') (A') (A")
                 (A') (A') (A') (A") (A') (A') (A') (A') (A') (A")
                 (A') (A') (A") (A") (A') (A') (A') (A") (A") (A')
                 (A') (A') (A') (A') (A') (A") (A') (A') (A') (A")
                 (A') (A') (A') (A') (A') (A') (A') (A') (A') (A')
                 (A') (A') (A') (A') (A') (A') (A') (A') (A') (A')
                 (A') (A') (A') (A') (A') (A') (A') (A") (A') (A")
                 (A') (A') (A") (A") (A') (A") (A") (A') (A') (A")
                 (A") (A') (A') (A') (A") (A') (A') (A") (A") (A')
                 (A") (A") (A') (A') (A') (A") (A') (A') (A') (A")
                 (A') (A') (A') (A') (A') (A') (A") (A') (A') (A')
                 (A') (A') (A') (A') (A') (A') (A') (A') (A') (A")
                 (A") (A') (A") (A") (A') (A') (A') (A") (A") (A')
                 (A") (A') (A") (A") (A") (A') (A') (A') (A') (A')
                 (A') (A") (A") (A') (A') (A') (A') (A') (A') (A")
                 (A') (A') (A') (A') (A') (A") (A") (A') (A") (A")
                 (A') (A") (A') (A") (A') (A') (A') (A") (A') (A')
                 (A") (A") (A") (A') (A') (A") (A') (A") (A') (A')
                 (A") (A") (A') (A") (A') (A") (A') (A') (A") (A')
                 (A') (A') (A') (A') (A") (A') (A') (A') (A") (A")
                 (A') (A') (A') (A") (A') (A') (A") (A') (A") (A')
                 (A") (A') (A') (A') (A') (A') (A") (A') (A') (A")
                 (A') (A') (A") (A') (A") (A') (A') (A") (A') (A')
                 (A') (A') (A") (A") (A') (A') (A') (A") (A") (A')
                 (A') (A') (A') (A') (A") (A') (A") (A') (A") (A')
                 (A") (A') (A") (A") (A") (A') (A') (A') (A') (A')
                 (A') (A') (A') (A') (A') (A') (A') (A') (A') (A')
                 (A') (A') (A') (A') (A") (A') (A') (A') (A') (A')
                 (A') (A') (A') (A') (A') (A') (A') (A') (A') (A')
                 (A') (A') (A') (A') (A') (A') (A') (A') (A') (A')
                 (A') (A')
 The electronic state of the initial guess is 1-A'.
 Requested convergence on RMS density matrix=1.00D-08 within 128 cycles.
 Requested convergence on MAX density matrix=1.00D-06.
 Requested convergence on             energy=1.00D-06.
 No special actions if energy rises.
 SCF Done:  E(RM062X) =  -539.760163890     A.U. after   15 cycles
            NFock= 15  Conv=0.44D-08     -V/T= 2.0042
 DoSCS=F DFT=T ScalE2(SS,OS)=  1.000000  1.000000
 ExpMin= 3.60D-02 ExpMax= 4.56D+03 ExpMxC= 6.82D+02 IAcc=3 IRadAn=         5 AccDes= 0.00D+00
 HarFok:  IExCor=  205 AccDes= 0.00D+00 IRadAn=         5 IDoV=-2 UseB2=F ITyADJ=14
 ICtDFT= 12500011 ScaDFX=  1.000000  1.000000  1.000000  1.000000
 Range of M.O.s used for correlation:    15   379
 NBasis=   385 NAE=    47 NBE=    47 NFC=    14 NFV=     0
 NROrb=    365 NOA=    33 NOB=    33 NVA=   332 NVB=   332

 **** Warning!!: The largest alpha MO coefficient is  0.14659520D+03

 Orbital symmetries:
       Occupied  (A') (A') (A') (A') (A') (A') (A') (A') (A') (A')
                 (A') (A') (A') (A') (A') (A') (A') (A') (A') (A')
                 (A') (A') (A') (A') (A') (A') (A') (A') (A') (A')
                 (A') (A') (A") (A') (A') (A') (A') (A") (A") (A')
                 (A') (A') (A') (A") (A") (A") (A")
       Virtual   (A") (A") (A") (A") (A') (A') (A') (A') (A") (A')
                 (A') (A") (A') (A') (A") (A') (A") (A') (A') (A')
                 (A") (A") (A') (A') (A') (A") (A') (A") (A') (A')
                 (A") (A') (A") (A') (A') (A') (A') (A') (A") (A')
                 (A") (A') (A') (A") (A") (A') (A") (A') (A") (A')
                 (A') (A') (A') (A') (A') (A") (A') (A') (A') (A')
                 (A') (A") (A') (A') (A') (A') (A") (A') (A') (A')
                 (A') (A') (A') (A') (A') (A') (A') (A') (A') (A')
                 (A') (A') (A') (A') (A') (A') (A') (A') (A') (A')
                 (A') (A') (A') (A') (A") (A') (A") (A") (A') (A")
                 (A') (A') (A') (A') (A") (A") (A') (A") (A") (A')
                 (A') (A') (A") (A') (A') (A") (A') (A") (A') (A")
                 (A") (A') (A") (A') (A') (A') (A") (A') (A') (A')
                 (A') (A') (A') (A') (A') (A') (A') (A') (A') (A')
                 (A') (A') (A') (A") (A') (A') (A') (A') (A') (A')
                 (A') (A') (A") (A') (A") (A') (A") (A") (A') (A")
                 (A") (A') (A') (A") (A") (A") (A') (A") (A') (A')
                 (A') (A') (A') (A") (A") (A') (A') (A') (A') (A")
                 (A') (A') (A') (A") (A') (A") (A') (A') (A") (A")
                 (A") (A') (A') (A") (A') (A") (A') (A') (A') (A')
                 (A") (A") (A") (A') (A') (A") (A') (A") (A') (A')
                 (A') (A") (A') (A") (A") (A') (A") (A') (A') (A")
                 (A') (A') (A') (A') (A") (A') (A') (A') (A") (A")
                 (A') (A') (A') (A") (A') (A') (A') (A") (A") (A')
                 (A") (A') (A') (A") (A') (A') (A') (A') (A') (A')
                 (A") (A') (A') (A') (A') (A") (A") (A") (A') (A')
                 (A') (A') (A') (A') (A') (A') (A") (A') (A') (A')
                 (A') (A") (A') (A") (A") (A") (A') (A") (A') (A")
                 (A') (A") (A") (A') (A") (A") (A') (A') (A') (A')
                 (A') (A') (A') (A') (A') (A') (A') (A') (A') (A')
                 (A') (A') (A') (A") (A') (A') (A') (A') (A') (A')
                 (A') (A') (A') (A') (A') (A') (A') (A') (A') (A')
                 (A') (A') (A') (A') (A') (A') (A') (A') (A') (A')
                 (A') (A')
     4 initial guesses have been made.
 Convergence on wavefunction:    0.001000000000000
 Iteration     1 Dimension     4 NMult     0 NNew      4
 CISAX will form     4 AO SS matrices at one time.
 Iteration     2 Dimension     6 NMult     4 NNew      2
 Iteration     3 Dimension     8 NMult     6 NNew      2
 Iteration     4 Dimension    10 NMult     8 NNew      2
 Iteration     5 Dimension    12 NMult    10 NNew      2
 Iteration     6 Dimension    14 NMult    12 NNew      2
 ***********************************************************************
 Excited states from <AA,BB:AA,BB> singles matrix:
 ***********************************************************************
 
 Ground to excited state transition densities written to RWF  633
 Ground to excited state transition electric dipole moments (Au):
       state          X           Y           Z        Dip. S.      Osc.
         1        -0.6467     -0.0000     -0.0000      0.4182      0.0289
 Ground to excited state transition velocity dipole moments (Au):
       state          X           Y           Z        Dip. S.      Osc.
         1         0.0748      0.0000     -0.0000      0.0056      0.0360
 Ground to excited state transition magnetic dipole moments (Au):
       state          X           Y           Z
         1        -0.0000      0.0000      0.0000
 Ground to excited state transition velocity quadrupole moments (Au):
       state          XX          YY          ZZ          XY          XZ          YZ
         1         0.0348      0.2964     -0.0098     -0.0000     -0.0000      0.0000
 <0|del|b> * <b|rxdel|0> + <0|del|b> * <b|delr+rdel|0>
 Rotatory Strengths (R) in cgs (10**-40 erg-esu-cm/Gauss)
       state          XX          YY          ZZ    R(velocity)    E-M Angle
         1        -0.0000      0.0000     -0.0000     -0.0000       90.00
 1/2[<0|r|b>*<b|rxdel|0> + (<0|rxdel|b>*<b|r|0>)*]
 Rotatory Strengths (R) in cgs (10**-40 erg-esu-cm/Gauss)
       state          XX          YY          ZZ     R(length)
         1        -0.0000      0.0000      0.0000     -0.0000
  1/2[<0|del|b>*<b|r|0> + (<0|r|b>*<b|del|0>)*] (Au)
       state          X           Y           Z        Dip. S.   Osc.(frdel)
         1        -0.0484     -0.0000      0.0000      0.0484      0.0323

 Excitation energies and oscillator strengths:
 
 Excited State   1:      Singlet-A'     2.8224 eV  439.29 nm  f=0.0289  <S**2>=0.000
      47 -> 48         0.70426
 This state for optimization and/or second-order correction.
 Total Energy, E(TD-HF/TD-DFT) =  -539.656443950    
 Copying the excited state density for this state as the 1-particle RhoCI density.
 SavETr:  write IOETrn=   770 NScale= 10 NData=  16 NLR=1 NState=    1 LETran=      28.

 **********************************************************************

            Population analysis using the SCF Density.

 **********************************************************************

 Orbital symmetries:
       Occupied  (A') (A') (A') (A') (A') (A') (A') (A') (A') (A')
                 (A') (A') (A') (A') (A') (A') (A') (A') (A') (A')
                 (A') (A') (A') (A') (A') (A') (A') (A') (A') (A')
                 (A') (A') (A") (A') (A') (A') (A') (A") (A") (A')
                 (A') (A') (A') (A") (A") (A") (A")
       Virtual   (A") (A") (A") (A") (A') (A') (A') (A') (A") (A')
                 (A') (A") (A') (A') (A") (A') (A") (A') (A') (A')
                 (A") (A") (A') (A') (A') (A") (A') (A") (A') (A')
                 (A") (A') (A") (A') (A') (A') (A') (A') (A") (A')
                 (A") (A') (A') (A") (A") (A') (A") (A') (A") (A')
                 (A') (A') (A') (A') (A') (A") (A') (A') (A') (A')
                 (A') (A") (A') (A') (A') (A') (A") (A') (A') (A')
                 (A') (A') (A') (A') (A') (A') (A') (A') (A') (A')
                 (A') (A') (A') (A') (A') (A') (A') (A') (A') (A')
                 (A') (A') (A') (A') (A") (A') (A") (A") (A') (A")
                 (A') (A') (A') (A') (A") (A") (A') (A") (A") (A')
                 (A') (A') (A") (A') (A') (A") (A') (A") (A') (A")
                 (A") (A') (A") (A') (A') (A') (A") (A') (A') (A')
                 (A') (A') (A') (A') (A') (A') (A') (A') (A') (A')
                 (A') (A') (A') (A") (A') (A') (A') (A') (A') (A')
                 (A') (A') (A") (A') (A") (A') (A") (A") (A') (A")
                 (A") (A') (A') (A") (A") (A") (A') (A") (A') (A')
                 (A') (A') (A') (A") (A") (A') (A') (A') (A') (A")
                 (A') (A') (A') (A") (A') (A") (A') (A') (A") (A")
                 (A") (A') (A') (A") (A') (A") (A') (A') (A') (A')
                 (A") (A") (A") (A') (A') (A") (A') (A") (A') (A')
                 (A') (A") (A') (A") (A") (A') (A") (A') (A') (A")
                 (A') (A') (A') (A') (A") (A') (A') (A') (A") (A")
                 (A') (A') (A') (A") (A') (A') (A') (A") (A") (A')
                 (A") (A') (A') (A") (A') (A') (A') (A') (A') (A')
                 (A") (A') (A') (A') (A') (A") (A") (A") (A') (A')
                 (A') (A') (A') (A') (A') (A') (A") (A') (A') (A')
                 (A') (A") (A') (A") (A") (A") (A') (A") (A') (A")
                 (A') (A") (A") (A') (A") (A") (A') (A') (A') (A')
                 (A') (A') (A') (A') (A') (A') (A') (A') (A') (A')
                 (A') (A') (A') (A") (A') (A') (A') (A') (A') (A')
                 (A') (A') (A') (A') (A') (A') (A') (A') (A') (A')
                 (A') (A') (A') (A') (A') (A') (A') (A') (A') (A')
                 (A') (A')
 The electronic state is 1-A'.
 Alpha  occ. eigenvalues --  -10.77656 -10.73215 -10.73214 -10.72427 -10.72426
 Alpha  occ. eigenvalues --  -10.71366 -10.71366 -10.71009 -10.71009 -10.70966
 Alpha  occ. eigenvalues --  -10.69971 -10.69971 -10.69623 -10.69623  -1.16468
 Alpha  occ. eigenvalues --   -1.12483  -1.06944  -1.05773  -1.01314  -1.00215
 Alpha  occ. eigenvalues --   -0.95778  -0.91066  -0.86422  -0.85911  -0.83824
 Alpha  occ. eigenvalues --   -0.78404  -0.76052  -0.74421  -0.69549  -0.69252
 Alpha  occ. eigenvalues --   -0.68513  -0.68203  -0.68095  -0.64745  -0.64295
 Alpha  occ. eigenvalues --   -0.63103  -0.61869  -0.59974  -0.59691  -0.59087
 Alpha  occ. eigenvalues --   -0.56910  -0.55207  -0.54859  -0.52435  -0.46641
 Alpha  occ. eigenvalues --   -0.46056  -0.44487
 Alpha virt. eigenvalues --   -0.26078  -0.14672  -0.14097  -0.12771  -0.11180
 Alpha virt. eigenvalues --   -0.10089  -0.09230  -0.07983  -0.07965  -0.07476
 Alpha virt. eigenvalues --   -0.07207  -0.07147  -0.05642  -0.05583  -0.05334
 Alpha virt. eigenvalues --   -0.03826  -0.03647  -0.03280  -0.03131  -0.02164
 Alpha virt. eigenvalues --   -0.01370  -0.00931   0.00188   0.00592   0.00677
 Alpha virt. eigenvalues --    0.01056   0.01511   0.01937   0.02223   0.02277
 Alpha virt. eigenvalues --    0.02450   0.02672   0.02749   0.03283   0.03370
 Alpha virt. eigenvalues --    0.04239   0.04509   0.04692   0.05029   0.05364
 Alpha virt. eigenvalues --    0.06032   0.06300   0.06598   0.07052   0.07251
 Alpha virt. eigenvalues --    0.07894   0.08169   0.08368   0.08547   0.08928
 Alpha virt. eigenvalues --    0.09552   0.09559   0.10047   0.10884   0.11052
 Alpha virt. eigenvalues --    0.11112   0.12186   0.12246   0.12920   0.12993
 Alpha virt. eigenvalues --    0.13410   0.13522   0.14025   0.14378   0.16270
 Alpha virt. eigenvalues --    0.16298   0.16321   0.17348   0.17629   0.17796
 Alpha virt. eigenvalues --    0.18131   0.19061   0.19232   0.19649   0.19745
 Alpha virt. eigenvalues --    0.21591   0.21592   0.22729   0.23123   0.23572
 Alpha virt. eigenvalues --    0.23758   0.24554   0.25274   0.26922   0.27613
 Alpha virt. eigenvalues --    0.28861   0.29305   0.29882   0.31371   0.35850
 Alpha virt. eigenvalues --    0.36450   0.38179   0.39281   0.41163   0.41403
 Alpha virt. eigenvalues --    0.41992   0.42182   0.42982   0.43702   0.44296
 Alpha virt. eigenvalues --    0.44955   0.45022   0.46106   0.46168   0.47919
 Alpha virt. eigenvalues --    0.48533   0.48888   0.49016   0.50431   0.51224
 Alpha virt. eigenvalues --    0.51639   0.51697   0.52114   0.52931   0.53972
 Alpha virt. eigenvalues --    0.54087   0.54679   0.55683   0.55762   0.57395
 Alpha virt. eigenvalues --    0.58243   0.58815   0.61451   0.62171   0.62350
 Alpha virt. eigenvalues --    0.63225   0.63494   0.65013   0.65161   0.67326
 Alpha virt. eigenvalues --    0.70398   0.70580   0.71037   0.72424   0.72880
 Alpha virt. eigenvalues --    0.75772   0.76019   0.76303   0.76906   0.77096
 Alpha virt. eigenvalues --    0.77849   0.77902   0.78260   0.79868   0.80401
 Alpha virt. eigenvalues --    0.81266   0.81643   0.82129   0.83021   0.85207
 Alpha virt. eigenvalues --    0.87182   0.88211   0.88630   0.89113   0.90421
 Alpha virt. eigenvalues --    0.91127   0.91247   0.93193   0.94644   0.96478
 Alpha virt. eigenvalues --    0.96632   1.00380   1.01309   1.01685   1.02713
 Alpha virt. eigenvalues --    1.03201   1.03883   1.04739   1.05375   1.08788
 Alpha virt. eigenvalues --    1.19569   1.23262   1.24078   1.25305   1.28081
 Alpha virt. eigenvalues --    1.29675   1.31787   1.34264   1.35785   1.36009
 Alpha virt. eigenvalues --    1.39379   1.40181   1.40968   1.42977   1.43483
 Alpha virt. eigenvalues --    1.43541   1.45231   1.45335   1.46381   1.46685
 Alpha virt. eigenvalues --    1.47639   1.48037   1.51774   1.53629   1.55815
 Alpha virt. eigenvalues --    1.55924   1.56357   1.56564   1.57803   1.61480
 Alpha virt. eigenvalues --    1.63205   1.63536   1.63726   1.66135   1.68349
 Alpha virt. eigenvalues --    1.68358   1.68669   1.69715   1.74426   1.76005
 Alpha virt. eigenvalues --    1.77207   1.78048   1.80109   1.80170   1.80728
 Alpha virt. eigenvalues --    1.83191   1.83205   1.83648   1.83808   1.84145
 Alpha virt. eigenvalues --    1.84288   1.85875   1.86067   1.88233   1.91399
 Alpha virt. eigenvalues --    1.92096   1.94147   1.95221   1.97701   1.98175
 Alpha virt. eigenvalues --    1.99769   2.02577   2.04450   2.07261   2.11831
 Alpha virt. eigenvalues --    2.12086   2.14113   2.15217   2.19156   2.21324
 Alpha virt. eigenvalues --    2.22798   2.28564   2.30296   2.34700   2.34978
 Alpha virt. eigenvalues --    2.36221   2.38691   2.39593   2.42395   2.44477
 Alpha virt. eigenvalues --    2.46186   2.46700   2.49390   2.52933   2.53823
 Alpha virt. eigenvalues --    2.54345   2.56712   2.57848   2.58298   2.59659
 Alpha virt. eigenvalues --    2.59822   2.61621   2.62157   2.63558   2.63831
 Alpha virt. eigenvalues --    2.64787   2.65138   2.65239   2.65336   2.68053
 Alpha virt. eigenvalues --    2.68611   2.70972   2.71418   2.73352   2.74829
 Alpha virt. eigenvalues --    2.76303   2.78930   2.79747   2.82970   2.83073
 Alpha virt. eigenvalues --    2.84909   2.86345   2.92135   2.96980   2.99527
 Alpha virt. eigenvalues --    3.00084   3.05327   3.11206   3.11541   3.13091
 Alpha virt. eigenvalues --    3.21127   3.24071   3.26806   3.28264   3.30800
 Alpha virt. eigenvalues --    3.32806   3.33612   3.43411   3.45913   3.46728
 Alpha virt. eigenvalues --    3.48657   3.50232   3.56584   3.65412   3.66997
 Alpha virt. eigenvalues --    3.67458   3.94196   3.94609   3.95133   3.96246
 Alpha virt. eigenvalues --    4.04028   4.06945   4.07559   4.12539   4.35682
 Alpha virt. eigenvalues --    4.61669   4.69896   4.71672  23.45336  23.60598
 Alpha virt. eigenvalues --   23.82318  23.85847  23.88000  23.89373  23.90461
 Alpha virt. eigenvalues --   23.92306  23.97952  23.99690  23.99831  24.00235
 Alpha virt. eigenvalues --   24.10582  24.10676
          Condensed to atoms (all electrons):
               1          2          3          4          5          6
     1  C    8.550086   0.374317  -0.559393   1.907467  -0.013503  -0.094932
     2  C    0.374317   7.095860   0.366050  -1.040347  -0.024205  -0.014862
     3  C   -0.559393   0.366050   6.585554   0.749613  -0.121594   0.016949
     4  C    1.907467  -1.040347   0.749613  10.886873  -0.327092  -0.121582
     5  C   -0.013503  -0.024205  -0.121594  -0.327092  10.887048   0.749597
     6  C   -0.094932  -0.014862   0.016949  -0.121582   0.749597   6.585554
     7  C   -0.022540   0.002889  -0.014862  -0.024217  -1.040303   0.366017
     8  C    0.406346  -0.022520  -0.094930  -0.013576   1.907616  -0.559398
     9  C   -1.225672  -0.785495   0.289139  -0.249989  -0.249775   0.289144
    10  C   -1.252531   0.239124  -0.356842  -2.560676  -2.560686  -0.356782
    11  C    0.267980  -0.933904   1.019294  -0.236744  -1.498317  -0.177187
    12  C   -1.937112   1.312453  -1.376904  -1.511570  -0.326579  -0.200376
    13  C    0.175533  -0.240351  -0.177175  -1.498264  -0.236732   1.019226
    14  C   -1.071190  -0.202703  -0.200381  -0.326414  -1.512005  -1.376842
    15  H    0.365498  -0.104051  -0.001784   0.026678   0.005911   0.001101
    16  H   -0.019480   0.378138  -0.016125   0.013708  -0.001553  -0.000329
    17  H   -0.023513  -0.016813   0.374544  -0.067040   0.000313   0.000396
    18  H    0.049122   0.002984  -0.085078   0.454884   0.007138  -0.005006
    19  H   -0.046859  -0.007577   0.050888  -0.070101  -0.070117   0.050885
    20  H    0.007422   0.001985  -0.005006   0.007136   0.454887  -0.085079
    21  H   -0.001324  -0.000399   0.000396   0.000313  -0.067040   0.374543
    22  H    0.000701   0.000361  -0.000329  -0.001553   0.013711  -0.016128
    23  H    0.005864  -0.002704   0.001101   0.005911   0.026678  -0.001784
    24  H    0.032103   0.014332  -0.001487  -0.012288  -0.012289  -0.001488
    25  H    0.032103   0.014332  -0.001487  -0.012288  -0.012289  -0.001488
               7          8          9         10         11         12
     1  C   -0.022540   0.406346  -1.225672  -1.252531   0.267980  -1.937112
     2  C    0.002889  -0.022520  -0.785495   0.239124  -0.933904   1.312453
     3  C   -0.014862  -0.094930   0.289139  -0.356842   1.019294  -1.376904
     4  C   -0.024217  -0.013576  -0.249989  -2.560676  -0.236744  -1.511570
     5  C   -1.040303   1.907616  -0.249775  -2.560686  -1.498317  -0.326579
     6  C    0.366017  -0.559398   0.289144  -0.356782  -0.177187  -0.200376
     7  C    7.095667   0.374307  -0.785450   0.239076  -0.240256  -0.202667
     8  C    0.374307   8.549951  -1.225438  -1.252557   0.175690  -1.071070
     9  C   -0.785450  -1.225438   9.633934   0.253687   1.706608  -1.977008
    10  C    0.239076  -1.252557   0.253687   9.224644  -0.524826   2.433719
    11  C   -0.240256   0.175690   1.706608  -0.524826  14.595020  -3.813827
    12  C   -0.202667  -1.071070  -1.977008   2.433719  -3.813827  16.053420
    13  C   -0.933809   0.267753   1.706436  -0.524739   1.089101  -4.841844
    14  C    1.312423  -1.937374  -1.977200   2.433870  -4.841680   3.000706
    15  H   -0.002703   0.005864   0.091851  -0.009581  -0.029882  -0.024373
    16  H    0.000361   0.000701   0.004139  -0.009731   0.028526  -0.034956
    17  H   -0.000399  -0.001323  -0.005876   0.020696  -0.028140   0.091193
    18  H    0.001985   0.007421  -0.025311   0.015318  -0.008862  -0.052283
    19  H   -0.007577  -0.046858   0.076212   0.422143   0.077452  -0.065066
    20  H    0.002987   0.049123  -0.025307   0.015313  -0.011749  -0.012891
    21  H   -0.016815  -0.023510  -0.005877   0.020695  -0.006345   0.005295
    22  H    0.378135  -0.019471   0.004143  -0.009733   0.003137  -0.009131
    23  H   -0.104047   0.365505   0.091857  -0.009580   0.001516   0.006677
    24  H    0.014330   0.032098   0.357316   0.005490   0.013301  -0.059731
    25  H    0.014330   0.032098   0.357316   0.005490   0.013301  -0.059731
              13         14         15         16         17         18
     1  C    0.175533  -1.071190   0.365498  -0.019480  -0.023513   0.049122
     2  C   -0.240351  -0.202703  -0.104051   0.378138  -0.016813   0.002984
     3  C   -0.177175  -0.200381  -0.001784  -0.016125   0.374544  -0.085078
     4  C   -1.498264  -0.326414   0.026678   0.013708  -0.067040   0.454884
     5  C   -0.236732  -1.512005   0.005911  -0.001553   0.000313   0.007138
     6  C    1.019226  -1.376842   0.001101  -0.000329   0.000396  -0.005006
     7  C   -0.933809   1.312423  -0.002703   0.000361  -0.000399   0.001985
     8  C    0.267753  -1.937374   0.005864   0.000701  -0.001323   0.007421
     9  C    1.706436  -1.977200   0.091851   0.004139  -0.005876  -0.025311
    10  C   -0.524739   2.433870  -0.009581  -0.009731   0.020696   0.015318
    11  C    1.089101  -4.841680  -0.029882   0.028526  -0.028140  -0.008862
    12  C   -4.841844   3.000706  -0.024373  -0.034956   0.091193  -0.052283
    13  C   14.595527  -3.813749   0.001517   0.003136  -0.006345  -0.011749
    14  C   -3.813749  16.053944   0.006677  -0.009131   0.005295  -0.012887
    15  H    0.001517   0.006677   0.438632  -0.008962   0.001463   0.000195
    16  H    0.003136  -0.009131  -0.008962   0.419290  -0.006641   0.001912
    17  H   -0.006345   0.005295   0.001463  -0.006641   0.422432  -0.010188
    18  H   -0.011749  -0.012887   0.000195   0.001912  -0.010188   0.453146
    19  H    0.077438  -0.065071   0.000298  -0.000533   0.001406  -0.006132
    20  H   -0.008852  -0.052293  -0.000111   0.000015  -0.000142   0.001284
    21  H   -0.028139   0.091193   0.000013  -0.000007   0.000010  -0.000142
    22  H    0.028532  -0.034971  -0.000126   0.000007  -0.000007   0.000015
    23  H   -0.029890  -0.024379   0.000599  -0.000126   0.000013  -0.000111
    24  H    0.013294  -0.059732  -0.000893   0.000628  -0.000141   0.000176
    25  H    0.013294  -0.059732  -0.000893   0.000628  -0.000141   0.000176
              19         20         21         22         23         24
     1  C   -0.046859   0.007422  -0.001324   0.000701   0.005864   0.032103
     2  C   -0.007577   0.001985  -0.000399   0.000361  -0.002704   0.014332
     3  C    0.050888  -0.005006   0.000396  -0.000329   0.001101  -0.001487
     4  C   -0.070101   0.007136   0.000313  -0.001553   0.005911  -0.012288
     5  C   -0.070117   0.454887  -0.067040   0.013711   0.026678  -0.012289
     6  C    0.050885  -0.085079   0.374543  -0.016128  -0.001784  -0.001488
     7  C   -0.007577   0.002987  -0.016815   0.378135  -0.104047   0.014330
     8  C   -0.046858   0.049123  -0.023510  -0.019471   0.365505   0.032098
     9  C    0.076212  -0.025307  -0.005877   0.004143   0.091857   0.357316
    10  C    0.422143   0.015313   0.020695  -0.009733  -0.009580   0.005490
    11  C    0.077452  -0.011749  -0.006345   0.003137   0.001516   0.013301
    12  C   -0.065066  -0.012891   0.005295  -0.009131   0.006677  -0.059731
    13  C    0.077438  -0.008852  -0.028139   0.028532  -0.029890   0.013294
    14  C   -0.065071  -0.052293   0.091193  -0.034971  -0.024379  -0.059732
    15  H    0.000298  -0.000111   0.000013  -0.000126   0.000599  -0.000893
    16  H   -0.000533   0.000015  -0.000007   0.000007  -0.000126   0.000628
    17  H    0.001406  -0.000142   0.000010  -0.000007   0.000013  -0.000141
    18  H   -0.006132   0.001284  -0.000142   0.000015  -0.000111   0.000176
    19  H    0.442626  -0.006133   0.001406  -0.000533   0.000298   0.000613
    20  H   -0.006133   0.453147  -0.010188   0.001912   0.000195   0.000176
    21  H    0.001406  -0.010188   0.422432  -0.006641   0.001463  -0.000141
    22  H   -0.000533   0.001912  -0.006641   0.419290  -0.008963   0.000628
    23  H    0.000298   0.000195   0.001463  -0.008963   0.438632  -0.000893
    24  H    0.000613   0.000176  -0.000141   0.000628  -0.000893   0.494538
    25  H    0.000613   0.000176  -0.000141   0.000628  -0.000893  -0.080467
              25
     1  C    0.032103
     2  C    0.014332
     3  C   -0.001487
     4  C   -0.012288
     5  C   -0.012289
     6  C   -0.001488
     7  C    0.014330
     8  C    0.032098
     9  C    0.357316
    10  C    0.005490
    11  C    0.013301
    12  C   -0.059731
    13  C    0.013294
    14  C   -0.059732
    15  H   -0.000893
    16  H    0.000628
    17  H   -0.000141
    18  H    0.000176
    19  H    0.000613
    20  H    0.000176
    21  H   -0.000141
    22  H    0.000628
    23  H   -0.000893
    24  H   -0.080467
    25  H    0.494538
 Mulliken charges:
               1
     1  C    0.093508
     2  C   -0.406893
     3  C   -0.440152
     4  C    0.021160
     5  C    0.021182
     6  C   -0.440151
     7  C   -0.406862
     8  C    0.093554
     9  C   -0.323384
    10  C    0.098999
    11  C   -0.639208
    12  C    0.673655
    13  C   -0.639150
    14  C    0.673625
    15  H    0.237063
    16  H    0.256385
    17  H    0.248949
    18  H    0.221994
    19  H    0.190281
    20  H    0.221994
    21  H    0.248949
    22  H    0.256385
    23  H    0.237062
    24  H    0.250527
    25  H    0.250527
 Sum of Mulliken charges =   1.00000
 Mulliken charges with hydrogens summed into heavy atoms:
               1
     1  C    0.330571
     2  C   -0.150507
     3  C   -0.191203
     4  C    0.243154
     5  C    0.243176
     6  C   -0.191201
     7  C   -0.150477
     8  C    0.330615
     9  C    0.177671
    10  C    0.289280
    11  C   -0.639208
    12  C    0.673655
    13  C   -0.639150
    14  C    0.673625
 Electronic spatial extent (au):  <R**2>=           2854.5704
 Charge=              1.0000 electrons
 Dipole moment (field-independent basis, Debye):
    X=              0.1840    Y=              0.0000    Z=              0.0000  Tot=              0.1840
 Quadrupole moment (field-independent basis, Debye-Ang):
   XX=            -56.2563   YY=            -31.1391   ZZ=            -84.1409
   XY=             -0.0000   XZ=             -0.0000   YZ=              0.0000
 Traceless Quadrupole moment (field-independent basis, Debye-Ang):
   XX=              0.9225   YY=             26.0397   ZZ=            -26.9622
   XY=             -0.0000   XZ=             -0.0000   YZ=              0.0000
 Octapole moment (field-independent basis, Debye-Ang**2):
  XXX=              5.1689  YYY=              0.0006  ZZZ=             -0.0000  XYY=             -5.1709
  XXY=              0.0001  XXZ=              0.0000  XZZ=             -3.0708  YZZ=             -0.0001
  YYZ=              0.0000  XYZ=              0.0000
 Hexadecapole moment (field-independent basis, Debye-Ang**3):
 XXXX=           -608.7882 YYYY=          -2122.0087 ZZZZ=            -99.3187 XXXY=             -0.0014
 XXXZ=             -0.0000 YYYX=             -0.0014 YYYZ=              0.0000 ZZZX=             -0.0000
 ZZZY=             -0.0000 XXYY=           -507.4327 XXZZ=           -145.6569 YYZZ=           -590.4557
 XXYZ=              0.0000 YYXZ=             -0.0000 ZZXY=             -0.0004
 N-N= 7.813954927647D+02 E-N=-2.799139403845D+03  KE= 5.375162132446D+02
 Symmetry A'   KE= 5.228690463441D+02
 Symmetry A"   KE= 1.464716690050D+01
 Unable to Open any file for archive entry.
 1\1\GINC-GADI-CPU-CLX-1762\SP\RM062X TD-FC\6-311++G(d,p)\C14H11(1+)\TS
 1578\02-Aug-2022\0\\#n M062X/6-311++G(d,p) TD(NStates=1) EmpiricalDisp
 ersion=GD3 SP\\SP_-50\\1,1\C,0,2.490755,1.361031,0.\C,0,3.700558,0.672
 339,0.\C,0,3.683261,-0.71283,0.\C,0,2.463056,-1.407338,0.\C,0,-2.46305
 6,-1.407338,0.\C,0,-3.683261,-0.71283,0.\C,0,-3.700558,0.672339,0.\C,0
 ,-2.490755,1.361031,0.\C,0,0.00005,1.448969,0.\C,0,0.,-1.428989,0.\C,0
 ,1.261905,0.677015,0.\C,0,1.237871,-0.731104,0.\C,0,-1.261905,0.677015
 ,0.\C,0,-1.237871,-0.731104,0.\H,0,2.485871,2.444297,0.\H,0,4.635603,1
 .212439,0.\H,0,4.608962,-1.271099,0.\H,0,2.46785,-2.489909,0.\H,0,0.,-
 2.510166,0.\H,0,-2.46785,-2.489909,0.\H,0,-4.608962,-1.271099,0.\H,0,-
 4.635603,1.212439,0.\H,0,-2.485871,2.444297,0.\H,0,0.,2.144787,-0.8584
 85\H,0,0.,2.144787,0.858485\\Version=ES64L-G16RevC.01\State=1-A'\HF=-5
 39.7601639\RMSD=4.391e-09\PG=CS [SG(C14H9),X(H2)]\\@
 The archive entry for this job was punched.


 Change starts when someone sees the next step.
                            -- William Drayton
 Job cpu time:       0 days  0 hours 51 minutes 44.0 seconds.
 Elapsed time:       0 days  0 hours  1 minutes  4.8 seconds.
 File lengths (MBytes):  RWF=    460 Int=      0 D2E=      0 Chk=     15 Scr=      1
 Normal termination of Gaussian 16 at Tue Aug  2 11:35:51 2022.
