 Entering Gaussian System, Link 0=g16
 Initial command:
 /apps/gaussian/g16c01/g16/l1.exe "/jobfs/53796104.gadi-pbs/Gau-3663636.inp" -scrdir="/jobfs/53796104.gadi-pbs/"
 Entering Link 1 = /apps/gaussian/g16c01/g16/l1.exe PID=   3663637.
  
 Copyright (c) 1988-2019, Gaussian, Inc.  All Rights Reserved.
  
 This is part of the Gaussian(R) 16 program.  It is based on
 the Gaussian(R) 09 system (copyright 2009, Gaussian, Inc.),
 the Gaussian(R) 03 system (copyright 2003, Gaussian, Inc.),
 the Gaussian(R) 98 system (copyright 1998, Gaussian, Inc.),
 the Gaussian(R) 94 system (copyright 1995, Gaussian, Inc.),
 the Gaussian 92(TM) system (copyright 1992, Gaussian, Inc.),
 the Gaussian 90(TM) system (copyright 1990, Gaussian, Inc.),
 the Gaussian 88(TM) system (copyright 1988, Gaussian, Inc.),
 the Gaussian 86(TM) system (copyright 1986, Carnegie Mellon
 University), and the Gaussian 82(TM) system (copyright 1983,
 Carnegie Mellon University). Gaussian is a federally registered
 trademark of Gaussian, Inc.
  
 This software contains proprietary and confidential information,
 including trade secrets, belonging to Gaussian, Inc.
  
 This software is provided under written license and may be
 used, copied, transmitted, or stored only in accord with that
 written license.
  
 The following legend is applicable only to US Government
 contracts under FAR:
  
                    RESTRICTED RIGHTS LEGEND
  
 Use, reproduction and disclosure by the US Government is
 subject to restrictions as set forth in subparagraphs (a)
 and (c) of the Commercial Computer Software - Restricted
 Rights clause in FAR 52.227-19.
  
 Gaussian, Inc.
 340 Quinnipiac St., Bldg. 40, Wallingford CT 06492
  
  
 ---------------------------------------------------------------
 Warning -- This program may not be used in any manner that
 competes with the business of Gaussian, Inc. or will provide
 assistance to any competitor of Gaussian, Inc.  The licensee
 of this program is prohibited from giving any competitor of
 Gaussian, Inc. access to this program.  By using this program,
 the user acknowledges that Gaussian, Inc. is engaged in the
 business of creating and licensing software in the field of
 computational chemistry and represents and warrants to the
 licensee that it is not a competitor of Gaussian, Inc. and that
 it will not use this program in any manner prohibited above.
 ---------------------------------------------------------------
  

 Cite this work as:
 Gaussian 16, Revision C.01,
 M. J. Frisch, G. W. Trucks, H. B. Schlegel, G. E. Scuseria, 
 M. A. Robb, J. R. Cheeseman, G. Scalmani, V. Barone, 
 G. A. Petersson, H. Nakatsuji, X. Li, M. Caricato, A. V. Marenich, 
 J. Bloino, B. G. Janesko, R. Gomperts, B. Mennucci, H. P. Hratchian, 
 J. V. Ortiz, A. F. Izmaylov, J. L. Sonnenberg, D. Williams-Young, 
 F. Ding, F. Lipparini, F. Egidi, J. Goings, B. Peng, A. Petrone, 
 T. Henderson, D. Ranasinghe, V. G. Zakrzewski, J. Gao, N. Rega, 
 G. Zheng, W. Liang, M. Hada, M. Ehara, K. Toyota, R. Fukuda, 
 J. Hasegawa, M. Ishida, T. Nakajima, Y. Honda, O. Kitao, H. Nakai, 
 T. Vreven, K. Throssell, J. A. Montgomery, Jr., J. E. Peralta, 
 F. Ogliaro, M. J. Bearpark, J. J. Heyd, E. N. Brothers, K. N. Kudin, 
 V. N. Staroverov, T. A. Keith, R. Kobayashi, J. Normand, 
 K. Raghavachari, A. P. Rendell, J. C. Burant, S. S. Iyengar, 
 J. Tomasi, M. Cossi, J. M. Millam, M. Klene, C. Adamo, R. Cammi, 
 J. W. Ochterski, R. L. Martin, K. Morokuma, O. Farkas, 
 J. B. Foresman, and D. J. Fox, Gaussian, Inc., Wallingford CT, 2019.
 
 ******************************************
 Gaussian 16:  ES64L-G16RevC.01  3-Jul-2019
                 2-Aug-2022 
 ******************************************
 %NProcShared=48
 Will use up to   48 processors via shared memory.
 %mem = 190GB
 ---------------------------------------------------------------
 #n M062X/6-311++G(d,p) TD(NStates=1) EmpiricalDispersion=GD3 SP
 ---------------------------------------------------------------
 1/38=1,172=1/1;
 2/12=2,17=6,18=5,40=1/2;
 3/5=4,6=6,7=1111,11=9,25=1,30=1,74=-55,124=31/1,2,3,8;
 4//1;
 5/5=2,38=5/2;
 8/6=1,10=2,108=1/1;
 9/41=1,42=1,70=2/14;
 6/7=2,8=2,9=2,10=2/1;
 99/5=1,9=1/99;
 ------
 SP_100
 ------
 Symbolic Z-matrix:
 Charge =  1 Multiplicity = 1
 C                     2.46916   1.36133   0. 
 C                     3.67296   0.65956   0. 
 C                     3.67596  -0.73578   0. 
 C                     2.49048  -1.42351   0. 
 C                    -2.43588  -1.39166   0. 
 C                    -3.69206  -0.69238   0. 
 C                    -3.73053   0.68424   0. 
 C                    -2.5171    1.35923   0. 
 C                    -0.01533   1.45447   0. 
 C                     0.0427   -1.42924   0. 
 C                     1.26848   0.69047   0. 
 C                     1.25487  -0.73283   0. 
 C                    -1.25571   0.66369   0. 
 C                    -1.21987  -0.72863   0. 
 H                     2.48127   2.44427   0. 
 H                     4.6079    1.20144   0. 
 H                     4.61441  -1.27187   0. 
 H                     2.48025  -2.50558   0. 
 H                     0.03938  -2.51029   0. 
 H                    -2.4547   -2.47461   0. 
 H                    -4.60426  -1.27345   0. 
 H                    -4.66618   1.22156   0. 
 H                    -2.49597   2.4427    0. 
 H                    -0.056     2.14604  -0.85986 
 H                    -0.056     2.14604   0.85986 
 
                          Input orientation:                          
 ---------------------------------------------------------------------
 Center     Atomic      Atomic             Coordinates (Angstroms)
 Number     Number       Type             X           Y           Z
 ---------------------------------------------------------------------
      1          6           0        2.469155    1.361331    0.000000
      2          6           0        3.672958    0.659564    0.000000
      3          6           0        3.675961   -0.735780    0.000000
      4          6           0        2.490481   -1.423513    0.000000
      5          6           0       -2.435881   -1.391663    0.000000
      6          6           0       -3.692061   -0.692380    0.000000
      7          6           0       -3.730533    0.684239    0.000000
      8          6           0       -2.517105    1.359231    0.000000
      9          6           0       -0.015325    1.454469    0.000000
     10          6           0        0.042700   -1.429239    0.000000
     11          6           0        1.268480    0.690465    0.000000
     12          6           0        1.254871   -0.732829    0.000000
     13          6           0       -1.255705    0.663690    0.000000
     14          6           0       -1.219871   -0.728629    0.000000
     15          1           0        2.481271    2.444272    0.000000
     16          1           0        4.607903    1.201439    0.000000
     17          1           0        4.614412   -1.271874    0.000000
     18          1           0        2.480250   -2.505584    0.000000
     19          1           0        0.039375   -2.510291    0.000000
     20          1           0       -2.454700   -2.474609    0.000000
     21          1           0       -4.604262   -1.273449    0.000000
     22          1           0       -4.666178    1.221564    0.000000
     23          1           0       -2.495971    2.442697    0.000000
     24          1           0       -0.056000    2.146037   -0.859860
     25          1           0       -0.056000    2.146037    0.859860
 ---------------------------------------------------------------------
                    Distance matrix (angstroms):
                    1          2          3          4          5
     1  C    0.000000
     2  C    1.393420   0.000000
     3  C    2.419557   1.395347   0.000000
     4  C    2.784926   2.395300   1.370525   0.000000
     5  C    5.624798   6.444024   6.146934   4.926465   0.000000
     6  C    6.494483   7.488074   7.368150   6.225623   1.437701
     7  C    6.236552   7.403532   7.541393   6.568381   2.446527
     8  C    4.986260   6.229479   6.537824   5.728838   2.752093
     9  C    2.486225   3.772970   4.292177   3.815998   3.736249
    10  C    3.697968   4.188302   3.698847   2.447788   2.478866
    11  C    1.375384   2.404677   2.798239   2.441759   4.249417
    12  C    2.420742   2.790323   2.421092   1.415548   3.749095
    13  C    3.789629   4.928665   5.126387   4.288394   2.370083
    14  C    4.239911   5.085947   4.895837   3.774861   1.385025
    15  H    1.083009   2.145996   3.397060   3.867796   6.236408
    16  H    2.144716   1.080625   2.149729   3.372514   7.505936
    17  H    3.396453   2.148671   1.080781   2.129337   7.051311
    18  H    3.866931   3.382412   2.135868   1.082119   5.040750
    19  H    4.570918   4.821919   4.046436   2.681232   2.716288
    20  H    6.241697   6.882676   6.372482   5.055652   1.083110
    21  H    7.548198   8.499936   8.297661   7.096330   2.171601
    22  H    7.136702   8.358052   8.568692   7.629823   3.435576
    23  H    5.081518   6.421468   6.942295   6.309698   3.834831
    24  H    2.780563   4.105373   4.792887   4.468290   4.349542
    25  H    2.780563   4.105373   4.792887   4.468290   4.349542
                    6          7          8          9         10
     6  C    0.000000
     7  C    1.377156   0.000000
     8  C    2.364240   1.388532   0.000000
     9  C    4.257622   3.794209   2.503592   0.000000
    10  C    3.806757   4.324821   3.785256   2.884292   0.000000
    11  C    5.149682   4.999017   3.844204   1.493940   2.448608
    12  C    4.947097   5.182889   4.313295   2.529362   1.397979
    13  C    2.788325   2.474913   1.440454   1.471011   2.462967
    14  C    2.472456   2.880906   2.458043   2.493361   1.443932
    15  H    6.924494   6.456332   5.114790   2.685647   4.577195
    16  H    8.513281   8.354461   7.126755   4.630147   5.268923
    17  H    8.326662   8.571143   7.601398   5.372840   4.574420
    18  H    6.433128   6.982034   6.317464   4.680803   2.664614
    19  H    4.150713   4.941379   4.637757   3.965137   1.081057
    20  H    2.169655   3.406768   3.834348   4.624738   2.707361
    21  H    1.081551   2.143815   3.359647   5.338528   4.649573
    22  H    2.147577   1.078958   2.153478   4.656681   5.403729
    23  H    3.355494   2.148562   1.083672   2.670243   4.629983
    24  H    4.692218   4.047024   2.723134   1.104210   3.678546
    25  H    4.692218   4.047024   2.723134   1.104210   3.678546
                   11         12         13         14         15
    11  C    0.000000
    12  C    1.423359   0.000000
    13  C    2.524327   2.872848   0.000000
    14  C    2.864563   2.474746   1.392780   0.000000
    15  H    2.132299   3.405588   4.139500   4.875013   0.000000
    16  H    3.378290   3.870945   5.888215   6.139064   2.463168
    17  H    3.878922   3.402512   6.180994   5.859520   4.284861
    18  H    3.418057   2.155044   4.899149   4.104688   4.949856
    19  H    3.428635   2.153323   3.428030   2.181747   5.523636
    20  H    4.886692   4.098135   3.359540   2.138516   6.968443
    21  H    6.192419   5.884022   3.868506   3.427963   8.001639
    22  H    5.958375   6.235260   3.455799   3.959834   7.251279
    23  H    4.152277   4.914548   2.168669   3.418441   4.977242
    24  H    2.147626   3.278050   2.091890   3.218332   2.695561
    25  H    2.147626   3.278050   2.091890   3.218332   2.695561
                   16         17         18         19         20
    16  H    0.000000
    17  H    2.473322   0.000000
    18  H    4.274217   2.465094   0.000000
    19  H    5.886288   4.739688   2.440880   0.000000
    20  H    7.962015   7.170698   4.935047   2.494330   0.000000
    21  H    9.538818   9.218674   7.190860   4.805533   2.462398
    22  H    9.274103   9.609713   8.059967   6.005745   4.307242
    23  H    7.211501   8.022193   7.017710   5.564177   4.917479
    24  H    4.835661   5.851002   5.367448   4.736016   5.276693
    25  H    4.835661   5.851002   5.367448   4.736016   5.276693
                   21         22         23         24         25
    21  H    0.000000
    22  H    2.495781   0.000000
    23  H    4.272544   2.490174   0.000000
    24  H    5.754905   4.779932   2.604002   0.000000
    25  H    5.754905   4.779932   2.604002   1.719720   0.000000
 Stoichiometry    C14H11(1+)
 Framework group  CS[SG(C14H9),X(H2)]
 Deg. of freedom    46
 Full point group                 CS      NOp   2
 Largest Abelian subgroup         CS      NOp   2
 Largest concise Abelian subgroup CS      NOp   2
                         Standard orientation:                         
 ---------------------------------------------------------------------
 Center     Atomic      Atomic             Coordinates (Angstroms)
 Number     Number       Type             X           Y           Z
 ---------------------------------------------------------------------
      1          6           0       -2.357991   -1.546935    0.000000
      2          6           0       -2.300369   -2.939163    0.000000
      3          6           0       -1.068278   -3.594103    0.000000
      4          6           0        0.093863   -2.867626    0.000000
      5          6           0        2.368648    1.502203    0.000000
      6          6           0        2.337706    2.939572    0.000000
      7          6           0        1.138749    3.617113    0.000000
      8          6           0       -0.025193    2.859974    0.000000
      9          6           0       -1.278899    0.692903    0.000000
     10          6           0        1.243196   -0.706446    0.000000
     11          6           0       -1.203657   -0.799141    0.000000
     12          6           0        0.060907   -1.452462    0.000000
     13          6           0        0.000000    1.419741    0.000000
     14          6           0        1.214069    0.737192    0.000000
     15          1           0       -3.320983   -1.051400    0.000000
     16          1           0       -3.216452   -3.512349    0.000000
     17          1           0       -1.033068   -4.674310    0.000000
     18          1           0        1.055204   -3.364421    0.000000
     19          1           0        2.200408   -1.208870    0.000000
     20          1           0        3.334777    1.012592    0.000000
     21          1           0        3.277805    3.474330    0.000000
     22          1           0        1.101139    4.695415    0.000000
     23          1           0       -0.992865    3.347783    0.000000
     24          1           0       -1.871235    1.052150    0.859860
     25          1           0       -1.871235    1.052150   -0.859860
 ---------------------------------------------------------------------
 Rotational constants (GHZ):           2.1361899           0.4445112           0.3687468
 Standard basis: 6-311++G(d,p) (5D, 7F)
 There are   299 symmetry adapted cartesian basis functions of A'  symmetry.
 There are   100 symmetry adapted cartesian basis functions of A"  symmetry.
 There are   285 symmetry adapted basis functions of A'  symmetry.
 There are   100 symmetry adapted basis functions of A"  symmetry.
   385 basis functions,   603 primitive gaussians,   399 cartesian basis functions
    47 alpha electrons       47 beta electrons
       nuclear repulsion energy       781.1893876136 Hartrees.
 NAtoms=   25 NActive=   25 NUniq=   24 SFac= 1.09D+00 NAtFMM=   60 NAOKFM=F Big=F
 Integral buffers will be    131072 words long.
 Regular integral format.
 Two-electron integral symmetry is turned on.
 Nuclear repulsion after empirical dispersion term =      781.1884084395 Hartrees.
 One-electron integrals computed using PRISM.
 NBasis=   385 RedAO= T EigKep=  1.12D-06  NBF=   285   100
 NBsUse=   379 1.00D-06 EigRej=  8.37D-07 NBFU=   279   100
 ExpMin= 3.60D-02 ExpMax= 4.56D+03 ExpMxC= 6.82D+02 IAcc=3 IRadAn=         5 AccDes= 0.00D+00
 Harris functional with IExCor= 1009 and IRadAn=       5 diagonalized for initial guess.
 HarFok:  IExCor= 1009 AccDes= 0.00D+00 IRadAn=         5 IDoV= 1 UseB2=F ITyADJ=14
 ICtDFT=  3500011 ScaDFX=  1.000000  1.000000  1.000000  1.000000
 FoFCou: FMM=F IPFlag=           0 FMFlag=      100000 FMFlg1=           0
         NFxFlg=           0 DoJE=T BraDBF=F KetDBF=T FulRan=T
         wScrn=  0.000000 ICntrl=       500 IOpCl=  0 I1Cent=   200000004 NGrid=           0
         NMat0=    1 NMatS0=      1 NMatT0=    0 NMatD0=    1 NMtDS0=    0 NMtDT0=    0
 Petite list used in FoFCou.
 Initial guess orbital symmetries:
       Occupied  (A') (A') (A') (A') (A') (A') (A') (A') (A') (A')
                 (A') (A') (A') (A') (A') (A') (A') (A') (A') (A')
                 (A') (A') (A') (A') (A') (A') (A') (A') (A') (A')
                 (A') (A') (A") (A') (A') (A') (A') (A') (A") (A')
                 (A") (A') (A') (A") (A") (A") (A")
       Virtual   (A") (A") (A") (A") (A") (A') (A') (A') (A') (A")
                 (A") (A') (A') (A') (A") (A') (A') (A') (A') (A")
                 (A') (A") (A') (A') (A') (A") (A') (A") (A') (A')
                 (A') (A') (A') (A') (A") (A') (A") (A') (A') (A')
                 (A") (A') (A') (A") (A') (A') (A') (A') (A") (A')
                 (A') (A') (A") (A") (A') (A') (A') (A") (A") (A')
                 (A') (A') (A') (A') (A') (A') (A") (A') (A') (A")
                 (A') (A') (A') (A') (A') (A') (A') (A') (A') (A')
                 (A') (A') (A') (A') (A') (A') (A') (A') (A') (A')
                 (A') (A') (A') (A') (A') (A') (A') (A") (A') (A")
                 (A') (A') (A") (A") (A') (A") (A') (A") (A") (A')
                 (A") (A') (A') (A') (A") (A') (A') (A") (A") (A')
                 (A") (A") (A') (A') (A') (A") (A') (A') (A') (A")
                 (A') (A') (A') (A') (A') (A') (A") (A') (A') (A')
                 (A') (A') (A') (A') (A') (A') (A') (A') (A') (A")
                 (A") (A') (A") (A") (A') (A') (A') (A") (A") (A')
                 (A") (A') (A") (A") (A") (A') (A') (A') (A') (A')
                 (A') (A") (A') (A') (A") (A') (A') (A') (A') (A")
                 (A') (A') (A') (A') (A") (A') (A") (A') (A") (A")
                 (A') (A") (A') (A") (A') (A') (A') (A") (A') (A')
                 (A") (A") (A") (A') (A') (A") (A') (A") (A') (A')
                 (A") (A") (A') (A") (A') (A") (A') (A') (A') (A")
                 (A') (A') (A') (A') (A") (A') (A') (A') (A") (A")
                 (A') (A') (A') (A") (A') (A') (A") (A') (A") (A')
                 (A") (A') (A') (A') (A') (A") (A') (A') (A') (A")
                 (A') (A') (A') (A") (A") (A') (A') (A") (A') (A')
                 (A') (A") (A') (A") (A') (A') (A') (A") (A') (A")
                 (A') (A') (A') (A') (A") (A') (A") (A') (A") (A')
                 (A") (A') (A") (A") (A") (A') (A') (A') (A') (A')
                 (A') (A') (A') (A') (A') (A') (A') (A') (A') (A')
                 (A') (A') (A') (A') (A') (A") (A') (A') (A') (A')
                 (A') (A') (A') (A') (A') (A') (A') (A') (A') (A')
                 (A') (A') (A') (A') (A') (A') (A') (A') (A') (A')
                 (A') (A')
 The electronic state of the initial guess is 1-A'.
 Requested convergence on RMS density matrix=1.00D-08 within 128 cycles.
 Requested convergence on MAX density matrix=1.00D-06.
 Requested convergence on             energy=1.00D-06.
 No special actions if energy rises.
 SCF Done:  E(RM062X) =  -539.754908642     A.U. after   15 cycles
            NFock= 15  Conv=0.93D-08     -V/T= 2.0041
 DoSCS=F DFT=T ScalE2(SS,OS)=  1.000000  1.000000
 ExpMin= 3.60D-02 ExpMax= 4.56D+03 ExpMxC= 6.82D+02 IAcc=3 IRadAn=         5 AccDes= 0.00D+00
 HarFok:  IExCor=  205 AccDes= 0.00D+00 IRadAn=         5 IDoV=-2 UseB2=F ITyADJ=14
 ICtDFT= 12500011 ScaDFX=  1.000000  1.000000  1.000000  1.000000
 Range of M.O.s used for correlation:    15   379
 NBasis=   385 NAE=    47 NBE=    47 NFC=    14 NFV=     0
 NROrb=    365 NOA=    33 NOB=    33 NVA=   332 NVB=   332

 **** Warning!!: The largest alpha MO coefficient is  0.13874430D+03

 Orbital symmetries:
       Occupied  (A') (A') (A') (A') (A') (A') (A') (A') (A') (A')
                 (A') (A') (A') (A') (A') (A') (A') (A') (A') (A')
                 (A') (A') (A') (A') (A') (A') (A') (A') (A') (A')
                 (A') (A") (A') (A') (A') (A') (A') (A") (A") (A')
                 (A') (A') (A') (A") (A") (A") (A")
       Virtual   (A") (A") (A") (A") (A') (A') (A') (A') (A") (A')
                 (A') (A") (A') (A') (A") (A') (A") (A') (A') (A')
                 (A") (A") (A') (A') (A') (A") (A') (A") (A') (A')
                 (A") (A') (A") (A') (A') (A') (A') (A') (A") (A')
                 (A") (A') (A') (A") (A") (A') (A") (A') (A") (A')
                 (A') (A') (A') (A') (A') (A") (A') (A') (A') (A')
                 (A') (A") (A') (A') (A') (A") (A') (A') (A') (A')
                 (A') (A') (A') (A') (A') (A') (A') (A') (A') (A')
                 (A') (A') (A') (A') (A') (A') (A') (A') (A') (A')
                 (A') (A') (A') (A') (A") (A') (A") (A") (A') (A")
                 (A') (A') (A') (A') (A") (A") (A') (A") (A") (A')
                 (A') (A') (A") (A') (A") (A') (A') (A") (A') (A")
                 (A") (A') (A") (A') (A') (A') (A") (A') (A') (A')
                 (A') (A') (A') (A') (A') (A') (A') (A') (A') (A')
                 (A') (A') (A') (A") (A') (A') (A') (A') (A') (A')
                 (A') (A') (A") (A') (A") (A') (A") (A") (A') (A")
                 (A") (A') (A') (A") (A") (A') (A") (A") (A') (A')
                 (A') (A') (A') (A") (A") (A') (A') (A') (A') (A")
                 (A') (A') (A') (A") (A") (A') (A') (A") (A") (A')
                 (A") (A') (A') (A") (A") (A') (A') (A') (A') (A')
                 (A") (A") (A") (A') (A") (A') (A') (A") (A') (A')
                 (A') (A") (A') (A") (A") (A') (A") (A') (A') (A")
                 (A') (A') (A') (A') (A") (A') (A') (A') (A") (A")
                 (A') (A') (A') (A") (A') (A') (A') (A") (A") (A')
                 (A") (A') (A') (A") (A') (A') (A') (A') (A') (A')
                 (A") (A') (A') (A') (A') (A") (A") (A") (A') (A')
                 (A') (A') (A') (A') (A') (A') (A') (A") (A') (A')
                 (A') (A") (A') (A") (A") (A") (A') (A") (A') (A")
                 (A') (A") (A") (A') (A") (A") (A') (A') (A') (A')
                 (A') (A') (A') (A') (A') (A') (A') (A') (A') (A')
                 (A') (A') (A') (A") (A') (A') (A') (A') (A') (A')
                 (A') (A') (A') (A') (A') (A') (A') (A') (A') (A')
                 (A') (A') (A') (A') (A') (A') (A') (A') (A') (A')
                 (A') (A')
     4 initial guesses have been made.
 Convergence on wavefunction:    0.001000000000000
 Iteration     1 Dimension     4 NMult     0 NNew      4
 CISAX will form     4 AO SS matrices at one time.
 Iteration     2 Dimension     6 NMult     4 NNew      2
 Iteration     3 Dimension     8 NMult     6 NNew      2
 Iteration     4 Dimension    10 NMult     8 NNew      2
 Iteration     5 Dimension    12 NMult    10 NNew      2
 Iteration     6 Dimension    14 NMult    12 NNew      2
 ***********************************************************************
 Excited states from <AA,BB:AA,BB> singles matrix:
 ***********************************************************************
 
 Ground to excited state transition densities written to RWF  633
 Ground to excited state transition electric dipole moments (Au):
       state          X           Y           Z        Dip. S.      Osc.
         1        -0.4690      0.3025      0.0000      0.3114      0.0205
 Ground to excited state transition velocity dipole moments (Au):
       state          X           Y           Z        Dip. S.      Osc.
         1         0.0541     -0.0299     -0.0000      0.0038      0.0258
 Ground to excited state transition magnetic dipole moments (Au):
       state          X           Y           Z
         1         0.0000      0.0000     -0.1734
 Ground to excited state transition velocity quadrupole moments (Au):
       state          XX          YY          ZZ          XY          XZ          YZ
         1         0.1412      0.1300     -0.0084      0.1367     -0.0000      0.0000
 <0|del|b> * <b|rxdel|0> + <0|del|b> * <b|delr+rdel|0>
 Rotatory Strengths (R) in cgs (10**-40 erg-esu-cm/Gauss)
       state          XX          YY          ZZ    R(velocity)    E-M Angle
         1        -0.0000      0.0000     -0.0000      0.0000       90.00
 1/2[<0|r|b>*<b|rxdel|0> + (<0|rxdel|b>*<b|r|0>)*]
 Rotatory Strengths (R) in cgs (10**-40 erg-esu-cm/Gauss)
       state          XX          YY          ZZ     R(length)
         1         0.0000     -0.0000      0.0000      0.0000
  1/2[<0|del|b>*<b|r|0> + (<0|r|b>*<b|del|0>)*] (Au)
       state          X           Y           Z        Dip. S.   Osc.(frdel)
         1        -0.0254     -0.0090     -0.0000      0.0344      0.0230

 Excitation energies and oscillator strengths:
 
 Excited State   1:      Singlet-A'     2.6867 eV  461.48 nm  f=0.0205  <S**2>=0.000
      47 -> 48         0.70354
 This state for optimization and/or second-order correction.
 Total Energy, E(TD-HF/TD-DFT) =  -539.656174802    
 Copying the excited state density for this state as the 1-particle RhoCI density.
 SavETr:  write IOETrn=   770 NScale= 10 NData=  16 NLR=1 NState=    1 LETran=      28.

 **********************************************************************

            Population analysis using the SCF Density.

 **********************************************************************

 Orbital symmetries:
       Occupied  (A') (A') (A') (A') (A') (A') (A') (A') (A') (A')
                 (A') (A') (A') (A') (A') (A') (A') (A') (A') (A')
                 (A') (A') (A') (A') (A') (A') (A') (A') (A') (A')
                 (A') (A") (A') (A') (A') (A') (A') (A") (A") (A')
                 (A') (A') (A') (A") (A") (A") (A")
       Virtual   (A") (A") (A") (A") (A') (A') (A') (A') (A") (A')
                 (A') (A") (A') (A') (A") (A') (A") (A') (A') (A')
                 (A") (A") (A') (A') (A') (A") (A') (A") (A') (A')
                 (A") (A') (A") (A') (A') (A') (A') (A') (A") (A')
                 (A") (A') (A') (A") (A") (A') (A") (A') (A") (A')
                 (A') (A') (A') (A') (A') (A") (A') (A') (A') (A')
                 (A') (A") (A') (A') (A') (A") (A') (A') (A') (A')
                 (A') (A') (A') (A') (A') (A') (A') (A') (A') (A')
                 (A') (A') (A') (A') (A') (A') (A') (A') (A') (A')
                 (A') (A') (A') (A') (A") (A') (A") (A") (A') (A")
                 (A') (A') (A') (A') (A") (A") (A') (A") (A") (A')
                 (A') (A') (A") (A') (A") (A') (A') (A") (A') (A")
                 (A") (A') (A") (A') (A') (A') (A") (A') (A') (A')
                 (A') (A') (A') (A') (A') (A') (A') (A') (A') (A')
                 (A') (A') (A') (A") (A') (A') (A') (A') (A') (A')
                 (A') (A') (A") (A') (A") (A') (A") (A") (A') (A")
                 (A") (A') (A') (A") (A") (A') (A") (A") (A') (A')
                 (A') (A') (A') (A") (A") (A') (A') (A') (A') (A")
                 (A') (A') (A') (A") (A") (A') (A') (A") (A") (A')
                 (A") (A') (A') (A") (A") (A') (A') (A') (A') (A')
                 (A") (A") (A") (A') (A") (A') (A') (A") (A') (A')
                 (A') (A") (A') (A") (A") (A') (A") (A') (A') (A")
                 (A') (A') (A') (A') (A") (A') (A') (A') (A") (A")
                 (A') (A') (A') (A") (A') (A') (A') (A") (A") (A')
                 (A") (A') (A') (A") (A') (A') (A') (A') (A') (A')
                 (A") (A') (A') (A') (A') (A") (A") (A") (A') (A')
                 (A') (A') (A') (A') (A') (A') (A') (A") (A') (A')
                 (A') (A") (A') (A") (A") (A") (A') (A") (A') (A")
                 (A') (A") (A") (A') (A") (A") (A') (A') (A') (A')
                 (A') (A') (A') (A') (A') (A') (A') (A') (A') (A')
                 (A') (A') (A') (A") (A') (A') (A') (A') (A') (A')
                 (A') (A') (A') (A') (A') (A') (A') (A') (A') (A')
                 (A') (A') (A') (A') (A') (A') (A') (A') (A') (A')
                 (A') (A')
 The electronic state is 1-A'.
 Alpha  occ. eigenvalues --  -10.77597 -10.73740 -10.72810 -10.72733 -10.71997
 Alpha  occ. eigenvalues --  -10.71934 -10.71823 -10.70986 -10.70869 -10.70201
 Alpha  occ. eigenvalues --  -10.70139 -10.69914 -10.69746 -10.69344  -1.16521
 Alpha  occ. eigenvalues --   -1.12469  -1.06939  -1.05827  -1.01290  -1.00374
 Alpha  occ. eigenvalues --   -0.95602  -0.91032  -0.86438  -0.85892  -0.83782
 Alpha  occ. eigenvalues --   -0.78344  -0.76118  -0.74374  -0.69751  -0.69308
 Alpha  occ. eigenvalues --   -0.68339  -0.68094  -0.68083  -0.65188  -0.64237
 Alpha  occ. eigenvalues --   -0.62786  -0.61634  -0.60405  -0.59303  -0.59153
 Alpha  occ. eigenvalues --   -0.56934  -0.55262  -0.54589  -0.52440  -0.47198
 Alpha  occ. eigenvalues --   -0.46117  -0.43899
 Alpha virt. eigenvalues --   -0.26103  -0.14667  -0.14081  -0.12763  -0.11188
 Alpha virt. eigenvalues --   -0.10092  -0.09254  -0.07964  -0.07935  -0.07483
 Alpha virt. eigenvalues --   -0.07210  -0.07137  -0.05646  -0.05575  -0.05349
 Alpha virt. eigenvalues --   -0.03846  -0.03662  -0.03274  -0.03133  -0.02158
 Alpha virt. eigenvalues --   -0.01352  -0.00952   0.00188   0.00594   0.00644
 Alpha virt. eigenvalues --    0.01064   0.01505   0.01933   0.02154   0.02304
 Alpha virt. eigenvalues --    0.02449   0.02673   0.02787   0.03250   0.03445
 Alpha virt. eigenvalues --    0.04223   0.04497   0.04719   0.05039   0.05387
 Alpha virt. eigenvalues --    0.06025   0.06290   0.06581   0.07052   0.07269
 Alpha virt. eigenvalues --    0.07903   0.08089   0.08352   0.08626   0.08912
 Alpha virt. eigenvalues --    0.09492   0.09587   0.09978   0.10824   0.10973
 Alpha virt. eigenvalues --    0.11127   0.12108   0.12250   0.12717   0.13029
 Alpha virt. eigenvalues --    0.13462   0.13524   0.13984   0.14331   0.15904
 Alpha virt. eigenvalues --    0.16369   0.16476   0.17329   0.17483   0.17784
 Alpha virt. eigenvalues --    0.18125   0.19063   0.19354   0.19655   0.19892
 Alpha virt. eigenvalues --    0.21486   0.21647   0.22673   0.23169   0.23566
 Alpha virt. eigenvalues --    0.23927   0.24539   0.25417   0.26943   0.27617
 Alpha virt. eigenvalues --    0.28856   0.29259   0.29918   0.31353   0.35777
 Alpha virt. eigenvalues --    0.36462   0.38210   0.39280   0.41065   0.41302
 Alpha virt. eigenvalues --    0.41972   0.42123   0.42983   0.43707   0.44381
 Alpha virt. eigenvalues --    0.44786   0.45125   0.45904   0.46382   0.47899
 Alpha virt. eigenvalues --    0.48414   0.48794   0.49038   0.50513   0.51100
 Alpha virt. eigenvalues --    0.51265   0.52037   0.52139   0.52783   0.54118
 Alpha virt. eigenvalues --    0.54126   0.54604   0.55639   0.55932   0.57560
 Alpha virt. eigenvalues --    0.58224   0.58947   0.61497   0.62252   0.62417
 Alpha virt. eigenvalues --    0.63167   0.63476   0.64933   0.65162   0.67437
 Alpha virt. eigenvalues --    0.70341   0.70483   0.71201   0.72505   0.72905
 Alpha virt. eigenvalues --    0.75586   0.76057   0.76416   0.76757   0.77123
 Alpha virt. eigenvalues --    0.77870   0.77996   0.78283   0.79914   0.80393
 Alpha virt. eigenvalues --    0.81242   0.81542   0.82393   0.82993   0.85237
 Alpha virt. eigenvalues --    0.87054   0.88170   0.88189   0.89297   0.90609
 Alpha virt. eigenvalues --    0.91054   0.91416   0.93292   0.94601   0.96282
 Alpha virt. eigenvalues --    0.96899   1.00195   1.01276   1.01534   1.02829
 Alpha virt. eigenvalues --    1.03029   1.03267   1.04865   1.06351   1.08876
 Alpha virt. eigenvalues --    1.19581   1.22980   1.24158   1.24364   1.28858
 Alpha virt. eigenvalues --    1.29322   1.32221   1.34280   1.35754   1.35968
 Alpha virt. eigenvalues --    1.39325   1.39693   1.40845   1.42946   1.43430
 Alpha virt. eigenvalues --    1.43515   1.44268   1.46365   1.46602   1.46806
 Alpha virt. eigenvalues --    1.47699   1.48187   1.51777   1.53675   1.55757
 Alpha virt. eigenvalues --    1.55769   1.56294   1.56586   1.57820   1.61474
 Alpha virt. eigenvalues --    1.63003   1.63370   1.64177   1.66088   1.68299
 Alpha virt. eigenvalues --    1.68364   1.68717   1.69834   1.74417   1.76026
 Alpha virt. eigenvalues --    1.77174   1.78082   1.79850   1.80012   1.80864
 Alpha virt. eigenvalues --    1.82857   1.83193   1.83616   1.83824   1.84180
 Alpha virt. eigenvalues --    1.84559   1.85473   1.86412   1.88356   1.91423
 Alpha virt. eigenvalues --    1.92148   1.94066   1.95334   1.97784   1.98158
 Alpha virt. eigenvalues --    1.99804   2.02406   2.04533   2.07313   2.11731
 Alpha virt. eigenvalues --    2.12165   2.14252   2.15266   2.19073   2.21215
 Alpha virt. eigenvalues --    2.22743   2.28483   2.30283   2.34489   2.34805
 Alpha virt. eigenvalues --    2.36349   2.38600   2.39682   2.42341   2.44577
 Alpha virt. eigenvalues --    2.46120   2.46495   2.49208   2.52951   2.53785
 Alpha virt. eigenvalues --    2.54272   2.56850   2.57912   2.58415   2.59438
 Alpha virt. eigenvalues --    2.59919   2.61544   2.62139   2.63569   2.63734
 Alpha virt. eigenvalues --    2.64832   2.65065   2.65078   2.65589   2.67944
 Alpha virt. eigenvalues --    2.68409   2.70932   2.71468   2.73373   2.74812
 Alpha virt. eigenvalues --    2.76283   2.78440   2.79652   2.83091   2.83205
 Alpha virt. eigenvalues --    2.84863   2.86274   2.92120   2.97103   2.99424
 Alpha virt. eigenvalues --    3.00144   3.04991   3.09615   3.11236   3.14091
 Alpha virt. eigenvalues --    3.20638   3.22299   3.26287   3.28746   3.30657
 Alpha virt. eigenvalues --    3.32820   3.34649   3.43881   3.46208   3.46776
 Alpha virt. eigenvalues --    3.48331   3.50058   3.56441   3.65832   3.66948
 Alpha virt. eigenvalues --    3.67860   3.93708   3.94067   3.95373   3.96480
 Alpha virt. eigenvalues --    4.03932   4.06516   4.07662   4.12536   4.35308
 Alpha virt. eigenvalues --    4.60957   4.69222   4.71216  23.45237  23.60119
 Alpha virt. eigenvalues --   23.80281  23.82652  23.85404  23.89191  23.91820
 Alpha virt. eigenvalues --   23.95252  23.95829  23.97629  24.03148  24.05561
 Alpha virt. eigenvalues --   24.11272  24.12815
          Condensed to atoms (all electrons):
               1          2          3          4          5          6
     1  C    8.370221   0.516668  -0.648132   1.761991  -0.003661  -0.085409
     2  C    0.516668   7.182148   0.421492  -0.994874  -0.039348  -0.015232
     3  C   -0.648132   0.421492   6.607891   0.718444  -0.112856   0.016880
     4  C    1.761991  -0.994874   0.718444  11.504402  -0.381646  -0.139986
     5  C   -0.003661  -0.039348  -0.112856  -0.381646  10.701652   0.827985
     6  C   -0.085409  -0.015232   0.016880  -0.139986   0.827985   6.597560
     7  C   -0.032627   0.000261  -0.013183   0.012983  -1.200697   0.247255
     8  C    0.408050  -0.001766  -0.105878  -0.085423   2.269513  -0.387459
     9  C   -1.149796  -0.860620   0.294908   0.028930  -0.412412   0.294124
    10  C   -1.203096   0.161154  -0.265663  -2.781623  -2.388102  -0.436079
    11  C    0.331986  -0.795953   0.890718  -0.321637  -1.423304  -0.112994
    12  C   -1.811239   1.051797  -1.344084  -1.642723  -0.221999  -0.283807
    13  C    0.197688  -0.211681  -0.225505  -1.592090  -0.321670   1.109459
    14  C   -1.145211  -0.293665  -0.118583  -0.459766  -1.639822  -1.505616
    15  H    0.367004  -0.105915  -0.003176   0.025171   0.006423   0.001235
    16  H   -0.020084   0.382867  -0.021485   0.017000  -0.001688  -0.000357
    17  H   -0.019881  -0.022369   0.381104  -0.069884   0.000135   0.000413
    18  H    0.047351   0.003590  -0.083710   0.466507   0.006054  -0.005018
    19  H   -0.043776  -0.008248   0.051155  -0.080974  -0.061920   0.051634
    20  H    0.006952   0.002032  -0.005261   0.006021   0.454377  -0.084318
    21  H   -0.001236  -0.000418   0.000384   0.000471  -0.066315   0.368162
    22  H    0.000405   0.000318  -0.000297  -0.001336   0.010114  -0.012116
    23  H    0.006679  -0.002312   0.000979   0.004591   0.029907   0.001246
    24  H    0.037711   0.015892  -0.001307  -0.011283  -0.013203  -0.001799
    25  H    0.037711   0.015892  -0.001307  -0.011283  -0.013203  -0.001799
               7          8          9         10         11         12
     1  C   -0.032627   0.408050  -1.149796  -1.203096   0.331986  -1.811239
     2  C    0.000261  -0.001766  -0.860620   0.161154  -0.795953   1.051797
     3  C   -0.013183  -0.105878   0.294908  -0.265663   0.890718  -1.344084
     4  C    0.012983  -0.085423   0.028930  -2.781623  -0.321637  -1.642723
     5  C   -1.200697   2.269513  -0.412412  -2.388102  -1.423304  -0.221999
     6  C    0.247255  -0.387459   0.294124  -0.436079  -0.112994  -0.283807
     7  C    7.191957  -0.002011  -0.780592   0.347608  -0.301652  -0.080775
     8  C   -0.002011   8.969301  -1.126420  -1.390384   0.281809  -1.049598
     9  C   -0.780592  -1.126420   9.623752   0.251831   1.623767  -2.105366
    10  C    0.347608  -1.390384   0.251831   9.123130  -0.322880   2.384098
    11  C   -0.301652   0.281809   1.623767  -0.322880  14.563385  -4.084865
    12  C   -0.080775  -1.049598  -2.105366   2.384098  -4.084865  16.294828
    13  C   -0.988410   0.298564   1.478583  -0.489325   1.069041  -4.714049
    14  C    1.735545  -2.586679  -1.734843   2.466433  -4.822023   3.110565
    15  H   -0.002903   0.004899   0.087485  -0.007854  -0.029487  -0.013013
    16  H    0.000402   0.001036   0.001896  -0.010369   0.024984  -0.030121
    17  H   -0.000373  -0.001405  -0.004793   0.020022  -0.025464   0.085921
    18  H    0.002112   0.007064  -0.022637   0.007433  -0.008987  -0.047847
    19  H   -0.007405  -0.048488   0.074925   0.422381   0.076879  -0.086211
    20  H    0.001918   0.054053  -0.026025   0.014559  -0.012108  -0.008395
    21  H   -0.007938  -0.032370  -0.006430   0.020395  -0.006255   0.005335
    22  H    0.373823  -0.016772   0.004013  -0.008010   0.002467  -0.007665
    23  H   -0.108402   0.370351   0.095447  -0.011233   0.007144   0.004770
    24  H    0.012983   0.027981   0.356413   0.005449   0.024534  -0.059773
    25  H    0.012983   0.027981   0.356413   0.005449   0.024534  -0.059773
              13         14         15         16         17         18
     1  C    0.197688  -1.145211   0.367004  -0.020084  -0.019881   0.047351
     2  C   -0.211681  -0.293665  -0.105915   0.382867  -0.022369   0.003590
     3  C   -0.225505  -0.118583  -0.003176  -0.021485   0.381104  -0.083710
     4  C   -1.592090  -0.459766   0.025171   0.017000  -0.069884   0.466507
     5  C   -0.321670  -1.639822   0.006423  -0.001688   0.000135   0.006054
     6  C    1.109459  -1.505616   0.001235  -0.000357   0.000413  -0.005018
     7  C   -0.988410   1.735545  -0.002903   0.000402  -0.000373   0.002112
     8  C    0.298564  -2.586679   0.004899   0.001036  -0.001405   0.007064
     9  C    1.478583  -1.734843   0.087485   0.001896  -0.004793  -0.022637
    10  C   -0.489325   2.466433  -0.007854  -0.010369   0.020022   0.007433
    11  C    1.069041  -4.822023  -0.029487   0.024984  -0.025464  -0.008987
    12  C   -4.714049   3.110565  -0.013013  -0.030121   0.085921  -0.047847
    13  C   14.310227  -3.343858  -0.003327   0.003406  -0.006308  -0.012369
    14  C   -3.343858  15.894799   0.007592  -0.010383   0.005231  -0.021157
    15  H   -0.003327   0.007592   0.434285  -0.008901   0.001661   0.000236
    16  H    0.003406  -0.010383  -0.008901   0.416143  -0.007068   0.001969
    17  H   -0.006308   0.005231   0.001661  -0.007068   0.419837  -0.010088
    18  H   -0.012369  -0.021157   0.000236   0.001969  -0.010088   0.448623
    19  H    0.082035  -0.046366   0.000409  -0.000604   0.001719  -0.005778
    20  H   -0.002660  -0.065228  -0.000126   0.000019  -0.000166   0.001257
    21  H   -0.027329   0.097426   0.000017  -0.000007   0.000010  -0.000121
    22  H    0.025980  -0.033217  -0.000124   0.000007  -0.000007   0.000011
    23  H   -0.033792  -0.036312   0.000565  -0.000131   0.000011  -0.000102
    24  H    0.002315  -0.060340  -0.000937   0.000627  -0.000134   0.000143
    25  H    0.002315  -0.060340  -0.000937   0.000627  -0.000134   0.000143
              19         20         21         22         23         24
     1  C   -0.043776   0.006952  -0.001236   0.000405   0.006679   0.037711
     2  C   -0.008248   0.002032  -0.000418   0.000318  -0.002312   0.015892
     3  C    0.051155  -0.005261   0.000384  -0.000297   0.000979  -0.001307
     4  C   -0.080974   0.006021   0.000471  -0.001336   0.004591  -0.011283
     5  C   -0.061920   0.454377  -0.066315   0.010114   0.029907  -0.013203
     6  C    0.051634  -0.084318   0.368162  -0.012116   0.001246  -0.001799
     7  C   -0.007405   0.001918  -0.007938   0.373823  -0.108402   0.012983
     8  C   -0.048488   0.054053  -0.032370  -0.016772   0.370351   0.027981
     9  C    0.074925  -0.026025  -0.006430   0.004013   0.095447   0.356413
    10  C    0.422381   0.014559   0.020395  -0.008010  -0.011233   0.005449
    11  C    0.076879  -0.012108  -0.006255   0.002467   0.007144   0.024534
    12  C   -0.086211  -0.008395   0.005335  -0.007665   0.004770  -0.059773
    13  C    0.082035  -0.002660  -0.027329   0.025980  -0.033792   0.002315
    14  C   -0.046366  -0.065228   0.097426  -0.033217  -0.036312  -0.060340
    15  H    0.000409  -0.000126   0.000017  -0.000124   0.000565  -0.000937
    16  H   -0.000604   0.000019  -0.000007   0.000007  -0.000131   0.000627
    17  H    0.001719  -0.000166   0.000010  -0.000007   0.000011  -0.000134
    18  H   -0.005778   0.001257  -0.000121   0.000011  -0.000102   0.000143
    19  H    0.443708  -0.006829   0.001135  -0.000480   0.000226   0.000594
    20  H   -0.006829   0.459012  -0.010407   0.001885   0.000059   0.000223
    21  H    0.001135  -0.010407   0.424775  -0.005978   0.001233  -0.000150
    22  H   -0.000480   0.001885  -0.005978   0.422292  -0.008922   0.000634
    23  H    0.000226   0.000059   0.001233  -0.008922   0.444478  -0.000876
    24  H    0.000594   0.000223  -0.000150   0.000634  -0.000876   0.493386
    25  H    0.000594   0.000223  -0.000150   0.000634  -0.000876  -0.079218
              25
     1  C    0.037711
     2  C    0.015892
     3  C   -0.001307
     4  C   -0.011283
     5  C   -0.013203
     6  C   -0.001799
     7  C    0.012983
     8  C    0.027981
     9  C    0.356413
    10  C    0.005449
    11  C    0.024534
    12  C   -0.059773
    13  C    0.002315
    14  C   -0.060340
    15  H   -0.000937
    16  H    0.000627
    17  H   -0.000134
    18  H    0.000143
    19  H    0.000594
    20  H    0.000223
    21  H   -0.000150
    22  H    0.000634
    23  H   -0.000876
    24  H   -0.079218
    25  H    0.493386
 Mulliken charges:
               1
     1  C    0.073731
     2  C   -0.401709
     3  C   -0.433528
     4  C    0.028018
     5  C   -0.004314
     6  C   -0.443962
     7  C   -0.412860
     8  C    0.114052
     9  C   -0.342552
    10  C    0.084674
    11  C   -0.653635
    12  C    0.713986
    13  C   -0.607238
    14  C    0.665818
    15  H    0.239716
    16  H    0.260217
    17  H    0.252010
    18  H    0.225319
    19  H    0.189685
    20  H    0.218932
    21  H    0.245758
    22  H    0.252338
    23  H    0.235273
    24  H    0.250136
    25  H    0.250136
 Sum of Mulliken charges =   1.00000
 Mulliken charges with hydrogens summed into heavy atoms:
               1
     1  C    0.313447
     2  C   -0.141492
     3  C   -0.181519
     4  C    0.253337
     5  C    0.214618
     6  C   -0.198204
     7  C   -0.160522
     8  C    0.349325
     9  C    0.157719
    10  C    0.274359
    11  C   -0.653635
    12  C    0.713986
    13  C   -0.607238
    14  C    0.665818
 Electronic spatial extent (au):  <R**2>=           2856.4279
 Charge=              1.0000 electrons
 Dipole moment (field-independent basis, Debye):
    X=             -0.3022    Y=             -0.9451    Z=             -0.0000  Tot=              0.9922
 Quadrupole moment (field-independent basis, Debye-Ang):
   XX=            -51.1507   YY=            -36.1475   ZZ=            -84.1333
   XY=             10.1723   XZ=             -0.0000   YZ=             -0.0000
 Traceless Quadrupole moment (field-independent basis, Debye-Ang):
   XX=              5.9931   YY=             20.9963   ZZ=            -26.9895
   XY=             10.1723   XZ=             -0.0000   YZ=             -0.0000
 Octapole moment (field-independent basis, Debye-Ang**2):
  XXX=             -3.1567  YYY=             -3.1771  ZZZ=              0.0000  XYY=             -2.7375
  XXY=             -7.9170  XXZ=             -0.0000  XZZ=             -3.3979  YZZ=              0.1913
  YYZ=             -0.0000  XYZ=             -0.0000
 Hexadecapole moment (field-independent basis, Debye-Ang**3):
 XXXX=           -984.0705 YYYY=          -1852.0071 ZZZZ=            -99.3182 XXXY=           -346.7207
 XXXZ=              0.0000 YYYX=           -272.3906 YYYZ=             -0.0000 ZZZX=              0.0000
 ZZZY=              0.0000 XXYY=           -455.2064 XXZZ=           -240.3520 YYZZ=           -496.1356
 XXYZ=              0.0000 YYXZ=             -0.0000 ZZXY=           -182.1051
 N-N= 7.811884084395D+02 E-N=-2.798730104805D+03  KE= 5.375248929619D+02
 Symmetry A'   KE= 5.228721959704D+02
 Symmetry A"   KE= 1.465269699147D+01
 Unable to Open any file for archive entry.
 1\1\GINC-GADI-CPU-CLX-1762\SP\RM062X TD-FC\6-311++G(d,p)\C14H11(1+)\TS
 1578\02-Aug-2022\0\\#n M062X/6-311++G(d,p) TD(NStates=1) EmpiricalDisp
 ersion=GD3 SP\\SP_100\\1,1\C,0,2.469155,1.361331,0.\C,0,3.672958,0.659
 564,0.\C,0,3.675961,-0.73578,0.\C,0,2.490481,-1.423513,0.\C,0,-2.43588
 1,-1.391663,0.\C,0,-3.692061,-0.69238,0.\C,0,-3.730533,0.684239,0.\C,0
 ,-2.517105,1.359231,0.\C,0,-0.015325,1.454469,0.\C,0,0.0427,-1.429239,
 0.\C,0,1.26848,0.690465,0.\C,0,1.254871,-0.732829,0.\C,0,-1.255705,0.6
 6369,0.\C,0,-1.219871,-0.728629,0.\H,0,2.481271,2.444272,0.\H,0,4.6079
 03,1.201439,0.\H,0,4.614412,-1.271874,0.\H,0,2.48025,-2.505584,0.\H,0,
 0.039375,-2.510291,0.\H,0,-2.4547,-2.474609,0.\H,0,-4.604262,-1.273449
 ,0.\H,0,-4.666178,1.221564,0.\H,0,-2.495971,2.442697,0.\H,0,-0.056,2.1
 46037,-0.85986\H,0,-0.056,2.146037,0.85986\\Version=ES64L-G16RevC.01\S
 tate=1-A'\HF=-539.7549086\RMSD=9.349e-09\PG=CS [SG(C14H9),X(H2)]\\@
 The archive entry for this job was punched.


 TRUST EVERYONE, BUT CUT THE CARDS.
 Job cpu time:       0 days  0 hours 53 minutes 22.4 seconds.
 Elapsed time:       0 days  0 hours  1 minutes  7.4 seconds.
 File lengths (MBytes):  RWF=    460 Int=      0 D2E=      0 Chk=     15 Scr=      1
 Normal termination of Gaussian 16 at Tue Aug  2 13:00:07 2022.
