 Entering Gaussian System, Link 0=g16
 Initial command:
 /apps/gaussian/g16c01/g16/l1.exe "/jobfs/53796104.gadi-pbs/Gau-3592912.inp" -scrdir="/jobfs/53796104.gadi-pbs/"
 Entering Link 1 = /apps/gaussian/g16c01/g16/l1.exe PID=   3592913.
  
 Copyright (c) 1988-2019, Gaussian, Inc.  All Rights Reserved.
  
 This is part of the Gaussian(R) 16 program.  It is based on
 the Gaussian(R) 09 system (copyright 2009, Gaussian, Inc.),
 the Gaussian(R) 03 system (copyright 2003, Gaussian, Inc.),
 the Gaussian(R) 98 system (copyright 1998, Gaussian, Inc.),
 the Gaussian(R) 94 system (copyright 1995, Gaussian, Inc.),
 the Gaussian 92(TM) system (copyright 1992, Gaussian, Inc.),
 the Gaussian 90(TM) system (copyright 1990, Gaussian, Inc.),
 the Gaussian 88(TM) system (copyright 1988, Gaussian, Inc.),
 the Gaussian 86(TM) system (copyright 1986, Carnegie Mellon
 University), and the Gaussian 82(TM) system (copyright 1983,
 Carnegie Mellon University). Gaussian is a federally registered
 trademark of Gaussian, Inc.
  
 This software contains proprietary and confidential information,
 including trade secrets, belonging to Gaussian, Inc.
  
 This software is provided under written license and may be
 used, copied, transmitted, or stored only in accord with that
 written license.
  
 The following legend is applicable only to US Government
 contracts under FAR:
  
                    RESTRICTED RIGHTS LEGEND
  
 Use, reproduction and disclosure by the US Government is
 subject to restrictions as set forth in subparagraphs (a)
 and (c) of the Commercial Computer Software - Restricted
 Rights clause in FAR 52.227-19.
  
 Gaussian, Inc.
 340 Quinnipiac St., Bldg. 40, Wallingford CT 06492
  
  
 ---------------------------------------------------------------
 Warning -- This program may not be used in any manner that
 competes with the business of Gaussian, Inc. or will provide
 assistance to any competitor of Gaussian, Inc.  The licensee
 of this program is prohibited from giving any competitor of
 Gaussian, Inc. access to this program.  By using this program,
 the user acknowledges that Gaussian, Inc. is engaged in the
 business of creating and licensing software in the field of
 computational chemistry and represents and warrants to the
 licensee that it is not a competitor of Gaussian, Inc. and that
 it will not use this program in any manner prohibited above.
 ---------------------------------------------------------------
  

 Cite this work as:
 Gaussian 16, Revision C.01,
 M. J. Frisch, G. W. Trucks, H. B. Schlegel, G. E. Scuseria, 
 M. A. Robb, J. R. Cheeseman, G. Scalmani, V. Barone, 
 G. A. Petersson, H. Nakatsuji, X. Li, M. Caricato, A. V. Marenich, 
 J. Bloino, B. G. Janesko, R. Gomperts, B. Mennucci, H. P. Hratchian, 
 J. V. Ortiz, A. F. Izmaylov, J. L. Sonnenberg, D. Williams-Young, 
 F. Ding, F. Lipparini, F. Egidi, J. Goings, B. Peng, A. Petrone, 
 T. Henderson, D. Ranasinghe, V. G. Zakrzewski, J. Gao, N. Rega, 
 G. Zheng, W. Liang, M. Hada, M. Ehara, K. Toyota, R. Fukuda, 
 J. Hasegawa, M. Ishida, T. Nakajima, Y. Honda, O. Kitao, H. Nakai, 
 T. Vreven, K. Throssell, J. A. Montgomery, Jr., J. E. Peralta, 
 F. Ogliaro, M. J. Bearpark, J. J. Heyd, E. N. Brothers, K. N. Kudin, 
 V. N. Staroverov, T. A. Keith, R. Kobayashi, J. Normand, 
 K. Raghavachari, A. P. Rendell, J. C. Burant, S. S. Iyengar, 
 J. Tomasi, M. Cossi, J. M. Millam, M. Klene, C. Adamo, R. Cammi, 
 J. W. Ochterski, R. L. Martin, K. Morokuma, O. Farkas, 
 J. B. Foresman, and D. J. Fox, Gaussian, Inc., Wallingford CT, 2019.
 
 ******************************************
 Gaussian 16:  ES64L-G16RevC.01  3-Jul-2019
                 2-Aug-2022 
 ******************************************
 %NProcShared=48
 Will use up to   48 processors via shared memory.
 %mem = 190GB
 ---------------------------------------------------------------
 #n M062X/6-311++G(d,p) TD(NStates=1) EmpiricalDispersion=GD3 SP
 ---------------------------------------------------------------
 1/38=1,172=1/1;
 2/12=2,17=6,18=5,40=1/2;
 3/5=4,6=6,7=1111,11=9,25=1,30=1,74=-55,124=31/1,2,3,8;
 4//1;
 5/5=2,38=5/2;
 8/6=1,10=2,108=1/1;
 9/41=1,42=1,70=2/14;
 6/7=2,8=2,9=2,10=2/1;
 99/5=1,9=1/99;
 -------
 SP_-125
 -------
 Symbolic Z-matrix:
 Charge =  1 Multiplicity = 1
 C                     2.50741   1.36043   0. 
 C                     3.72088   0.68124   0. 
 C                     3.68886  -0.69708   0. 
 C                     2.44353  -1.39591   0. 
 C                    -2.48253  -1.41866   0. 
 C                    -3.67736  -0.72808   0. 
 C                    -3.67976   0.66361   0. 
 C                    -2.47316   1.36193   0. 
 C                     0.011     1.44787   0. 
 C                    -0.0305   -1.42894   0. 
 C                     1.25731   0.66744   0. 
 C                     1.22547  -0.72968   0. 
 C                    -1.26643   0.68657   0. 
 C                    -1.25047  -0.73268   0. 
 H                     2.49057   2.4439    0. 
 H                     4.65613   1.21981   0. 
 H                     4.60526  -1.27135   0. 
 H                     2.4588   -2.47881   0. 
 H                    -0.02813  -2.51014   0. 
 H                    -2.47705  -2.50093   0. 
 H                    -4.61251  -1.27022   0. 
 H                    -4.6145    1.20544   0. 
 H                    -2.48007   2.44502   0. 
 H                     0.04      2.14454  -0.85821 
 H                     0.04      2.14454   0.85821 
 
                          Input orientation:                          
 ---------------------------------------------------------------------
 Center     Atomic      Atomic             Coordinates (Angstroms)
 Number     Number       Type             X           Y           Z
 ---------------------------------------------------------------------
      1          6           0        2.507405    1.360431    0.000000
      2          6           0        3.720883    0.681239    0.000000
      3          6           0        3.688861   -0.697080    0.000000
      4          6           0        2.443531   -1.395913    0.000000
      5          6           0       -2.482531   -1.418663    0.000000
      6          6           0       -3.677361   -0.728080    0.000000
      7          6           0       -3.679758    0.663614    0.000000
      8          6           0       -2.473155    1.361931    0.000000
      9          6           0        0.011000    1.447869    0.000000
     10          6           0       -0.030500   -1.428939    0.000000
     11          6           0        1.257305    0.667440    0.000000
     12          6           0        1.225471   -0.729679    0.000000
     13          6           0       -1.266430    0.686565    0.000000
     14          6           0       -1.250471   -0.732679    0.000000
     15          1           0        2.490571    2.443897    0.000000
     16          1           0        4.656128    1.219814    0.000000
     17          1           0        4.605262   -1.271349    0.000000
     18          1           0        2.458800   -2.478809    0.000000
     19          1           0       -0.028125   -2.510141    0.000000
     20          1           0       -2.477050   -2.500934    0.000000
     21          1           0       -4.612512   -1.270224    0.000000
     22          1           0       -4.614503    1.205439    0.000000
     23          1           0       -2.480071    2.445022    0.000000
     24          1           0        0.040000    2.144537   -0.858210
     25          1           0        0.040000    2.144537    0.858210
 ---------------------------------------------------------------------
                    Distance matrix (angstroms):
                    1          2          3          4          5
     1  C    0.000000
     2  C    1.390622   0.000000
     3  C    2.372591   1.378691   0.000000
     4  C    2.757084   2.438481   1.428011   0.000000
     5  C    5.711639   6.549193   6.213434   4.926115   0.000000
     6  C    6.527879   7.531281   7.366287   6.157217   1.380045
     7  C    6.226278   7.400662   7.493199   6.460365   2.401922
     8  C    4.980560   6.231328   6.496920   5.637331   2.780610
     9  C    2.497936   3.788265   4.257636   3.742232   3.799303
    10  C    3.771147   4.304152   3.790681   2.474251   2.452053
    11  C    1.429331   2.463617   2.788257   2.380033   4.282312
    12  C    2.451921   2.866665   2.463606   1.388358   3.771469
    13  C    3.833527   4.987316   5.144840   4.254471   2.431231
    14  C    4.301481   5.168513   4.939460   3.753069   1.410158
    15  H    1.083597   2.149565   3.361791   3.840098   6.296913
    16  H    2.153319   1.079234   2.147112   3.426020   7.610651
    17  H    3.365601   2.143531   1.081469   2.165317   7.089324
    18  H    3.839548   3.402757   2.165089   1.083004   5.053777
    19  H    4.627120   4.923410   4.135599   2.711197   2.686156
    20  H    6.305151   6.967108   6.424356   5.043133   1.082285
    21  H    7.590360   8.558836   8.321135   7.057162   2.135147
    22  H    7.123594   8.351853   8.518535   7.522159   3.381008
    23  H    5.104043   6.446919   6.923043   6.244569   3.863686
    24  H    2.727533   4.052982   4.703775   4.364433   4.449279
    25  H    2.727533   4.052982   4.703775   4.364433   4.449279
                    6          7          8          9         10
     6  C    0.000000
     7  C    1.391696   0.000000
     8  C    2.412107   1.394108   0.000000
     9  C    4.282378   3.773162   2.485641   0.000000
    10  C    3.713596   4.206645   3.708843   2.877107   0.000000
    11  C    5.128197   4.937064   3.794555   1.470492   2.460335
    12  C    4.902832   5.099268   4.249078   2.493322   1.437507
    13  C    2.795319   2.413437   1.382861   1.487081   2.450078
    14  C    2.426894   2.801976   2.425355   2.519146   1.404673
    15  H    6.935764   6.422022   5.080278   2.672142   4.621110
    16  H    8.558115   8.354421   7.130699   4.650723   5.383342
    17  H    8.300421   8.507975   7.552361   5.338669   4.638440
    18  H    6.381028   6.896138   6.251037   4.627151   2.701637
    19  H    4.061116   4.838093   4.579423   3.958203   1.081205
    20  H    2.140971   3.385391   3.862867   4.667273   2.671101
    21  H    1.080938   2.147035   3.391915   5.363291   4.584760
    22  H    2.148658   1.080427   2.147059   4.631852   5.287063
    23  H    3.391472   2.147711   1.083113   2.683235   4.583445
    24  H    4.775691   4.094662   2.768564   1.105763   3.675762
    25  H    4.775691   4.094662   2.768564   1.105763   3.675762
                   11         12         13         14         15
    11  C    0.000000
    12  C    1.397482   0.000000
    13  C    2.523807   2.866238   0.000000
    14  C    2.872155   2.475944   1.419334   0.000000
    15  H    2.162578   3.416440   4.147683   4.907752   0.000000
    16  H    3.443416   3.945875   5.946516   6.220944   2.487572
    17  H    3.868814   3.422922   6.189523   5.880457   4.274923
    18  H    3.367859   2.140223   4.888449   4.099715   4.922809
    19  H    3.427733   2.177510   3.428167   2.157197   5.557546
    20  H    4.897346   4.104389   3.409656   2.152027   7.009181
    21  H    6.181367   5.862954   3.876247   3.404743   8.015515
    22  H    5.896403   6.152234   3.388041   3.882398   7.212202
    23  H    4.138572   4.879525   2.136608   3.407301   4.970642
    24  H    2.097659   3.225366   2.137514   3.268059   2.613702
    25  H    2.097659   3.225366   2.137514   3.268059   2.613702
                   16         17         18         19         20
    16  H    0.000000
    17  H    2.491682   0.000000
    18  H    4.302100   2.462775   0.000000
    19  H    5.987887   4.796132   2.487122   0.000000
    20  H    8.045259   7.188256   4.935900   2.448942   0.000000
    21  H    9.597290   9.217774   7.173851   4.749105   2.464720
    22  H    9.270642   9.546651   7.975293   5.902576   4.278540
    23  H    7.240613   8.000835   6.973992   5.528624   4.945957
    24  H    4.785423   5.765971   5.287953   4.733624   5.352800
    25  H    4.785423   5.765971   5.287953   4.733624   5.352800
                   21         22         23         24         25
    21  H    0.000000
    22  H    2.475664   0.000000
    23  H    4.283732   2.468272   0.000000
    24  H    5.834637   4.825228   2.679099   0.000000
    25  H    5.834637   4.825228   2.679099   1.716420   0.000000
 Stoichiometry    C14H11(1+)
 Framework group  CS[SG(C14H9),X(H2)]
 Deg. of freedom    46
 Full point group                 CS      NOp   2
 Largest Abelian subgroup         CS      NOp   2
 Largest concise Abelian subgroup CS      NOp   2
                         Standard orientation:                         
 ---------------------------------------------------------------------
 Center     Atomic      Atomic             Coordinates (Angstroms)
 Number     Number       Type             X           Y           Z
 ---------------------------------------------------------------------
      1          6           0        0.025730    2.852168    0.000000
      2          6           0       -1.143264    3.605351    0.000000
      3          6           0       -2.345564    2.930619    0.000000
      4          6           0       -2.378691    1.502993    0.000000
      5          6           0       -0.088394   -2.858331    0.000000
      6          6           0        1.081914   -3.589701    0.000000
      7          6           0        2.312170   -2.939095    0.000000
      8          6           0        2.363004   -1.545914    0.000000
      9          6           0        1.273802    0.688376    0.000000
     10          6           0       -1.247505   -0.697539    0.000000
     11          6           0        0.000000    1.423069    0.000000
     12          6           0       -1.218992    0.739686    0.000000
     13          6           0        1.200557   -0.796901    0.000000
     14          6           0       -0.060392   -1.448451    0.000000
     15          1           0        0.990532    3.345461    0.000000
     16          1           0       -1.106242    4.683950    0.000000
     17          1           0       -3.282558    3.470636    0.000000
     18          1           0       -3.342256    1.008585    0.000000
     19          1           0       -2.203527   -1.202540    0.000000
     20          1           0       -1.046816   -3.361090    0.000000
     21          1           0        1.041696   -4.669891    0.000000
     22          1           0        3.229113   -3.510530    0.000000
     23          1           0        3.322824   -1.044038    0.000000
     24          1           0        1.875491    1.040735    0.858210
     25          1           0        1.875491    1.040735   -0.858210
 ---------------------------------------------------------------------
 Rotational constants (GHZ):           2.1381918           0.4448638           0.3690461
 Standard basis: 6-311++G(d,p) (5D, 7F)
 There are   299 symmetry adapted cartesian basis functions of A'  symmetry.
 There are   100 symmetry adapted cartesian basis functions of A"  symmetry.
 There are   285 symmetry adapted basis functions of A'  symmetry.
 There are   100 symmetry adapted basis functions of A"  symmetry.
   385 basis functions,   603 primitive gaussians,   399 cartesian basis functions
    47 alpha electrons       47 beta electrons
       nuclear repulsion energy       781.4675018020 Hartrees.
 NAtoms=   25 NActive=   25 NUniq=   24 SFac= 1.09D+00 NAtFMM=   60 NAOKFM=F Big=F
 Integral buffers will be    131072 words long.
 Regular integral format.
 Two-electron integral symmetry is turned on.
 Nuclear repulsion after empirical dispersion term =      781.4665225622 Hartrees.
 One-electron integrals computed using PRISM.
 NBasis=   385 RedAO= T EigKep=  1.11D-06  NBF=   285   100
 NBsUse=   379 1.00D-06 EigRej=  8.34D-07 NBFU=   279   100
 ExpMin= 3.60D-02 ExpMax= 4.56D+03 ExpMxC= 6.82D+02 IAcc=3 IRadAn=         5 AccDes= 0.00D+00
 Harris functional with IExCor= 1009 and IRadAn=       5 diagonalized for initial guess.
 HarFok:  IExCor= 1009 AccDes= 0.00D+00 IRadAn=         5 IDoV= 1 UseB2=F ITyADJ=14
 ICtDFT=  3500011 ScaDFX=  1.000000  1.000000  1.000000  1.000000
 FoFCou: FMM=F IPFlag=           0 FMFlag=      100000 FMFlg1=           0
         NFxFlg=           0 DoJE=T BraDBF=F KetDBF=T FulRan=T
         wScrn=  0.000000 ICntrl=       500 IOpCl=  0 I1Cent=   200000004 NGrid=           0
         NMat0=    1 NMatS0=      1 NMatT0=    0 NMatD0=    1 NMtDS0=    0 NMtDT0=    0
 Petite list used in FoFCou.
 Initial guess orbital symmetries:
       Occupied  (A') (A') (A') (A') (A') (A') (A') (A') (A') (A')
                 (A') (A') (A') (A') (A') (A') (A') (A') (A') (A')
                 (A') (A') (A') (A') (A') (A') (A') (A') (A') (A')
                 (A') (A') (A") (A') (A') (A') (A') (A') (A") (A')
                 (A") (A') (A') (A") (A") (A") (A")
       Virtual   (A") (A") (A") (A") (A") (A') (A') (A') (A') (A")
                 (A") (A') (A') (A') (A") (A') (A') (A') (A') (A")
                 (A') (A") (A') (A') (A') (A") (A') (A") (A') (A')
                 (A') (A') (A') (A") (A') (A') (A") (A') (A') (A')
                 (A") (A') (A') (A") (A') (A') (A') (A') (A') (A")
                 (A') (A') (A") (A") (A') (A') (A') (A") (A") (A')
                 (A') (A') (A') (A') (A') (A") (A') (A') (A') (A")
                 (A') (A') (A') (A') (A') (A') (A') (A') (A') (A')
                 (A') (A') (A') (A') (A') (A') (A') (A') (A') (A')
                 (A') (A') (A') (A') (A') (A') (A') (A") (A') (A")
                 (A') (A') (A") (A") (A') (A") (A') (A") (A") (A')
                 (A") (A') (A') (A') (A") (A') (A') (A") (A") (A')
                 (A") (A") (A') (A') (A') (A") (A') (A') (A') (A")
                 (A') (A') (A') (A') (A') (A') (A") (A') (A') (A')
                 (A') (A') (A') (A') (A') (A') (A') (A') (A') (A")
                 (A") (A') (A") (A") (A') (A') (A') (A") (A") (A')
                 (A") (A') (A") (A") (A") (A') (A') (A') (A') (A')
                 (A') (A") (A') (A") (A') (A') (A') (A') (A') (A")
                 (A') (A') (A') (A') (A") (A') (A") (A') (A") (A")
                 (A') (A") (A') (A") (A') (A') (A') (A") (A') (A')
                 (A") (A") (A") (A') (A') (A") (A') (A") (A') (A')
                 (A") (A") (A') (A") (A') (A") (A') (A') (A') (A")
                 (A') (A') (A') (A') (A") (A') (A') (A') (A") (A")
                 (A') (A') (A') (A") (A') (A') (A") (A') (A") (A')
                 (A") (A') (A') (A') (A') (A") (A') (A') (A') (A")
                 (A') (A') (A") (A') (A") (A') (A') (A") (A') (A')
                 (A') (A") (A') (A") (A') (A') (A') (A") (A') (A")
                 (A') (A') (A') (A') (A") (A') (A") (A') (A") (A')
                 (A") (A') (A") (A") (A") (A') (A') (A') (A') (A')
                 (A') (A') (A') (A') (A') (A') (A') (A') (A') (A')
                 (A') (A') (A') (A") (A') (A') (A') (A') (A') (A')
                 (A') (A') (A') (A') (A') (A') (A') (A') (A') (A')
                 (A') (A') (A') (A') (A') (A') (A') (A') (A') (A')
                 (A') (A')
 The electronic state of the initial guess is 1-A'.
 Requested convergence on RMS density matrix=1.00D-08 within 128 cycles.
 Requested convergence on MAX density matrix=1.00D-06.
 Requested convergence on             energy=1.00D-06.
 No special actions if energy rises.
 SCF Done:  E(RM062X) =  -539.757397708     A.U. after   15 cycles
            NFock= 15  Conv=0.82D-08     -V/T= 2.0041
 DoSCS=F DFT=T ScalE2(SS,OS)=  1.000000  1.000000
 ExpMin= 3.60D-02 ExpMax= 4.56D+03 ExpMxC= 6.82D+02 IAcc=3 IRadAn=         5 AccDes= 0.00D+00
 HarFok:  IExCor=  205 AccDes= 0.00D+00 IRadAn=         5 IDoV=-2 UseB2=F ITyADJ=14
 ICtDFT= 12500011 ScaDFX=  1.000000  1.000000  1.000000  1.000000
 Range of M.O.s used for correlation:    15   379
 NBasis=   385 NAE=    47 NBE=    47 NFC=    14 NFV=     0
 NROrb=    365 NOA=    33 NOB=    33 NVA=   332 NVB=   332

 **** Warning!!: The largest alpha MO coefficient is  0.13827250D+03

 Orbital symmetries:
       Occupied  (A') (A') (A') (A') (A') (A') (A') (A') (A') (A')
                 (A') (A') (A') (A') (A') (A') (A') (A') (A') (A')
                 (A') (A') (A') (A') (A') (A') (A') (A') (A') (A')
                 (A') (A') (A") (A') (A') (A') (A') (A") (A") (A')
                 (A') (A') (A') (A") (A") (A") (A")
       Virtual   (A") (A") (A") (A") (A') (A') (A') (A') (A") (A')
                 (A') (A") (A') (A') (A") (A') (A") (A') (A') (A')
                 (A") (A") (A') (A') (A') (A") (A') (A") (A') (A')
                 (A") (A') (A") (A') (A') (A') (A') (A') (A") (A')
                 (A") (A') (A') (A") (A") (A') (A") (A') (A") (A')
                 (A') (A') (A') (A') (A') (A") (A') (A') (A') (A')
                 (A') (A") (A') (A') (A') (A") (A') (A') (A') (A')
                 (A') (A') (A') (A') (A') (A') (A') (A') (A') (A')
                 (A') (A') (A') (A') (A') (A') (A') (A') (A') (A')
                 (A') (A') (A') (A') (A") (A') (A") (A") (A') (A")
                 (A') (A') (A') (A') (A") (A") (A') (A") (A") (A')
                 (A') (A') (A") (A') (A') (A") (A') (A") (A') (A")
                 (A") (A') (A") (A') (A') (A') (A") (A') (A') (A')
                 (A') (A') (A') (A') (A') (A') (A') (A') (A') (A')
                 (A') (A') (A') (A") (A') (A') (A') (A') (A') (A')
                 (A') (A') (A") (A') (A") (A') (A") (A") (A') (A")
                 (A") (A') (A') (A") (A") (A") (A') (A") (A') (A')
                 (A') (A') (A') (A") (A") (A') (A') (A') (A') (A")
                 (A') (A') (A') (A") (A") (A') (A') (A") (A') (A")
                 (A") (A') (A') (A") (A') (A") (A') (A') (A') (A')
                 (A") (A") (A") (A') (A") (A') (A') (A") (A') (A')
                 (A') (A") (A') (A") (A") (A') (A") (A') (A') (A")
                 (A') (A') (A') (A') (A") (A') (A') (A') (A") (A")
                 (A') (A') (A') (A") (A') (A') (A') (A") (A") (A')
                 (A") (A') (A') (A") (A') (A') (A') (A') (A') (A')
                 (A") (A') (A') (A') (A') (A") (A") (A") (A') (A')
                 (A') (A') (A') (A') (A') (A') (A') (A") (A') (A')
                 (A') (A") (A') (A") (A") (A") (A') (A") (A') (A")
                 (A') (A") (A") (A') (A") (A") (A') (A') (A') (A')
                 (A') (A') (A') (A') (A') (A') (A') (A') (A') (A')
                 (A') (A') (A') (A") (A') (A') (A') (A') (A') (A')
                 (A') (A') (A') (A') (A') (A') (A') (A') (A') (A')
                 (A') (A') (A') (A') (A') (A') (A') (A') (A') (A')
                 (A') (A')
     4 initial guesses have been made.
 Convergence on wavefunction:    0.001000000000000
 Iteration     1 Dimension     4 NMult     0 NNew      4
 CISAX will form     4 AO SS matrices at one time.
 Iteration     2 Dimension     6 NMult     4 NNew      2
 Iteration     3 Dimension     8 NMult     6 NNew      2
 Iteration     4 Dimension    10 NMult     8 NNew      2
 Iteration     5 Dimension    12 NMult    10 NNew      2
 Iteration     6 Dimension    14 NMult    12 NNew      2
 ***********************************************************************
 Excited states from <AA,BB:AA,BB> singles matrix:
 ***********************************************************************
 
 Ground to excited state transition densities written to RWF  633
 Ground to excited state transition electric dipole moments (Au):
       state          X           Y           Z        Dip. S.      Osc.
         1         0.5068      0.3071      0.0000      0.3512      0.0236
 Ground to excited state transition velocity dipole moments (Au):
       state          X           Y           Z        Dip. S.      Osc.
         1        -0.0589     -0.0318     -0.0000      0.0045      0.0296
 Ground to excited state transition magnetic dipole moments (Au):
       state          X           Y           Z
         1        -0.0000     -0.0000      0.1510
 Ground to excited state transition velocity quadrupole moments (Au):
       state          XX          YY          ZZ          XY          XZ          YZ
         1         0.1380      0.1546     -0.0089     -0.1360     -0.0000      0.0000
 <0|del|b> * <b|rxdel|0> + <0|del|b> * <b|delr+rdel|0>
 Rotatory Strengths (R) in cgs (10**-40 erg-esu-cm/Gauss)
       state          XX          YY          ZZ    R(velocity)    E-M Angle
         1        -0.0000     -0.0000      0.0000     -0.0000       90.00
 1/2[<0|r|b>*<b|rxdel|0> + (<0|rxdel|b>*<b|r|0>)*]
 Rotatory Strengths (R) in cgs (10**-40 erg-esu-cm/Gauss)
       state          XX          YY          ZZ     R(length)
         1         0.0000      0.0000     -0.0000     -0.0000
  1/2[<0|del|b>*<b|r|0> + (<0|r|b>*<b|del|0>)*] (Au)
       state          X           Y           Z        Dip. S.   Osc.(frdel)
         1        -0.0299     -0.0098     -0.0000      0.0396      0.0264

 Excitation energies and oscillator strengths:
 
 Excited State   1:      Singlet-A'     2.7461 eV  451.49 nm  f=0.0236  <S**2>=0.000
      47 -> 48         0.70368
 This state for optimization and/or second-order correction.
 Total Energy, E(TD-HF/TD-DFT) =  -539.656479809    
 Copying the excited state density for this state as the 1-particle RhoCI density.
 SavETr:  write IOETrn=   770 NScale= 10 NData=  16 NLR=1 NState=    1 LETran=      28.

 **********************************************************************

            Population analysis using the SCF Density.

 **********************************************************************

 Orbital symmetries:
       Occupied  (A') (A') (A') (A') (A') (A') (A') (A') (A') (A')
                 (A') (A') (A') (A') (A') (A') (A') (A') (A') (A')
                 (A') (A') (A') (A') (A') (A') (A') (A') (A') (A')
                 (A') (A') (A") (A') (A') (A') (A') (A") (A") (A')
                 (A') (A') (A') (A") (A") (A") (A")
       Virtual   (A") (A") (A") (A") (A') (A') (A') (A') (A") (A')
                 (A') (A") (A') (A') (A") (A') (A") (A') (A') (A')
                 (A") (A") (A') (A') (A') (A") (A') (A") (A') (A')
                 (A") (A') (A") (A') (A') (A') (A') (A') (A") (A')
                 (A") (A') (A') (A") (A") (A') (A") (A') (A") (A')
                 (A') (A') (A') (A') (A') (A") (A') (A') (A') (A')
                 (A') (A") (A') (A') (A') (A") (A') (A') (A') (A')
                 (A') (A') (A') (A') (A') (A') (A') (A') (A') (A')
                 (A') (A') (A') (A') (A') (A') (A') (A') (A') (A')
                 (A') (A') (A') (A') (A") (A') (A") (A") (A') (A")
                 (A') (A') (A') (A') (A") (A") (A') (A") (A") (A')
                 (A') (A') (A") (A') (A') (A") (A') (A") (A') (A")
                 (A") (A') (A") (A') (A') (A') (A") (A') (A') (A')
                 (A') (A') (A') (A') (A') (A') (A') (A') (A') (A')
                 (A') (A') (A') (A") (A') (A') (A') (A') (A') (A')
                 (A') (A') (A") (A') (A") (A') (A") (A") (A') (A")
                 (A") (A') (A') (A") (A") (A") (A') (A") (A') (A')
                 (A') (A') (A') (A") (A") (A') (A') (A') (A') (A")
                 (A') (A') (A') (A") (A") (A') (A') (A") (A') (A")
                 (A") (A') (A') (A") (A') (A") (A') (A') (A') (A')
                 (A") (A") (A") (A') (A") (A') (A') (A") (A') (A')
                 (A') (A") (A') (A") (A") (A') (A") (A') (A') (A")
                 (A') (A') (A') (A') (A") (A') (A') (A') (A") (A")
                 (A') (A') (A') (A") (A') (A') (A') (A") (A") (A')
                 (A") (A') (A') (A") (A') (A') (A') (A') (A') (A')
                 (A") (A') (A') (A') (A') (A") (A") (A") (A') (A')
                 (A') (A') (A') (A') (A') (A') (A') (A") (A') (A')
                 (A') (A") (A') (A") (A") (A") (A') (A") (A') (A")
                 (A') (A") (A") (A') (A") (A") (A') (A') (A') (A')
                 (A') (A') (A') (A') (A') (A') (A') (A') (A') (A')
                 (A') (A') (A') (A") (A') (A') (A') (A') (A') (A')
                 (A') (A') (A') (A') (A') (A') (A') (A') (A') (A')
                 (A') (A') (A') (A') (A') (A') (A') (A') (A') (A')
                 (A') (A')
 The electronic state is 1-A'.
 Alpha  occ. eigenvalues --  -10.77618 -10.73561 -10.72843 -10.72698 -10.72116
 Alpha  occ. eigenvalues --  -10.71696 -10.71669 -10.71011 -10.70964 -10.70384
 Alpha  occ. eigenvalues --  -10.70134 -10.69825 -10.69810 -10.69415  -1.16518
 Alpha  occ. eigenvalues --   -1.12491  -1.06941  -1.05837  -1.01302  -1.00326
 Alpha  occ. eigenvalues --   -0.95682  -0.91059  -0.86433  -0.85910  -0.83810
 Alpha  occ. eigenvalues --   -0.78377  -0.76108  -0.74399  -0.69652  -0.69287
 Alpha  occ. eigenvalues --   -0.68426  -0.68147  -0.68088  -0.65011  -0.64265
 Alpha  occ. eigenvalues --   -0.62942  -0.61758  -0.60236  -0.59436  -0.59118
 Alpha  occ. eigenvalues --   -0.56934  -0.55246  -0.54719  -0.52435  -0.46960
 Alpha  occ. eigenvalues --   -0.46095  -0.44144
 Alpha virt. eigenvalues --   -0.26082  -0.14671  -0.14088  -0.12765  -0.11186
 Alpha virt. eigenvalues --   -0.10094  -0.09242  -0.07973  -0.07944  -0.07480
 Alpha virt. eigenvalues --   -0.07211  -0.07144  -0.05643  -0.05580  -0.05344
 Alpha virt. eigenvalues --   -0.03837  -0.03656  -0.03278  -0.03130  -0.02160
 Alpha virt. eigenvalues --   -0.01362  -0.00942   0.00184   0.00594   0.00673
 Alpha virt. eigenvalues --    0.01062   0.01507   0.01931   0.02181   0.02293
 Alpha virt. eigenvalues --    0.02450   0.02674   0.02771   0.03236   0.03408
 Alpha virt. eigenvalues --    0.04229   0.04506   0.04704   0.05032   0.05376
 Alpha virt. eigenvalues --    0.06026   0.06299   0.06591   0.07060   0.07256
 Alpha virt. eigenvalues --    0.07900   0.08128   0.08365   0.08600   0.08920
 Alpha virt. eigenvalues --    0.09517   0.09583   0.10018   0.10865   0.11033
 Alpha virt. eigenvalues --    0.11116   0.12150   0.12256   0.12809   0.13029
 Alpha virt. eigenvalues --    0.13446   0.13522   0.14011   0.14349   0.16047
 Alpha virt. eigenvalues --    0.16316   0.16464   0.17338   0.17561   0.17791
 Alpha virt. eigenvalues --    0.18132   0.19041   0.19314   0.19649   0.19833
 Alpha virt. eigenvalues --    0.21537   0.21651   0.22715   0.23131   0.23573
 Alpha virt. eigenvalues --    0.23830   0.24530   0.25298   0.26934   0.27621
 Alpha virt. eigenvalues --    0.28873   0.29290   0.29921   0.31374   0.35840
 Alpha virt. eigenvalues --    0.36475   0.38194   0.39284   0.41121   0.41349
 Alpha virt. eigenvalues --    0.41999   0.42135   0.42982   0.43726   0.44343
 Alpha virt. eigenvalues --    0.44834   0.45113   0.45971   0.46322   0.47884
 Alpha virt. eigenvalues --    0.48474   0.48856   0.49018   0.50481   0.51222
 Alpha virt. eigenvalues --    0.51416   0.51966   0.52126   0.52868   0.54062
 Alpha virt. eigenvalues --    0.54101   0.54658   0.55655   0.55856   0.57417
 Alpha virt. eigenvalues --    0.58234   0.58887   0.61483   0.62191   0.62394
 Alpha virt. eigenvalues --    0.63201   0.63488   0.65015   0.65169   0.67441
 Alpha virt. eigenvalues --    0.70357   0.70499   0.71142   0.72477   0.72903
 Alpha virt. eigenvalues --    0.75656   0.76058   0.76375   0.76819   0.77123
 Alpha virt. eigenvalues --    0.77870   0.77974   0.78290   0.79881   0.80405
 Alpha virt. eigenvalues --    0.81271   0.81563   0.82278   0.83013   0.85244
 Alpha virt. eigenvalues --    0.87128   0.88221   0.88408   0.89205   0.90541
 Alpha virt. eigenvalues --    0.91128   0.91333   0.93246   0.94633   0.96358
 Alpha virt. eigenvalues --    0.96802   1.00292   1.01298   1.01598   1.02782
 Alpha virt. eigenvalues --    1.03239   1.03347   1.04807   1.05972   1.08850
 Alpha virt. eigenvalues --    1.19589   1.23103   1.24145   1.24808   1.28594
 Alpha virt. eigenvalues --    1.29446   1.32060   1.34234   1.35789   1.35994
 Alpha virt. eigenvalues --    1.39380   1.39931   1.40922   1.42927   1.43490
 Alpha virt. eigenvalues --    1.43563   1.44449   1.46387   1.46392   1.46650
 Alpha virt. eigenvalues --    1.47671   1.48134   1.51817   1.53657   1.55783
 Alpha virt. eigenvalues --    1.55973   1.56327   1.56572   1.57835   1.61510
 Alpha virt. eigenvalues --    1.63129   1.63314   1.64019   1.66134   1.68326
 Alpha virt. eigenvalues --    1.68395   1.68677   1.69762   1.74455   1.76031
 Alpha virt. eigenvalues --    1.77226   1.78066   1.80053   1.80109   1.80826
 Alpha virt. eigenvalues --    1.83006   1.83194   1.83666   1.83856   1.84146
 Alpha virt. eigenvalues --    1.84433   1.85602   1.86311   1.88310   1.91425
 Alpha virt. eigenvalues --    1.92147   1.94122   1.95307   1.97756   1.98185
 Alpha virt. eigenvalues --    1.99811   2.02623   2.04534   2.07290   2.11793
 Alpha virt. eigenvalues --    2.12156   2.14193   2.15240   2.19162   2.21335
 Alpha virt. eigenvalues --    2.22773   2.28476   2.30404   2.34640   2.34912
 Alpha virt. eigenvalues --    2.36294   2.38640   2.39646   2.42387   2.44357
 Alpha virt. eigenvalues --    2.46172   2.46763   2.49321   2.52971   2.53819
 Alpha virt. eigenvalues --    2.54403   2.56716   2.57890   2.58359   2.59536
 Alpha virt. eigenvalues --    2.59901   2.61599   2.62167   2.63582   2.63812
 Alpha virt. eigenvalues --    2.64820   2.65119   2.65128   2.65518   2.68088
 Alpha virt. eigenvalues --    2.68568   2.70966   2.71448   2.73370   2.74830
 Alpha virt. eigenvalues --    2.76292   2.78800   2.79720   2.83141   2.83157
 Alpha virt. eigenvalues --    2.84911   2.86356   2.92148   2.97024   2.99488
 Alpha virt. eigenvalues --    3.00141   3.05340   3.10368   3.11455   3.13794
 Alpha virt. eigenvalues --    3.20993   3.23302   3.26685   3.28714   3.30616
 Alpha virt. eigenvalues --    3.32833   3.34254   3.43654   3.46082   3.46894
 Alpha virt. eigenvalues --    3.48582   3.50232   3.56591   3.65206   3.67105
 Alpha virt. eigenvalues --    3.67709   3.93969   3.94218   3.95346   3.96380
 Alpha virt. eigenvalues --    4.03994   4.06745   4.07692   4.12532   4.35625
 Alpha virt. eigenvalues --    4.61569   4.69617   4.71471  23.45279  23.60408
 Alpha virt. eigenvalues --   23.81309  23.84073  23.86569  23.89338  23.91255
 Alpha virt. eigenvalues --   23.94544  23.96262  23.97929  24.02014  24.03842
 Alpha virt. eigenvalues --   24.10940  24.11845
          Condensed to atoms (all electrons):
               1          2          3          4          5          6
     1  C    8.758914   0.189607  -0.463405   2.088953  -0.042095  -0.102385
     2  C    0.189607   7.103909   0.300689  -1.110352  -0.005965  -0.014023
     3  C   -0.463405   0.300689   6.584217   0.788200  -0.130867   0.016898
     4  C    2.088953  -1.110352   0.788200  10.627169  -0.322956  -0.113043
     5  C   -0.042095  -0.005965  -0.130867  -0.322956  11.168516   0.714497
     6  C   -0.102385  -0.014023   0.016898  -0.113043   0.714497   6.599445
     7  C   -0.012614   0.002623  -0.015573  -0.041276  -0.967618   0.418927
     8  C    0.408073  -0.034306  -0.086954   0.009996   1.716496  -0.637728
     9  C   -1.216214  -0.759403   0.286431  -0.402853  -0.090322   0.288378
    10  C   -1.321612   0.306188  -0.417593  -2.424957  -2.697415  -0.296427
    11  C    0.262761  -1.000946   1.098715  -0.265260  -1.560529  -0.215831
    12  C   -2.216260   1.557425  -1.440503  -1.509736  -0.417520  -0.144374
    13  C    0.197848  -0.276279  -0.135109  -1.441743  -0.244739   0.935670
    14  C   -1.032789  -0.126942  -0.258696  -0.238472  -1.496810  -1.329366
    15  H    0.366652  -0.104704  -0.000219   0.028355   0.005266   0.001007
    16  H   -0.018051   0.374498  -0.012532   0.011183  -0.001431  -0.000307
    17  H   -0.028087  -0.011371   0.369851  -0.065759   0.000447   0.000385
    18  H    0.051396   0.002524  -0.084797   0.451417   0.007154  -0.005105
    19  H   -0.048492  -0.007241   0.050951  -0.064569  -0.077785   0.050638
    20  H    0.007444   0.001992  -0.004912   0.007308   0.459335  -0.084635
    21  H   -0.001386  -0.000380   0.000403   0.000164  -0.067974   0.378767
    22  H    0.000922   0.000386  -0.000348  -0.001652   0.016260  -0.019478
    23  H    0.005318  -0.002884   0.001196   0.006450   0.024838  -0.003185
    24  H    0.028173   0.013220  -0.001652  -0.013012  -0.011699  -0.001303
    25  H    0.028173   0.013220  -0.001652  -0.013012  -0.011699  -0.001303
               7          8          9         10         11         12
     1  C   -0.012614   0.408073  -1.216214  -1.321612   0.262761  -2.216260
     2  C    0.002623  -0.034306  -0.759403   0.306188  -1.000946   1.557425
     3  C   -0.015573  -0.086954   0.286431  -0.417593   1.098715  -1.440503
     4  C   -0.041276   0.009996  -0.402853  -2.424957  -0.265260  -1.509736
     5  C   -0.967618   1.716496  -0.090322  -2.697415  -1.560529  -0.417520
     6  C    0.418927  -0.637728   0.288378  -0.296427  -0.215831  -0.144374
     7  C    7.109807   0.538061  -0.817997   0.172176  -0.217206  -0.274400
     8  C    0.538061   8.389143  -1.242166  -1.180433   0.159896  -1.121522
     9  C   -0.817997  -1.242166   9.664136   0.248553   1.649060  -1.852185
    10  C    0.172176  -1.180433   0.248553   9.226162  -0.587100   2.466119
    11  C   -0.217206   0.159896   1.649060  -0.587100  14.550608  -3.556944
    12  C   -0.274400  -1.121522  -1.852185   2.466119  -3.556944  15.959687
    13  C   -0.859224   0.275638   1.761293  -0.455876   1.076735  -4.872171
    14  C    1.085714  -1.684324  -2.114416   2.398891  -4.805859   2.988305
    15  H   -0.002502   0.006581   0.094860  -0.010842  -0.032058  -0.032579
    16  H    0.000328   0.000467   0.004788  -0.008913   0.028826  -0.035813
    17  H   -0.000413  -0.001269  -0.006500   0.020929  -0.028905   0.095210
    18  H    0.001962   0.007274  -0.026361   0.017372  -0.006607  -0.058953
    19  H   -0.007906  -0.044532   0.075990   0.422400   0.081147  -0.050922
    20  H    0.003289   0.046731  -0.023983   0.012698  -0.012009  -0.017524
    21  H   -0.021176  -0.019367  -0.005251   0.020275  -0.006347   0.005178
    22  H    0.380554  -0.020114   0.003391  -0.010512   0.003368  -0.010042
    23  H   -0.103081   0.364698   0.088984  -0.008307  -0.001935   0.007371
    24  H    0.015323   0.035467   0.357797   0.005637   0.005109  -0.060117
    25  H    0.015323   0.035467   0.357797   0.005637   0.005109  -0.060117
              13         14         15         16         17         18
     1  C    0.197848  -1.032789   0.366652  -0.018051  -0.028087   0.051396
     2  C   -0.276279  -0.126942  -0.104704   0.374498  -0.011371   0.002524
     3  C   -0.135109  -0.258696  -0.000219  -0.012532   0.369851  -0.084797
     4  C   -1.441743  -0.238472   0.028355   0.011183  -0.065759   0.451417
     5  C   -0.244739  -1.496810   0.005266  -0.001431   0.000447   0.007154
     6  C    0.935670  -1.329366   0.001007  -0.000307   0.000385  -0.005105
     7  C   -0.859224   1.085714  -0.002502   0.000328  -0.000413   0.001962
     8  C    0.275638  -1.684324   0.006581   0.000467  -0.001269   0.007274
     9  C    1.761293  -2.114416   0.094860   0.004788  -0.006500  -0.026361
    10  C   -0.455876   2.398891  -0.010842  -0.008913   0.020929   0.017372
    11  C    1.076735  -4.805859  -0.032058   0.028826  -0.028905  -0.006607
    12  C   -4.872171   2.988305  -0.032579  -0.035813   0.095210  -0.058953
    13  C   14.662844  -4.043171   0.005287   0.002797  -0.006366  -0.011898
    14  C   -4.043171  16.180511   0.005714  -0.008180   0.005376  -0.008517
    15  H    0.005287   0.005714   0.442303  -0.008905   0.001303   0.000127
    16  H    0.002797  -0.008180  -0.008905   0.421327  -0.006212   0.001881
    17  H   -0.006366   0.005376   0.001303  -0.006212   0.424153  -0.010294
    18  H   -0.011898  -0.008517   0.000127   0.001881  -0.010294   0.456836
    19  H    0.076275  -0.080174   0.000228  -0.000486   0.001196  -0.006518
    20  H   -0.010992  -0.046270  -0.000103   0.000011  -0.000125   0.001283
    21  H   -0.026833   0.086352   0.000011  -0.000007   0.000010  -0.000158
    22  H    0.027944  -0.033436  -0.000129   0.000007  -0.000007   0.000018
    23  H   -0.028987  -0.016141   0.000599  -0.000124   0.000015  -0.000120
    24  H    0.021394  -0.059224  -0.000871   0.000630  -0.000147   0.000204
    25  H    0.021394  -0.059224  -0.000871   0.000630  -0.000147   0.000204
              19         20         21         22         23         24
     1  C   -0.048492   0.007444  -0.001386   0.000922   0.005318   0.028173
     2  C   -0.007241   0.001992  -0.000380   0.000386  -0.002884   0.013220
     3  C    0.050951  -0.004912   0.000403  -0.000348   0.001196  -0.001652
     4  C   -0.064569   0.007308   0.000164  -0.001652   0.006450  -0.013012
     5  C   -0.077785   0.459335  -0.067974   0.016260   0.024838  -0.011699
     6  C    0.050638  -0.084635   0.378767  -0.019478  -0.003185  -0.001303
     7  C   -0.007906   0.003289  -0.021176   0.380554  -0.103081   0.015323
     8  C   -0.044532   0.046731  -0.019367  -0.020114   0.364698   0.035467
     9  C    0.075990  -0.023983  -0.005251   0.003391   0.088984   0.357797
    10  C    0.422400   0.012698   0.020275  -0.010512  -0.008307   0.005637
    11  C    0.081147  -0.012009  -0.006347   0.003368  -0.001935   0.005109
    12  C   -0.050922  -0.017524   0.005178  -0.010042   0.007371  -0.060117
    13  C    0.076275  -0.010992  -0.026833   0.027944  -0.028987   0.021394
    14  C   -0.080174  -0.046270   0.086352  -0.033436  -0.016141  -0.059224
    15  H    0.000228  -0.000103   0.000011  -0.000129   0.000599  -0.000871
    16  H   -0.000486   0.000011  -0.000007   0.000007  -0.000124   0.000630
    17  H    0.001196  -0.000125   0.000010  -0.000007   0.000015  -0.000147
    18  H   -0.006518   0.001283  -0.000158   0.000018  -0.000120   0.000204
    19  H    0.443077  -0.005781   0.001612  -0.000576   0.000367   0.000621
    20  H   -0.005781   0.449359  -0.010011   0.001942   0.000250   0.000146
    21  H    0.001612  -0.010011   0.420540  -0.006964   0.001599  -0.000135
    22  H   -0.000576   0.001942  -0.006964   0.416881  -0.008875   0.000624
    23  H    0.000367   0.000250   0.001599  -0.008875   0.435066  -0.000905
    24  H    0.000621   0.000146  -0.000135   0.000624  -0.000905   0.494516
    25  H    0.000621   0.000146  -0.000135   0.000624  -0.000905  -0.080539
              25
     1  C    0.028173
     2  C    0.013220
     3  C   -0.001652
     4  C   -0.013012
     5  C   -0.011699
     6  C   -0.001303
     7  C    0.015323
     8  C    0.035467
     9  C    0.357797
    10  C    0.005637
    11  C    0.005109
    12  C   -0.060117
    13  C    0.021394
    14  C   -0.059224
    15  H   -0.000871
    16  H    0.000630
    17  H   -0.000147
    18  H    0.000204
    19  H    0.000621
    20  H    0.000146
    21  H   -0.000135
    22  H    0.000624
    23  H   -0.000905
    24  H   -0.080539
    25  H    0.494516
 Mulliken charges:
               1
     1  C    0.109155
     2  C   -0.411485
     3  C   -0.442740
     4  C    0.009458
     5  C    0.034615
     6  C   -0.436120
     7  C   -0.403103
     8  C    0.078727
     9  C   -0.323808
    10  C    0.096949
    11  C   -0.623797
    12  C    0.652387
    13  C   -0.651733
    14  C    0.691147
    15  H    0.235491
    16  H    0.253587
    17  H    0.246727
    18  H    0.219675
    19  H    0.189856
    20  H    0.224408
    21  H    0.251212
    22  H    0.259211
    23  H    0.238697
    24  H    0.250742
    25  H    0.250742
 Sum of Mulliken charges =   1.00000
 Mulliken charges with hydrogens summed into heavy atoms:
               1
     1  C    0.344646
     2  C   -0.157899
     3  C   -0.196013
     4  C    0.229133
     5  C    0.259023
     6  C   -0.184908
     7  C   -0.143892
     8  C    0.317424
     9  C    0.177676
    10  C    0.286805
    11  C   -0.623797
    12  C    0.652387
    13  C   -0.651733
    14  C    0.691147
 Electronic spatial extent (au):  <R**2>=           2854.3228
 Charge=              1.0000 electrons
 Dipole moment (field-independent basis, Debye):
    X=              0.1723    Y=             -0.6997    Z=              0.0000  Tot=              0.7206
 Quadrupole moment (field-independent basis, Debye-Ang):
   XX=            -51.0077   YY=            -36.3530   ZZ=            -84.1361
   XY=            -10.2339   XZ=              0.0000   YZ=              0.0000
 Traceless Quadrupole moment (field-independent basis, Debye-Ang):
   XX=              6.1579   YY=             20.8126   ZZ=            -26.9705
   XY=            -10.2339   XZ=              0.0000   YZ=              0.0000
 Octapole moment (field-independent basis, Debye-Ang**2):
  XXX=              2.1556  YYY=             -0.8205  ZZZ=              0.0000  XYY=              2.1034
  XXY=             -7.0991  XXZ=              0.0000  XZZ=              3.1843  YZZ=              0.5426
  YYZ=              0.0000  XYZ=             -0.0000
 Hexadecapole moment (field-independent basis, Debye-Ang**3):
 XXXX=           -988.3959 YYYY=          -1847.5681 ZZZZ=            -99.3084 XXXY=            348.0199
 XXXZ=              0.0000 YYYX=            274.4839 YYYZ=              0.0000 ZZZX=              0.0000
 ZZZY=              0.0000 XXYY=           -454.4207 XXZZ=           -241.5872 YYZZ=           -494.4127
 XXYZ=              0.0000 YYXZ=              0.0000 ZZXY=            182.9242
 N-N= 7.814665225622D+02 E-N=-2.799289955907D+03  KE= 5.375300821988D+02
 Symmetry A'   KE= 5.228800435067D+02
 Symmetry A"   KE= 1.465003869209D+01
 Unable to Open any file for archive entry.
 1\1\GINC-GADI-CPU-CLX-1762\SP\RM062X TD-FC\6-311++G(d,p)\C14H11(1+)\TS
 1578\02-Aug-2022\0\\#n M062X/6-311++G(d,p) TD(NStates=1) EmpiricalDisp
 ersion=GD3 SP\\SP_-125\\1,1\C,0,2.507405,1.360431,0.\C,0,3.720883,0.68
 1239,0.\C,0,3.688861,-0.69708,0.\C,0,2.443531,-1.395913,0.\C,0,-2.4825
 31,-1.418663,0.\C,0,-3.677361,-0.72808,0.\C,0,-3.679758,0.663614,0.\C,
 0,-2.473155,1.361931,0.\C,0,0.011,1.447869,0.\C,0,-0.0305,-1.428939,0.
 \C,0,1.257305,0.66744,0.\C,0,1.225471,-0.729679,0.\C,0,-1.26643,0.6865
 65,0.\C,0,-1.250471,-0.732679,0.\H,0,2.490571,2.443897,0.\H,0,4.656128
 ,1.219814,0.\H,0,4.605262,-1.271349,0.\H,0,2.4588,-2.478809,0.\H,0,-0.
 028125,-2.510141,0.\H,0,-2.47705,-2.500934,0.\H,0,-4.612512,-1.270224,
 0.\H,0,-4.614503,1.205439,0.\H,0,-2.480071,2.445022,0.\H,0,0.04,2.1445
 37,-0.85821\H,0,0.04,2.144537,0.85821\\Version=ES64L-G16RevC.01\State=
 1-A'\HF=-539.7573977\RMSD=8.217e-09\PG=CS [SG(C14H9),X(H2)]\\@
 The archive entry for this job was punched.


 ... IT IS NO ONE DREAME THAT
     CAN PLEASE THESE ALL ...

                -- BEN JONSON
 Job cpu time:       0 days  0 hours 52 minutes 18.6 seconds.
 Elapsed time:       0 days  0 hours  1 minutes  6.1 seconds.
 File lengths (MBytes):  RWF=    460 Int=      0 D2E=      0 Chk=     15 Scr=      1
 Normal termination of Gaussian 16 at Tue Aug  2 10:54:30 2022.
