 Entering Gaussian System, Link 0=g16
 Initial command:
 /apps/gaussian/g16c01/g16/l1.exe "/jobfs/53796104.gadi-pbs/Gau-3617051.inp" -scrdir="/jobfs/53796104.gadi-pbs/"
 Entering Link 1 = /apps/gaussian/g16c01/g16/l1.exe PID=   3617052.
  
 Copyright (c) 1988-2019, Gaussian, Inc.  All Rights Reserved.
  
 This is part of the Gaussian(R) 16 program.  It is based on
 the Gaussian(R) 09 system (copyright 2009, Gaussian, Inc.),
 the Gaussian(R) 03 system (copyright 2003, Gaussian, Inc.),
 the Gaussian(R) 98 system (copyright 1998, Gaussian, Inc.),
 the Gaussian(R) 94 system (copyright 1995, Gaussian, Inc.),
 the Gaussian 92(TM) system (copyright 1992, Gaussian, Inc.),
 the Gaussian 90(TM) system (copyright 1990, Gaussian, Inc.),
 the Gaussian 88(TM) system (copyright 1988, Gaussian, Inc.),
 the Gaussian 86(TM) system (copyright 1986, Carnegie Mellon
 University), and the Gaussian 82(TM) system (copyright 1983,
 Carnegie Mellon University). Gaussian is a federally registered
 trademark of Gaussian, Inc.
  
 This software contains proprietary and confidential information,
 including trade secrets, belonging to Gaussian, Inc.
  
 This software is provided under written license and may be
 used, copied, transmitted, or stored only in accord with that
 written license.
  
 The following legend is applicable only to US Government
 contracts under FAR:
  
                    RESTRICTED RIGHTS LEGEND
  
 Use, reproduction and disclosure by the US Government is
 subject to restrictions as set forth in subparagraphs (a)
 and (c) of the Commercial Computer Software - Restricted
 Rights clause in FAR 52.227-19.
  
 Gaussian, Inc.
 340 Quinnipiac St., Bldg. 40, Wallingford CT 06492
  
  
 ---------------------------------------------------------------
 Warning -- This program may not be used in any manner that
 competes with the business of Gaussian, Inc. or will provide
 assistance to any competitor of Gaussian, Inc.  The licensee
 of this program is prohibited from giving any competitor of
 Gaussian, Inc. access to this program.  By using this program,
 the user acknowledges that Gaussian, Inc. is engaged in the
 business of creating and licensing software in the field of
 computational chemistry and represents and warrants to the
 licensee that it is not a competitor of Gaussian, Inc. and that
 it will not use this program in any manner prohibited above.
 ---------------------------------------------------------------
  

 Cite this work as:
 Gaussian 16, Revision C.01,
 M. J. Frisch, G. W. Trucks, H. B. Schlegel, G. E. Scuseria, 
 M. A. Robb, J. R. Cheeseman, G. Scalmani, V. Barone, 
 G. A. Petersson, H. Nakatsuji, X. Li, M. Caricato, A. V. Marenich, 
 J. Bloino, B. G. Janesko, R. Gomperts, B. Mennucci, H. P. Hratchian, 
 J. V. Ortiz, A. F. Izmaylov, J. L. Sonnenberg, D. Williams-Young, 
 F. Ding, F. Lipparini, F. Egidi, J. Goings, B. Peng, A. Petrone, 
 T. Henderson, D. Ranasinghe, V. G. Zakrzewski, J. Gao, N. Rega, 
 G. Zheng, W. Liang, M. Hada, M. Ehara, K. Toyota, R. Fukuda, 
 J. Hasegawa, M. Ishida, T. Nakajima, Y. Honda, O. Kitao, H. Nakai, 
 T. Vreven, K. Throssell, J. A. Montgomery, Jr., J. E. Peralta, 
 F. Ogliaro, M. J. Bearpark, J. J. Heyd, E. N. Brothers, K. N. Kudin, 
 V. N. Staroverov, T. A. Keith, R. Kobayashi, J. Normand, 
 K. Raghavachari, A. P. Rendell, J. C. Burant, S. S. Iyengar, 
 J. Tomasi, M. Cossi, J. M. Millam, M. Klene, C. Adamo, R. Cammi, 
 J. W. Ochterski, R. L. Martin, K. Morokuma, O. Farkas, 
 J. B. Foresman, and D. J. Fox, Gaussian, Inc., Wallingford CT, 2019.
 
 ******************************************
 Gaussian 16:  ES64L-G16RevC.01  3-Jul-2019
                 2-Aug-2022 
 ******************************************
 %NProcShared=48
 Will use up to   48 processors via shared memory.
 %mem = 190GB
 ---------------------------------------------------------------
 #n M062X/6-311++G(d,p) TD(NStates=1) EmpiricalDispersion=GD3 SP
 ---------------------------------------------------------------
 1/38=1,172=1/1;
 2/12=2,17=6,18=5,40=1/2;
 3/5=4,6=6,7=1111,11=9,25=1,30=1,74=-55,124=31/1,2,3,8;
 4//1;
 5/5=2,38=5/2;
 8/6=1,10=2,108=1/1;
 9/41=1,42=1,70=2/14;
 6/7=2,8=2,9=2,10=2/1;
 99/5=1,9=1/99;
 ------
 SP_-50
 ------
 Symbolic Z-matrix:
 Charge =  1 Multiplicity = 1
 C                     2.49856   1.36043   0. 
 C                     3.70926   0.67569   0. 
 C                     3.68586  -0.70713   0. 
 C                     2.45531  -1.40289   0. 
 C                    -2.47091  -1.41199   0. 
 C                    -3.68126  -0.71953   0. 
 C                    -3.69281   0.66864   0. 
 C                    -2.48486   1.36103   0. 
 C                     0.0044    1.45117   0. 
 C                    -0.0122   -1.42909   0. 
 C                     1.26016   0.67322   0. 
 C                     1.23267  -0.73035   0. 
 C                    -1.26381   0.68087   0. 
 C                    -1.24267  -0.73155   0. 
 H                     2.48907   2.44375   0. 
 H                     4.6445    1.21494   0. 
 H                     4.60766  -1.27195   0. 
 H                     2.46405  -2.48556   0. 
 H                    -0.01125  -2.51022   0. 
 H                    -2.47135  -2.49441   0. 
 H                    -4.61056  -1.2715    0. 
 H                    -4.62785   1.20919   0. 
 H                    -2.48487   2.4442    0. 
 H                     0.016     2.14529  -0.85904 
 H                     0.016     2.14529   0.85904 
 
                          Input orientation:                          
 ---------------------------------------------------------------------
 Center     Atomic      Atomic             Coordinates (Angstroms)
 Number     Number       Type             X           Y           Z
 ---------------------------------------------------------------------
      1          6           0        2.498555    1.360431    0.000000
      2          6           0        3.709258    0.675689    0.000000
      3          6           0        3.685861   -0.707130    0.000000
      4          6           0        2.455306   -1.402888    0.000000
      5          6           0       -2.470906   -1.411988    0.000000
      6          6           0       -3.681261   -0.719530    0.000000
      7          6           0       -3.692808    0.668639    0.000000
      8          6           0       -2.484855    1.361031    0.000000
      9          6           0        0.004400    1.451169    0.000000
     10          6           0       -0.012200   -1.429089    0.000000
     11          6           0        1.260155    0.673215    0.000000
     12          6           0        1.232671   -0.730354    0.000000
     13          6           0       -1.263805    0.680865    0.000000
     14          6           0       -1.242671   -0.731554    0.000000
     15          1           0        2.489071    2.443747    0.000000
     16          1           0        4.644503    1.214939    0.000000
     17          1           0        4.607662   -1.271949    0.000000
     18          1           0        2.464050   -2.485559    0.000000
     19          1           0       -0.011250   -2.510216    0.000000
     20          1           0       -2.471350   -2.494409    0.000000
     21          1           0       -4.610562   -1.271499    0.000000
     22          1           0       -4.627853    1.209189    0.000000
     23          1           0       -2.484871    2.444197    0.000000
     24          1           0        0.016000    2.145287   -0.859035
     25          1           0        0.016000    2.145287    0.859035
 ---------------------------------------------------------------------
                    Distance matrix (angstroms):
                    1          2          3          4          5
     1  C    0.000000
     2  C    1.390925   0.000000
     3  C    2.384220   1.383017   0.000000
     4  C    2.763657   2.427525   1.413628   0.000000
     5  C    5.690505   6.523252   6.196984   4.926220   0.000000
     6  C    6.520457   7.521064   7.367132   6.174499   1.394438
     7  C    6.229892   7.402069   7.505831   6.487721   2.412893
     8  C    4.983410   6.231912   6.508074   5.660781   2.773054
     9  C    2.495805   3.785148   4.267483   3.761992   3.784813
    10  C    3.753040   4.275434   3.767875   2.467645   2.458765
    11  C    1.416298   2.449104   2.790950   2.395535   4.274212
    12  C    2.444145   2.847883   2.453300   1.395399   3.765781
    13  C    3.823240   4.973066   5.140596   4.263076   2.416015
    14  C    4.286394   5.148003   4.928593   3.758420   1.404120
    15  H    1.083358   2.148228   3.370509   3.846783   6.282361
    16  H    2.150874   1.079571   2.147870   3.412565   7.584840
    17  H    3.373093   2.144860   1.081082   2.156335   7.079953
    18  H    3.846145   3.397651   2.157691   1.082706   5.050381
    19  H    4.613137   4.898180   4.113362   2.703715   2.693699
    20  H    6.289654   6.946181   6.411366   5.046123   1.082421
    21  H    7.580673   8.544644   8.315597   7.067089   2.144263
    22  H    7.128013   8.354163   8.531713   7.549443   3.394553
    23  H    5.099910   6.441650   6.928838   6.261423   3.856210
    24  H    2.741718   4.066671   4.726743   4.390638   4.424573
    25  H    2.741718   4.066671   4.726743   4.390638   4.424573
                    6          7          8          9         10
     6  C    0.000000
     7  C    1.388217   0.000000
     8  C    2.400025   1.392321   0.000000
     9  C    4.277386   3.779114   2.490886   0.000000
    10  C    3.737042   4.236430   3.728108   2.880306   0.000000
    11  C    5.133939   4.952965   3.807649   1.477204   2.457350
    12  C    4.913944   5.120305   4.265430   2.503536   1.427562
    13  C    2.793779   2.429034   1.397708   1.483817   2.453247
    14  C    2.438620   2.822005   2.433502   2.513855   1.414431
    15  H    6.933925   6.431690   5.090404   2.675594   4.610338
    16  H    8.547544   8.355190   7.130855   4.646112   5.354976
    17  H    8.307311   8.524300   7.565473   5.348401   4.622534
    18  H    6.394037   6.917793   6.268007   4.641951   2.692200
    19  H    4.083569   4.864051   4.594048   3.961416   1.081127
    20  H    2.148041   3.390698   3.855464   4.657996   2.679986
    21  H    1.080865   2.146254   3.383614   5.358246   4.601062
    22  H    2.148486   1.080048   2.148371   4.638569   5.316462
    23  H    3.382383   2.147491   1.083166   2.680033   4.595263
    24  H    4.755508   4.083343   2.758129   1.104480   3.676262
    25  H    4.755508   4.083343   2.758129   1.104480   3.676262
                   11         12         13         14         15
    11  C    0.000000
    12  C    1.403838   0.000000
    13  C    2.523972   2.867740   0.000000
    14  C    2.870107   2.475342   1.412577   0.000000
    15  H    2.155230   3.413716   4.146303   4.899840   0.000000
    16  H    3.427430   3.927437   5.932397   6.200617   2.481100
    17  H    3.871623   3.418170   6.187698   5.875238   4.277245
    18  H    3.380417   2.144071   4.891129   4.100770   4.929370
    19  H    3.427930   2.171462   3.428103   2.163339   5.549176
    20  H    4.894688   4.102641   3.397136   2.148793   6.999369
    21  H    6.184435   5.868237   3.874598   3.410899   8.012980
    22  H    5.912352   6.173133   3.405282   3.902043   7.223208
    23  H    4.142656   4.888547   2.144841   3.410052   4.973942
    24  H    2.110180   3.238447   2.126117   3.255520   2.634976
    25  H    2.110180   3.238447   2.126117   3.255520   2.634976
                   16         17         18         19         20
    16  H    0.000000
    17  H    2.487161   0.000000
    18  H    4.295121   2.463315   0.000000
    19  H    5.962618   4.782014   2.475423   0.000000
    20  H    8.024626   7.183789   4.935408   2.460151   0.000000
    21  H    9.583246   9.218224   7.178027   4.763202   2.464089
    22  H    9.272358   9.562990   7.996640   5.928490   4.285691
    23  H    7.234573   8.007107   6.985293   5.537600   4.938625
    24  H    4.798597   5.787815   5.308072   4.734173   5.334007
    25  H    4.798597   5.787815   5.308072   4.734173   5.334007
                   21         22         23         24         25
    21  H    0.000000
    22  H    2.480748   0.000000
    23  H    4.280766   2.473382   0.000000
    24  H    5.815277   4.814519   2.661136   0.000000
    25  H    5.815277   4.814519   2.661136   1.718070   0.000000
 Stoichiometry    C14H11(1+)
 Framework group  CS[SG(C14H9),X(H2)]
 Deg. of freedom    46
 Full point group                 CS      NOp   2
 Largest Abelian subgroup         CS      NOp   2
 Largest concise Abelian subgroup CS      NOp   2
                         Standard orientation:                         
 ---------------------------------------------------------------------
 Center     Atomic      Atomic             Coordinates (Angstroms)
 Number     Number       Type             X           Y           Z
 ---------------------------------------------------------------------
      1          6           0        0.022514    2.844664    0.000000
      2          6           0       -1.151979    3.589808    0.000000
      3          6           0       -2.360593    2.917506    0.000000
      4          6           0       -2.394338    1.504281    0.000000
      5          6           0       -0.080843   -2.844902    0.000000
      6          6           0        1.100292   -3.586102    0.000000
      7          6           0        2.330091   -2.942100    0.000000
      8          6           0        2.371519   -1.550396    0.000000
      9          6           0        1.277937    0.687593    0.000000
     10          6           0       -1.254613   -0.684395    0.000000
     11          6           0        0.000000    1.428545    0.000000
     12          6           0       -1.224989    0.742860    0.000000
     13          6           0        1.196186   -0.793970    0.000000
     14          6           0       -0.059521   -1.440944    0.000000
     15          1           0        0.982463    3.346822    0.000000
     16          1           0       -1.117106    4.668815    0.000000
     17          1           0       -3.293167    3.464354    0.000000
     18          1           0       -3.353369    1.001775    0.000000
     19          1           0       -2.208609   -1.193047    0.000000
     20          1           0       -1.035324   -3.355394    0.000000
     21          1           0        1.051399   -4.665861    0.000000
     22          1           0        3.247502   -3.512066    0.000000
     23          1           0        3.326874   -1.039958    0.000000
     24          1           0        1.884679    1.024934    0.859035
     25          1           0        1.884679    1.024934   -0.859035
 ---------------------------------------------------------------------
 Rotational constants (GHZ):           2.1369737           0.4447292           0.3689187
 Standard basis: 6-311++G(d,p) (5D, 7F)
 There are   299 symmetry adapted cartesian basis functions of A'  symmetry.
 There are   100 symmetry adapted cartesian basis functions of A"  symmetry.
 There are   285 symmetry adapted basis functions of A'  symmetry.
 There are   100 symmetry adapted basis functions of A"  symmetry.
   385 basis functions,   603 primitive gaussians,   399 cartesian basis functions
    47 alpha electrons       47 beta electrons
       nuclear repulsion energy       781.3003898852 Hartrees.
 NAtoms=   25 NActive=   25 NUniq=   24 SFac= 1.09D+00 NAtFMM=   60 NAOKFM=F Big=F
 Integral buffers will be    131072 words long.
 Regular integral format.
 Two-electron integral symmetry is turned on.
 Nuclear repulsion after empirical dispersion term =      781.2994104528 Hartrees.
 One-electron integrals computed using PRISM.
 NBasis=   385 RedAO= T EigKep=  1.12D-06  NBF=   285   100
 NBsUse=   379 1.00D-06 EigRej=  8.37D-07 NBFU=   279   100
 ExpMin= 3.60D-02 ExpMax= 4.56D+03 ExpMxC= 6.82D+02 IAcc=3 IRadAn=         5 AccDes= 0.00D+00
 Harris functional with IExCor= 1009 and IRadAn=       5 diagonalized for initial guess.
 HarFok:  IExCor= 1009 AccDes= 0.00D+00 IRadAn=         5 IDoV= 1 UseB2=F ITyADJ=14
 ICtDFT=  3500011 ScaDFX=  1.000000  1.000000  1.000000  1.000000
 FoFCou: FMM=F IPFlag=           0 FMFlag=      100000 FMFlg1=           0
         NFxFlg=           0 DoJE=T BraDBF=F KetDBF=T FulRan=T
         wScrn=  0.000000 ICntrl=       500 IOpCl=  0 I1Cent=   200000004 NGrid=           0
         NMat0=    1 NMatS0=      1 NMatT0=    0 NMatD0=    1 NMtDS0=    0 NMtDT0=    0
 Petite list used in FoFCou.
 Initial guess orbital symmetries:
       Occupied  (A') (A') (A') (A') (A') (A') (A') (A') (A') (A')
                 (A') (A') (A') (A') (A') (A') (A') (A') (A') (A')
                 (A') (A') (A') (A') (A') (A') (A') (A') (A') (A')
                 (A') (A') (A") (A') (A') (A') (A') (A') (A') (A")
                 (A") (A') (A') (A") (A") (A") (A")
       Virtual   (A") (A") (A") (A") (A") (A') (A') (A') (A') (A")
                 (A") (A') (A') (A') (A") (A') (A') (A') (A') (A")
                 (A') (A") (A') (A') (A') (A") (A') (A") (A') (A')
                 (A') (A') (A') (A") (A') (A') (A") (A') (A') (A")
                 (A') (A') (A') (A") (A') (A') (A') (A') (A') (A")
                 (A') (A') (A") (A") (A') (A') (A') (A") (A") (A')
                 (A') (A') (A') (A') (A') (A') (A") (A') (A') (A")
                 (A') (A') (A') (A') (A') (A') (A') (A') (A') (A')
                 (A') (A') (A') (A') (A') (A') (A') (A') (A') (A')
                 (A') (A') (A') (A') (A') (A') (A') (A") (A') (A")
                 (A') (A') (A") (A") (A') (A") (A') (A") (A') (A")
                 (A") (A') (A') (A') (A") (A') (A') (A") (A") (A')
                 (A") (A") (A') (A') (A') (A") (A') (A') (A') (A")
                 (A') (A') (A') (A') (A') (A') (A") (A') (A') (A')
                 (A') (A') (A') (A') (A') (A') (A') (A') (A') (A")
                 (A") (A') (A") (A") (A') (A') (A') (A") (A") (A')
                 (A") (A') (A") (A") (A") (A') (A') (A') (A') (A')
                 (A') (A") (A") (A') (A') (A') (A') (A') (A') (A")
                 (A') (A') (A') (A') (A') (A") (A") (A') (A") (A")
                 (A') (A") (A') (A") (A') (A') (A') (A") (A') (A')
                 (A") (A") (A") (A') (A') (A") (A') (A") (A') (A')
                 (A") (A") (A') (A") (A') (A") (A') (A') (A') (A")
                 (A') (A') (A') (A') (A") (A') (A') (A') (A") (A")
                 (A') (A') (A') (A") (A') (A') (A") (A') (A") (A')
                 (A") (A') (A') (A') (A') (A") (A') (A') (A') (A")
                 (A') (A') (A") (A') (A") (A') (A') (A") (A') (A')
                 (A') (A') (A") (A") (A') (A') (A') (A") (A') (A")
                 (A') (A') (A') (A') (A") (A') (A") (A') (A") (A')
                 (A") (A') (A") (A") (A") (A') (A') (A') (A') (A')
                 (A') (A') (A') (A') (A') (A') (A') (A') (A') (A')
                 (A') (A') (A') (A') (A") (A') (A') (A') (A') (A')
                 (A') (A') (A') (A') (A') (A') (A') (A') (A') (A')
                 (A') (A') (A') (A') (A') (A') (A') (A') (A') (A')
                 (A') (A')
 The electronic state of the initial guess is 1-A'.
 Requested convergence on RMS density matrix=1.00D-08 within 128 cycles.
 Requested convergence on MAX density matrix=1.00D-06.
 Requested convergence on             energy=1.00D-06.
 No special actions if energy rises.
 SCF Done:  E(RM062X) =  -539.759746220     A.U. after   15 cycles
            NFock= 15  Conv=0.57D-08     -V/T= 2.0042
 DoSCS=F DFT=T ScalE2(SS,OS)=  1.000000  1.000000
 ExpMin= 3.60D-02 ExpMax= 4.56D+03 ExpMxC= 6.82D+02 IAcc=3 IRadAn=         5 AccDes= 0.00D+00
 HarFok:  IExCor=  205 AccDes= 0.00D+00 IRadAn=         5 IDoV=-2 UseB2=F ITyADJ=14
 ICtDFT= 12500011 ScaDFX=  1.000000  1.000000  1.000000  1.000000
 Range of M.O.s used for correlation:    15   379
 NBasis=   385 NAE=    47 NBE=    47 NFC=    14 NFV=     0
 NROrb=    365 NOA=    33 NOB=    33 NVA=   332 NVB=   332

 **** Warning!!: The largest alpha MO coefficient is  0.14884292D+03

 Orbital symmetries:
       Occupied  (A') (A') (A') (A') (A') (A') (A') (A') (A') (A')
                 (A') (A') (A') (A') (A') (A') (A') (A') (A') (A')
                 (A') (A') (A') (A') (A') (A') (A') (A') (A') (A')
                 (A') (A') (A") (A') (A') (A') (A') (A") (A") (A')
                 (A') (A') (A') (A") (A") (A") (A")
       Virtual   (A") (A") (A") (A") (A') (A') (A') (A') (A") (A')
                 (A') (A") (A') (A') (A") (A') (A") (A') (A') (A')
                 (A") (A") (A') (A') (A') (A") (A') (A") (A') (A')
                 (A") (A') (A") (A') (A') (A') (A') (A') (A") (A')
                 (A") (A') (A') (A") (A") (A') (A") (A') (A") (A')
                 (A') (A') (A') (A') (A') (A") (A') (A') (A') (A')
                 (A') (A") (A') (A') (A') (A") (A') (A') (A') (A')
                 (A') (A') (A') (A') (A') (A') (A') (A') (A') (A')
                 (A') (A') (A') (A') (A') (A') (A') (A') (A') (A')
                 (A') (A') (A') (A') (A") (A') (A") (A") (A') (A")
                 (A') (A') (A') (A') (A") (A") (A') (A") (A") (A')
                 (A') (A') (A") (A') (A') (A") (A') (A") (A') (A")
                 (A") (A') (A") (A') (A') (A') (A") (A') (A') (A')
                 (A') (A') (A') (A') (A') (A') (A') (A') (A') (A')
                 (A') (A') (A') (A") (A') (A') (A') (A') (A') (A')
                 (A') (A') (A") (A') (A") (A') (A") (A") (A') (A")
                 (A") (A') (A') (A") (A") (A") (A') (A") (A') (A')
                 (A') (A') (A') (A") (A") (A') (A') (A') (A') (A")
                 (A') (A') (A') (A") (A') (A") (A') (A') (A") (A")
                 (A") (A') (A') (A") (A') (A") (A') (A') (A') (A')
                 (A") (A") (A") (A') (A') (A") (A') (A") (A') (A')
                 (A') (A") (A') (A") (A") (A') (A") (A') (A') (A")
                 (A') (A') (A') (A') (A") (A') (A') (A') (A") (A")
                 (A') (A') (A') (A") (A') (A') (A') (A") (A") (A')
                 (A") (A') (A') (A") (A') (A') (A') (A') (A') (A')
                 (A") (A') (A') (A') (A') (A") (A") (A") (A') (A')
                 (A') (A') (A') (A') (A') (A') (A") (A') (A') (A')
                 (A') (A") (A') (A") (A") (A") (A') (A") (A') (A")
                 (A') (A") (A") (A') (A") (A") (A') (A') (A') (A')
                 (A') (A') (A') (A') (A') (A') (A') (A') (A') (A')
                 (A') (A') (A') (A") (A') (A') (A') (A') (A') (A')
                 (A') (A') (A') (A') (A') (A') (A') (A') (A') (A')
                 (A') (A') (A') (A') (A') (A') (A') (A') (A') (A')
                 (A') (A')
     4 initial guesses have been made.
 Convergence on wavefunction:    0.001000000000000
 Iteration     1 Dimension     4 NMult     0 NNew      4
 CISAX will form     4 AO SS matrices at one time.
 Iteration     2 Dimension     6 NMult     4 NNew      2
 Iteration     3 Dimension     8 NMult     6 NNew      2
 Iteration     4 Dimension    10 NMult     8 NNew      2
 Iteration     5 Dimension    12 NMult    10 NNew      2
 Iteration     6 Dimension    14 NMult    12 NNew      2
 ***********************************************************************
 Excited states from <AA,BB:AA,BB> singles matrix:
 ***********************************************************************
 
 Ground to excited state transition densities written to RWF  633
 Ground to excited state transition electric dipole moments (Au):
       state          X           Y           Z        Dip. S.      Osc.
         1         0.5526      0.3093     -0.0000      0.4010      0.0276
 Ground to excited state transition velocity dipole moments (Au):
       state          X           Y           Z        Dip. S.      Osc.
         1        -0.0644     -0.0342     -0.0000      0.0053      0.0344
 Ground to excited state transition magnetic dipole moments (Au):
       state          X           Y           Z
         1        -0.0000      0.0000      0.0833
 Ground to excited state transition velocity quadrupole moments (Au):
       state          XX          YY          ZZ          XY          XZ          YZ
         1         0.1202      0.2034     -0.0096     -0.1263     -0.0000     -0.0000
 <0|del|b> * <b|rxdel|0> + <0|del|b> * <b|delr+rdel|0>
 Rotatory Strengths (R) in cgs (10**-40 erg-esu-cm/Gauss)
       state          XX          YY          ZZ    R(velocity)    E-M Angle
         1        -0.0000     -0.0000     -0.0000     -0.0000       90.00
 1/2[<0|r|b>*<b|rxdel|0> + (<0|rxdel|b>*<b|r|0>)*]
 Rotatory Strengths (R) in cgs (10**-40 erg-esu-cm/Gauss)
       state          XX          YY          ZZ     R(length)
         1         0.0000     -0.0000      0.0000      0.0000
  1/2[<0|del|b>*<b|r|0> + (<0|r|b>*<b|del|0>)*] (Au)
       state          X           Y           Z        Dip. S.   Osc.(frdel)
         1        -0.0356     -0.0106      0.0000      0.0462      0.0308

 Excitation energies and oscillator strengths:
 
 Excited State   1:      Singlet-A'     2.8086 eV  441.45 nm  f=0.0276  <S**2>=0.000
      47 -> 48         0.70410
 This state for optimization and/or second-order correction.
 Total Energy, E(TD-HF/TD-DFT) =  -539.656533753    
 Copying the excited state density for this state as the 1-particle RhoCI density.
 SavETr:  write IOETrn=   770 NScale= 10 NData=  16 NLR=1 NState=    1 LETran=      28.

 **********************************************************************

            Population analysis using the SCF Density.

 **********************************************************************

 Orbital symmetries:
       Occupied  (A') (A') (A') (A') (A') (A') (A') (A') (A') (A')
                 (A') (A') (A') (A') (A') (A') (A') (A') (A') (A')
                 (A') (A') (A') (A') (A') (A') (A') (A') (A') (A')
                 (A') (A') (A") (A') (A') (A') (A') (A") (A") (A')
                 (A') (A') (A') (A") (A") (A") (A")
       Virtual   (A") (A") (A") (A") (A') (A') (A') (A') (A") (A')
                 (A') (A") (A') (A') (A") (A') (A") (A') (A') (A')
                 (A") (A") (A') (A') (A') (A") (A') (A") (A') (A')
                 (A") (A') (A") (A') (A') (A') (A') (A') (A") (A')
                 (A") (A') (A') (A") (A") (A') (A") (A') (A") (A')
                 (A') (A') (A') (A') (A') (A") (A') (A') (A') (A')
                 (A') (A") (A') (A') (A') (A") (A') (A') (A') (A')
                 (A') (A') (A') (A') (A') (A') (A') (A') (A') (A')
                 (A') (A') (A') (A') (A') (A') (A') (A') (A') (A')
                 (A') (A') (A') (A') (A") (A') (A") (A") (A') (A")
                 (A') (A') (A') (A') (A") (A") (A') (A") (A") (A')
                 (A') (A') (A") (A') (A') (A") (A') (A") (A') (A")
                 (A") (A') (A") (A') (A') (A') (A") (A') (A') (A')
                 (A') (A') (A') (A') (A') (A') (A') (A') (A') (A')
                 (A') (A') (A') (A") (A') (A') (A') (A') (A') (A')
                 (A') (A') (A") (A') (A") (A') (A") (A") (A') (A")
                 (A") (A') (A') (A") (A") (A") (A') (A") (A') (A')
                 (A') (A') (A') (A") (A") (A') (A') (A') (A') (A")
                 (A') (A') (A') (A") (A') (A") (A') (A') (A") (A")
                 (A") (A') (A') (A") (A') (A") (A') (A') (A') (A')
                 (A") (A") (A") (A') (A') (A") (A') (A") (A') (A')
                 (A') (A") (A') (A") (A") (A') (A") (A') (A') (A")
                 (A') (A') (A') (A') (A") (A') (A') (A') (A") (A")
                 (A') (A') (A') (A") (A') (A') (A') (A") (A") (A')
                 (A") (A') (A') (A") (A') (A') (A') (A') (A') (A')
                 (A") (A') (A') (A') (A') (A") (A") (A") (A') (A')
                 (A') (A') (A') (A') (A') (A') (A") (A') (A') (A')
                 (A') (A") (A') (A") (A") (A") (A') (A") (A') (A")
                 (A') (A") (A") (A') (A") (A") (A') (A') (A') (A')
                 (A') (A') (A') (A') (A') (A') (A') (A') (A') (A')
                 (A') (A') (A') (A") (A') (A') (A') (A') (A') (A')
                 (A') (A') (A') (A') (A') (A') (A') (A') (A') (A')
                 (A') (A') (A') (A') (A') (A') (A') (A') (A') (A')
                 (A') (A')
 The electronic state is 1-A'.
 Alpha  occ. eigenvalues --  -10.77656 -10.73371 -10.73082 -10.72545 -10.72312
 Alpha  occ. eigenvalues --  -10.71503 -10.71267 -10.71228 -10.70972 -10.70752
 Alpha  occ. eigenvalues --  -10.70037 -10.69907 -10.69708 -10.69544  -1.16462
 Alpha  occ. eigenvalues --   -1.12475  -1.06944  -1.05760  -1.01312  -1.00217
 Alpha  occ. eigenvalues --   -0.95764  -0.91059  -0.86422  -0.85906  -0.83817
 Alpha  occ. eigenvalues --   -0.78397  -0.76048  -0.74416  -0.69573  -0.69254
 Alpha  occ. eigenvalues --   -0.68494  -0.68188  -0.68097  -0.64791  -0.64281
 Alpha  occ. eigenvalues --   -0.63054  -0.61849  -0.60052  -0.59624  -0.59095
 Alpha  occ. eigenvalues --   -0.56907  -0.55219  -0.54824  -0.52436  -0.46688
 Alpha  occ. eigenvalues --   -0.46066  -0.44432
 Alpha virt. eigenvalues --   -0.26084  -0.14670  -0.14096  -0.12772  -0.11180
 Alpha virt. eigenvalues --   -0.10088  -0.09232  -0.07981  -0.07964  -0.07477
 Alpha virt. eigenvalues --   -0.07205  -0.07145  -0.05642  -0.05582  -0.05335
 Alpha virt. eigenvalues --   -0.03829  -0.03648  -0.03279  -0.03132  -0.02164
 Alpha virt. eigenvalues --   -0.01367  -0.00932   0.00189   0.00593   0.00669
 Alpha virt. eigenvalues --    0.01059   0.01512   0.01938   0.02214   0.02285
 Alpha virt. eigenvalues --    0.02450   0.02671   0.02751   0.03291   0.03380
 Alpha virt. eigenvalues --    0.04238   0.04506   0.04696   0.05030   0.05367
 Alpha virt. eigenvalues --    0.06031   0.06298   0.06596   0.07049   0.07253
 Alpha virt. eigenvalues --    0.07894   0.08159   0.08365   0.08551   0.08927
 Alpha virt. eigenvalues --    0.09540   0.09567   0.10038   0.10874   0.11037
 Alpha virt. eigenvalues --    0.11115   0.12173   0.12247   0.12893   0.12995
 Alpha virt. eigenvalues --    0.13415   0.13524   0.14019   0.14376   0.16181
 Alpha virt. eigenvalues --    0.16339   0.16352   0.17346   0.17616   0.17797
 Alpha virt. eigenvalues --    0.18127   0.19063   0.19251   0.19638   0.19755
 Alpha virt. eigenvalues --    0.21560   0.21606   0.22724   0.23119   0.23566
 Alpha virt. eigenvalues --    0.23794   0.24561   0.25307   0.26923   0.27610
 Alpha virt. eigenvalues --    0.28855   0.29297   0.29877   0.31365   0.35832
 Alpha virt. eigenvalues --    0.36442   0.38183   0.39278   0.41153   0.41395
 Alpha virt. eigenvalues --    0.41980   0.42186   0.42983   0.43694   0.44302
 Alpha virt. eigenvalues --    0.44924   0.45047   0.46064   0.46206   0.47929
 Alpha virt. eigenvalues --    0.48521   0.48871   0.49021   0.50435   0.51188
 Alpha virt. eigenvalues --    0.51536   0.51769   0.52116   0.52907   0.53986
 Alpha virt. eigenvalues --    0.54091   0.54658   0.55679   0.55773   0.57438
 Alpha virt. eigenvalues --    0.58240   0.58826   0.61451   0.62186   0.62353
 Alpha virt. eigenvalues --    0.63215   0.63492   0.64989   0.65158   0.67307
 Alpha virt. eigenvalues --    0.70402   0.70578   0.71046   0.72426   0.72877
 Alpha virt. eigenvalues --    0.75753   0.76026   0.76307   0.76888   0.77100
 Alpha virt. eigenvalues --    0.77848   0.77899   0.78252   0.79877   0.80398
 Alpha virt. eigenvalues --    0.81256   0.81634   0.82158   0.83016   0.85200
 Alpha virt. eigenvalues --    0.87163   0.88193   0.88578   0.89133   0.90436
 Alpha virt. eigenvalues --    0.91104   0.91264   0.93200   0.94635   0.96437
 Alpha virt. eigenvalues --    0.96673   1.00375   1.01295   1.01674   1.02722
 Alpha virt. eigenvalues --    1.03204   1.03754   1.04747   1.05512   1.08786
 Alpha virt. eigenvalues --    1.19564   1.23241   1.24078   1.25197   1.28132
 Alpha virt. eigenvalues --    1.29651   1.31818   1.34282   1.35776   1.36003
 Alpha virt. eigenvalues --    1.39364   1.40129   1.40953   1.42992   1.43487
 Alpha virt. eigenvalues --    1.43527   1.44875   1.45706   1.46373   1.46675
 Alpha virt. eigenvalues --    1.47644   1.48037   1.51756   1.53632   1.55815
 Alpha virt. eigenvalues --    1.55849   1.56350   1.56570   1.57794   1.61464
 Alpha virt. eigenvalues --    1.63217   1.63461   1.63818   1.66122   1.68333
 Alpha virt. eigenvalues --    1.68353   1.68681   1.69733   1.74410   1.76000
 Alpha virt. eigenvalues --    1.77189   1.78051   1.80051   1.80141   1.80732
 Alpha virt. eigenvalues --    1.83145   1.83206   1.83631   1.83823   1.84156
 Alpha virt. eigenvalues --    1.84304   1.85802   1.86131   1.88239   1.91395
 Alpha virt. eigenvalues --    1.92089   1.94132   1.95220   1.97703   1.98165
 Alpha virt. eigenvalues --    1.99760   2.02502   2.04439   2.07265   2.11816
 Alpha virt. eigenvalues --    2.12081   2.14122   2.15222   2.19128   2.21285
 Alpha virt. eigenvalues --    2.22792   2.28582   2.30240   2.34662   2.34952
 Alpha virt. eigenvalues --    2.36232   2.38682   2.39602   2.42382   2.44562
 Alpha virt. eigenvalues --    2.46173   2.46607   2.49364   2.52924   2.53812
 Alpha virt. eigenvalues --    2.54295   2.56753   2.57850   2.58308   2.59625
 Alpha virt. eigenvalues --    2.59836   2.61608   2.62146   2.63551   2.63809
 Alpha virt. eigenvalues --    2.64787   2.65123   2.65197   2.65374   2.68004
 Alpha virt. eigenvalues --    2.68565   2.70962   2.71421   2.73350   2.74824
 Alpha virt. eigenvalues --    2.76301   2.78830   2.79729   2.82937   2.83078
 Alpha virt. eigenvalues --    2.84895   2.86318   2.92124   2.96999   2.99511
 Alpha virt. eigenvalues --    3.00079   3.05214   3.10976   3.11468   3.13217
 Alpha virt. eigenvalues --    3.21038   3.23741   3.26753   3.28303   3.30733
 Alpha virt. eigenvalues --    3.32804   3.33726   3.43448   3.45935   3.46675
 Alpha virt. eigenvalues --    3.48573   3.50181   3.56532   3.65635   3.66924
 Alpha virt. eigenvalues --    3.67480   3.94172   3.94497   3.95214   3.96250
 Alpha virt. eigenvalues --    4.04015   4.06886   4.07546   4.12543   4.35593
 Alpha virt. eigenvalues --    4.61492   4.69813   4.71619  23.45330  23.60532
 Alpha virt. eigenvalues --   23.82113  23.85373  23.87721  23.89200  23.90628
 Alpha virt. eigenvalues --   23.92815  23.97413  23.98870  24.00305  24.01304
 Alpha virt. eigenvalues --   24.10591  24.10863
          Condensed to atoms (all electrons):
               1          2          3          4          5          6
     1  C    8.651548   0.272479  -0.514752   2.019039  -0.032874  -0.098193
     2  C    0.272479   7.116892   0.335924  -1.087974  -0.014050  -0.014364
     3  C   -0.514752   0.335924   6.584714   0.772381  -0.126553   0.016918
     4  C    2.019039  -1.087974   0.772381  10.845002  -0.345060  -0.119219
     5  C   -0.032874  -0.014050  -0.126553  -0.345060  11.066762   0.742685
     6  C   -0.098193  -0.014364   0.016918  -0.119219   0.742685   6.590062
     7  C   -0.016397   0.002188  -0.014973  -0.028379  -1.030169   0.383527
     8  C    0.405334  -0.025085  -0.092149  -0.011228   1.871803  -0.585479
     9  C   -1.191727  -0.782347   0.290893  -0.297498  -0.171956   0.291631
    10  C   -1.295859   0.270902  -0.379705  -2.515928  -2.626797  -0.331390
    11  C    0.281277  -0.949929   1.046468  -0.260441  -1.528016  -0.191707
    12  C   -2.120797   1.428471  -1.411215  -1.556999  -0.365267  -0.177053
    13  C    0.201287  -0.254745  -0.159438  -1.478982  -0.255151   0.981441
    14  C   -1.059022  -0.169538  -0.223260  -0.294706  -1.553457  -1.366156
    15  H    0.366928  -0.105329  -0.000988   0.027756   0.005583   0.001065
    16  H   -0.018872   0.377185  -0.015007   0.012643  -0.001503  -0.000320
    17  H   -0.026004  -0.014506   0.372862  -0.066984   0.000371   0.000393
    18  H    0.050603   0.002762  -0.084844   0.454895   0.006727  -0.005077
    19  H   -0.047494  -0.007470   0.051036  -0.067664  -0.073004   0.050897
    20  H    0.007330   0.002015  -0.005002   0.006773   0.458117  -0.084749
    21  H   -0.001343  -0.000392   0.000401   0.000262  -0.067888   0.376487
    22  H    0.000793   0.000374  -0.000337  -0.001594   0.014660  -0.017754
    23  H    0.005570  -0.002761   0.001139   0.006067   0.026371  -0.002191
    24  H    0.031005   0.013981  -0.001587  -0.012552  -0.012035  -0.001449
    25  H    0.031005   0.013981  -0.001587  -0.012552  -0.012035  -0.001449
               7          8          9         10         11         12
     1  C   -0.016397   0.405334  -1.191727  -1.295859   0.281277  -2.120797
     2  C    0.002188  -0.025085  -0.782347   0.270902  -0.949929   1.428471
     3  C   -0.014973  -0.092149   0.290893  -0.379705   1.046468  -1.411215
     4  C   -0.028379  -0.011228  -0.297498  -2.515928  -0.260441  -1.556999
     5  C   -1.030169   1.871803  -0.171956  -2.626797  -1.528016  -0.365267
     6  C    0.383527  -0.585479   0.291631  -0.331390  -0.191707  -0.177053
     7  C    7.118691   0.413642  -0.806075   0.217431  -0.230476  -0.228944
     8  C    0.413642   8.498336  -1.200850  -1.240620   0.183780  -1.092431
     9  C   -0.806075  -1.200850   9.618482   0.256674   1.638842  -1.906265
    10  C    0.217431  -1.240620   0.256674   9.195130  -0.511092   2.443948
    11  C   -0.230476   0.183780   1.638842  -0.511092  14.518496  -3.690907
    12  C   -0.228944  -1.092431  -1.906265   2.443948  -3.690907  16.015788
    13  C   -0.893253   0.286454   1.682673  -0.459993   1.089608  -4.836821
    14  C    1.237746  -1.905675  -2.012189   2.417978  -4.809743   3.042408
    15  H   -0.002604   0.006077   0.092735  -0.010114  -0.030882  -0.027710
    16  H    0.000351   0.000612   0.004102  -0.009246   0.027835  -0.034541
    17  H   -0.000405  -0.001295  -0.006060   0.020697  -0.028160   0.093340
    18  H    0.002002   0.007277  -0.025543   0.014896  -0.006975  -0.055974
    19  H   -0.007736  -0.045987   0.075918   0.422092   0.078879  -0.059587
    20  H    0.003118   0.048736  -0.024586   0.012987  -0.011940  -0.015306
    21  H   -0.018512  -0.022464  -0.005572   0.020469  -0.006324   0.005268
    22  H    0.379667  -0.019727   0.003521  -0.009895   0.003203  -0.009487
    23  H   -0.104700   0.366091   0.090483  -0.009116   0.000060   0.006948
    24  H    0.014828   0.033876   0.356914   0.005462   0.010234  -0.060134
    25  H    0.014828   0.033876   0.356914   0.005462   0.010234  -0.060134
              13         14         15         16         17         18
     1  C    0.201287  -1.059022   0.366928  -0.018872  -0.026004   0.050603
     2  C   -0.254745  -0.169538  -0.105329   0.377185  -0.014506   0.002762
     3  C   -0.159438  -0.223260  -0.000988  -0.015007   0.372862  -0.084844
     4  C   -1.478982  -0.294706   0.027756   0.012643  -0.066984   0.454895
     5  C   -0.255151  -1.553457   0.005583  -0.001503   0.000371   0.006727
     6  C    0.981441  -1.366156   0.001065  -0.000320   0.000393  -0.005077
     7  C   -0.893253   1.237746  -0.002604   0.000351  -0.000405   0.002002
     8  C    0.286454  -1.905675   0.006077   0.000612  -0.001295   0.007277
     9  C    1.682673  -2.012189   0.092735   0.004102  -0.006060  -0.025543
    10  C   -0.459993   2.417978  -0.010114  -0.009246   0.020697   0.014896
    11  C    1.089608  -4.809743  -0.030882   0.027835  -0.028160  -0.006975
    12  C   -4.836821   3.042408  -0.027710  -0.034541   0.093340  -0.055974
    13  C   14.569703  -3.888745   0.002964   0.002967  -0.006327  -0.011871
    14  C   -3.888745  16.111279   0.006255  -0.008736   0.005338  -0.011693
    15  H    0.002964   0.006255   0.440283  -0.008981   0.001403   0.000160
    16  H    0.002967  -0.008736  -0.008981   0.420236  -0.006477   0.001905
    17  H   -0.006327   0.005338   0.001403  -0.006477   0.423146  -0.010275
    18  H   -0.011871  -0.011693   0.000160   0.001905  -0.010275   0.454865
    19  H    0.077036  -0.071155   0.000274  -0.000518   0.001325  -0.006312
    20  H   -0.008747  -0.050901  -0.000108   0.000013  -0.000136   0.001273
    21  H   -0.027405   0.089830   0.000012  -0.000007   0.000010  -0.000149
    22  H    0.027482  -0.033592  -0.000128   0.000007  -0.000007   0.000016
    23  H   -0.029653  -0.021159   0.000588  -0.000126   0.000014  -0.000115
    24  H    0.016688  -0.059822  -0.000894   0.000631  -0.000144   0.000190
    25  H    0.016688  -0.059822  -0.000894   0.000631  -0.000144   0.000190
              19         20         21         22         23         24
     1  C   -0.047494   0.007330  -0.001343   0.000793   0.005570   0.031005
     2  C   -0.007470   0.002015  -0.000392   0.000374  -0.002761   0.013981
     3  C    0.051036  -0.005002   0.000401  -0.000337   0.001139  -0.001587
     4  C   -0.067664   0.006773   0.000262  -0.001594   0.006067  -0.012552
     5  C   -0.073004   0.458117  -0.067888   0.014660   0.026371  -0.012035
     6  C    0.050897  -0.084749   0.376487  -0.017754  -0.002191  -0.001449
     7  C   -0.007736   0.003118  -0.018512   0.379667  -0.104700   0.014828
     8  C   -0.045987   0.048736  -0.022464  -0.019727   0.366091   0.033876
     9  C    0.075918  -0.024586  -0.005572   0.003521   0.090483   0.356914
    10  C    0.422092   0.012987   0.020469  -0.009895  -0.009116   0.005462
    11  C    0.078879  -0.011940  -0.006324   0.003203   0.000060   0.010234
    12  C   -0.059587  -0.015306   0.005268  -0.009487   0.006948  -0.060134
    13  C    0.077036  -0.008747  -0.027405   0.027482  -0.029653   0.016688
    14  C   -0.071155  -0.050901   0.089830  -0.033592  -0.021159  -0.059822
    15  H    0.000274  -0.000108   0.000012  -0.000128   0.000588  -0.000894
    16  H   -0.000518   0.000013  -0.000007   0.000007  -0.000126   0.000631
    17  H    0.001325  -0.000136   0.000010  -0.000007   0.000014  -0.000144
    18  H   -0.006312   0.001273  -0.000149   0.000016  -0.000115   0.000190
    19  H    0.442727  -0.006011   0.001492  -0.000553   0.000329   0.000606
    20  H   -0.006011   0.451868  -0.010166   0.001928   0.000210   0.000167
    21  H    0.001492  -0.010166   0.421707  -0.006783   0.001524  -0.000140
    22  H   -0.000553   0.001928  -0.006783   0.418448  -0.008972   0.000629
    23  H    0.000329   0.000210   0.001524  -0.008972   0.437374  -0.000908
    24  H    0.000606   0.000167  -0.000140   0.000629  -0.000908   0.494193
    25  H    0.000606   0.000167  -0.000140   0.000629  -0.000908  -0.080022
              25
     1  C    0.031005
     2  C    0.013981
     3  C   -0.001587
     4  C   -0.012552
     5  C   -0.012035
     6  C   -0.001449
     7  C    0.014828
     8  C    0.033876
     9  C    0.356914
    10  C    0.005462
    11  C    0.010234
    12  C   -0.060134
    13  C    0.016688
    14  C   -0.059822
    15  H   -0.000894
    16  H    0.000631
    17  H   -0.000144
    18  H    0.000190
    19  H    0.000606
    20  H    0.000167
    21  H   -0.000140
    22  H    0.000629
    23  H   -0.000908
    24  H   -0.080022
    25  H    0.494193
 Mulliken charges:
               1
     1  C    0.099131
     2  C   -0.408663
     3  C   -0.441340
     4  C    0.012941
     5  C    0.022736
     6  C   -0.438555
     7  C   -0.405395
     8  C    0.087098
     9  C   -0.329113
    10  C    0.095628
    11  C   -0.632324
    12  C    0.673401
    13  C   -0.643861
    14  C    0.688536
    15  H    0.236546
    16  H    0.255214
    17  H    0.248024
    18  H    0.221070
    19  H    0.190274
    20  H    0.222950
    21  H    0.249822
    22  H    0.257472
    23  H    0.237840
    24  H    0.250283
    25  H    0.250283
 Sum of Mulliken charges =   1.00000
 Mulliken charges with hydrogens summed into heavy atoms:
               1
     1  C    0.335677
     2  C   -0.153449
     3  C   -0.193316
     4  C    0.234011
     5  C    0.245686
     6  C   -0.188733
     7  C   -0.147923
     8  C    0.324938
     9  C    0.171454
    10  C    0.285902
    11  C   -0.632324
    12  C    0.673401
    13  C   -0.643861
    14  C    0.688536
 Electronic spatial extent (au):  <R**2>=           2855.2577
 Charge=              1.0000 electrons
 Dipole moment (field-independent basis, Debye):
    X=             -0.0309    Y=             -0.3341    Z=              0.0000  Tot=              0.3356
 Quadrupole moment (field-independent basis, Debye-Ang):
   XX=            -50.7901   YY=            -36.5908   ZZ=            -84.1406
   XY=            -10.3745   XZ=              0.0000   YZ=              0.0000
 Traceless Quadrupole moment (field-independent basis, Debye-Ang):
   XX=              6.3837   YY=             20.5830   ZZ=            -26.9668
   XY=            -10.3745   XZ=              0.0000   YZ=              0.0000
 Octapole moment (field-independent basis, Debye-Ang**2):
  XXX=              0.5604  YYY=              2.7483  ZZZ=              0.0000  XYY=              1.1285
  XXY=             -5.9342  XXZ=              0.0000  XZZ=              2.9077  YZZ=              1.0930
  YYZ=              0.0000  XYZ=              0.0000
 Hexadecapole moment (field-independent basis, Debye-Ang**3):
 XXXX=           -996.5706 YYYY=          -1842.4308 ZZZZ=            -99.3224 XXXY=            350.1012
 XXXZ=              0.0000 YYYX=            277.2008 YYYZ=              0.0000 ZZZX=             -0.0000
 ZZZY=              0.0000 XXYY=           -453.6502 XXZZ=           -243.7331 YYZZ=           -492.5463
 XXYZ=              0.0000 YYXZ=              0.0000 ZZXY=            184.4214
 N-N= 7.812994104528D+02 E-N=-2.798944916175D+03  KE= 5.375126648605D+02
 Symmetry A'   KE= 5.228650286591D+02
 Symmetry A"   KE= 1.464763620144D+01
 Unable to Open any file for archive entry.
 1\1\GINC-GADI-CPU-CLX-1762\SP\RM062X TD-FC\6-311++G(d,p)\C14H11(1+)\TS
 1578\02-Aug-2022\0\\#n M062X/6-311++G(d,p) TD(NStates=1) EmpiricalDisp
 ersion=GD3 SP\\SP_-50\\1,1\C,0,2.498555,1.360431,0.\C,0,3.709258,0.675
 689,0.\C,0,3.685861,-0.70713,0.\C,0,2.455306,-1.402888,0.\C,0,-2.47090
 6,-1.411988,0.\C,0,-3.681261,-0.71953,0.\C,0,-3.692808,0.668639,0.\C,0
 ,-2.484855,1.361031,0.\C,0,0.0044,1.451169,0.\C,0,-0.0122,-1.429089,0.
 \C,0,1.260155,0.673215,0.\C,0,1.232671,-0.730354,0.\C,0,-1.263805,0.68
 0865,0.\C,0,-1.242671,-0.731554,0.\H,0,2.489071,2.443747,0.\H,0,4.6445
 03,1.214939,0.\H,0,4.607662,-1.271949,0.\H,0,2.46405,-2.485559,0.\H,0,
 -0.01125,-2.510216,0.\H,0,-2.47135,-2.494409,0.\H,0,-4.610562,-1.27149
 9,0.\H,0,-4.627853,1.209189,0.\H,0,-2.484871,2.444197,0.\H,0,0.016,2.1
 45287,-0.859035\H,0,0.016,2.145287,0.859035\\Version=ES64L-G16RevC.01\
 State=1-A'\HF=-539.7597462\RMSD=5.684e-09\PG=CS [SG(C14H9),X(H2)]\\@
 The archive entry for this job was punched.


 CHILDREN YOU ARE VERY LITTLE,
 AND YOUR BONES ARE VERY BRITTLE;
 IF YOU WOULD GROW GREAT AND STATELY
 YOU MUST TRY TO WALK SEDATELY.
 YOU MUST STILL BE BRIGHT AND QUIET,
 AND CONTENT WITH SIMPLE DIET;
 AND REMAIN, THROUGH ALL BEWILD'RING
 INNOCENT AND HONEST CHILDREN.
     -- A CHILD'S GARDEN OF VERSE,
        ROBERT LOUIS STEVENSON
 Job cpu time:       0 days  0 hours 52 minutes  2.3 seconds.
 Elapsed time:       0 days  0 hours  1 minutes  5.2 seconds.
 File lengths (MBytes):  RWF=    460 Int=      0 D2E=      0 Chk=     15 Scr=      1
 Normal termination of Gaussian 16 at Tue Aug  2 11:38:03 2022.
