 Entering Gaussian System, Link 0=g16
 Initial command:
 /apps/gaussian/g16c01/g16/l1.exe "/jobfs/53796104.gadi-pbs/Gau-3682197.inp" -scrdir="/jobfs/53796104.gadi-pbs/"
 Entering Link 1 = /apps/gaussian/g16c01/g16/l1.exe PID=   3682198.
  
 Copyright (c) 1988-2019, Gaussian, Inc.  All Rights Reserved.
  
 This is part of the Gaussian(R) 16 program.  It is based on
 the Gaussian(R) 09 system (copyright 2009, Gaussian, Inc.),
 the Gaussian(R) 03 system (copyright 2003, Gaussian, Inc.),
 the Gaussian(R) 98 system (copyright 1998, Gaussian, Inc.),
 the Gaussian(R) 94 system (copyright 1995, Gaussian, Inc.),
 the Gaussian 92(TM) system (copyright 1992, Gaussian, Inc.),
 the Gaussian 90(TM) system (copyright 1990, Gaussian, Inc.),
 the Gaussian 88(TM) system (copyright 1988, Gaussian, Inc.),
 the Gaussian 86(TM) system (copyright 1986, Carnegie Mellon
 University), and the Gaussian 82(TM) system (copyright 1983,
 Carnegie Mellon University). Gaussian is a federally registered
 trademark of Gaussian, Inc.
  
 This software contains proprietary and confidential information,
 including trade secrets, belonging to Gaussian, Inc.
  
 This software is provided under written license and may be
 used, copied, transmitted, or stored only in accord with that
 written license.
  
 The following legend is applicable only to US Government
 contracts under FAR:
  
                    RESTRICTED RIGHTS LEGEND
  
 Use, reproduction and disclosure by the US Government is
 subject to restrictions as set forth in subparagraphs (a)
 and (c) of the Commercial Computer Software - Restricted
 Rights clause in FAR 52.227-19.
  
 Gaussian, Inc.
 340 Quinnipiac St., Bldg. 40, Wallingford CT 06492
  
  
 ---------------------------------------------------------------
 Warning -- This program may not be used in any manner that
 competes with the business of Gaussian, Inc. or will provide
 assistance to any competitor of Gaussian, Inc.  The licensee
 of this program is prohibited from giving any competitor of
 Gaussian, Inc. access to this program.  By using this program,
 the user acknowledges that Gaussian, Inc. is engaged in the
 business of creating and licensing software in the field of
 computational chemistry and represents and warrants to the
 licensee that it is not a competitor of Gaussian, Inc. and that
 it will not use this program in any manner prohibited above.
 ---------------------------------------------------------------
  

 Cite this work as:
 Gaussian 16, Revision C.01,
 M. J. Frisch, G. W. Trucks, H. B. Schlegel, G. E. Scuseria, 
 M. A. Robb, J. R. Cheeseman, G. Scalmani, V. Barone, 
 G. A. Petersson, H. Nakatsuji, X. Li, M. Caricato, A. V. Marenich, 
 J. Bloino, B. G. Janesko, R. Gomperts, B. Mennucci, H. P. Hratchian, 
 J. V. Ortiz, A. F. Izmaylov, J. L. Sonnenberg, D. Williams-Young, 
 F. Ding, F. Lipparini, F. Egidi, J. Goings, B. Peng, A. Petrone, 
 T. Henderson, D. Ranasinghe, V. G. Zakrzewski, J. Gao, N. Rega, 
 G. Zheng, W. Liang, M. Hada, M. Ehara, K. Toyota, R. Fukuda, 
 J. Hasegawa, M. Ishida, T. Nakajima, Y. Honda, O. Kitao, H. Nakai, 
 T. Vreven, K. Throssell, J. A. Montgomery, Jr., J. E. Peralta, 
 F. Ogliaro, M. J. Bearpark, J. J. Heyd, E. N. Brothers, K. N. Kudin, 
 V. N. Staroverov, T. A. Keith, R. Kobayashi, J. Normand, 
 K. Raghavachari, A. P. Rendell, J. C. Burant, S. S. Iyengar, 
 J. Tomasi, M. Cossi, J. M. Millam, M. Klene, C. Adamo, R. Cammi, 
 J. W. Ochterski, R. L. Martin, K. Morokuma, O. Farkas, 
 J. B. Foresman, and D. J. Fox, Gaussian, Inc., Wallingford CT, 2019.
 
 ******************************************
 Gaussian 16:  ES64L-G16RevC.01  3-Jul-2019
                 2-Aug-2022 
 ******************************************
 %NProcShared=48
 Will use up to   48 processors via shared memory.
 %mem = 190GB
 ---------------------------------------------------------------
 #n M062X/6-311++G(d,p) TD(NStates=1) EmpiricalDispersion=GD3 SP
 ---------------------------------------------------------------
 1/38=1,172=1/1;
 2/12=2,17=6,18=5,40=1/2;
 3/5=4,6=6,7=1111,11=9,25=1,30=1,74=-55,124=31/1,2,3,8;
 4//1;
 5/5=2,38=5/2;
 8/6=1,10=2,108=1/1;
 9/41=1,42=1,70=2/14;
 6/7=2,8=2,9=2,10=2/1;
 99/5=1,9=1/99;
 ------
 SP_150
 ------
 Symbolic Z-matrix:
 Charge =  1 Multiplicity = 1
 C                     2.47886   1.36013   0. 
 C                     3.68261   0.66256   0. 
 C                     3.67916  -0.73108   0. 
 C                     2.48283  -1.41926   0. 
 C                    -2.44383  -1.39651   0. 
 C                    -3.69066  -0.70008   0. 
 C                    -3.72373   0.68019   0. 
 C                    -2.51311   1.35863   0. 
 C                    -0.01103   1.46107   0. 
 C                     0.0305   -1.42954   0. 
 C                     1.26688   0.68672   0. 
 C                     1.24927  -0.73178   0. 
 C                    -1.25776   0.66759   0. 
 C                    -1.22427  -0.72878   0. 
 H                     2.48667   2.44307   0. 
 H                     4.61795   1.20319   0. 
 H                     4.61341  -1.27397   0. 
 H                     2.47615  -2.50138   0. 
 H                     0.02813  -2.51044   0. 
 H                    -2.4579   -2.47926   0. 
 H                    -4.60616  -1.2751    0. 
 H                    -4.65958   1.21756   0. 
 H                    -2.49717   2.44195   0. 
 H                    -0.04      2.14754  -0.86151 
 H                    -0.04      2.14754   0.86151 
 
                          Input orientation:                          
 ---------------------------------------------------------------------
 Center     Atomic      Atomic             Coordinates (Angstroms)
 Number     Number       Type             X           Y           Z
 ---------------------------------------------------------------------
      1          6           0        2.478855    1.360131    0.000000
      2          6           0        3.682608    0.662564    0.000000
      3          6           0        3.679161   -0.731080    0.000000
      4          6           0        2.482831   -1.419263    0.000000
      5          6           0       -2.443831   -1.396513    0.000000
      6          6           0       -3.690661   -0.700080    0.000000
      7          6           0       -3.723733    0.680189    0.000000
      8          6           0       -2.513105    1.358631    0.000000
      9          6           0       -0.011025    1.461069    0.000000
     10          6           0        0.030500   -1.429539    0.000000
     11          6           0        1.266880    0.686715    0.000000
     12          6           0        1.249271   -0.731779    0.000000
     13          6           0       -1.257755    0.667590    0.000000
     14          6           0       -1.224271   -0.728779    0.000000
     15          1           0        2.486671    2.443072    0.000000
     16          1           0        4.617953    1.203189    0.000000
     17          1           0        4.613412   -1.273974    0.000000
     18          1           0        2.476150   -2.501384    0.000000
     19          1           0        0.028125   -2.510441    0.000000
     20          1           0       -2.457900   -2.479259    0.000000
     21          1           0       -4.606162   -1.275099    0.000000
     22          1           0       -4.659578    1.217564    0.000000
     23          1           0       -2.497171    2.441947    0.000000
     24          1           0       -0.040000    2.147537   -0.861510
     25          1           0       -0.040000    2.147537    0.861510
 ---------------------------------------------------------------------
                    Distance matrix (angstroms):
                    1          2          3          4          5
     1  C    0.000000
     2  C    1.391266   0.000000
     3  C    2.411203   1.393648   0.000000
     4  C    2.779397   2.402804   1.380145   0.000000
     5  C    5.641979   6.463208   6.159045   4.926715   0.000000
     6  C    6.504414   7.498126   7.369887   6.215242   1.428147
     7  C    6.239745   7.406362   7.536214   6.552033   2.439434
     8  C    4.991960   6.234691   6.535369   5.716299   2.756015
     9  C    2.491925   3.778960   4.292201   3.809938   3.752908
    10  C    3.711698   4.208894   3.714912   2.452353   2.474551
    11  C    1.386496   2.415849   2.798078   2.431806   4.255492
    12  C    2.426513   2.804518   2.429890   1.412198   3.752449
    13  C    3.800246   4.940366   5.131220   4.283333   2.380609
    14  C    4.251669   5.100323   4.903433   3.770858   1.390394
    15  H    1.082969   2.144872   3.390763   3.862337   6.249181
    16  H    2.144848   1.080345   2.150053   3.381716   7.525108
    17  H    3.390405   2.148622   1.080536   2.135529   7.058307
    18  H    3.861516   3.386164   2.140377   1.082142   5.042515
    19  H    4.581201   4.839753   4.061550   2.686308   2.711347
    20  H    6.253996   6.897600   6.381195   5.053159   1.082837
    21  H    7.559226   8.512241   8.303164   7.090459   2.165737
    22  H    7.139857   8.360628   8.563398   7.613597   3.426796
    23  H    5.092265   6.430853   6.943715   6.301537   3.838831
    24  H    2.776119   4.099409   4.781296   4.452970   4.368168
    25  H    2.776119   4.099409   4.781296   4.452970   4.368168
                    6          7          8          9         10
     6  C    0.000000
     7  C    1.380665   0.000000
     8  C    2.371693   1.387769   0.000000
     9  C    4.267351   3.793939   2.504176   0.000000
    10  C    3.791985   4.306416   3.774098   2.890906   0.000000
    11  C    5.147855   4.990617   3.839239   1.494211   2.450952
    12  C    4.940034   5.169567   4.304101   2.529215   1.404376
    13  C    2.790977   2.466010   1.432983   1.477818   2.461209
    14  C    2.466557   2.869234   2.453237   2.503478   1.437190
    15  H    6.931005   6.455763   5.116031   2.683806   4.585836
    16  H    8.523820   8.358065   7.132752   4.636156   5.289233
    17  H    8.323880   8.563103   7.597227   5.372697   4.585552
    18  H    6.424504   6.968569   6.308120   4.678362   2.670216
    19  H    4.136034   4.925095   4.628992   3.971703   1.080905
    20  H    2.164527   3.403593   3.838287   4.638252   2.700749
    21  H    1.081105   2.145188   3.364138   5.348074   4.639233
    22  H    2.148525   1.079156   2.151103   4.654926   5.385535
    23  H    3.361064   2.146682   1.083433   2.672647   4.623584
    24  H    4.709400   4.057733   2.735109   1.101943   3.680033
    25  H    4.709400   4.057733   2.735109   1.101943   3.680033
                   11         12         13         14         15
    11  C    0.000000
    12  C    1.418603   0.000000
    13  C    2.524707   2.871134   0.000000
    14  C    2.865215   2.473544   1.396770   0.000000
    15  H    2.138383   3.407468   4.144039   4.881775   0.000000
    16  H    3.390639   3.884858   5.900069   6.153380   2.465699
    17  H    3.878605   3.407553   6.183872   5.863086   4.282459
    18  H    3.409737   2.153308   4.897391   4.103077   4.944467
    19  H    3.428749   2.157507   3.428319   2.177801   5.530076
    20  H    4.888494   4.098390   3.367938   2.141500   6.976971
    21  H    6.192038   5.880586   3.871159   3.425734   8.008313
    22  H    5.950185   6.222092   3.445993   3.948365   7.250569
    23  H    4.153182   4.910027   2.164369   3.416691   4.983842
    24  H    2.141059   3.270303   2.101278   3.227676   2.685816
    25  H    2.141059   3.270303   2.101278   3.227676   2.685816
                   16         17         18         19         20
    16  H    0.000000
    17  H    2.477167   0.000000
    18  H    4.279157   2.464635   0.000000
    19  H    5.904030   4.749074   2.448042   0.000000
    20  H    7.976724   7.173295   4.934100   2.486221   0.000000
    21  H    9.551241   9.219574   7.187692   4.796112   2.462728
    22  H    9.277542   9.601880   8.046688   5.989372   4.302777
    23  H    7.222154   8.022996   7.012164   5.559071   4.921363
    24  H    4.830168   5.839793   5.355901   4.737468   5.291095
    25  H    4.830168   5.839793   5.355901   4.737468   5.291095
                   21         22         23         24         25
    21  H    0.000000
    22  H    2.493235   0.000000
    23  H    4.273672   2.484978   0.000000
    24  H    5.771176   4.790360   2.620413   0.000000
    25  H    5.771176   4.790360   2.620413   1.723020   0.000000
 Stoichiometry    C14H11(1+)
 Framework group  CS[SG(C14H9),X(H2)]
 Deg. of freedom    46
 Full point group                 CS      NOp   2
 Largest Abelian subgroup         CS      NOp   2
 Largest concise Abelian subgroup CS      NOp   2
                         Standard orientation:                         
 ---------------------------------------------------------------------
 Center     Atomic      Atomic             Coordinates (Angstroms)
 Number     Number       Type             X           Y           Z
 ---------------------------------------------------------------------
      1          6           0       -2.364010   -1.551917    0.000000
      2          6           0       -2.312428   -2.942226    0.000000
      3          6           0       -1.079923   -3.592755    0.000000
      4          6           0        0.088930   -2.858872    0.000000
      5          6           0        2.379279    1.503102    0.000000
      6          6           0        2.348900    2.930926    0.000000
      7          6           0        1.145335    3.607436    0.000000
      8          6           0       -0.021621    2.856357    0.000000
      9          6           0       -1.285488    0.694521    0.000000
     10          6           0        1.248068   -0.697754    0.000000
     11          6           0       -1.200862   -0.797291    0.000000
     12          6           0        0.060232   -1.446966    0.000000
     13          6           0        0.000000    1.423537    0.000000
     14          6           0        1.217592    0.739113    0.000000
     15          1           0       -3.324146   -1.050956    0.000000
     16          1           0       -3.228562   -3.514802    0.000000
     17          1           0       -1.038564   -4.672499    0.000000
     18          1           0        1.047810   -3.360451    0.000000
     19          1           0        2.203852   -1.202564    0.000000
     20          1           0        3.342175    1.007756    0.000000
     21          1           0        3.286106    3.469846    0.000000
     22          1           0        1.109597    4.686000    0.000000
     23          1           0       -0.985895    3.350324    0.000000
     24          1           0       -1.878199    1.042043    0.861510
     25          1           0       -1.878199    1.042043   -0.861510
 ---------------------------------------------------------------------
 Rotational constants (GHZ):           2.1338645           0.4442193           0.3684798
 Standard basis: 6-311++G(d,p) (5D, 7F)
 There are   299 symmetry adapted cartesian basis functions of A'  symmetry.
 There are   100 symmetry adapted cartesian basis functions of A"  symmetry.
 There are   285 symmetry adapted basis functions of A'  symmetry.
 There are   100 symmetry adapted basis functions of A"  symmetry.
   385 basis functions,   603 primitive gaussians,   399 cartesian basis functions
    47 alpha electrons       47 beta electrons
       nuclear repulsion energy       780.8705701006 Hartrees.
 NAtoms=   25 NActive=   25 NUniq=   24 SFac= 1.09D+00 NAtFMM=   60 NAOKFM=F Big=F
 Integral buffers will be    131072 words long.
 Regular integral format.
 Two-electron integral symmetry is turned on.
 Nuclear repulsion after empirical dispersion term =      780.8695906658 Hartrees.
 One-electron integrals computed using PRISM.
 NBasis=   385 RedAO= T EigKep=  1.14D-06  NBF=   285   100
 NBsUse=   379 1.00D-06 EigRej=  8.42D-07 NBFU=   279   100
 ExpMin= 3.60D-02 ExpMax= 4.56D+03 ExpMxC= 6.82D+02 IAcc=3 IRadAn=         5 AccDes= 0.00D+00
 Harris functional with IExCor= 1009 and IRadAn=       5 diagonalized for initial guess.
 HarFok:  IExCor= 1009 AccDes= 0.00D+00 IRadAn=         5 IDoV= 1 UseB2=F ITyADJ=14
 ICtDFT=  3500011 ScaDFX=  1.000000  1.000000  1.000000  1.000000
 FoFCou: FMM=F IPFlag=           0 FMFlag=      100000 FMFlg1=           0
         NFxFlg=           0 DoJE=T BraDBF=F KetDBF=T FulRan=T
         wScrn=  0.000000 ICntrl=       500 IOpCl=  0 I1Cent=   200000004 NGrid=           0
         NMat0=    1 NMatS0=      1 NMatT0=    0 NMatD0=    1 NMtDS0=    0 NMtDT0=    0
 Petite list used in FoFCou.
 Initial guess orbital symmetries:
       Occupied  (A') (A') (A') (A') (A') (A') (A') (A') (A') (A')
                 (A') (A') (A') (A') (A') (A') (A') (A') (A') (A')
                 (A') (A') (A') (A') (A') (A') (A') (A') (A') (A')
                 (A') (A') (A") (A') (A') (A') (A') (A') (A") (A')
                 (A") (A') (A') (A") (A") (A") (A")
       Virtual   (A") (A") (A") (A") (A") (A') (A') (A') (A') (A")
                 (A") (A') (A') (A') (A") (A') (A') (A') (A') (A")
                 (A') (A") (A') (A') (A') (A") (A') (A") (A') (A')
                 (A') (A') (A') (A') (A") (A') (A") (A') (A') (A')
                 (A") (A') (A') (A") (A') (A') (A') (A') (A") (A')
                 (A') (A') (A") (A") (A') (A') (A') (A") (A") (A')
                 (A') (A') (A') (A') (A') (A') (A") (A') (A') (A")
                 (A') (A') (A') (A') (A') (A') (A') (A') (A') (A')
                 (A') (A') (A') (A') (A') (A') (A') (A') (A') (A')
                 (A') (A') (A') (A') (A') (A') (A') (A") (A') (A")
                 (A') (A') (A") (A") (A') (A") (A') (A") (A') (A")
                 (A") (A') (A') (A') (A") (A') (A') (A") (A") (A')
                 (A") (A") (A') (A') (A') (A") (A') (A') (A') (A")
                 (A') (A') (A') (A') (A') (A') (A") (A') (A') (A')
                 (A') (A') (A') (A') (A') (A') (A') (A') (A') (A")
                 (A") (A') (A") (A") (A') (A') (A') (A") (A") (A')
                 (A") (A') (A") (A") (A") (A') (A') (A') (A') (A')
                 (A') (A") (A') (A") (A') (A') (A') (A') (A') (A")
                 (A') (A') (A') (A') (A") (A') (A") (A') (A") (A")
                 (A') (A") (A') (A") (A') (A') (A') (A") (A') (A')
                 (A") (A") (A") (A') (A') (A") (A') (A") (A') (A')
                 (A") (A") (A') (A") (A') (A") (A') (A') (A') (A")
                 (A') (A') (A') (A') (A") (A') (A') (A') (A") (A")
                 (A') (A') (A') (A") (A') (A') (A") (A') (A") (A')
                 (A") (A') (A') (A') (A') (A") (A') (A') (A') (A")
                 (A') (A') (A") (A') (A") (A') (A') (A") (A') (A')
                 (A') (A") (A') (A") (A') (A') (A') (A") (A') (A")
                 (A') (A') (A') (A') (A") (A') (A") (A') (A") (A')
                 (A") (A') (A") (A") (A") (A') (A') (A') (A') (A')
                 (A') (A') (A') (A') (A') (A') (A') (A') (A') (A')
                 (A') (A') (A') (A') (A') (A") (A') (A') (A') (A')
                 (A') (A') (A') (A') (A') (A') (A') (A') (A') (A')
                 (A') (A') (A') (A') (A') (A') (A') (A') (A') (A')
                 (A') (A')
 The electronic state of the initial guess is 1-A'.
 Requested convergence on RMS density matrix=1.00D-08 within 128 cycles.
 Requested convergence on MAX density matrix=1.00D-06.
 Requested convergence on             energy=1.00D-06.
 No special actions if energy rises.
 SCF Done:  E(RM062X) =  -539.757556350     A.U. after   15 cycles
            NFock= 15  Conv=0.83D-08     -V/T= 2.0042
 DoSCS=F DFT=T ScalE2(SS,OS)=  1.000000  1.000000
 ExpMin= 3.60D-02 ExpMax= 4.56D+03 ExpMxC= 6.82D+02 IAcc=3 IRadAn=         5 AccDes= 0.00D+00
 HarFok:  IExCor=  205 AccDes= 0.00D+00 IRadAn=         5 IDoV=-2 UseB2=F ITyADJ=14
 ICtDFT= 12500011 ScaDFX=  1.000000  1.000000  1.000000  1.000000
 Range of M.O.s used for correlation:    15   379
 NBasis=   385 NAE=    47 NBE=    47 NFC=    14 NFV=     0
 NROrb=    365 NOA=    33 NOB=    33 NVA=   332 NVB=   332

 **** Warning!!: The largest alpha MO coefficient is  0.13417860D+03

 Orbital symmetries:
       Occupied  (A') (A') (A') (A') (A') (A') (A') (A') (A') (A')
                 (A') (A') (A') (A') (A') (A') (A') (A') (A') (A')
                 (A') (A') (A') (A') (A') (A') (A') (A') (A') (A')
                 (A') (A') (A") (A') (A') (A') (A') (A") (A") (A')
                 (A') (A') (A') (A") (A") (A") (A")
       Virtual   (A") (A") (A") (A") (A') (A') (A') (A') (A") (A')
                 (A') (A") (A') (A') (A") (A') (A") (A') (A') (A')
                 (A") (A") (A') (A') (A') (A") (A') (A") (A') (A')
                 (A") (A') (A") (A') (A') (A') (A') (A') (A") (A')
                 (A") (A') (A') (A") (A") (A') (A") (A') (A") (A')
                 (A') (A') (A') (A') (A') (A") (A') (A') (A') (A')
                 (A') (A") (A') (A') (A') (A') (A") (A') (A') (A')
                 (A') (A') (A') (A') (A') (A') (A') (A') (A') (A')
                 (A') (A') (A') (A') (A') (A') (A') (A') (A') (A')
                 (A') (A') (A') (A') (A") (A') (A") (A") (A') (A")
                 (A') (A') (A') (A') (A") (A") (A') (A") (A") (A')
                 (A') (A') (A") (A') (A') (A") (A') (A") (A') (A")
                 (A") (A') (A") (A') (A') (A') (A") (A') (A') (A')
                 (A') (A') (A') (A') (A') (A') (A') (A') (A') (A')
                 (A') (A') (A') (A") (A') (A') (A') (A') (A') (A')
                 (A') (A') (A") (A') (A") (A') (A") (A") (A') (A")
                 (A") (A') (A') (A") (A") (A") (A') (A") (A') (A')
                 (A') (A') (A') (A") (A") (A') (A') (A') (A') (A")
                 (A') (A') (A') (A") (A") (A') (A') (A') (A") (A")
                 (A") (A') (A') (A") (A") (A') (A') (A') (A') (A')
                 (A") (A") (A") (A') (A') (A") (A') (A") (A') (A')
                 (A') (A") (A') (A") (A") (A') (A") (A') (A') (A")
                 (A') (A') (A') (A') (A") (A') (A') (A') (A") (A")
                 (A') (A') (A') (A") (A') (A') (A') (A") (A") (A')
                 (A") (A') (A') (A") (A') (A') (A') (A') (A') (A')
                 (A") (A') (A') (A') (A') (A") (A") (A") (A') (A')
                 (A') (A') (A') (A') (A') (A') (A") (A') (A') (A')
                 (A') (A") (A') (A") (A") (A") (A') (A") (A') (A")
                 (A') (A") (A") (A') (A") (A") (A') (A') (A') (A')
                 (A') (A') (A') (A') (A') (A') (A') (A') (A') (A')
                 (A') (A') (A') (A") (A') (A') (A') (A') (A') (A')
                 (A') (A') (A') (A') (A') (A') (A') (A') (A') (A')
                 (A') (A') (A') (A') (A') (A') (A') (A') (A') (A')
                 (A') (A')
     4 initial guesses have been made.
 Convergence on wavefunction:    0.001000000000000
 Iteration     1 Dimension     4 NMult     0 NNew      4
 CISAX will form     4 AO SS matrices at one time.
 Iteration     2 Dimension     6 NMult     4 NNew      2
 Iteration     3 Dimension     8 NMult     6 NNew      2
 Iteration     4 Dimension    10 NMult     8 NNew      2
 Iteration     5 Dimension    12 NMult    10 NNew      2
 Iteration     6 Dimension    14 NMult    12 NNew      2
 ***********************************************************************
 Excited states from <AA,BB:AA,BB> singles matrix:
 ***********************************************************************
 
 Ground to excited state transition densities written to RWF  633
 Ground to excited state transition electric dipole moments (Au):
       state          X           Y           Z        Dip. S.      Osc.
         1        -0.4990      0.2999     -0.0000      0.3389      0.0228
 Ground to excited state transition velocity dipole moments (Au):
       state          X           Y           Z        Dip. S.      Osc.
         1         0.0581     -0.0309      0.0000      0.0043      0.0286
 Ground to excited state transition magnetic dipole moments (Au):
       state          X           Y           Z
         1        -0.0000      0.0000     -0.1674
 Ground to excited state transition velocity quadrupole moments (Au):
       state          XX          YY          ZZ          XY          XZ          YZ
         1         0.1411      0.1533     -0.0089      0.1379      0.0000     -0.0000
 <0|del|b> * <b|rxdel|0> + <0|del|b> * <b|delr+rdel|0>
 Rotatory Strengths (R) in cgs (10**-40 erg-esu-cm/Gauss)
       state          XX          YY          ZZ    R(velocity)    E-M Angle
         1         0.0000     -0.0000     -0.0000     -0.0000       90.00
 1/2[<0|r|b>*<b|rxdel|0> + (<0|rxdel|b>*<b|r|0>)*]
 Rotatory Strengths (R) in cgs (10**-40 erg-esu-cm/Gauss)
       state          XX          YY          ZZ     R(length)
         1        -0.0000     -0.0000     -0.0000     -0.0000
  1/2[<0|del|b>*<b|r|0> + (<0|r|b>*<b|del|0>)*] (Au)
       state          X           Y           Z        Dip. S.   Osc.(frdel)
         1        -0.0290     -0.0093     -0.0000      0.0383      0.0255

 Excitation energies and oscillator strengths:
 
 Excited State   1:      Singlet-A'     2.7443 eV  451.80 nm  f=0.0228  <S**2>=0.000
      47 -> 48         0.70371
 This state for optimization and/or second-order correction.
 Total Energy, E(TD-HF/TD-DFT) =  -539.656706767    
 Copying the excited state density for this state as the 1-particle RhoCI density.
 SavETr:  write IOETrn=   770 NScale= 10 NData=  16 NLR=1 NState=    1 LETran=      28.

 **********************************************************************

            Population analysis using the SCF Density.

 **********************************************************************

 Orbital symmetries:
       Occupied  (A') (A') (A') (A') (A') (A') (A') (A') (A') (A')
                 (A') (A') (A') (A') (A') (A') (A') (A') (A') (A')
                 (A') (A') (A') (A') (A') (A') (A') (A') (A') (A')
                 (A') (A') (A") (A') (A') (A') (A') (A") (A") (A')
                 (A') (A') (A') (A") (A") (A") (A")
       Virtual   (A") (A") (A") (A") (A') (A') (A') (A') (A") (A')
                 (A') (A") (A') (A') (A") (A') (A") (A') (A') (A')
                 (A") (A") (A') (A') (A') (A") (A') (A") (A') (A')
                 (A") (A') (A") (A') (A') (A') (A') (A') (A") (A')
                 (A") (A') (A') (A") (A") (A') (A") (A') (A") (A')
                 (A') (A') (A') (A') (A') (A") (A') (A') (A') (A')
                 (A') (A") (A') (A') (A') (A') (A") (A') (A') (A')
                 (A') (A') (A') (A') (A') (A') (A') (A') (A') (A')
                 (A') (A') (A') (A') (A') (A') (A') (A') (A') (A')
                 (A') (A') (A') (A') (A") (A') (A") (A") (A') (A")
                 (A') (A') (A') (A') (A") (A") (A') (A") (A") (A')
                 (A') (A') (A") (A') (A') (A") (A') (A") (A') (A")
                 (A") (A') (A") (A') (A') (A') (A") (A') (A') (A')
                 (A') (A') (A') (A') (A') (A') (A') (A') (A') (A')
                 (A') (A') (A') (A") (A') (A') (A') (A') (A') (A')
                 (A') (A') (A") (A') (A") (A') (A") (A") (A') (A")
                 (A") (A') (A') (A") (A") (A") (A') (A") (A') (A')
                 (A') (A') (A') (A") (A") (A') (A') (A') (A') (A")
                 (A') (A') (A') (A") (A") (A') (A') (A') (A") (A")
                 (A") (A') (A') (A") (A") (A') (A') (A') (A') (A')
                 (A") (A") (A") (A') (A') (A") (A') (A") (A') (A')
                 (A') (A") (A') (A") (A") (A') (A") (A') (A') (A")
                 (A') (A') (A') (A') (A") (A') (A') (A') (A") (A")
                 (A') (A') (A') (A") (A') (A') (A') (A") (A") (A')
                 (A") (A') (A') (A") (A') (A') (A') (A') (A') (A')
                 (A") (A') (A') (A') (A') (A") (A") (A") (A') (A')
                 (A') (A') (A') (A') (A') (A') (A") (A') (A') (A')
                 (A') (A") (A') (A") (A") (A") (A') (A") (A') (A")
                 (A') (A") (A") (A') (A") (A") (A') (A') (A') (A')
                 (A') (A') (A') (A') (A') (A') (A') (A') (A') (A')
                 (A') (A') (A') (A") (A') (A') (A') (A') (A') (A')
                 (A') (A') (A') (A') (A') (A') (A') (A') (A') (A')
                 (A') (A') (A') (A') (A') (A') (A') (A') (A') (A')
                 (A') (A')
 The electronic state is 1-A'.
 Alpha  occ. eigenvalues --  -10.77645 -10.73644 -10.72918 -10.72725 -10.72143
 Alpha  occ. eigenvalues --  -10.71703 -10.71656 -10.71020 -10.71006 -10.70371
 Alpha  occ. eigenvalues --  -10.70139 -10.69844 -10.69810 -10.69437  -1.16442
 Alpha  occ. eigenvalues --   -1.12439  -1.06942  -1.05712  -1.01300  -1.00237
 Alpha  occ. eigenvalues --   -0.95691  -0.91028  -0.86423  -0.85882  -0.83786
 Alpha  occ. eigenvalues --   -0.78364  -0.76038  -0.74390  -0.69680  -0.69271
 Alpha  occ. eigenvalues --   -0.68400  -0.68117  -0.68111  -0.64983  -0.64234
 Alpha  occ. eigenvalues --   -0.62852  -0.61735  -0.60287  -0.59437  -0.59133
 Alpha  occ. eigenvalues --   -0.56897  -0.55253  -0.54674  -0.52444  -0.46921
 Alpha  occ. eigenvalues --   -0.46102  -0.44175
 Alpha virt. eigenvalues --   -0.26112  -0.14664  -0.14091  -0.12772  -0.11181
 Alpha virt. eigenvalues --   -0.10084  -0.09243  -0.07972  -0.07960  -0.07478
 Alpha virt. eigenvalues --   -0.07201  -0.07138  -0.05647  -0.05576  -0.05338
 Alpha virt. eigenvalues --   -0.03837  -0.03653  -0.03275  -0.03136  -0.02164
 Alpha virt. eigenvalues --   -0.01356  -0.00940   0.00197   0.00593   0.00630
 Alpha virt. eigenvalues --    0.01059   0.01511   0.01942   0.02181   0.02307
 Alpha virt. eigenvalues --    0.02449   0.02669   0.02762   0.03303   0.03444
 Alpha virt. eigenvalues --    0.04235   0.04494   0.04713   0.05038   0.05377
 Alpha virt. eigenvalues --    0.06033   0.06286   0.06586   0.07034   0.07268
 Alpha virt. eigenvalues --    0.07895   0.08114   0.08348   0.08571   0.08920
 Alpha virt. eigenvalues --    0.09508   0.09578   0.09994   0.10825   0.10960
 Alpha virt. eigenvalues --    0.11129   0.12122   0.12242   0.12780   0.13000
 Alpha virt. eigenvalues --    0.13434   0.13527   0.13987   0.14365   0.15981
 Alpha virt. eigenvalues --    0.16392   0.16419   0.17334   0.17540   0.17794
 Alpha virt. eigenvalues --    0.18111   0.19085   0.19321   0.19608   0.19807
 Alpha virt. eigenvalues --    0.21481   0.21605   0.22679   0.23135   0.23544
 Alpha virt. eigenvalues --    0.23916   0.24589   0.25474   0.26931   0.27599
 Alpha virt. eigenvalues --    0.28824   0.29258   0.29858   0.31337   0.35747
 Alpha virt. eigenvalues --    0.36411   0.38203   0.39272   0.41098   0.41354
 Alpha virt. eigenvalues --    0.41931   0.42191   0.42984   0.43661   0.44335
 Alpha virt. eigenvalues --    0.44846   0.45082   0.45965   0.46296   0.47967
 Alpha virt. eigenvalues --    0.48463   0.48797   0.49049   0.50459   0.51018
 Alpha virt. eigenvalues --    0.51300   0.51869   0.52130   0.52799   0.54047
 Alpha virt. eigenvalues --    0.54108   0.54582   0.55666   0.55841   0.57636
 Alpha virt. eigenvalues --    0.58229   0.58876   0.61454   0.62260   0.62367
 Alpha virt. eigenvalues --    0.63175   0.63478   0.64873   0.65145   0.67252
 Alpha virt. eigenvalues --    0.70413   0.70563   0.71096   0.72439   0.72870
 Alpha virt. eigenvalues --    0.75675   0.76030   0.76341   0.76815   0.77110
 Alpha virt. eigenvalues --    0.77839   0.77905   0.78222   0.79920   0.80383
 Alpha virt. eigenvalues --    0.81216   0.81598   0.82288   0.82990   0.85173
 Alpha virt. eigenvalues --    0.87076   0.88114   0.88338   0.89225   0.90510
 Alpha virt. eigenvalues --    0.90997   0.91343   0.93238   0.94594   0.96317
 Alpha virt. eigenvalues --    0.96794   1.00322   1.01247   1.01616   1.02767
 Alpha virt. eigenvalues --    1.03224   1.03300   1.04795   1.06011   1.08784
 Alpha virt. eigenvalues --    1.19540   1.23121   1.24093   1.24696   1.28370
 Alpha virt. eigenvalues --    1.29532   1.31969   1.34357   1.35731   1.35974
 Alpha virt. eigenvalues --    1.39292   1.39874   1.40895   1.43044   1.43465
 Alpha virt. eigenvalues --    1.43498   1.44347   1.46331   1.46339   1.46626
 Alpha virt. eigenvalues --    1.47669   1.48055   1.51676   1.53629   1.55528
 Alpha virt. eigenvalues --    1.55809   1.56305   1.56597   1.57756   1.61395
 Alpha virt. eigenvalues --    1.63154   1.63417   1.64053   1.66058   1.68254
 Alpha virt. eigenvalues --    1.68328   1.68744   1.69816   1.74342   1.75978
 Alpha virt. eigenvalues --    1.77110   1.78062   1.79789   1.80019   1.80753
 Alpha virt. eigenvalues --    1.82963   1.83211   1.83553   1.83807   1.84205
 Alpha virt. eigenvalues --    1.84424   1.85608   1.86284   1.88272   1.91379
 Alpha virt. eigenvalues --    1.92067   1.94060   1.95222   1.97717   1.98120
 Alpha virt. eigenvalues --    1.99721   2.02176   2.04396   2.07286   2.11741
 Alpha virt. eigenvalues --    2.12061   2.14170   2.15248   2.18999   2.21106
 Alpha virt. eigenvalues --    2.22759   2.28626   2.30009   2.34479   2.34827
 Alpha virt. eigenvalues --    2.36283   2.38637   2.39639   2.42320   2.44945
 Alpha virt. eigenvalues --    2.46110   2.46206   2.49236   2.52882   2.53766
 Alpha virt. eigenvalues --    2.54082   2.56942   2.57861   2.58360   2.59499
 Alpha virt. eigenvalues --    2.59866   2.61542   2.62099   2.63520   2.63706
 Alpha virt. eigenvalues --    2.64791   2.65057   2.65095   2.65470   2.67785
 Alpha virt. eigenvalues --    2.68356   2.70917   2.71438   2.73346   2.74799
 Alpha virt. eigenvalues --    2.76294   2.78374   2.79646   2.82792   2.83106
 Alpha virt. eigenvalues --    2.84828   2.86195   2.92077   2.97083   2.99432
 Alpha virt. eigenvalues --    3.00061   3.04703   3.10028   3.11181   3.13611
 Alpha virt. eigenvalues --    3.20626   3.22408   3.26376   3.28333   3.30589
 Alpha virt. eigenvalues --    3.32763   3.34223   3.43643   3.46025   3.46476
 Alpha virt. eigenvalues --    3.48206   3.49939   3.56303   3.66609   3.66631
 Alpha virt. eigenvalues --    3.67594   3.94010   3.94173   3.95376   3.96310
 Alpha virt. eigenvalues --    4.03947   4.06610   4.07486   4.12555   4.35152
 Alpha virt. eigenvalues --    4.60667   4.69397   4.71357  23.45298  23.60213
 Alpha virt. eigenvalues --   23.81056  23.83614  23.86230  23.88954  23.91343
 Alpha virt. eigenvalues --   23.94322  23.96160  23.97756  24.01715  24.03542
 Alpha virt. eigenvalues --   24.10859  24.11657
          Condensed to atoms (all electrons):
               1          2          3          4          5          6
     1  C    8.480278   0.388241  -0.605543   1.931442  -0.030203  -0.089701
     2  C    0.388241   7.216058   0.391602  -1.066859  -0.026321  -0.014560
     3  C   -0.605543   0.391602   6.601664   0.745931  -0.118563   0.016906
     4  C    1.931442  -1.066859   0.745931  11.529716  -0.426357  -0.138968
     5  C   -0.030203  -0.026321  -0.118563  -0.426357  10.935752   0.826671
     6  C   -0.089701  -0.014560   0.016906  -0.138968   0.826671   6.598289
     7  C   -0.022416  -0.001001  -0.013174   0.012262  -1.216778   0.264655
     8  C    0.401491  -0.000452  -0.103699  -0.092266   2.285603  -0.412640
     9  C   -1.077834  -0.863379   0.301080  -0.004687  -0.322872   0.300687
    10  C   -1.265609   0.198901  -0.286094  -2.742925  -2.454801  -0.407531
    11  C    0.350018  -0.800844   0.913542  -0.361300  -1.451947  -0.127973
    12  C   -2.063361   1.176924  -1.379138  -1.747636  -0.261631  -0.259184
    13  C    0.236820  -0.217617  -0.208132  -1.576089  -0.348109   1.066841
    14  C   -1.129518  -0.258772  -0.138762  -0.425829  -1.736223  -1.497529
    15  H    0.369407  -0.108579  -0.002222   0.026847   0.006036   0.001195
    16  H   -0.020051   0.383302  -0.020867   0.015788  -0.001646  -0.000350
    17  H   -0.022886  -0.020520   0.380015  -0.070508   0.000204   0.000415
    18  H    0.049675   0.003414  -0.083785   0.467895   0.005045  -0.005136
    19  H   -0.044838  -0.008229   0.051625  -0.077223  -0.063460   0.051994
    20  H    0.006831   0.002109  -0.005298   0.005100   0.458871  -0.084312
    21  H   -0.001248  -0.000415   0.000394   0.000420  -0.067758   0.370497
    22  H    0.000519   0.000337  -0.000306  -0.001375   0.010973  -0.014324
    23  H    0.006133  -0.002346   0.001018   0.004657   0.030111   0.001031
    24  H    0.037373   0.015723  -0.001457  -0.011452  -0.012827  -0.001803
    25  H    0.037373   0.015723  -0.001457  -0.011452  -0.012827  -0.001803
               7          8          9         10         11         12
     1  C   -0.022416   0.401491  -1.077834  -1.265609   0.350018  -2.063361
     2  C   -0.001001  -0.000452  -0.863379   0.198901  -0.800844   1.176924
     3  C   -0.013174  -0.103699   0.301080  -0.286094   0.913542  -1.379138
     4  C    0.012262  -0.092266  -0.004687  -2.742925  -0.361300  -1.747636
     5  C   -1.216778   2.285603  -0.322872  -2.454801  -1.451947  -0.261631
     6  C    0.264655  -0.412640   0.300687  -0.407531  -0.127973  -0.259184
     7  C    7.229210   0.006518  -0.805475   0.330718  -0.285298  -0.104448
     8  C    0.006518   8.941630  -1.070143  -1.392944   0.307910  -1.073423
     9  C   -0.805475  -1.070143   9.544282   0.265597   1.495933  -1.992674
    10  C    0.330718  -1.392944   0.265597   9.048658  -0.269372   2.386030
    11  C   -0.285298   0.307910   1.495933  -0.269372  14.418679  -3.949913
    12  C   -0.104448  -1.073423  -1.992674   2.386030  -3.949913  16.240298
    13  C   -0.936877   0.321874   1.398693  -0.381694   1.098257  -4.684264
    14  C    1.674766  -2.626445  -1.725083   2.439498  -4.765094   3.210069
    15  H   -0.002788   0.004873   0.087981  -0.008440  -0.029931  -0.016448
    16  H    0.000399   0.000967   0.001481  -0.009725   0.023544  -0.029049
    17  H   -0.000383  -0.001372  -0.004872   0.020002  -0.025329   0.088876
    18  H    0.002179   0.006853  -0.022763   0.006028  -0.006323  -0.052679
    19  H   -0.007643  -0.047836   0.074467   0.421834   0.077178  -0.080232
    20  H    0.001953   0.054500  -0.025223   0.011389  -0.012099  -0.011206
    21  H   -0.009835  -0.031973  -0.005984   0.020052  -0.006181   0.005317
    22  H    0.376574  -0.017513   0.003073  -0.007997   0.002551  -0.008005
    23  H   -0.110307   0.371986   0.093279  -0.010748   0.005397   0.005048
    24  H    0.013637   0.030661   0.354675   0.005155   0.021630  -0.060590
    25  H    0.013637   0.030661   0.354675   0.005155   0.021630  -0.060590
              13         14         15         16         17         18
     1  C    0.236820  -1.129518   0.369407  -0.020051  -0.022886   0.049675
     2  C   -0.217617  -0.258772  -0.108579   0.383302  -0.020520   0.003414
     3  C   -0.208132  -0.138762  -0.002222  -0.020867   0.380015  -0.083785
     4  C   -1.576089  -0.425829   0.026847   0.015788  -0.070508   0.467895
     5  C   -0.348109  -1.736223   0.006036  -0.001646   0.000204   0.005045
     6  C    1.066841  -1.497529   0.001195  -0.000350   0.000415  -0.005136
     7  C   -0.936877   1.674766  -0.002788   0.000399  -0.000383   0.002179
     8  C    0.321874  -2.626445   0.004873   0.000967  -0.001372   0.006853
     9  C    1.398693  -1.725083   0.087981   0.001481  -0.004872  -0.022763
    10  C   -0.381694   2.439498  -0.008440  -0.009725   0.020002   0.006028
    11  C    1.098257  -4.765094  -0.029931   0.023544  -0.025329  -0.006323
    12  C   -4.684264   3.210069  -0.016448  -0.029049   0.088876  -0.052679
    13  C   14.200853  -3.399757  -0.002159   0.003279  -0.006254  -0.012348
    14  C   -3.399757  15.912887   0.007261  -0.009990   0.005304  -0.020367
    15  H   -0.002159   0.007261   0.436090  -0.009044   0.001622   0.000198
    16  H    0.003279  -0.009990  -0.009044   0.417405  -0.006969   0.001968
    17  H   -0.006254   0.005304   0.001622  -0.006969   0.420665  -0.010264
    18  H   -0.012348  -0.020367   0.000198   0.001968  -0.010264   0.450694
    19  H    0.080220  -0.052315   0.000392  -0.000596   0.001648  -0.005981
    20  H   -0.001771  -0.064994  -0.000124   0.000019  -0.000161   0.001236
    21  H   -0.026254   0.096769   0.000017  -0.000007   0.000010  -0.000129
    22  H    0.024174  -0.031188  -0.000126   0.000008  -0.000007   0.000013
    23  H   -0.032909  -0.032973   0.000542  -0.000131   0.000012  -0.000107
    24  H    0.006089  -0.060720  -0.000955   0.000633  -0.000138   0.000162
    25  H    0.006089  -0.060720  -0.000955   0.000633  -0.000138   0.000162
              19         20         21         22         23         24
     1  C   -0.044838   0.006831  -0.001248   0.000519   0.006133   0.037373
     2  C   -0.008229   0.002109  -0.000415   0.000337  -0.002346   0.015723
     3  C    0.051625  -0.005298   0.000394  -0.000306   0.001018  -0.001457
     4  C   -0.077223   0.005100   0.000420  -0.001375   0.004657  -0.011452
     5  C   -0.063460   0.458871  -0.067758   0.010973   0.030111  -0.012827
     6  C    0.051994  -0.084312   0.370497  -0.014324   0.001031  -0.001803
     7  C   -0.007643   0.001953  -0.009835   0.376574  -0.110307   0.013637
     8  C   -0.047836   0.054500  -0.031973  -0.017513   0.371986   0.030661
     9  C    0.074467  -0.025223  -0.005984   0.003073   0.093279   0.354675
    10  C    0.421834   0.011389   0.020052  -0.007997  -0.010748   0.005155
    11  C    0.077178  -0.012099  -0.006181   0.002551   0.005397   0.021630
    12  C   -0.080232  -0.011206   0.005317  -0.008005   0.005048  -0.060590
    13  C    0.080220  -0.001771  -0.026254   0.024174  -0.032909   0.006089
    14  C   -0.052315  -0.064994   0.096769  -0.031188  -0.032973  -0.060720
    15  H    0.000392  -0.000124   0.000017  -0.000126   0.000542  -0.000955
    16  H   -0.000596   0.000019  -0.000007   0.000008  -0.000131   0.000633
    17  H    0.001648  -0.000161   0.000010  -0.000007   0.000012  -0.000138
    18  H   -0.005981   0.001236  -0.000129   0.000013  -0.000107   0.000162
    19  H    0.443385  -0.006748   0.001230  -0.000507   0.000264   0.000566
    20  H   -0.006748   0.458094  -0.010463   0.001908   0.000070   0.000220
    21  H    0.001230  -0.010463   0.424136  -0.006165   0.001307  -0.000149
    22  H   -0.000507   0.001908  -0.006165   0.421813  -0.009043   0.000637
    23  H    0.000264   0.000070   0.001307  -0.009043   0.443404  -0.000905
    24  H    0.000566   0.000220  -0.000149   0.000637  -0.000905   0.492603
    25  H    0.000566   0.000220  -0.000149   0.000637  -0.000905  -0.078099
              25
     1  C    0.037373
     2  C    0.015723
     3  C   -0.001457
     4  C   -0.011452
     5  C   -0.012827
     6  C   -0.001803
     7  C    0.013637
     8  C    0.030661
     9  C    0.354675
    10  C    0.005155
    11  C    0.021630
    12  C   -0.060590
    13  C    0.006089
    14  C   -0.060720
    15  H   -0.000955
    16  H    0.000633
    17  H   -0.000138
    18  H    0.000162
    19  H    0.000566
    20  H    0.000220
    21  H   -0.000149
    22  H    0.000637
    23  H   -0.000905
    24  H   -0.078099
    25  H    0.492603
 Mulliken charges:
               1
     1  C    0.077604
     2  C   -0.402440
     3  C   -0.435281
     4  C    0.014868
     5  C   -0.006944
     6  C   -0.443364
     7  C   -0.410083
     8  C    0.105175
     9  C   -0.354914
    10  C    0.078864
    11  C   -0.644664
    12  C    0.721909
    13  C   -0.608956
    14  C    0.689726
    15  H    0.239310
    16  H    0.259000
    17  H    0.251027
    18  H    0.224360
    19  H    0.190239
    20  H    0.219883
    21  H    0.246563
    22  H    0.253339
    23  H    0.236114
    24  H    0.249331
    25  H    0.249331
 Sum of Mulliken charges =   1.00000
 Mulliken charges with hydrogens summed into heavy atoms:
               1
     1  C    0.316915
     2  C   -0.143440
     3  C   -0.184253
     4  C    0.239229
     5  C    0.212939
     6  C   -0.196801
     7  C   -0.156745
     8  C    0.341289
     9  C    0.143748
    10  C    0.269103
    11  C   -0.644664
    12  C    0.721909
    13  C   -0.608956
    14  C    0.689726
 Electronic spatial extent (au):  <R**2>=           2858.3665
 Charge=              1.0000 electrons
 Dipole moment (field-independent basis, Debye):
    X=             -0.1631    Y=             -0.7054    Z=              0.0000  Tot=              0.7240
 Quadrupole moment (field-independent basis, Debye-Ang):
   XX=            -51.0081   YY=            -36.3031   ZZ=            -84.1389
   XY=             10.2701   XZ=             -0.0000   YZ=             -0.0000
 Traceless Quadrupole moment (field-independent basis, Debye-Ang):
   XX=              6.1420   YY=             20.8469   ZZ=            -26.9889
   XY=             10.2701   XZ=             -0.0000   YZ=             -0.0000
 Octapole moment (field-independent basis, Debye-Ang**2):
  XXX=             -2.0749  YYY=             -0.8278  ZZZ=              0.0000  XYY=             -2.0854
  XXY=             -7.1519  XXZ=              0.0000  XZZ=             -3.2314  YZZ=              0.5657
  YYZ=              0.0000  XYZ=              0.0000
 Hexadecapole moment (field-independent basis, Debye-Ang**3):
 XXXX=           -990.0881 YYYY=          -1849.3479 ZZZZ=            -99.3410 XXXY=           -348.2538
 XXXZ=              0.0000 YYYX=           -274.1625 YYYZ=              0.0000 ZZZX=             -0.0000
 ZZZY=              0.0000 XXYY=           -454.8566 XXZZ=           -241.8766 YYZZ=           -495.1516
 XXYZ=             -0.0000 YYXZ=             -0.0000 ZZXY=           -183.2233
 N-N= 7.808695906658D+02 E-N=-2.798075723746D+03  KE= 5.374983233628D+02
 Symmetry A'   KE= 5.228483005072D+02
 Symmetry A"   KE= 1.465002285564D+01
 Unable to Open any file for archive entry.
 1\1\GINC-GADI-CPU-CLX-1762\SP\RM062X TD-FC\6-311++G(d,p)\C14H11(1+)\TS
 1578\02-Aug-2022\0\\#n M062X/6-311++G(d,p) TD(NStates=1) EmpiricalDisp
 ersion=GD3 SP\\SP_150\\1,1\C,0,2.478855,1.360131,0.\C,0,3.682608,0.662
 564,0.\C,0,3.679161,-0.73108,0.\C,0,2.482831,-1.419263,0.\C,0,-2.44383
 1,-1.396513,0.\C,0,-3.690661,-0.70008,0.\C,0,-3.723733,0.680189,0.\C,0
 ,-2.513105,1.358631,0.\C,0,-0.011025,1.461069,0.\C,0,0.0305,-1.429539,
 0.\C,0,1.26688,0.686715,0.\C,0,1.249271,-0.731779,0.\C,0,-1.257755,0.6
 6759,0.\C,0,-1.224271,-0.728779,0.\H,0,2.486671,2.443072,0.\H,0,4.6179
 53,1.203189,0.\H,0,4.613412,-1.273974,0.\H,0,2.47615,-2.501384,0.\H,0,
 0.028125,-2.510441,0.\H,0,-2.4579,-2.479259,0.\H,0,-4.606162,-1.275099
 ,0.\H,0,-4.659578,1.217564,0.\H,0,-2.497171,2.441947,0.\H,0,-0.04,2.14
 7537,-0.86151\H,0,-0.04,2.147537,0.86151\\Version=ES64L-G16RevC.01\Sta
 te=1-A'\HF=-539.7575563\RMSD=8.323e-09\PG=CS [SG(C14H9),X(H2)]\\@
 The archive entry for this job was punched.


 IF YOU WISH TO UNDERSTAND THE FRAGRANCE OF THE ROSE, 
 OR THE TENACITY OF THE OAK; 
 IF YOU ARE NOT SATISFIED UNTIL YOU KNOW THE SECRET PATHS 
 BY WHICH THE SUNSHINE AND THE AIR ACHIEVE THESE WONDERS; 
 IF YOU WISH TO SEE THE PATTERN WHICH UNDERLIES ONE LARGE FIELD OF 
 HUMAN EXPERIENCE AND HUMAN MEASUREMENT, THEN TAKE UP CHEMISTRY.

                                         -- C. A. COULSON, 1973.
 Job cpu time:       0 days  0 hours 53 minutes  6.1 seconds.
 Elapsed time:       0 days  0 hours  1 minutes  6.7 seconds.
 File lengths (MBytes):  RWF=    460 Int=      0 D2E=      0 Chk=     15 Scr=      1
 Normal termination of Gaussian 16 at Tue Aug  2 13:33:35 2022.
