 Entering Gaussian System, Link 0=g16
 Initial command:
 /apps/gaussian/g16c01/g16/l1.exe "/jobfs/53796104.gadi-pbs/Gau-3685294.inp" -scrdir="/jobfs/53796104.gadi-pbs/"
 Entering Link 1 = /apps/gaussian/g16c01/g16/l1.exe PID=   3685295.
  
 Copyright (c) 1988-2019, Gaussian, Inc.  All Rights Reserved.
  
 This is part of the Gaussian(R) 16 program.  It is based on
 the Gaussian(R) 09 system (copyright 2009, Gaussian, Inc.),
 the Gaussian(R) 03 system (copyright 2003, Gaussian, Inc.),
 the Gaussian(R) 98 system (copyright 1998, Gaussian, Inc.),
 the Gaussian(R) 94 system (copyright 1995, Gaussian, Inc.),
 the Gaussian 92(TM) system (copyright 1992, Gaussian, Inc.),
 the Gaussian 90(TM) system (copyright 1990, Gaussian, Inc.),
 the Gaussian 88(TM) system (copyright 1988, Gaussian, Inc.),
 the Gaussian 86(TM) system (copyright 1986, Carnegie Mellon
 University), and the Gaussian 82(TM) system (copyright 1983,
 Carnegie Mellon University). Gaussian is a federally registered
 trademark of Gaussian, Inc.
  
 This software contains proprietary and confidential information,
 including trade secrets, belonging to Gaussian, Inc.
  
 This software is provided under written license and may be
 used, copied, transmitted, or stored only in accord with that
 written license.
  
 The following legend is applicable only to US Government
 contracts under FAR:
  
                    RESTRICTED RIGHTS LEGEND
  
 Use, reproduction and disclosure by the US Government is
 subject to restrictions as set forth in subparagraphs (a)
 and (c) of the Commercial Computer Software - Restricted
 Rights clause in FAR 52.227-19.
  
 Gaussian, Inc.
 340 Quinnipiac St., Bldg. 40, Wallingford CT 06492
  
  
 ---------------------------------------------------------------
 Warning -- This program may not be used in any manner that
 competes with the business of Gaussian, Inc. or will provide
 assistance to any competitor of Gaussian, Inc.  The licensee
 of this program is prohibited from giving any competitor of
 Gaussian, Inc. access to this program.  By using this program,
 the user acknowledges that Gaussian, Inc. is engaged in the
 business of creating and licensing software in the field of
 computational chemistry and represents and warrants to the
 licensee that it is not a competitor of Gaussian, Inc. and that
 it will not use this program in any manner prohibited above.
 ---------------------------------------------------------------
  

 Cite this work as:
 Gaussian 16, Revision C.01,
 M. J. Frisch, G. W. Trucks, H. B. Schlegel, G. E. Scuseria, 
 M. A. Robb, J. R. Cheeseman, G. Scalmani, V. Barone, 
 G. A. Petersson, H. Nakatsuji, X. Li, M. Caricato, A. V. Marenich, 
 J. Bloino, B. G. Janesko, R. Gomperts, B. Mennucci, H. P. Hratchian, 
 J. V. Ortiz, A. F. Izmaylov, J. L. Sonnenberg, D. Williams-Young, 
 F. Ding, F. Lipparini, F. Egidi, J. Goings, B. Peng, A. Petrone, 
 T. Henderson, D. Ranasinghe, V. G. Zakrzewski, J. Gao, N. Rega, 
 G. Zheng, W. Liang, M. Hada, M. Ehara, K. Toyota, R. Fukuda, 
 J. Hasegawa, M. Ishida, T. Nakajima, Y. Honda, O. Kitao, H. Nakai, 
 T. Vreven, K. Throssell, J. A. Montgomery, Jr., J. E. Peralta, 
 F. Ogliaro, M. J. Bearpark, J. J. Heyd, E. N. Brothers, K. N. Kudin, 
 V. N. Staroverov, T. A. Keith, R. Kobayashi, J. Normand, 
 K. Raghavachari, A. P. Rendell, J. C. Burant, S. S. Iyengar, 
 J. Tomasi, M. Cossi, J. M. Millam, M. Klene, C. Adamo, R. Cammi, 
 J. W. Ochterski, R. L. Martin, K. Morokuma, O. Farkas, 
 J. B. Foresman, and D. J. Fox, Gaussian, Inc., Wallingford CT, 2019.
 
 ******************************************
 Gaussian 16:  ES64L-G16RevC.01  3-Jul-2019
                 2-Aug-2022 
 ******************************************
 %NProcShared=48
 Will use up to   48 processors via shared memory.
 %mem = 190GB
 ---------------------------------------------------------------
 #n M062X/6-311++G(d,p) TD(NStates=1) EmpiricalDispersion=GD3 SP
 ---------------------------------------------------------------
 1/38=1,172=1/1;
 2/12=2,17=6,18=5,40=1/2;
 3/5=4,6=6,7=1111,11=9,25=1,30=1,74=-55,124=31/1,2,3,8;
 4//1;
 5/5=2,38=5/2;
 8/6=1,10=2,108=1/1;
 9/41=1,42=1,70=2/14;
 6/7=2,8=2,9=2,10=2/1;
 99/5=1,9=1/99;
 ------
 SP_150
 ------
 Symbolic Z-matrix:
 Charge =  1 Multiplicity = 1
 C                     2.49836   1.35863   0. 
 C                     3.70436   0.67094   0. 
 C                     3.68566  -0.71683   0. 
 C                     2.46346  -1.40814   0. 
 C                    -2.46346  -1.40814   0. 
 C                    -3.68566  -0.71683   0. 
 C                    -3.70436   0.67094   0. 
 C                    -2.49836   1.35863   0. 
 C                    -0.00015   1.46657   0. 
 C                     0.       -1.42979   0. 
 C                     1.2625    0.67722   0. 
 C                     1.23627  -0.7299    0. 
 C                    -1.2625    0.67722   0. 
 C                    -1.23627  -0.7299    0. 
 H                     2.49467   2.4417    0. 
 H                     4.6402    1.20944   0. 
 H                     4.61016  -1.2761    0. 
 H                     2.46665  -2.49051   0. 
 H                     0.       -2.51057   0. 
 H                    -2.46665  -2.49051   0. 
 H                    -4.61016  -1.2761    0. 
 H                    -4.6402    1.20944   0. 
 H                    -2.49467   2.4417    0. 
 H                     0.        2.14879  -0.86289 
 H                     0.        2.14879   0.86289 
 
                          Input orientation:                          
 ---------------------------------------------------------------------
 Center     Atomic      Atomic             Coordinates (Angstroms)
 Number     Number       Type             X           Y           Z
 ---------------------------------------------------------------------
      1          6           0        2.498355    1.358631    0.000000
      2          6           0        3.704358    0.670939    0.000000
      3          6           0        3.685661   -0.716830    0.000000
      4          6           0        2.463456   -1.408138    0.000000
      5          6           0       -2.463456   -1.408138    0.000000
      6          6           0       -3.685661   -0.716830    0.000000
      7          6           0       -3.704358    0.670939    0.000000
      8          6           0       -2.498355    1.358631    0.000000
      9          6           0       -0.000150    1.466569    0.000000
     10          6           0        0.000000   -1.429789    0.000000
     11          6           0        1.262505    0.677215    0.000000
     12          6           0        1.236271   -0.729904    0.000000
     13          6           0       -1.262505    0.677215    0.000000
     14          6           0       -1.236271   -0.729904    0.000000
     15          1           0        2.494671    2.441697    0.000000
     16          1           0        4.640203    1.209439    0.000000
     17          1           0        4.610162   -1.276099    0.000000
     18          1           0        2.466650   -2.490509    0.000000
     19          1           0        0.000000   -2.510566    0.000000
     20          1           0       -2.466650   -2.490509    0.000000
     21          1           0       -4.610162   -1.276099    0.000000
     22          1           0       -4.640203    1.209439    0.000000
     23          1           0       -2.494671    2.441697    0.000000
     24          1           0        0.000000    2.148787   -0.862885
     25          1           0        0.000000    2.148787    0.862885
 ---------------------------------------------------------------------
                    Distance matrix (angstroms):
                    1          2          3          4          5
     1  C    0.000000
     2  C    1.388295   0.000000
     3  C    2.391074   1.387895   0.000000
     4  C    2.766989   2.421239   1.404169   0.000000
     5  C    5.681072   6.508801   6.187855   4.926912   0.000000
     6  C    6.523005   7.519194   7.371322   6.187855   1.404169
     7  C    6.240719   7.408716   7.519194   6.508801   2.421239
     8  C    4.996710   6.240719   6.523005   5.681072   2.766989
     9  C    2.500835   3.788985   4.283974   3.785934   3.785739
    10  C    3.743937   4.258559   3.753986   2.463551   2.463551
    11  C    1.411259   2.441861   2.795540   2.406446   4.269834
    12  C    2.440253   2.837924   2.449425   1.402136   3.761380
    13  C    3.822093   4.966867   5.140789   4.269834   2.406446
    14  C    4.278950   5.135385   4.921949   3.761380   1.402136
    15  H    1.083072   2.144511   3.375611   3.849962   6.277281
    16  H    2.147038   1.079717   2.149805   3.404400   7.570580
    17  H    3.376615   2.147426   1.080502   2.150763   7.074850
    18  H    3.849271   3.395096   2.152191   1.082376   5.047521
    19  H    4.605699   4.883057   4.098974   2.698882   2.698882
    20  H    6.282289   6.933693   6.402880   5.047521   1.082376
    21  H    7.581083   8.539450   8.314653   7.074850   2.150763
    22  H    7.140117   8.361918   8.545790   7.570580   3.404400
    23  H    5.109143   6.446979   6.940663   6.277281   3.849962
    24  H    2.758749   4.080548   4.747676   4.411905   4.411905
    25  H    2.758749   4.080548   4.747676   4.411905   4.411905
                    6          7          8          9         10
     6  C    0.000000
     7  C    1.387895   0.000000
     8  C    2.391074   1.388295   0.000000
     9  C    4.283716   3.788692   2.500536   0.000000
    10  C    3.753986   4.258559   3.743937   2.896358   0.000000
    11  C    5.140789   4.966867   3.822093   1.489086   2.456295
    12  C    4.921949   5.135385   4.278950   2.520562   1.420635
    13  C    2.795540   2.441861   1.411259   1.488832   2.456295
    14  C    2.449425   2.837924   2.440253   2.520414   1.420635
    15  H    6.940663   6.446979   5.109143   2.678620   4.605626
    16  H    8.545790   8.361918   7.140117   4.647472   5.338259
    17  H    8.314653   8.539450   7.581083   5.364439   4.612723
    18  H    6.402880   6.933693   6.282289   4.663000   2.685049
    19  H    4.098974   4.883057   4.605699   3.977135   1.080777
    20  H    2.152191   3.395096   3.849271   4.662841   2.685049
    21  H    1.080502   2.147426   3.376615   5.364181   4.612723
    22  H    2.149805   1.079717   2.147038   4.647172   5.338259
    23  H    3.375611   2.144511   1.083072   2.678341   4.605626
    24  H    4.747676   4.080548   2.758749   1.099996   3.681138
    25  H    4.747676   4.080548   2.758749   1.099996   3.681138
                   11         12         13         14         15
    11  C    0.000000
    12  C    1.407364   0.000000
    13  C    2.525010   2.867728   0.000000
    14  C    2.867728   2.472542   1.407364   0.000000
    15  H    2.152122   3.412129   4.150876   4.896834   0.000000
    16  H    3.419372   3.917627   5.926654   6.188214   2.474221
    17  H    3.875854   3.417816   6.188995   5.871891   4.277535
    18  H    3.388870   2.147920   4.892962   4.100165   4.932286
    19  H    3.428683   2.167746   3.428683   2.167746   5.545114
    20  H    4.892962   4.100165   3.388870   2.147920   6.995810
    21  H    6.188995   5.871891   3.875854   3.417816   8.018769
    22  H    5.926654   6.188214   3.419372   3.917627   7.240503
    23  H    4.150876   4.896834   2.152122   3.412129   4.989342
    24  H    2.122266   3.249584   2.122266   3.249584   2.655890
    25  H    2.122266   3.249584   2.122266   3.249584   2.655890
                   16         17         18         19         20
    16  H    0.000000
    17  H    2.485720   0.000000
    18  H    4.291148   2.463622   0.000000
    19  H    5.947262   4.772578   2.466732   0.000000
    20  H    8.012301   7.180255   4.933300   2.466732   0.000000
    21  H    9.578473   9.220324   7.180255   4.772578   2.463622
    22  H    9.280406   9.578473   8.012301   5.947262   4.291148
    23  H    7.240503   8.018769   6.995810   5.545114   4.932286
    24  H    4.812321   5.807582   5.324660   4.738580   5.324660
    25  H    4.812321   5.807582   5.324660   4.738580   5.324660
                   21         22         23         24         25
    21  H    0.000000
    22  H    2.485720   0.000000
    23  H    4.277535   2.474221   0.000000
    24  H    5.807582   4.812321   2.655890   0.000000
    25  H    5.807582   4.812321   2.655890   1.725770   0.000000
 Stoichiometry    C14H11(1+)
 Framework group  CS[SG(C14H9),X(H2)]
 Deg. of freedom    46
 Full point group                 CS      NOp   2
 Largest Abelian subgroup         CS      NOp   2
 Largest concise Abelian subgroup CS      NOp   2
                         Standard orientation:                         
 ---------------------------------------------------------------------
 Center     Atomic      Atomic             Coordinates (Angstroms)
 Number     Number       Type             X           Y           Z
 ---------------------------------------------------------------------
      1          6           0        1.358634    2.498364    0.000000
      2          6           0        0.670942    3.704367    0.000000
      3          6           0       -0.716827    3.685670    0.000000
      4          6           0       -1.408135    2.463465    0.000000
      5          6           0       -1.408135   -2.463447    0.000000
      6          6           0       -0.716827   -3.685652    0.000000
      7          6           0        0.670942   -3.704349    0.000000
      8          6           0        1.358634   -2.498346    0.000000
      9          6           0        1.466572   -0.000141    0.000000
     10          6           0       -1.429786    0.000009    0.000000
     11          6           0        0.677218    1.262514    0.000000
     12          6           0       -0.729901    1.236280    0.000000
     13          6           0        0.677218   -1.262496    0.000000
     14          6           0       -0.729901   -1.236262    0.000000
     15          1           0        2.441700    2.494680    0.000000
     16          1           0        1.209442    4.640212    0.000000
     17          1           0       -1.276096    4.610171    0.000000
     18          1           0       -2.490506    2.466659    0.000000
     19          1           0       -2.510563    0.000009    0.000000
     20          1           0       -2.490506   -2.466641    0.000000
     21          1           0       -1.276096   -4.610153    0.000000
     22          1           0        1.209442   -4.640194    0.000000
     23          1           0        2.441700   -2.494662    0.000000
     24          1           0        2.148790    0.000009    0.862885
     25          1           0        2.148790    0.000009   -0.862885
 ---------------------------------------------------------------------
 Rotational constants (GHZ):           2.1318889           0.4439826           0.3682605
 Standard basis: 6-311++G(d,p) (5D, 7F)
 There are   299 symmetry adapted cartesian basis functions of A'  symmetry.
 There are   100 symmetry adapted cartesian basis functions of A"  symmetry.
 There are   285 symmetry adapted basis functions of A'  symmetry.
 There are   100 symmetry adapted basis functions of A"  symmetry.
   385 basis functions,   603 primitive gaussians,   399 cartesian basis functions
    47 alpha electrons       47 beta electrons
       nuclear repulsion energy       780.6007639136 Hartrees.
 NAtoms=   25 NActive=   25 NUniq=   24 SFac= 1.09D+00 NAtFMM=   60 NAOKFM=F Big=F
 Integral buffers will be    131072 words long.
 Regular integral format.
 Two-electron integral symmetry is turned on.
 Nuclear repulsion after empirical dispersion term =      780.5997842303 Hartrees.
 One-electron integrals computed using PRISM.
 NBasis=   385 RedAO= T EigKep=  1.15D-06  NBF=   285   100
 NBsUse=   379 1.00D-06 EigRej=  8.46D-07 NBFU=   279   100
 ExpMin= 3.60D-02 ExpMax= 4.56D+03 ExpMxC= 6.82D+02 IAcc=3 IRadAn=         5 AccDes= 0.00D+00
 Harris functional with IExCor= 1009 and IRadAn=       5 diagonalized for initial guess.
 HarFok:  IExCor= 1009 AccDes= 0.00D+00 IRadAn=         5 IDoV= 1 UseB2=F ITyADJ=14
 ICtDFT=  3500011 ScaDFX=  1.000000  1.000000  1.000000  1.000000
 FoFCou: FMM=F IPFlag=           0 FMFlag=      100000 FMFlg1=           0
         NFxFlg=           0 DoJE=T BraDBF=F KetDBF=T FulRan=T
         wScrn=  0.000000 ICntrl=       500 IOpCl=  0 I1Cent=   200000004 NGrid=           0
         NMat0=    1 NMatS0=      1 NMatT0=    0 NMatD0=    1 NMtDS0=    0 NMtDT0=    0
 Petite list used in FoFCou.
 Initial guess orbital symmetries:
       Occupied  (A') (A') (A') (A') (A') (A') (A') (A') (A') (A')
                 (A') (A') (A') (A') (A') (A') (A') (A') (A') (A')
                 (A') (A') (A') (A') (A') (A') (A') (A') (A') (A')
                 (A') (A') (A") (A') (A') (A') (A') (A') (A') (A")
                 (A") (A') (A') (A") (A") (A") (A")
       Virtual   (A") (A") (A") (A") (A") (A') (A') (A') (A') (A")
                 (A") (A') (A') (A') (A") (A') (A') (A') (A') (A")
                 (A') (A") (A') (A') (A') (A") (A') (A") (A') (A')
                 (A') (A') (A') (A') (A") (A') (A") (A') (A') (A")
                 (A') (A') (A') (A") (A') (A') (A') (A') (A') (A")
                 (A') (A') (A") (A") (A') (A') (A') (A") (A") (A')
                 (A') (A') (A') (A') (A') (A') (A") (A') (A') (A")
                 (A') (A') (A') (A') (A') (A') (A') (A') (A') (A')
                 (A') (A') (A') (A') (A') (A') (A') (A') (A') (A')
                 (A') (A') (A') (A') (A') (A') (A') (A") (A') (A")
                 (A') (A') (A") (A") (A') (A") (A') (A") (A') (A")
                 (A") (A') (A') (A') (A") (A') (A') (A") (A') (A")
                 (A") (A") (A') (A') (A') (A") (A') (A') (A') (A")
                 (A') (A') (A') (A') (A') (A') (A") (A') (A') (A')
                 (A') (A') (A') (A') (A') (A') (A') (A') (A') (A")
                 (A') (A") (A") (A") (A') (A') (A') (A") (A") (A')
                 (A") (A') (A") (A") (A") (A') (A') (A') (A') (A')
                 (A') (A") (A") (A') (A') (A') (A') (A') (A') (A")
                 (A') (A') (A') (A') (A') (A") (A") (A') (A") (A")
                 (A') (A") (A') (A") (A') (A') (A') (A") (A') (A')
                 (A") (A") (A") (A') (A') (A") (A') (A") (A') (A')
                 (A") (A") (A') (A") (A') (A") (A') (A') (A') (A')
                 (A") (A') (A') (A') (A") (A') (A') (A') (A") (A")
                 (A') (A') (A') (A") (A') (A') (A") (A') (A") (A')
                 (A") (A') (A') (A') (A') (A") (A') (A') (A') (A")
                 (A') (A') (A") (A') (A") (A') (A') (A") (A') (A')
                 (A") (A') (A') (A") (A') (A') (A') (A") (A') (A")
                 (A') (A') (A') (A') (A") (A') (A") (A') (A") (A')
                 (A") (A') (A") (A") (A") (A') (A') (A') (A') (A')
                 (A') (A') (A') (A') (A') (A') (A') (A') (A') (A')
                 (A') (A') (A') (A') (A') (A") (A') (A') (A') (A')
                 (A') (A') (A') (A') (A') (A') (A') (A') (A') (A')
                 (A') (A') (A') (A') (A') (A') (A') (A') (A') (A')
                 (A') (A')
 The electronic state of the initial guess is 1-A'.
 Requested convergence on RMS density matrix=1.00D-08 within 128 cycles.
 Requested convergence on MAX density matrix=1.00D-06.
 Requested convergence on             energy=1.00D-06.
 No special actions if energy rises.
 SCF Done:  E(RM062X) =  -539.760238246     A.U. after   14 cycles
            NFock= 14  Conv=0.94D-08     -V/T= 2.0043
 DoSCS=F DFT=T ScalE2(SS,OS)=  1.000000  1.000000
 ExpMin= 3.60D-02 ExpMax= 4.56D+03 ExpMxC= 6.82D+02 IAcc=3 IRadAn=         5 AccDes= 0.00D+00
 HarFok:  IExCor=  205 AccDes= 0.00D+00 IRadAn=         5 IDoV=-2 UseB2=F ITyADJ=14
 ICtDFT= 12500011 ScaDFX=  1.000000  1.000000  1.000000  1.000000
 Range of M.O.s used for correlation:    15   379
 NBasis=   385 NAE=    47 NBE=    47 NFC=    14 NFV=     0
 NROrb=    365 NOA=    33 NOB=    33 NVA=   332 NVB=   332

 **** Warning!!: The largest alpha MO coefficient is  0.14852971D+03

 Orbital symmetries:
       Occupied  (A') (A') (A') (A') (A') (A') (A') (A') (A') (A')
                 (A') (A') (A') (A') (A') (A') (A') (A') (A') (A')
                 (A') (A') (A') (A') (A') (A') (A') (A') (A') (A')
                 (A') (A') (A") (A') (A') (A') (A') (A") (A") (A')
                 (A') (A') (A') (A") (A") (A") (A")
       Virtual   (A") (A") (A") (A") (A') (A') (A') (A") (A') (A')
                 (A') (A") (A') (A') (A") (A') (A") (A') (A') (A')
                 (A") (A") (A') (A') (A') (A") (A') (A") (A') (A')
                 (A") (A') (A") (A') (A') (A') (A') (A') (A") (A')
                 (A") (A') (A') (A") (A") (A') (A") (A') (A") (A')
                 (A') (A') (A') (A') (A') (A") (A') (A') (A') (A')
                 (A') (A") (A') (A') (A') (A') (A") (A') (A') (A')
                 (A') (A') (A') (A') (A') (A') (A') (A') (A') (A')
                 (A') (A') (A') (A') (A') (A') (A') (A') (A') (A')
                 (A') (A') (A') (A') (A") (A') (A") (A") (A') (A")
                 (A') (A') (A') (A') (A") (A") (A') (A") (A") (A')
                 (A') (A') (A") (A') (A') (A") (A') (A") (A') (A")
                 (A") (A') (A") (A') (A') (A') (A") (A') (A') (A')
                 (A') (A') (A') (A') (A') (A') (A') (A') (A') (A')
                 (A') (A') (A') (A") (A') (A') (A') (A') (A') (A')
                 (A') (A') (A") (A') (A") (A') (A") (A") (A') (A")
                 (A") (A') (A') (A") (A") (A") (A') (A") (A') (A')
                 (A') (A') (A') (A") (A") (A') (A') (A') (A') (A")
                 (A') (A') (A') (A") (A') (A") (A') (A') (A") (A")
                 (A") (A') (A') (A") (A") (A') (A') (A') (A') (A')
                 (A") (A") (A") (A') (A') (A") (A') (A") (A') (A')
                 (A') (A") (A') (A") (A") (A') (A") (A') (A') (A')
                 (A") (A') (A') (A') (A") (A') (A') (A') (A") (A")
                 (A') (A') (A') (A") (A') (A') (A') (A") (A") (A')
                 (A") (A') (A') (A") (A') (A') (A') (A') (A') (A')
                 (A') (A") (A') (A') (A') (A") (A") (A") (A') (A')
                 (A') (A') (A') (A') (A') (A') (A") (A') (A') (A')
                 (A') (A") (A') (A") (A") (A") (A') (A") (A') (A")
                 (A') (A") (A") (A') (A") (A") (A') (A') (A') (A')
                 (A') (A') (A') (A') (A') (A') (A') (A') (A') (A')
                 (A') (A') (A') (A') (A") (A') (A') (A') (A') (A')
                 (A') (A') (A') (A') (A') (A') (A') (A') (A') (A')
                 (A') (A') (A') (A') (A') (A') (A') (A') (A') (A')
                 (A') (A')
     4 initial guesses have been made.
 Convergence on wavefunction:    0.001000000000000
 Iteration     1 Dimension     4 NMult     0 NNew      4
 CISAX will form     4 AO SS matrices at one time.
 Iteration     2 Dimension     6 NMult     4 NNew      2
 Iteration     3 Dimension     8 NMult     6 NNew      2
 Iteration     4 Dimension    10 NMult     8 NNew      2
 Iteration     5 Dimension    12 NMult    10 NNew      2
 Iteration     6 Dimension    14 NMult    12 NNew      2
 ***********************************************************************
 Excited states from <AA,BB:AA,BB> singles matrix:
 ***********************************************************************
 
 Ground to excited state transition densities written to RWF  633
 Ground to excited state transition electric dipole moments (Au):
       state          X           Y           Z        Dip. S.      Osc.
         1         0.6372     -0.0000      0.0000      0.4061      0.0281
 Ground to excited state transition velocity dipole moments (Au):
       state          X           Y           Z        Dip. S.      Osc.
         1        -0.0738      0.0000     -0.0000      0.0054      0.0350
 Ground to excited state transition magnetic dipole moments (Au):
       state          X           Y           Z
         1        -0.0000      0.0000     -0.0001
 Ground to excited state transition velocity quadrupole moments (Au):
       state          XX          YY          ZZ          XY          XZ          YZ
         1         0.0361      0.3010     -0.0099      0.0000     -0.0000      0.0000
 <0|del|b> * <b|rxdel|0> + <0|del|b> * <b|delr+rdel|0>
 Rotatory Strengths (R) in cgs (10**-40 erg-esu-cm/Gauss)
       state          XX          YY          ZZ    R(velocity)    E-M Angle
         1         0.0000      0.0000      0.0000      0.0000       90.00
 1/2[<0|r|b>*<b|rxdel|0> + (<0|rxdel|b>*<b|r|0>)*]
 Rotatory Strengths (R) in cgs (10**-40 erg-esu-cm/Gauss)
       state          XX          YY          ZZ     R(length)
         1         0.0000      0.0000      0.0000      0.0000
  1/2[<0|del|b>*<b|r|0> + (<0|r|b>*<b|del|0>)*] (Au)
       state          X           Y           Z        Dip. S.   Osc.(frdel)
         1        -0.0470     -0.0000     -0.0000      0.0470      0.0314

 Excitation energies and oscillator strengths:
 
 Excited State   1:      Singlet-A'     2.8239 eV  439.06 nm  f=0.0281  <S**2>=0.000
      47 -> 48         0.70426
 This state for optimization and/or second-order correction.
 Total Energy, E(TD-HF/TD-DFT) =  -539.656463395    
 Copying the excited state density for this state as the 1-particle RhoCI density.
 SavETr:  write IOETrn=   770 NScale= 10 NData=  16 NLR=1 NState=    1 LETran=      28.

 **********************************************************************

            Population analysis using the SCF Density.

 **********************************************************************

 Orbital symmetries:
       Occupied  (A') (A') (A') (A') (A') (A') (A') (A') (A') (A')
                 (A') (A') (A') (A') (A') (A') (A') (A') (A') (A')
                 (A') (A') (A') (A') (A') (A') (A') (A') (A') (A')
                 (A') (A') (A") (A') (A') (A') (A') (A") (A") (A')
                 (A') (A') (A') (A") (A") (A") (A")
       Virtual   (A") (A") (A") (A") (A') (A') (A') (A") (A') (A')
                 (A') (A") (A') (A') (A") (A') (A") (A') (A') (A')
                 (A") (A") (A') (A') (A') (A") (A') (A") (A') (A')
                 (A") (A') (A") (A') (A') (A') (A') (A') (A") (A')
                 (A") (A') (A') (A") (A") (A') (A") (A') (A") (A')
                 (A') (A') (A') (A') (A') (A") (A') (A') (A') (A')
                 (A') (A") (A') (A') (A') (A') (A") (A') (A') (A')
                 (A') (A') (A') (A') (A') (A') (A') (A') (A') (A')
                 (A') (A') (A') (A') (A') (A') (A') (A') (A') (A')
                 (A') (A') (A') (A') (A") (A') (A") (A") (A') (A")
                 (A') (A') (A') (A') (A") (A") (A') (A") (A") (A')
                 (A') (A') (A") (A') (A') (A") (A') (A") (A') (A")
                 (A") (A') (A") (A') (A') (A') (A") (A') (A') (A')
                 (A') (A') (A') (A') (A') (A') (A') (A') (A') (A')
                 (A') (A') (A') (A") (A') (A') (A') (A') (A') (A')
                 (A') (A') (A") (A') (A") (A') (A") (A") (A') (A")
                 (A") (A') (A') (A") (A") (A") (A') (A") (A') (A')
                 (A') (A') (A') (A") (A") (A') (A') (A') (A') (A")
                 (A') (A') (A') (A") (A') (A") (A') (A') (A") (A")
                 (A") (A') (A') (A") (A") (A') (A') (A') (A') (A')
                 (A") (A") (A") (A') (A') (A") (A') (A") (A') (A')
                 (A') (A") (A') (A") (A") (A') (A") (A') (A') (A')
                 (A") (A') (A') (A') (A") (A') (A') (A') (A") (A")
                 (A') (A') (A') (A") (A') (A') (A') (A") (A") (A')
                 (A") (A') (A') (A") (A') (A') (A') (A') (A') (A')
                 (A') (A") (A') (A') (A') (A") (A") (A") (A') (A')
                 (A') (A') (A') (A') (A') (A') (A") (A') (A') (A')
                 (A') (A") (A') (A") (A") (A") (A') (A") (A') (A")
                 (A') (A") (A") (A') (A") (A") (A') (A') (A') (A')
                 (A') (A') (A') (A') (A') (A') (A') (A') (A') (A')
                 (A') (A') (A') (A') (A") (A') (A') (A') (A') (A')
                 (A') (A') (A') (A') (A') (A') (A') (A') (A') (A')
                 (A') (A') (A') (A') (A') (A') (A') (A') (A') (A')
                 (A') (A')
 The electronic state is 1-A'.
 Alpha  occ. eigenvalues --  -10.77692 -10.73320 -10.73319 -10.72463 -10.72461
 Alpha  occ. eigenvalues --  -10.71376 -10.71376 -10.71023 -10.70992 -10.70992
 Alpha  occ. eigenvalues --  -10.69975 -10.69974 -10.69650 -10.69650  -1.16367
 Alpha  occ. eigenvalues --   -1.12415  -1.06946  -1.05604  -1.01312  -1.00095
 Alpha  occ. eigenvalues --   -0.95793  -0.91026  -0.86408  -0.85873  -0.83792
 Alpha  occ. eigenvalues --   -0.78387  -0.75957  -0.74410  -0.69596  -0.69228
 Alpha  occ. eigenvalues --   -0.68478  -0.68161  -0.68128  -0.64721  -0.64250
 Alpha  occ. eigenvalues --   -0.62951  -0.61859  -0.60091  -0.59644  -0.59109
 Alpha  occ. eigenvalues --   -0.56857  -0.55234  -0.54780  -0.52447  -0.46581
 Alpha  occ. eigenvalues --   -0.46055  -0.44544
 Alpha virt. eigenvalues --   -0.26118  -0.14662  -0.14101  -0.12779  -0.11175
 Alpha virt. eigenvalues --   -0.10077  -0.09230  -0.07986  -0.07982  -0.07474
 Alpha virt. eigenvalues --   -0.07193  -0.07139  -0.05647  -0.05577  -0.05327
 Alpha virt. eigenvalues --   -0.03826  -0.03643  -0.03277  -0.03139  -0.02170
 Alpha virt. eigenvalues --   -0.01363  -0.00928   0.00205   0.00592   0.00619
 Alpha virt. eigenvalues --    0.01053   0.01518   0.01952   0.02207   0.02311
 Alpha virt. eigenvalues --    0.02449   0.02665   0.02736   0.03362   0.03426
 Alpha virt. eigenvalues --    0.04246   0.04493   0.04702   0.05037   0.05367
 Alpha virt. eigenvalues --    0.06041   0.06283   0.06592   0.07016   0.07267
 Alpha virt. eigenvalues --    0.07886   0.08152   0.08344   0.08507   0.08928
 Alpha virt. eigenvalues --    0.09536   0.09554   0.10014   0.10831   0.10952
 Alpha virt. eigenvalues --    0.11129   0.12142   0.12231   0.12912   0.12917
 Alpha virt. eigenvalues --    0.13398   0.13528   0.13994   0.14400   0.16141
 Alpha virt. eigenvalues --    0.16253   0.16461   0.17342   0.17607   0.17789
 Alpha virt. eigenvalues --    0.18099   0.19114   0.19244   0.19603   0.19698
 Alpha virt. eigenvalues --    0.21478   0.21568   0.22705   0.23069   0.23522
 Alpha virt. eigenvalues --    0.23902   0.24636   0.25516   0.26920   0.27579
 Alpha virt. eigenvalues --    0.28800   0.29262   0.29799   0.31325   0.35722
 Alpha virt. eigenvalues --    0.36367   0.38197   0.39265   0.41139   0.41409
 Alpha virt. eigenvalues --    0.41894   0.42254   0.42987   0.43610   0.44285
 Alpha virt. eigenvalues --    0.44974   0.44994   0.46080   0.46147   0.48030
 Alpha virt. eigenvalues --    0.48520   0.48806   0.49055   0.50401   0.50954
 Alpha virt. eigenvalues --    0.51436   0.51610   0.52119   0.52831   0.53959
 Alpha virt. eigenvalues --    0.54095   0.54570   0.55688   0.55749   0.57701
 Alpha virt. eigenvalues --    0.58236   0.58803   0.61412   0.62261   0.62319
 Alpha virt. eigenvalues --    0.63185   0.63481   0.64831   0.65133   0.67072
 Alpha virt. eigenvalues --    0.70465   0.70685   0.70962   0.72370   0.72835
 Alpha virt. eigenvalues --    0.75802   0.75996   0.76231   0.76906   0.77084
 Alpha virt. eigenvalues --    0.77793   0.77822   0.78166   0.79922   0.80373
 Alpha virt. eigenvalues --    0.81182   0.81704   0.82141   0.82992   0.85113
 Alpha virt. eigenvalues --    0.87105   0.88070   0.88533   0.89142   0.90364
 Alpha virt. eigenvalues --    0.90950   0.91280   0.93183   0.94594   0.96397
 Alpha virt. eigenvalues --    0.96647   1.00445   1.01217   1.01714   1.02692
 Alpha virt. eigenvalues --    1.03180   1.03778   1.04723   1.05464   1.08702
 Alpha virt. eigenvalues --    1.19498   1.23310   1.23981   1.25191   1.27749
 Alpha virt. eigenvalues --    1.29814   1.31655   1.34423   1.35713   1.35983
 Alpha virt. eigenvalues --    1.39263   1.40130   1.40896   1.43143   1.43371
 Alpha virt. eigenvalues --    1.43494   1.45149   1.45233   1.46316   1.46657
 Alpha virt. eigenvalues --    1.47635   1.47939   1.51587   1.53572   1.55342
 Alpha virt. eigenvalues --    1.55849   1.56305   1.56625   1.57693   1.61322
 Alpha virt. eigenvalues --    1.63322   1.63552   1.63815   1.66037   1.68150
 Alpha virt. eigenvalues --    1.68361   1.68770   1.69788   1.74275   1.75932
 Alpha virt. eigenvalues --    1.77056   1.78040   1.79750   1.80045   1.80635
 Alpha virt. eigenvalues --    1.83081   1.83230   1.83502   1.83850   1.84217
 Alpha virt. eigenvalues --    1.84225   1.85909   1.86002   1.88181   1.91338
 Alpha virt. eigenvalues --    1.91989   1.94070   1.95113   1.97652   1.98087
 Alpha virt. eigenvalues --    1.99638   2.01985   2.04269   2.07258   2.11770
 Alpha virt. eigenvalues --    2.11946   2.14087   2.15229   2.18938   2.21017
 Alpha virt. eigenvalues --    2.22774   2.28791   2.29724   2.34486   2.34862
 Alpha virt. eigenvalues --    2.36211   2.38681   2.39589   2.42304   2.45275
 Alpha virt. eigenvalues --    2.45967   2.46105   2.49280   2.52816   2.53752
 Alpha virt. eigenvalues --    2.53919   2.57016   2.57813   2.58300   2.59597
 Alpha virt. eigenvalues --    2.59792   2.61545   2.62064   2.63474   2.63686
 Alpha virt. eigenvalues --    2.64757   2.65044   2.65234   2.65247   2.67652
 Alpha virt. eigenvalues --    2.68319   2.70907   2.71411   2.73320   2.74789
 Alpha virt. eigenvalues --    2.76306   2.78356   2.79650   2.82501   2.83005
 Alpha virt. eigenvalues --    2.84806   2.86131   2.92038   2.97055   2.99456
 Alpha virt. eigenvalues --    2.99974   3.04458   3.10717   3.11145   3.12905
 Alpha virt. eigenvalues --    3.20663   3.22591   3.26440   3.28030   3.30706
 Alpha virt. eigenvalues --    3.32795   3.33482   3.43411   3.45839   3.46181
 Alpha virt. eigenvalues --    3.48149   3.49856   3.56180   3.66369   3.67259
 Alpha virt. eigenvalues --    3.67306   3.94185   3.94594   3.95221   3.96123
 Alpha virt. eigenvalues --    4.03964   4.06780   4.07268   4.12575   4.35028
 Alpha virt. eigenvalues --    4.60448   4.69620   4.71505  23.45359  23.60338
 Alpha virt. eigenvalues --   23.82027  23.84816  23.87507  23.89091  23.90593
 Alpha virt. eigenvalues --   23.92199  23.97277  23.99600  23.99785  23.99827
 Alpha virt. eigenvalues --   24.10448  24.10553
          Condensed to atoms (all electrons):
               1          2          3          4          5          6
     1  C    8.742654   0.153608  -0.505234   2.181573  -0.074121  -0.097719
     2  C    0.153608   7.247050   0.324716  -1.176618  -0.002291  -0.013631
     3  C   -0.505234   0.324716   6.597371   0.794937  -0.130495   0.016959
     4  C    2.181573  -1.176618   0.794937  11.326451  -0.462243  -0.130536
     5  C   -0.074121  -0.002291  -0.130495  -0.462243  11.325817   0.794986
     6  C   -0.097719  -0.013631   0.016959  -0.130536   0.794986   6.597366
     7  C   -0.006429  -0.001905  -0.013632  -0.002250  -1.176746   0.324805
     8  C    0.395761  -0.006508  -0.097720  -0.073877   2.180982  -0.505218
     9  C   -1.026306  -0.844435   0.306302  -0.141996  -0.142709   0.306276
    10  C   -1.353616   0.272736  -0.343354  -2.605231  -2.605180  -0.343512
    11  C    0.349102  -0.853366   0.983930  -0.376669  -1.517601  -0.167795
    12  C   -2.454068   1.448806  -1.446596  -1.821558  -0.344686  -0.197006
    13  C    0.296774  -0.244529  -0.167841  -1.517785  -0.376605   0.984118
    14  C   -1.103801  -0.177531  -0.196992  -0.345227  -1.820104  -1.446766
    15  H    0.372190  -0.111256  -0.000312   0.029186   0.005218   0.001106
    16  H   -0.019196   0.381393  -0.018309   0.013273  -0.001510  -0.000329
    17  H   -0.028402  -0.015324   0.375823  -0.069994   0.000320   0.000410
    18  H    0.053184   0.002658  -0.084294   0.465506   0.004292  -0.005286
    19  H   -0.046598  -0.008069   0.052266  -0.069114  -0.069063   0.052275
    20  H    0.006740   0.002209  -0.005285   0.004298   0.465494  -0.084289
    21  H   -0.001304  -0.000403   0.000410   0.000320  -0.069993   0.375828
    22  H    0.000769   0.000376  -0.000329  -0.001510   0.013264  -0.018299
    23  H    0.005232  -0.002535   0.001105   0.005219   0.029185  -0.000312
    24  H    0.035009   0.014877  -0.001687  -0.012026  -0.012024  -0.001685
    25  H    0.035009   0.014877  -0.001687  -0.012026  -0.012024  -0.001685
               7          8          9         10         11         12
     1  C   -0.006429   0.395761  -1.026306  -1.353616   0.349102  -2.454068
     2  C   -0.001905  -0.006508  -0.844435   0.272736  -0.853366   1.448806
     3  C   -0.013632  -0.097720   0.306302  -0.343354   0.983930  -1.446596
     4  C   -0.002250  -0.073877  -0.141996  -2.605231  -0.376669  -1.821558
     5  C   -1.176746   2.180982  -0.142709  -2.605180  -1.517601  -0.344686
     6  C    0.324805  -0.505218   0.306276  -0.343512  -0.167795  -0.197006
     7  C    7.247716   0.153597  -0.844571   0.272876  -0.244837  -0.177642
     8  C    0.153597   8.742825  -1.027072  -1.353544   0.296366  -1.104103
     9  C   -0.844571  -1.027072   9.474897   0.276761   1.364375  -1.804077
    10  C    0.272876  -1.353544   0.276761   8.988045  -0.267829   2.403561
    11  C   -0.244837   0.296366   1.364375  -0.267829  14.210559  -3.647673
    12  C   -0.177642  -1.104103  -1.804077   2.403561  -3.647673  16.054286
    13  C   -0.853693   0.350043   1.364924  -0.268073   1.129729  -4.690514
    14  C    1.448895  -2.453181  -1.803488   2.403111  -4.690923   3.287062
    15  H   -0.002536   0.005233   0.089958  -0.009609  -0.030944  -0.024778
    16  H    0.000376   0.000771   0.001764  -0.008613   0.022635  -0.029041
    17  H   -0.000403  -0.001304  -0.005267   0.019896  -0.025324   0.093758
    18  H    0.002209   0.006743  -0.023776   0.007146  -0.002790  -0.060559
    19  H   -0.008071  -0.046599   0.074126   0.421261   0.077594  -0.066090
    20  H    0.002651   0.053179  -0.023788   0.007159  -0.012101  -0.016456
    21  H   -0.015317  -0.028412  -0.005264   0.019897  -0.006168   0.005332
    22  H    0.381406  -0.019227   0.001751  -0.008610   0.002932  -0.008979
    23  H   -0.111268   0.372166   0.089941  -0.009610   0.001346   0.006153
    24  H    0.014881   0.035023   0.353055   0.004856   0.014209  -0.061103
    25  H    0.014881   0.035023   0.353055   0.004856   0.014209  -0.061103
              13         14         15         16         17         18
     1  C    0.296774  -1.103801   0.372190  -0.019196  -0.028402   0.053184
     2  C   -0.244529  -0.177531  -0.111256   0.381393  -0.015324   0.002658
     3  C   -0.167841  -0.196992  -0.000312  -0.018309   0.375823  -0.084294
     4  C   -1.517785  -0.345227   0.029186   0.013273  -0.069994   0.465506
     5  C   -0.376605  -1.820104   0.005218  -0.001510   0.000320   0.004292
     6  C    0.984118  -1.446766   0.001106  -0.000329   0.000410  -0.005286
     7  C   -0.853693   1.448895  -0.002536   0.000376  -0.000403   0.002209
     8  C    0.350043  -2.453181   0.005233   0.000771  -0.001304   0.006743
     9  C    1.364924  -1.803488   0.089958   0.001764  -0.005267  -0.023776
    10  C   -0.268073   2.403111  -0.009609  -0.008613   0.019896   0.007146
    11  C    1.129729  -4.690923  -0.030944   0.022635  -0.025324  -0.002790
    12  C   -4.690514   3.287062  -0.024778  -0.029041   0.093758  -0.060559
    13  C   14.208872  -3.647982   0.001341   0.002935  -0.006167  -0.012100
    14  C   -3.647982  16.052538   0.006151  -0.008981   0.005333  -0.016468
    15  H    0.001341   0.006151   0.440026  -0.009169   0.001481   0.000124
    16  H    0.002935  -0.008981  -0.009169   0.419984  -0.006616   0.001949
    17  H   -0.006167   0.005333   0.001481  -0.006616   0.422495  -0.010467
    18  H   -0.012100  -0.016468   0.000124   0.001949  -0.010467   0.454874
    19  H    0.077629  -0.066082   0.000338  -0.000561   0.001453  -0.006430
    20  H   -0.002816  -0.060525  -0.000117   0.000016  -0.000147   0.001222
    21  H   -0.025326   0.093757   0.000015  -0.000007   0.000011  -0.000147
    22  H    0.022621  -0.028997  -0.000129   0.000008  -0.000007   0.000016
    23  H   -0.030920  -0.024759   0.000524  -0.000129   0.000015  -0.000117
    24  H    0.014230  -0.061101  -0.000948   0.000639  -0.000145   0.000197
    25  H    0.014230  -0.061101  -0.000948   0.000639  -0.000145   0.000197
              19         20         21         22         23         24
     1  C   -0.046598   0.006740  -0.001304   0.000769   0.005232   0.035009
     2  C   -0.008069   0.002209  -0.000403   0.000376  -0.002535   0.014877
     3  C    0.052266  -0.005285   0.000410  -0.000329   0.001105  -0.001687
     4  C   -0.069114   0.004298   0.000320  -0.001510   0.005219  -0.012026
     5  C   -0.069063   0.465494  -0.069993   0.013264   0.029185  -0.012024
     6  C    0.052275  -0.084289   0.375828  -0.018299  -0.000312  -0.001685
     7  C   -0.008071   0.002651  -0.015317   0.381406  -0.111268   0.014881
     8  C   -0.046599   0.053179  -0.028412  -0.019227   0.372166   0.035023
     9  C    0.074126  -0.023788  -0.005264   0.001751   0.089941   0.353055
    10  C    0.421261   0.007159   0.019897  -0.008610  -0.009610   0.004856
    11  C    0.077594  -0.012101  -0.006168   0.002932   0.001346   0.014209
    12  C   -0.066090  -0.016456   0.005332  -0.008979   0.006153  -0.061103
    13  C    0.077629  -0.002816  -0.025326   0.022621  -0.030920   0.014230
    14  C   -0.066082  -0.060525   0.093757  -0.028997  -0.024759  -0.061101
    15  H    0.000338  -0.000117   0.000015  -0.000129   0.000524  -0.000948
    16  H   -0.000561   0.000016  -0.000007   0.000008  -0.000129   0.000639
    17  H    0.001453  -0.000147   0.000011  -0.000007   0.000015  -0.000145
    18  H   -0.006430   0.001222  -0.000147   0.000016  -0.000117   0.000197
    19  H    0.443082  -0.006429   0.001453  -0.000561   0.000338   0.000542
    20  H   -0.006429   0.454871  -0.010467   0.001948   0.000124   0.000197
    21  H    0.001453  -0.010467   0.422495  -0.006616   0.001481  -0.000145
    22  H   -0.000561   0.001948  -0.006616   0.419985  -0.009168   0.000639
    23  H    0.000338   0.000124   0.001481  -0.009168   0.440024  -0.000948
    24  H    0.000542   0.000197  -0.000145   0.000639  -0.000948   0.491981
    25  H    0.000542   0.000197  -0.000145   0.000639  -0.000948  -0.077208
              25
     1  C    0.035009
     2  C    0.014877
     3  C   -0.001687
     4  C   -0.012026
     5  C   -0.012024
     6  C   -0.001685
     7  C    0.014881
     8  C    0.035023
     9  C    0.353055
    10  C    0.004856
    11  C    0.014209
    12  C   -0.061103
    13  C    0.014230
    14  C   -0.061101
    15  H   -0.000948
    16  H    0.000639
    17  H   -0.000145
    18  H    0.000197
    19  H    0.000542
    20  H    0.000197
    21  H   -0.000145
    22  H    0.000639
    23  H   -0.000948
    24  H   -0.077208
    25  H    0.491981
 Mulliken charges:
               1
     1  C    0.089190
     2  C   -0.404906
     3  C   -0.440055
     4  C   -0.002102
     5  C   -0.002163
     6  C   -0.440059
     7  C   -0.404995
     8  C    0.089054
     9  C   -0.364436
    10  C    0.074619
    11  C   -0.622964
    12  C    0.717075
    13  C   -0.623094
    14  C    0.717162
    15  H    0.237854
    16  H    0.256080
    17  H    0.248717
    18  H    0.222114
    19  H    0.190770
    20  H    0.222114
    21  H    0.248715
    22  H    0.256081
    23  H    0.237858
    24  H    0.248685
    25  H    0.248685
 Sum of Mulliken charges =   1.00000
 Mulliken charges with hydrogens summed into heavy atoms:
               1
     1  C    0.327044
     2  C   -0.148825
     3  C   -0.191338
     4  C    0.220012
     5  C    0.219951
     6  C   -0.191344
     7  C   -0.148914
     8  C    0.326912
     9  C    0.132933
    10  C    0.265390
    11  C   -0.622964
    12  C    0.717075
    13  C   -0.623094
    14  C    0.717162
 Electronic spatial extent (au):  <R**2>=           2859.9675
 Charge=              1.0000 electrons
 Dipole moment (field-independent basis, Debye):
    X=             -0.1980    Y=              0.0000    Z=              0.0000  Tot=              0.1980
 Quadrupole moment (field-independent basis, Debye-Ang):
   XX=            -56.2819   YY=            -31.0488   ZZ=            -84.1445
   XY=              0.0001   XZ=              0.0000   YZ=             -0.0000
 Traceless Quadrupole moment (field-independent basis, Debye-Ang):
   XX=              0.8765   YY=             26.1096   ZZ=            -26.9861
   XY=              0.0001   XZ=              0.0000   YZ=             -0.0000
 Octapole moment (field-independent basis, Debye-Ang**2):
  XXX=             -5.3336  YYY=              0.0018  ZZZ=              0.0000  XYY=              5.1822
  XXY=              0.0004  XXZ=              0.0000  XZZ=              3.1411  YZZ=             -0.0002
  YYZ=             -0.0000  XYZ=             -0.0000
 Hexadecapole moment (field-independent basis, Debye-Ang**3):
 XXXX=           -610.6303 YYYY=          -2123.7412 ZZZZ=            -99.3618 XXXY=              0.0041
 XXXZ=              0.0000 YYYX=              0.0044 YYYZ=              0.0000 ZZZX=              0.0000
 ZZZY=              0.0000 XXYY=           -508.5582 XXZZ=           -145.8443 YYZZ=           -591.6411
 XXYZ=              0.0000 YYXZ=             -0.0000 ZZXY=              0.0011
 N-N= 7.805997842303D+02 E-N=-2.797520936190D+03  KE= 5.374742365463D+02
 Symmetry A'   KE= 5.228269823965D+02
 Symmetry A"   KE= 1.464725414982D+01
 Unable to Open any file for archive entry.
 1\1\GINC-GADI-CPU-CLX-1762\SP\RM062X TD-FC\6-311++G(d,p)\C14H11(1+)\TS
 1578\02-Aug-2022\0\\#n M062X/6-311++G(d,p) TD(NStates=1) EmpiricalDisp
 ersion=GD3 SP\\SP_150\\1,1\C,0,2.498355,1.358631,0.\C,0,3.704358,0.670
 939,0.\C,0,3.685661,-0.71683,0.\C,0,2.463456,-1.408138,0.\C,0,-2.46345
 6,-1.408138,0.\C,0,-3.685661,-0.71683,0.\C,0,-3.704358,0.670939,0.\C,0
 ,-2.498355,1.358631,0.\C,0,-0.00015,1.466569,0.\C,0,0.,-1.429789,0.\C,
 0,1.262505,0.677215,0.\C,0,1.236271,-0.729904,0.\C,0,-1.262505,0.67721
 5,0.\C,0,-1.236271,-0.729904,0.\H,0,2.494671,2.441697,0.\H,0,4.640203,
 1.209439,0.\H,0,4.610162,-1.276099,0.\H,0,2.46665,-2.490509,0.\H,0,0.,
 -2.510566,0.\H,0,-2.46665,-2.490509,0.\H,0,-4.610162,-1.276099,0.\H,0,
 -4.640203,1.209439,0.\H,0,-2.494671,2.441697,0.\H,0,0.,2.148787,-0.862
 885\H,0,0.,2.148787,0.862885\\Version=ES64L-G16RevC.01\State=1-A'\HF=-
 539.7602382\RMSD=9.412e-09\PG=CS [SG(C14H9),X(H2)]\\@
 The archive entry for this job was punched.


 ROSE IS A RED
 TY COBB IS BLUE
 'CAUSE PETE JUST HIT
 NO. 4592.
 Job cpu time:       0 days  0 hours 51 minutes  6.3 seconds.
 Elapsed time:       0 days  0 hours  1 minutes  4.0 seconds.
 File lengths (MBytes):  RWF=    460 Int=      0 D2E=      0 Chk=     15 Scr=      1
 Normal termination of Gaussian 16 at Tue Aug  2 13:39:05 2022.
