 Entering Gaussian System, Link 0=g16
 Initial command:
 /apps/gaussian/g16c01/g16/l1.exe "/jobfs/53796104.gadi-pbs/Gau-3605911.inp" -scrdir="/jobfs/53796104.gadi-pbs/"
 Entering Link 1 = /apps/gaussian/g16c01/g16/l1.exe PID=   3605912.
  
 Copyright (c) 1988-2019, Gaussian, Inc.  All Rights Reserved.
  
 This is part of the Gaussian(R) 16 program.  It is based on
 the Gaussian(R) 09 system (copyright 2009, Gaussian, Inc.),
 the Gaussian(R) 03 system (copyright 2003, Gaussian, Inc.),
 the Gaussian(R) 98 system (copyright 1998, Gaussian, Inc.),
 the Gaussian(R) 94 system (copyright 1995, Gaussian, Inc.),
 the Gaussian 92(TM) system (copyright 1992, Gaussian, Inc.),
 the Gaussian 90(TM) system (copyright 1990, Gaussian, Inc.),
 the Gaussian 88(TM) system (copyright 1988, Gaussian, Inc.),
 the Gaussian 86(TM) system (copyright 1986, Carnegie Mellon
 University), and the Gaussian 82(TM) system (copyright 1983,
 Carnegie Mellon University). Gaussian is a federally registered
 trademark of Gaussian, Inc.
  
 This software contains proprietary and confidential information,
 including trade secrets, belonging to Gaussian, Inc.
  
 This software is provided under written license and may be
 used, copied, transmitted, or stored only in accord with that
 written license.
  
 The following legend is applicable only to US Government
 contracts under FAR:
  
                    RESTRICTED RIGHTS LEGEND
  
 Use, reproduction and disclosure by the US Government is
 subject to restrictions as set forth in subparagraphs (a)
 and (c) of the Commercial Computer Software - Restricted
 Rights clause in FAR 52.227-19.
  
 Gaussian, Inc.
 340 Quinnipiac St., Bldg. 40, Wallingford CT 06492
  
  
 ---------------------------------------------------------------
 Warning -- This program may not be used in any manner that
 competes with the business of Gaussian, Inc. or will provide
 assistance to any competitor of Gaussian, Inc.  The licensee
 of this program is prohibited from giving any competitor of
 Gaussian, Inc. access to this program.  By using this program,
 the user acknowledges that Gaussian, Inc. is engaged in the
 business of creating and licensing software in the field of
 computational chemistry and represents and warrants to the
 licensee that it is not a competitor of Gaussian, Inc. and that
 it will not use this program in any manner prohibited above.
 ---------------------------------------------------------------
  

 Cite this work as:
 Gaussian 16, Revision C.01,
 M. J. Frisch, G. W. Trucks, H. B. Schlegel, G. E. Scuseria, 
 M. A. Robb, J. R. Cheeseman, G. Scalmani, V. Barone, 
 G. A. Petersson, H. Nakatsuji, X. Li, M. Caricato, A. V. Marenich, 
 J. Bloino, B. G. Janesko, R. Gomperts, B. Mennucci, H. P. Hratchian, 
 J. V. Ortiz, A. F. Izmaylov, J. L. Sonnenberg, D. Williams-Young, 
 F. Ding, F. Lipparini, F. Egidi, J. Goings, B. Peng, A. Petrone, 
 T. Henderson, D. Ranasinghe, V. G. Zakrzewski, J. Gao, N. Rega, 
 G. Zheng, W. Liang, M. Hada, M. Ehara, K. Toyota, R. Fukuda, 
 J. Hasegawa, M. Ishida, T. Nakajima, Y. Honda, O. Kitao, H. Nakai, 
 T. Vreven, K. Throssell, J. A. Montgomery, Jr., J. E. Peralta, 
 F. Ogliaro, M. J. Bearpark, J. J. Heyd, E. N. Brothers, K. N. Kudin, 
 V. N. Staroverov, T. A. Keith, R. Kobayashi, J. Normand, 
 K. Raghavachari, A. P. Rendell, J. C. Burant, S. S. Iyengar, 
 J. Tomasi, M. Cossi, J. M. Millam, M. Klene, C. Adamo, R. Cammi, 
 J. W. Ochterski, R. L. Martin, K. Morokuma, O. Farkas, 
 J. B. Foresman, and D. J. Fox, Gaussian, Inc., Wallingford CT, 2019.
 
 ******************************************
 Gaussian 16:  ES64L-G16RevC.01  3-Jul-2019
                 2-Aug-2022 
 ******************************************
 %NProcShared=48
 Will use up to   48 processors via shared memory.
 %mem = 190GB
 ---------------------------------------------------------------
 #n M062X/6-311++G(d,p) TD(NStates=1) EmpiricalDispersion=GD3 SP
 ---------------------------------------------------------------
 1/38=1,172=1/1;
 2/12=2,17=6,18=5,40=1/2;
 3/5=4,6=6,7=1111,11=9,25=1,30=1,74=-55,124=31/1,2,3,8;
 4//1;
 5/5=2,38=5/2;
 8/6=1,10=2,108=1/1;
 9/41=1,42=1,70=2/14;
 6/7=2,8=2,9=2,10=2/1;
 99/5=1,9=1/99;
 ------
 SP_-75
 ------
 Symbolic Z-matrix:
 Charge =  1 Multiplicity = 1
 C                     2.48201   1.36193   0. 
 C                     3.69138   0.66916   0. 
 C                     3.68036  -0.71803   0. 
 C                     2.47076  -1.41169   0. 
 C                    -2.45516  -1.40259   0. 
 C                    -3.68496  -0.70563   0. 
 C                    -3.70783   0.67621   0. 
 C                    -2.49571   1.36133   0. 
 C                    -0.00428   1.44457   0. 
 C                     0.0122   -1.42879   0. 
 C                     1.26358   0.68079   0. 
 C                     1.24327  -0.732     0. 
 C                    -1.25993   0.67314   0. 
 C                    -1.23327  -0.7308    0. 
 H                     2.48157   2.44517   0. 
 H                     4.62613   1.21031   0. 
 H                     4.61011  -1.26962   0. 
 H                     2.4718   -2.49418   0. 
 H                     0.01125  -2.51007   0. 
 H                    -2.4645   -2.48533   0. 
 H                    -4.60721  -1.27007   0. 
 H                    -4.64278   1.21606   0. 
 H                    -2.48577   2.44472   0. 
 H                    -0.016     2.14379  -0.85739 
 H                    -0.016     2.14379   0.85739 
 
                          Input orientation:                          
 ---------------------------------------------------------------------
 Center     Atomic      Atomic             Coordinates (Angstroms)
 Number     Number       Type             X           Y           Z
 ---------------------------------------------------------------------
      1          6           0        2.482005    1.361931    0.000000
      2          6           0        3.691383    0.669164    0.000000
      3          6           0        3.680361   -0.718030    0.000000
      4          6           0        2.470756   -1.411688    0.000000
      5          6           0       -2.455156   -1.402588    0.000000
      6          6           0       -3.684961   -0.705630    0.000000
      7          6           0       -3.707833    0.676214    0.000000
      8          6           0       -2.495705    1.361331    0.000000
      9          6           0       -0.004275    1.444569    0.000000
     10          6           0        0.012200   -1.428789    0.000000
     11          6           0        1.263580    0.680790    0.000000
     12          6           0        1.243271   -0.732004    0.000000
     13          6           0       -1.259930    0.673140    0.000000
     14          6           0       -1.233271   -0.730804    0.000000
     15          1           0        2.481571    2.445172    0.000000
     16          1           0        4.626128    1.210314    0.000000
     17          1           0        4.610112   -1.269624    0.000000
     18          1           0        2.471800   -2.494184    0.000000
     19          1           0        0.011250   -2.510066    0.000000
     20          1           0       -2.464500   -2.485334    0.000000
     21          1           0       -4.607212   -1.270074    0.000000
     22          1           0       -4.642778    1.216064    0.000000
     23          1           0       -2.485771    2.444722    0.000000
     24          1           0       -0.016000    2.143787   -0.857385
     25          1           0       -0.016000    2.143787    0.857385
 ---------------------------------------------------------------------
                    Distance matrix (angstroms):
                    1          2          3          4          5
     1  C    0.000000
     2  C    1.393744   0.000000
     3  C    2.400478   1.387238   0.000000
     4  C    2.773642   2.412442   1.394384   0.000000
     5  C    5.658456   6.486301   6.173588   4.925920   0.000000
     6  C    6.504328   7.503367   7.365332   6.196077   1.413567
     7  C    6.227704   7.399219   7.518599   6.521832   2.427059
     8  C    4.977710   6.225685   6.516712   5.688178   2.764216
     9  C    2.487653   3.776128   4.272397   3.779416   3.756743
    10  C    3.726668   4.235303   3.736386   2.458615   2.467495
    11  C    1.395891   2.427831   2.792405   2.415727   4.262565
    12  C    2.432905   2.820731   2.437130   1.403100   3.758729
    13  C    3.804801   4.951315   5.132429   4.273702   2.395248
    14  C    4.264131   5.119778   4.913649   3.766088   1.394380
    15  H    1.083241   2.148918   3.382742   3.856875   6.259116
    16  H    2.149477   1.080089   2.147786   3.394190   7.547969
    17  H    3.384364   2.145451   1.081061   2.144068   7.066519
    18  H    3.856129   3.390303   2.148335   1.082497   5.046432
    19  H    4.593146   4.863217   4.083353   2.693623   2.703639
    20  H    6.266527   6.917062   6.393957   5.050690   1.082786
    21  H    7.562040   8.522167   8.305939   7.079385   2.156132
    22  H    7.126276   8.352086   8.544903   7.583366   3.412188
    23  H    5.084411   6.427273   6.929948   6.280052   3.847432
    24  H    2.754349   4.080969   4.752703   4.422722   4.388777
    25  H    2.754349   4.080969   4.752703   4.422722   4.388777
                    6          7          8          9         10
     6  C    0.000000
     7  C    1.382033   0.000000
     8  C    2.384671   1.392350   0.000000
     9  C    4.262723   3.782421   2.492820   0.000000
    10  C    3.767222   4.274305   3.751581   2.873405   0.000000
    11  C    5.139087   4.971415   3.820387   1.480140   2.452810
    12  C    4.928303   5.147476   4.285090   2.508753   1.414583
    13  C    2.789585   2.447905   1.414478   1.473693   2.456913
    14  C    2.451819   2.846604   2.443516   2.498535   1.427719
    15  H    6.924859   6.437230   5.093917   2.679671   4.594058
    16  H    8.529070   8.351058   7.123434   4.636325   5.315374
    17  H    8.314224   8.542511   7.577240   5.353449   4.600666
    18  H    6.411289   6.945451   6.288172   4.652389   2.680429
    19  H    4.113145   4.897342   4.612216   3.954665   1.081277
    20  H    2.157979   3.397243   3.846792   4.636469   2.692644
    21  H    1.081270   2.144043   3.373834   5.343811   4.622138
    22  H    2.147166   1.079611   2.151982   4.644128   5.353883
    23  H    3.370871   2.149664   1.083437   2.675468   4.609116
    24  H    4.723935   4.064297   2.737934   1.106414   3.674126
    25  H    4.723935   4.064297   2.737934   1.106414   3.674126
                   11         12         13         14         15
    11  C    0.000000
    12  C    1.412940   0.000000
    13  C    2.523522   2.870618   0.000000
    14  C    2.868251   2.476542   1.404197   0.000000
    15  H    2.143956   3.409961   4.139919   4.887420   0.000000
    16  H    3.403987   3.900810   5.910519   6.172560   2.474671
    17  H    3.873421   3.409495   6.183181   5.868173   4.281401
    18  H    3.397095   2.148153   4.894665   4.103299   4.939366
    19  H    3.427812   2.163188   3.427638   2.171314   5.536865
    20  H    4.891106   4.101430   3.380377   2.143432   6.983803
    21  H    6.186442   5.875174   3.870449   3.416766   8.003368
    22  H    5.930563   6.200044   3.426139   3.926198   7.229596
    23  H    4.143560   4.898708   2.154342   3.413608   4.967342
    24  H    2.124334   3.254389   2.108382   3.237303   2.657782
    25  H    2.124334   3.254389   2.108382   3.237303   2.657782
                   16         17         18         19         20
    16  H    0.000000
    17  H    2.479990   0.000000
    18  H    4.285374   2.464128   0.000000
    19  H    5.927759   4.763216   2.460601   0.000000
    20  H    7.995925   7.178307   4.936308   2.475874   0.000000
    21  H    9.560695   9.217324   7.184070   4.782026   2.463346
    22  H    9.268908   9.580951   8.023912   5.961881   4.294792
    23  H    7.218232   8.009240   6.997878   5.548427   4.930102
    24  H    4.812051   5.812693   5.332451   4.732251   5.306508
    25  H    4.812051   5.812693   5.332451   4.732251   5.306508
                   21         22         23         24         25
    21  H    0.000000
    22  H    2.486392   0.000000
    23  H    4.277876   2.482394   0.000000
    24  H    5.785221   4.796129   2.631623   0.000000
    25  H    5.785221   4.796129   2.631623   1.714770   0.000000
 Stoichiometry    C14H11(1+)
 Framework group  CS[SG(C14H9),X(H2)]
 Deg. of freedom    46
 Full point group                 CS      NOp   2
 Largest Abelian subgroup         CS      NOp   2
 Largest concise Abelian subgroup CS      NOp   2
                         Standard orientation:                         
 ---------------------------------------------------------------------
 Center     Atomic      Atomic             Coordinates (Angstroms)
 Number     Number       Type             X           Y           Z
 ---------------------------------------------------------------------
      1          6           0       -2.371002   -1.547394    0.000000
      2          6           0       -2.329949   -2.940533    0.000000
      3          6           0       -1.101273   -3.584569    0.000000
      4          6           0        0.080585   -2.844624    0.000000
      5          6           0        2.394044    1.504238    0.000000
      6          6           0        2.358922    2.917368    0.000000
      7          6           0        1.150937    3.588776    0.000000
      8          6           0       -0.024577    2.842582    0.000000
      9          6           0       -1.272153    0.684410    0.000000
     10          6           0        1.254337   -0.684278    0.000000
     11          6           0       -1.196028   -0.793771    0.000000
     12          6           0        0.059605   -1.441681    0.000000
     13          6           0        0.000000    1.428318    0.000000
     14          6           0        1.225692    0.743154    0.000000
     15          1           0       -3.326199   -1.036501    0.000000
     16          1           0       -3.247761   -3.509929    0.000000
     17          1           0       -1.052949   -4.664549    0.000000
     18          1           0        1.034837   -3.355704    0.000000
     19          1           0        2.208453   -1.193024    0.000000
     20          1           0        3.353412    1.002202    0.000000
     21          1           0        3.291391    3.464767    0.000000
     22          1           0        1.115419    4.667803    0.000000
     23          1           0       -0.984791    3.344401    0.000000
     24          1           0       -1.883326    1.024279    0.857385
     25          1           0       -1.883326    1.024279   -0.857385
 ---------------------------------------------------------------------
 Rotational constants (GHZ):           2.1391298           0.4450517           0.3692018
 Standard basis: 6-311++G(d,p) (5D, 7F)
 There are   299 symmetry adapted cartesian basis functions of A'  symmetry.
 There are   100 symmetry adapted cartesian basis functions of A"  symmetry.
 There are   285 symmetry adapted basis functions of A'  symmetry.
 There are   100 symmetry adapted basis functions of A"  symmetry.
   385 basis functions,   603 primitive gaussians,   399 cartesian basis functions
    47 alpha electrons       47 beta electrons
       nuclear repulsion energy       781.5988555958 Hartrees.
 NAtoms=   25 NActive=   25 NUniq=   24 SFac= 1.09D+00 NAtFMM=   60 NAOKFM=F Big=F
 Integral buffers will be    131072 words long.
 Regular integral format.
 Two-electron integral symmetry is turned on.
 Nuclear repulsion after empirical dispersion term =      781.5978762611 Hartrees.
 One-electron integrals computed using PRISM.
 NBasis=   385 RedAO= T EigKep=  1.11D-06  NBF=   285   100
 NBsUse=   379 1.00D-06 EigRej=  8.32D-07 NBFU=   279   100
 ExpMin= 3.60D-02 ExpMax= 4.56D+03 ExpMxC= 6.82D+02 IAcc=3 IRadAn=         5 AccDes= 0.00D+00
 Harris functional with IExCor= 1009 and IRadAn=       5 diagonalized for initial guess.
 HarFok:  IExCor= 1009 AccDes= 0.00D+00 IRadAn=         5 IDoV= 1 UseB2=F ITyADJ=14
 ICtDFT=  3500011 ScaDFX=  1.000000  1.000000  1.000000  1.000000
 FoFCou: FMM=F IPFlag=           0 FMFlag=      100000 FMFlg1=           0
         NFxFlg=           0 DoJE=T BraDBF=F KetDBF=T FulRan=T
         wScrn=  0.000000 ICntrl=       500 IOpCl=  0 I1Cent=   200000004 NGrid=           0
         NMat0=    1 NMatS0=      1 NMatT0=    0 NMatD0=    1 NMtDS0=    0 NMtDT0=    0
 Petite list used in FoFCou.
 Initial guess orbital symmetries:
       Occupied  (A') (A') (A') (A') (A') (A') (A') (A') (A') (A')
                 (A') (A') (A') (A') (A') (A') (A') (A') (A') (A')
                 (A') (A') (A') (A') (A') (A') (A') (A') (A') (A')
                 (A') (A') (A") (A') (A') (A') (A') (A') (A') (A")
                 (A") (A') (A') (A") (A") (A") (A")
       Virtual   (A") (A") (A") (A") (A") (A') (A') (A') (A') (A")
                 (A") (A') (A') (A') (A") (A') (A') (A') (A') (A")
                 (A') (A") (A') (A') (A') (A") (A') (A") (A') (A')
                 (A') (A') (A') (A") (A') (A') (A") (A') (A') (A")
                 (A') (A') (A') (A") (A') (A') (A') (A') (A') (A")
                 (A') (A') (A") (A") (A') (A') (A') (A") (A") (A')
                 (A') (A') (A') (A') (A') (A") (A') (A') (A') (A")
                 (A') (A') (A') (A') (A') (A') (A') (A') (A') (A')
                 (A') (A') (A') (A') (A') (A') (A') (A') (A') (A')
                 (A') (A') (A') (A') (A') (A') (A') (A") (A') (A")
                 (A') (A') (A") (A") (A') (A") (A') (A") (A') (A")
                 (A") (A') (A') (A') (A") (A') (A') (A") (A") (A')
                 (A") (A") (A') (A') (A') (A") (A') (A') (A') (A")
                 (A') (A') (A') (A') (A') (A') (A") (A') (A') (A')
                 (A') (A') (A') (A') (A') (A') (A') (A') (A') (A")
                 (A") (A') (A") (A") (A') (A') (A') (A") (A") (A')
                 (A") (A') (A") (A") (A") (A') (A') (A') (A') (A')
                 (A') (A") (A') (A") (A') (A') (A') (A') (A') (A")
                 (A') (A') (A') (A') (A") (A') (A") (A') (A") (A")
                 (A') (A") (A') (A") (A') (A') (A') (A") (A') (A')
                 (A") (A") (A") (A') (A') (A") (A') (A") (A') (A')
                 (A") (A") (A') (A") (A') (A") (A') (A') (A") (A')
                 (A') (A') (A') (A') (A") (A') (A') (A') (A") (A")
                 (A') (A') (A') (A") (A') (A') (A") (A') (A") (A')
                 (A") (A') (A') (A') (A') (A') (A") (A') (A') (A")
                 (A') (A') (A") (A') (A") (A') (A') (A") (A') (A')
                 (A') (A') (A") (A") (A') (A') (A') (A") (A") (A')
                 (A') (A') (A') (A') (A") (A') (A") (A') (A") (A')
                 (A") (A') (A") (A") (A") (A') (A') (A') (A') (A')
                 (A') (A') (A') (A') (A') (A') (A') (A') (A') (A')
                 (A') (A') (A') (A") (A') (A') (A') (A') (A') (A')
                 (A') (A') (A') (A') (A') (A') (A') (A') (A') (A')
                 (A') (A') (A') (A') (A') (A') (A') (A') (A') (A')
                 (A') (A')
 The electronic state of the initial guess is 1-A'.
 Requested convergence on RMS density matrix=1.00D-08 within 128 cycles.
 Requested convergence on MAX density matrix=1.00D-06.
 Requested convergence on             energy=1.00D-06.
 No special actions if energy rises.
 SCF Done:  E(RM062X) =  -539.759601033     A.U. after   15 cycles
            NFock= 15  Conv=0.58D-08     -V/T= 2.0042
 DoSCS=F DFT=T ScalE2(SS,OS)=  1.000000  1.000000
 ExpMin= 3.60D-02 ExpMax= 4.56D+03 ExpMxC= 6.82D+02 IAcc=3 IRadAn=         5 AccDes= 0.00D+00
 HarFok:  IExCor=  205 AccDes= 0.00D+00 IRadAn=         5 IDoV=-2 UseB2=F ITyADJ=14
 ICtDFT= 12500011 ScaDFX=  1.000000  1.000000  1.000000  1.000000
 Range of M.O.s used for correlation:    15   379
 NBasis=   385 NAE=    47 NBE=    47 NFC=    14 NFV=     0
 NROrb=    365 NOA=    33 NOB=    33 NVA=   332 NVB=   332

 **** Warning!!: The largest alpha MO coefficient is  0.15134244D+03

 Orbital symmetries:
       Occupied  (A') (A') (A') (A') (A') (A') (A') (A') (A') (A')
                 (A') (A') (A') (A') (A') (A') (A') (A') (A') (A')
                 (A') (A') (A') (A') (A') (A') (A') (A') (A') (A')
                 (A') (A') (A") (A') (A') (A') (A') (A") (A") (A')
                 (A') (A') (A') (A") (A") (A") (A")
       Virtual   (A") (A") (A") (A") (A') (A') (A') (A') (A") (A')
                 (A') (A") (A') (A') (A") (A') (A") (A') (A') (A')
                 (A") (A") (A') (A') (A') (A") (A') (A") (A') (A')
                 (A") (A') (A") (A') (A') (A') (A') (A') (A") (A')
                 (A") (A') (A') (A") (A") (A') (A") (A') (A") (A')
                 (A') (A') (A') (A') (A') (A") (A') (A') (A') (A')
                 (A') (A") (A') (A') (A') (A") (A') (A') (A') (A')
                 (A') (A') (A') (A') (A') (A') (A') (A') (A') (A')
                 (A') (A') (A') (A') (A') (A') (A') (A') (A') (A')
                 (A') (A') (A') (A') (A") (A') (A") (A") (A') (A")
                 (A') (A') (A') (A') (A") (A") (A') (A") (A") (A')
                 (A') (A') (A") (A') (A') (A") (A') (A") (A') (A")
                 (A") (A') (A") (A') (A') (A') (A") (A') (A') (A')
                 (A') (A') (A') (A') (A') (A') (A') (A') (A') (A')
                 (A') (A') (A') (A") (A') (A') (A') (A') (A') (A')
                 (A') (A') (A") (A') (A") (A') (A") (A") (A') (A")
                 (A") (A') (A') (A") (A") (A") (A') (A") (A') (A')
                 (A') (A') (A') (A") (A") (A') (A') (A') (A') (A")
                 (A') (A') (A') (A") (A') (A") (A') (A') (A") (A")
                 (A") (A') (A') (A") (A') (A") (A') (A') (A') (A')
                 (A") (A") (A") (A') (A") (A') (A') (A") (A') (A')
                 (A') (A") (A') (A") (A") (A') (A") (A') (A') (A")
                 (A') (A') (A') (A') (A") (A') (A') (A') (A") (A")
                 (A') (A') (A') (A") (A') (A') (A') (A") (A") (A')
                 (A") (A') (A') (A") (A') (A') (A') (A') (A') (A')
                 (A") (A') (A') (A') (A') (A") (A") (A") (A') (A')
                 (A') (A') (A') (A') (A') (A') (A") (A') (A') (A')
                 (A') (A") (A') (A") (A") (A") (A') (A") (A") (A')
                 (A') (A") (A") (A') (A") (A") (A') (A') (A') (A')
                 (A') (A') (A') (A') (A') (A') (A') (A') (A') (A')
                 (A') (A') (A') (A") (A') (A') (A') (A') (A') (A')
                 (A') (A') (A') (A') (A') (A') (A') (A') (A') (A')
                 (A') (A') (A') (A') (A') (A') (A') (A') (A') (A')
                 (A') (A')
     4 initial guesses have been made.
 Convergence on wavefunction:    0.001000000000000
 Iteration     1 Dimension     4 NMult     0 NNew      4
 CISAX will form     4 AO SS matrices at one time.
 Iteration     2 Dimension     6 NMult     4 NNew      2
 Iteration     3 Dimension     8 NMult     6 NNew      2
 Iteration     4 Dimension    10 NMult     8 NNew      2
 Iteration     5 Dimension    12 NMult    10 NNew      2
 Iteration     6 Dimension    14 NMult    12 NNew      2
 ***********************************************************************
 Excited states from <AA,BB:AA,BB> singles matrix:
 ***********************************************************************
 
 Ground to excited state transition densities written to RWF  633
 Ground to excited state transition electric dipole moments (Au):
       state          X           Y           Z        Dip. S.      Osc.
         1        -0.5559      0.3116      0.0000      0.4062      0.0279
 Ground to excited state transition velocity dipole moments (Au):
       state          X           Y           Z        Dip. S.      Osc.
         1         0.0648     -0.0345      0.0000      0.0054      0.0348
 Ground to excited state transition magnetic dipole moments (Au):
       state          X           Y           Z
         1        -0.0000      0.0000     -0.0784
 Ground to excited state transition velocity quadrupole moments (Au):
       state          XX          YY          ZZ          XY          XZ          YZ
         1         0.1187      0.2030     -0.0096      0.1253     -0.0000      0.0000
 <0|del|b> * <b|rxdel|0> + <0|del|b> * <b|delr+rdel|0>
 Rotatory Strengths (R) in cgs (10**-40 erg-esu-cm/Gauss)
       state          XX          YY          ZZ    R(velocity)    E-M Angle
         1        -0.0000     -0.0000      0.0000     -0.0000       90.00
 1/2[<0|r|b>*<b|rxdel|0> + (<0|rxdel|b>*<b|r|0>)*]
 Rotatory Strengths (R) in cgs (10**-40 erg-esu-cm/Gauss)
       state          XX          YY          ZZ     R(length)
         1        -0.0000     -0.0000      0.0000     -0.0000
  1/2[<0|del|b>*<b|r|0> + (<0|r|b>*<b|del|0>)*] (Au)
       state          X           Y           Z        Dip. S.   Osc.(frdel)
         1        -0.0360     -0.0108      0.0000      0.0468      0.0312

 Excitation energies and oscillator strengths:
 
 Excited State   1:      Singlet-A'     2.8081 eV  441.52 nm  f=0.0279  <S**2>=0.000
      47 -> 48         0.70410
 This state for optimization and/or second-order correction.
 Total Energy, E(TD-HF/TD-DFT) =  -539.656403426    
 Copying the excited state density for this state as the 1-particle RhoCI density.
 SavETr:  write IOETrn=   770 NScale= 10 NData=  16 NLR=1 NState=    1 LETran=      28.

 **********************************************************************

            Population analysis using the SCF Density.

 **********************************************************************

 Orbital symmetries:
       Occupied  (A') (A') (A') (A') (A') (A') (A') (A') (A') (A')
                 (A') (A') (A') (A') (A') (A') (A') (A') (A') (A')
                 (A') (A') (A') (A') (A') (A') (A') (A') (A') (A')
                 (A') (A') (A") (A') (A') (A') (A') (A") (A") (A')
                 (A') (A') (A') (A") (A") (A") (A")
       Virtual   (A") (A") (A") (A") (A') (A') (A') (A') (A") (A')
                 (A') (A") (A') (A') (A") (A') (A") (A') (A') (A')
                 (A") (A") (A') (A') (A') (A") (A') (A") (A') (A')
                 (A") (A') (A") (A') (A') (A') (A') (A') (A") (A')
                 (A") (A') (A') (A") (A") (A') (A") (A') (A") (A')
                 (A') (A') (A') (A') (A') (A") (A') (A') (A') (A')
                 (A') (A") (A') (A') (A') (A") (A') (A') (A') (A')
                 (A') (A') (A') (A') (A') (A') (A') (A') (A') (A')
                 (A') (A') (A') (A') (A') (A') (A') (A') (A') (A')
                 (A') (A') (A') (A') (A") (A') (A") (A") (A') (A")
                 (A') (A') (A') (A') (A") (A") (A') (A") (A") (A')
                 (A') (A') (A") (A') (A') (A") (A') (A") (A') (A")
                 (A") (A') (A") (A') (A') (A') (A") (A') (A') (A')
                 (A') (A') (A') (A') (A') (A') (A') (A') (A') (A')
                 (A') (A') (A') (A") (A') (A') (A') (A') (A') (A')
                 (A') (A') (A") (A') (A") (A') (A") (A") (A') (A")
                 (A") (A') (A') (A") (A") (A") (A') (A") (A') (A')
                 (A') (A') (A') (A") (A") (A') (A') (A') (A') (A")
                 (A') (A') (A') (A") (A') (A") (A') (A') (A") (A")
                 (A") (A') (A') (A") (A') (A") (A') (A') (A') (A')
                 (A") (A") (A") (A') (A") (A') (A') (A") (A') (A')
                 (A') (A") (A') (A") (A") (A') (A") (A') (A') (A")
                 (A') (A') (A') (A') (A") (A') (A') (A') (A") (A")
                 (A') (A') (A') (A") (A') (A') (A') (A") (A") (A')
                 (A") (A') (A') (A") (A') (A') (A') (A') (A') (A')
                 (A") (A') (A') (A') (A') (A") (A") (A") (A') (A')
                 (A') (A') (A') (A') (A') (A') (A") (A') (A') (A')
                 (A') (A") (A') (A") (A") (A") (A') (A") (A") (A')
                 (A') (A") (A") (A') (A") (A") (A') (A') (A') (A')
                 (A') (A') (A') (A') (A') (A') (A') (A') (A') (A')
                 (A') (A') (A') (A") (A') (A') (A') (A') (A') (A')
                 (A') (A') (A') (A') (A') (A') (A') (A') (A') (A')
                 (A') (A') (A') (A') (A') (A') (A') (A') (A') (A')
                 (A') (A')
 The electronic state is 1-A'.
 Alpha  occ. eigenvalues --  -10.77642 -10.73330 -10.73044 -10.72532 -10.72298
 Alpha  occ. eigenvalues --  -10.71499 -10.71273 -10.71224 -10.70952 -10.70758
 Alpha  occ. eigenvalues --  -10.70035 -10.69906 -10.69698 -10.69533  -1.16501
 Alpha  occ. eigenvalues --   -1.12500  -1.06944  -1.05823  -1.01313  -1.00262
 Alpha  occ. eigenvalues --   -0.95759  -0.91075  -0.86427  -0.85920  -0.83830
 Alpha  occ. eigenvalues --   -0.78404  -0.76084  -0.74420  -0.69556  -0.69264
 Alpha  occ. eigenvalues --   -0.68506  -0.68203  -0.68087  -0.64801  -0.64298
 Alpha  occ. eigenvalues --   -0.63109  -0.61854  -0.60018  -0.59632  -0.59086
 Alpha  occ. eigenvalues --   -0.56926  -0.55210  -0.54850  -0.52432  -0.46711
 Alpha  occ. eigenvalues --   -0.46065  -0.44411
 Alpha virt. eigenvalues --   -0.26069  -0.14674  -0.14094  -0.12768  -0.11182
 Alpha virt. eigenvalues --   -0.10093  -0.09232  -0.07981  -0.07957  -0.07478
 Alpha virt. eigenvalues --   -0.07211  -0.07148  -0.05640  -0.05584  -0.05338
 Alpha virt. eigenvalues --   -0.03829  -0.03650  -0.03281  -0.03129  -0.02162
 Alpha virt. eigenvalues --   -0.01370  -0.00933   0.00183   0.00593   0.00691
 Alpha virt. eigenvalues --    0.01060   0.01509   0.01932   0.02215   0.02275
 Alpha virt. eigenvalues --    0.02451   0.02674   0.02756   0.03240   0.03378
 Alpha virt. eigenvalues --    0.04236   0.04512   0.04692   0.05027   0.05366
 Alpha virt. eigenvalues --    0.06028   0.06304   0.06598   0.07061   0.07247
 Alpha virt. eigenvalues --    0.07896   0.08166   0.08373   0.08566   0.08927
 Alpha virt. eigenvalues --    0.09544   0.09570   0.10050   0.10893   0.11070
 Alpha virt. eigenvalues --    0.11109   0.12189   0.12252   0.12901   0.13019
 Alpha virt. eigenvalues --    0.13420   0.13521   0.14032   0.14368   0.16217
 Alpha virt. eigenvalues --    0.16288   0.16387   0.17348   0.17619   0.17793
 Alpha virt. eigenvalues --    0.18139   0.19043   0.19246   0.19656   0.19774
 Alpha virt. eigenvalues --    0.21583   0.21633   0.22731   0.23134   0.23581
 Alpha virt. eigenvalues --    0.23728   0.24530   0.25231   0.26927   0.27622
 Alpha virt. eigenvalues --    0.28876   0.29312   0.29909   0.31385   0.35878
 Alpha virt. eigenvalues --    0.36475   0.38181   0.39286   0.41163   0.41393
 Alpha virt. eigenvalues --    0.42017   0.42156   0.42981   0.43727   0.44307
 Alpha virt. eigenvalues --    0.44914   0.45061   0.46062   0.46230   0.47885
 Alpha virt. eigenvalues --    0.48526   0.48902   0.49006   0.50446   0.51287
 Alpha virt. eigenvalues --    0.51596   0.51817   0.52115   0.52943   0.53991
 Alpha virt. eigenvalues --    0.54088   0.54700   0.55677   0.55778   0.57328
 Alpha virt. eigenvalues --    0.58243   0.58831   0.61465   0.62153   0.62362
 Alpha virt. eigenvalues --    0.63232   0.63497   0.65058   0.65169   0.67414
 Alpha virt. eigenvalues --    0.70372   0.70540   0.71071   0.72445   0.72896
 Alpha virt. eigenvalues --    0.75741   0.76033   0.76330   0.76890   0.77109
 Alpha virt. eigenvalues --    0.77859   0.77942   0.78286   0.79858   0.80409
 Alpha virt. eigenvalues --    0.81288   0.81612   0.82153   0.83027   0.85236
 Alpha virt. eigenvalues --    0.87190   0.88245   0.88614   0.89121   0.90457
 Alpha virt. eigenvalues --    0.91169   0.91254   0.93204   0.94654   0.96461
 Alpha virt. eigenvalues --    0.96673   1.00352   1.01327   1.01664   1.02730
 Alpha virt. eigenvalues --    1.03212   1.03787   1.04753   1.05482   1.08818
 Alpha virt. eigenvalues --    1.19587   1.23222   1.24116   1.25242   1.28253
 Alpha virt. eigenvalues --    1.29604   1.31867   1.34218   1.35806   1.36013
 Alpha virt. eigenvalues --    1.39406   1.40153   1.40982   1.42927   1.43530
 Alpha virt. eigenvalues --    1.43544   1.44915   1.45739   1.46397   1.46686
 Alpha virt. eigenvalues --    1.47646   1.48075   1.51825   1.53635   1.55802
 Alpha virt. eigenvalues --    1.56080   1.56353   1.56561   1.57834   1.61521
 Alpha virt. eigenvalues --    1.63174   1.63444   1.63798   1.66160   1.68352
 Alpha virt. eigenvalues --    1.68393   1.68657   1.69707   1.74467   1.76025
 Alpha virt. eigenvalues --    1.77249   1.78049   1.80188   1.80192   1.80767
 Alpha virt. eigenvalues --    1.83175   1.83199   1.83686   1.83815   1.84126
 Alpha virt. eigenvalues --    1.84326   1.85797   1.86148   1.88258   1.91419
 Alpha virt. eigenvalues --    1.92133   1.94162   1.95264   1.97722   1.98197
 Alpha virt. eigenvalues --    1.99802   2.02731   2.04507   2.07268   2.11839
 Alpha virt. eigenvalues --    2.12128   2.14134   2.15218   2.19210   2.21398
 Alpha virt. eigenvalues --    2.22796   2.28491   2.30444   2.34742   2.34994
 Alpha virt. eigenvalues --    2.36236   2.38683   2.39605   2.42415   2.44272
 Alpha virt. eigenvalues --    2.46205   2.46895   2.49406   2.52968   2.53840
 Alpha virt. eigenvalues --    2.54459   2.56640   2.57863   2.58306   2.59646
 Alpha virt. eigenvalues --    2.59850   2.61635   2.62181   2.63581   2.63861
 Alpha virt. eigenvalues --    2.64801   2.65160   2.65205   2.65407   2.68154
 Alpha virt. eigenvalues --    2.68673   2.70987   2.71427   2.73363   2.74839
 Alpha virt. eigenvalues --    2.76301   2.79048   2.79767   2.83104   2.83108
 Alpha virt. eigenvalues --    2.84934   2.86398   2.92160   2.96964   2.99538
 Alpha virt. eigenvalues --    3.00120   3.05532   3.11147   3.11613   3.13294
 Alpha virt. eigenvalues --    3.21227   3.24256   3.26904   3.28397   3.30777
 Alpha virt. eigenvalues --    3.32811   3.33769   3.43453   3.45948   3.46902
 Alpha virt. eigenvalues --    3.48766   3.50326   3.56677   3.64918   3.67170
 Alpha virt. eigenvalues --    3.67536   3.94166   3.94506   3.95186   3.96293
 Alpha virt. eigenvalues --    4.04038   4.06945   4.07655   4.12529   4.35812
 Alpha virt. eigenvalues --    4.61937   4.69916   4.71677  23.45318  23.60631
 Alpha virt. eigenvalues --   23.82209  23.85703  23.87900  23.89322  23.90562
 Alpha virt. eigenvalues --   23.92886  23.97597  23.98971  24.00399  24.01453
 Alpha virt. eigenvalues --   24.10647  24.10938
          Condensed to atoms (all electrons):
               1          2          3          4          5          6
     1  C    8.457571   0.489891  -0.604468   1.768343   0.010007  -0.091049
     2  C    0.489891   7.062270   0.398789  -0.978246  -0.036426  -0.015464
     3  C   -0.604468   0.398789   6.587671   0.723409  -0.115848   0.016924
     4  C    1.768343  -0.978246   0.723409  10.880343  -0.289796  -0.122603
     5  C    0.010007  -0.036426  -0.115848  -0.289796  10.672069   0.751708
     6  C   -0.091049  -0.015464   0.016924  -0.122603   0.751708   6.579711
     7  C   -0.030862   0.003983  -0.014825  -0.022853  -1.034427   0.353034
     8  C    0.405722  -0.022250  -0.097362  -0.009401   1.919228  -0.537595
     9  C   -1.288266  -0.780234   0.283660  -0.219854  -0.343160   0.282531
    10  C   -1.194447   0.203177  -0.335646  -2.598152  -2.490855  -0.383700
    11  C    0.233228  -0.920683   0.991975  -0.215051  -1.472674  -0.163285
    12  C   -1.697452   1.183899  -1.336096  -1.417342  -0.281203  -0.223582
    13  C    0.136987  -0.227679  -0.195543  -1.519624  -0.228077   1.058574
    14  C   -1.084885  -0.237576  -0.178701  -0.354762  -1.427375  -1.379271
    15  H    0.363691  -0.101710  -0.002680   0.025419   0.006274   0.001135
    16  H   -0.020119   0.378472  -0.016997   0.014779  -0.001600  -0.000336
    17  H   -0.020534  -0.018975   0.375947  -0.066519   0.000243   0.000395
    18  H    0.047331   0.003043  -0.085235   0.453917   0.007952  -0.004887
    19  H   -0.045979  -0.007560   0.050395  -0.073318  -0.068173   0.050513
    20  H    0.007532   0.001925  -0.004968   0.007861   0.450938  -0.085231
    21  H   -0.001309  -0.000403   0.000388   0.000366  -0.065717   0.372444
    22  H    0.000593   0.000345  -0.000320  -0.001519   0.012713  -0.014172
    23  H    0.006223  -0.002669   0.001058   0.005832   0.026856  -0.001543
    24  H    0.032819   0.014629  -0.001372  -0.012153  -0.012662  -0.001512
    25  H    0.032819   0.014629  -0.001372  -0.012153  -0.012662  -0.001512
               7          8          9         10         11         12
     1  C   -0.030862   0.405722  -1.288266  -1.194447   0.233228  -1.697452
     2  C    0.003983  -0.022250  -0.780234   0.203177  -0.920683   1.183899
     3  C   -0.014825  -0.097362   0.283660  -0.335646   0.991975  -1.336096
     4  C   -0.022853  -0.009401  -0.219854  -2.598152  -0.215051  -1.417342
     5  C   -1.034427   1.919228  -0.343160  -2.490855  -1.472674  -0.281203
     6  C    0.353034  -0.537595   0.282531  -0.383700  -0.163285  -0.223582
     7  C    7.056339   0.355482  -0.756108   0.256705  -0.249751  -0.179691
     8  C    0.355482   8.590482  -1.275147  -1.252093   0.147123  -1.043925
     9  C   -0.756108  -1.275147   9.674340   0.250405   1.816534  -2.064083
    10  C    0.256705  -1.252093   0.250405   9.280655  -0.556426   2.413809
    11  C   -0.249751   0.147123   1.816534  -0.556426  14.713297  -3.938325
    12  C   -0.179691  -1.043925  -2.064083   2.413809  -3.938325  16.074544
    13  C   -0.977558   0.229960   1.769411  -0.611906   1.087963  -4.863917
    14  C    1.368188  -1.904488  -1.960340   2.443343  -4.886609   2.916302
    15  H   -0.002811   0.005720   0.090779  -0.009089  -0.029067  -0.020849
    16  H    0.000367   0.000774   0.004472  -0.010328   0.029998  -0.035855
    17  H   -0.000390  -0.001354  -0.005748   0.020625  -0.028192   0.088350
    18  H    0.001929   0.007615  -0.025240   0.016722  -0.011592  -0.047870
    19  H   -0.007271  -0.047699   0.076671   0.422379   0.076861  -0.070949
    20  H    0.002837   0.049161  -0.026168   0.018486  -0.011710  -0.010128
    21  H   -0.015182  -0.023961  -0.006265   0.020984  -0.006400   0.005321
    22  H    0.376140  -0.019360   0.005016  -0.009710   0.003073  -0.008798
    23  H   -0.102293   0.364393   0.093145  -0.010128   0.002842   0.006477
    24  H    0.013779   0.029803   0.358446   0.005724   0.016484  -0.059236
    25  H    0.013779   0.029803   0.358446   0.005724   0.016484  -0.059236
              13         14         15         16         17         18
     1  C    0.136987  -1.084885   0.363691  -0.020119  -0.020534   0.047331
     2  C   -0.227679  -0.237576  -0.101710   0.378472  -0.018975   0.003043
     3  C   -0.195543  -0.178701  -0.002680  -0.016997   0.375947  -0.085235
     4  C   -1.519624  -0.354762   0.025419   0.014779  -0.066519   0.453917
     5  C   -0.228077  -1.427375   0.006274  -0.001600   0.000243   0.007952
     6  C    1.058574  -1.379271   0.001135  -0.000336   0.000395  -0.004887
     7  C   -0.977558   1.368188  -0.002811   0.000367  -0.000390   0.001929
     8  C    0.229960  -1.904488   0.005720   0.000774  -0.001354   0.007615
     9  C    1.769411  -1.960340   0.090779   0.004472  -0.005748  -0.025240
    10  C   -0.611906   2.443343  -0.009089  -0.010328   0.020625   0.016722
    11  C    1.087963  -4.886609  -0.029067   0.029998  -0.028192  -0.011592
    12  C   -4.863917   2.916302  -0.020849  -0.035855   0.088350  -0.047870
    13  C   14.687120  -3.754684   0.000026   0.003276  -0.006380  -0.011742
    14  C   -3.754684  16.002465   0.007049  -0.009522   0.005211  -0.013698
    15  H    0.000026   0.007049   0.436816  -0.008893   0.001515   0.000239
    16  H    0.003276  -0.009522  -0.008893   0.418199  -0.006788   0.001913
    17  H   -0.006380   0.005211   0.001515  -0.006788   0.421653  -0.010038
    18  H   -0.011742  -0.013698   0.000239   0.001913  -0.010038   0.451194
    19  H    0.079070  -0.059065   0.000315  -0.000543   0.001474  -0.005904
    20  H   -0.009853  -0.053046  -0.000114   0.000015  -0.000148   0.001298
    21  H   -0.029194   0.092046   0.000013  -0.000007   0.000010  -0.000134
    22  H    0.030413  -0.036877  -0.000124   0.000007  -0.000007   0.000013
    23  H   -0.030329  -0.027351   0.000618  -0.000127   0.000012  -0.000107
    24  H    0.009876  -0.059716  -0.000885   0.000625  -0.000138   0.000159
    25  H    0.009876  -0.059716  -0.000885   0.000625  -0.000138   0.000159
              19         20         21         22         23         24
     1  C   -0.045979   0.007532  -0.001309   0.000593   0.006223   0.032819
     2  C   -0.007560   0.001925  -0.000403   0.000345  -0.002669   0.014629
     3  C    0.050395  -0.004968   0.000388  -0.000320   0.001058  -0.001372
     4  C   -0.073318   0.007861   0.000366  -0.001519   0.005832  -0.012153
     5  C   -0.068173   0.450938  -0.065717   0.012713   0.026856  -0.012662
     6  C    0.050513  -0.085231   0.372444  -0.014172  -0.001543  -0.001512
     7  C   -0.007271   0.002837  -0.015182   0.376140  -0.102293   0.013779
     8  C   -0.047699   0.049161  -0.023961  -0.019360   0.364393   0.029803
     9  C    0.076671  -0.026168  -0.006265   0.005016   0.093145   0.358446
    10  C    0.422379   0.018486   0.020984  -0.009710  -0.010128   0.005724
    11  C    0.076861  -0.011710  -0.006400   0.003073   0.002842   0.016484
    12  C   -0.070949  -0.010128   0.005321  -0.008798   0.006477  -0.059236
    13  C    0.079070  -0.009853  -0.029194   0.030413  -0.030329   0.009876
    14  C   -0.059065  -0.053046   0.092046  -0.036877  -0.027351  -0.059716
    15  H    0.000315  -0.000114   0.000013  -0.000124   0.000618  -0.000885
    16  H   -0.000543   0.000015  -0.000007   0.000007  -0.000127   0.000625
    17  H    0.001474  -0.000148   0.000010  -0.000007   0.000012  -0.000138
    18  H   -0.005904   0.001298  -0.000134   0.000013  -0.000107   0.000159
    19  H    0.442564  -0.006198   0.001308  -0.000507   0.000257   0.000633
    20  H   -0.006198   0.454203  -0.010164   0.001889   0.000191   0.000182
    21  H    0.001308  -0.010164   0.423122  -0.006493   0.001398  -0.000143
    22  H   -0.000507   0.001889  -0.006493   0.419994  -0.008908   0.000627
    23  H    0.000257   0.000191   0.001398  -0.008908   0.439707  -0.000874
    24  H    0.000633   0.000182  -0.000143   0.000627  -0.000874   0.495131
    25  H    0.000633   0.000182  -0.000143   0.000627  -0.000874  -0.081232
              25
     1  C    0.032819
     2  C    0.014629
     3  C   -0.001372
     4  C   -0.012153
     5  C   -0.012662
     6  C   -0.001512
     7  C    0.013779
     8  C    0.029803
     9  C    0.358446
    10  C    0.005724
    11  C    0.016484
    12  C   -0.059236
    13  C    0.009876
    14  C   -0.059716
    15  H   -0.000885
    16  H    0.000625
    17  H   -0.000138
    18  H    0.000159
    19  H    0.000633
    20  H    0.000182
    21  H   -0.000143
    22  H    0.000627
    23  H   -0.000874
    24  H   -0.081232
    25  H    0.495131
 Mulliken charges:
               1
     1  C    0.086613
     2  C   -0.405177
     3  C   -0.438782
     4  C    0.033077
     5  C    0.022666
     6  C   -0.441226
     7  C   -0.408541
     8  C    0.099370
     9  C   -0.313243
    10  C    0.103740
    11  C   -0.646097
    12  C    0.669834
    13  C   -0.636067
    14  C    0.653076
    15  H    0.237497
    16  H    0.257593
    17  H    0.249913
    18  H    0.222963
    19  H    0.190094
    20  H    0.221028
    21  H    0.248115
    22  H    0.255343
    23  H    0.236196
    24  H    0.251006
    25  H    0.251006
 Sum of Mulliken charges =   1.00000
 Mulliken charges with hydrogens summed into heavy atoms:
               1
     1  C    0.324111
     2  C   -0.147584
     3  C   -0.188869
     4  C    0.256040
     5  C    0.243694
     6  C   -0.193111
     7  C   -0.153198
     8  C    0.335567
     9  C    0.188770
    10  C    0.293835
    11  C   -0.646097
    12  C    0.669834
    13  C   -0.636067
    14  C    0.653076
 Electronic spatial extent (au):  <R**2>=           2853.2397
 Charge=              1.0000 electrons
 Dipole moment (field-independent basis, Debye):
    X=              0.0262    Y=             -0.3314    Z=             -0.0000  Tot=              0.3324
 Quadrupole moment (field-independent basis, Debye-Ang):
   XX=            -50.7900   YY=            -36.6162   ZZ=            -84.1392
   XY=             10.3560   XZ=             -0.0000   YZ=              0.0000
 Traceless Quadrupole moment (field-independent basis, Debye-Ang):
   XX=              6.3918   YY=             20.5656   ZZ=            -26.9574
   XY=             10.3560   XZ=             -0.0000   YZ=              0.0000
 Octapole moment (field-independent basis, Debye-Ang**2):
  XXX=             -0.5998  YYY=              2.7512  ZZZ=             -0.0000  XYY=             -1.1378
  XXY=             -5.9072  XXZ=              0.0000  XZZ=             -2.8846  YZZ=              1.0809
  YYZ=             -0.0000  XYZ=              0.0000
 Hexadecapole moment (field-independent basis, Debye-Ang**3):
 XXXX=           -995.7321 YYYY=          -1841.5449 ZZZZ=            -99.3060 XXXY=           -349.9857
 XXXZ=              0.0000 YYYX=           -277.3613 YYYZ=             -0.0000 ZZZX=             -0.0000
 ZZZY=              0.0000 XXYY=           -453.4348 XXZZ=           -243.5893 YYZZ=           -492.1771
 XXYZ=             -0.0000 YYXZ=             -0.0000 ZZXY=           -184.2720
 N-N= 7.815978762611D+02 E-N=-2.799552019757D+03  KE= 5.375286675687D+02
 Symmetry A'   KE= 5.228809659206D+02
 Symmetry A"   KE= 1.464770164808D+01
 Unable to Open any file for archive entry.
 1\1\GINC-GADI-CPU-CLX-1762\SP\RM062X TD-FC\6-311++G(d,p)\C14H11(1+)\TS
 1578\02-Aug-2022\0\\#n M062X/6-311++G(d,p) TD(NStates=1) EmpiricalDisp
 ersion=GD3 SP\\SP_-75\\1,1\C,0,2.482005,1.361931,0.\C,0,3.691383,0.669
 164,0.\C,0,3.680361,-0.71803,0.\C,0,2.470756,-1.411688,0.\C,0,-2.45515
 6,-1.402588,0.\C,0,-3.684961,-0.70563,0.\C,0,-3.707833,0.676214,0.\C,0
 ,-2.495705,1.361331,0.\C,0,-0.004275,1.444569,0.\C,0,0.0122,-1.428789,
 0.\C,0,1.26358,0.68079,0.\C,0,1.243271,-0.732004,0.\C,0,-1.25993,0.673
 14,0.\C,0,-1.233271,-0.730804,0.\H,0,2.481571,2.445172,0.\H,0,4.626128
 ,1.210314,0.\H,0,4.610112,-1.269624,0.\H,0,2.4718,-2.494184,0.\H,0,0.0
 1125,-2.510066,0.\H,0,-2.4645,-2.485334,0.\H,0,-4.607212,-1.270074,0.\
 H,0,-4.642778,1.216064,0.\H,0,-2.485771,2.444722,0.\H,0,-0.016,2.14378
 7,-0.857385\H,0,-0.016,2.143787,0.857385\\Version=ES64L-G16RevC.01\Sta
 te=1-A'\HF=-539.759601\RMSD=5.841e-09\PG=CS [SG(C14H9),X(H2)]\\@
 The archive entry for this job was punched.


 THE NUMBERS ARE MEANINGLESS, BUT THE TRENDS ARE IMPORTANT.
     -- LARRY BURGGRAF
 Job cpu time:       0 days  0 hours 52 minutes 20.0 seconds.
 Elapsed time:       0 days  0 hours  1 minutes  5.9 seconds.
 File lengths (MBytes):  RWF=    460 Int=      0 D2E=      0 Chk=     15 Scr=      1
 Normal termination of Gaussian 16 at Tue Aug  2 11:18:19 2022.
