 Entering Gaussian System, Link 0=g16
 Initial command:
 /apps/gaussian/g16c01/g16/l1.exe "/jobfs/53796104.gadi-pbs/Gau-3610245.inp" -scrdir="/jobfs/53796104.gadi-pbs/"
 Entering Link 1 = /apps/gaussian/g16c01/g16/l1.exe PID=   3610246.
  
 Copyright (c) 1988-2019, Gaussian, Inc.  All Rights Reserved.
  
 This is part of the Gaussian(R) 16 program.  It is based on
 the Gaussian(R) 09 system (copyright 2009, Gaussian, Inc.),
 the Gaussian(R) 03 system (copyright 2003, Gaussian, Inc.),
 the Gaussian(R) 98 system (copyright 1998, Gaussian, Inc.),
 the Gaussian(R) 94 system (copyright 1995, Gaussian, Inc.),
 the Gaussian 92(TM) system (copyright 1992, Gaussian, Inc.),
 the Gaussian 90(TM) system (copyright 1990, Gaussian, Inc.),
 the Gaussian 88(TM) system (copyright 1988, Gaussian, Inc.),
 the Gaussian 86(TM) system (copyright 1986, Carnegie Mellon
 University), and the Gaussian 82(TM) system (copyright 1983,
 Carnegie Mellon University). Gaussian is a federally registered
 trademark of Gaussian, Inc.
  
 This software contains proprietary and confidential information,
 including trade secrets, belonging to Gaussian, Inc.
  
 This software is provided under written license and may be
 used, copied, transmitted, or stored only in accord with that
 written license.
  
 The following legend is applicable only to US Government
 contracts under FAR:
  
                    RESTRICTED RIGHTS LEGEND
  
 Use, reproduction and disclosure by the US Government is
 subject to restrictions as set forth in subparagraphs (a)
 and (c) of the Commercial Computer Software - Restricted
 Rights clause in FAR 52.227-19.
  
 Gaussian, Inc.
 340 Quinnipiac St., Bldg. 40, Wallingford CT 06492
  
  
 ---------------------------------------------------------------
 Warning -- This program may not be used in any manner that
 competes with the business of Gaussian, Inc. or will provide
 assistance to any competitor of Gaussian, Inc.  The licensee
 of this program is prohibited from giving any competitor of
 Gaussian, Inc. access to this program.  By using this program,
 the user acknowledges that Gaussian, Inc. is engaged in the
 business of creating and licensing software in the field of
 computational chemistry and represents and warrants to the
 licensee that it is not a competitor of Gaussian, Inc. and that
 it will not use this program in any manner prohibited above.
 ---------------------------------------------------------------
  

 Cite this work as:
 Gaussian 16, Revision C.01,
 M. J. Frisch, G. W. Trucks, H. B. Schlegel, G. E. Scuseria, 
 M. A. Robb, J. R. Cheeseman, G. Scalmani, V. Barone, 
 G. A. Petersson, H. Nakatsuji, X. Li, M. Caricato, A. V. Marenich, 
 J. Bloino, B. G. Janesko, R. Gomperts, B. Mennucci, H. P. Hratchian, 
 J. V. Ortiz, A. F. Izmaylov, J. L. Sonnenberg, D. Williams-Young, 
 F. Ding, F. Lipparini, F. Egidi, J. Goings, B. Peng, A. Petrone, 
 T. Henderson, D. Ranasinghe, V. G. Zakrzewski, J. Gao, N. Rega, 
 G. Zheng, W. Liang, M. Hada, M. Ehara, K. Toyota, R. Fukuda, 
 J. Hasegawa, M. Ishida, T. Nakajima, Y. Honda, O. Kitao, H. Nakai, 
 T. Vreven, K. Throssell, J. A. Montgomery, Jr., J. E. Peralta, 
 F. Ogliaro, M. J. Bearpark, J. J. Heyd, E. N. Brothers, K. N. Kudin, 
 V. N. Staroverov, T. A. Keith, R. Kobayashi, J. Normand, 
 K. Raghavachari, A. P. Rendell, J. C. Burant, S. S. Iyengar, 
 J. Tomasi, M. Cossi, J. M. Millam, M. Klene, C. Adamo, R. Cammi, 
 J. W. Ochterski, R. L. Martin, K. Morokuma, O. Farkas, 
 J. B. Foresman, and D. J. Fox, Gaussian, Inc., Wallingford CT, 2019.
 
 ******************************************
 Gaussian 16:  ES64L-G16RevC.01  3-Jul-2019
                 2-Aug-2022 
 ******************************************
 %NProcShared=48
 Will use up to   48 processors via shared memory.
 %mem = 190GB
 ---------------------------------------------------------------
 #n M062X/6-311++G(d,p) TD(NStates=1) EmpiricalDispersion=GD3 SP
 ---------------------------------------------------------------
 1/38=1,172=1/1;
 2/12=2,17=6,18=5,40=1/2;
 3/5=4,6=6,7=1111,11=9,25=1,30=1,74=-55,124=31/1,2,3,8;
 4//1;
 5/5=2,38=5/2;
 8/6=1,10=2,108=1/1;
 9/41=1,42=1,70=2/14;
 6/7=2,8=2,9=2,10=2/1;
 99/5=1,9=1/99;
 ------
 SP_-75
 ------
 Symbolic Z-matrix:
 Charge =  1 Multiplicity = 1
 C                     2.50931   1.35983   0. 
 C                     3.72183   0.68089   0. 
 C                     3.68946  -0.69808   0. 
 C                     2.44363  -1.39611   0. 
 C                    -2.48263  -1.41886   0. 
 C                    -3.67796  -0.72908   0. 
 C                    -3.68071   0.66326   0. 
 C                    -2.47506   1.36133   0. 
 C                     0.01095   1.45227   0. 
 C                    -0.0305   -1.42914   0. 
 C                     1.25745   0.66749   0. 
 C                     1.22507  -0.72938   0. 
 C                    -1.26658   0.68662   0. 
 C                    -1.25007  -0.73238   0. 
 H                     2.49277   2.44325   0. 
 H                     4.65728   1.21906   0. 
 H                     4.60556  -1.2726    0. 
 H                     2.4585   -2.47896   0. 
 H                    -0.02813  -2.51024   0. 
 H                    -2.47675  -2.50108   0. 
 H                    -4.61281  -1.27147   0. 
 H                    -4.61565   1.20469   0. 
 H                    -2.48227   2.44437   0. 
 H                     0.04      2.14554  -0.85931 
 H                     0.04      2.14554   0.85931 
 
                          Input orientation:                          
 ---------------------------------------------------------------------
 Center     Atomic      Atomic             Coordinates (Angstroms)
 Number     Number       Type             X           Y           Z
 ---------------------------------------------------------------------
      1          6           0        2.509305    1.359831    0.000000
      2          6           0        3.721833    0.680889    0.000000
      3          6           0        3.689461   -0.698080    0.000000
      4          6           0        2.443631   -1.396113    0.000000
      5          6           0       -2.482631   -1.418863    0.000000
      6          6           0       -3.677961   -0.729080    0.000000
      7          6           0       -3.680708    0.663264    0.000000
      8          6           0       -2.475055    1.361331    0.000000
      9          6           0        0.010950    1.452269    0.000000
     10          6           0       -0.030500   -1.429139    0.000000
     11          6           0        1.257455    0.667490    0.000000
     12          6           0        1.225071   -0.729379    0.000000
     13          6           0       -1.266580    0.686615    0.000000
     14          6           0       -1.250071   -0.732379    0.000000
     15          1           0        2.492771    2.443247    0.000000
     16          1           0        4.657278    1.219064    0.000000
     17          1           0        4.605562   -1.272599    0.000000
     18          1           0        2.458500   -2.478959    0.000000
     19          1           0       -0.028125   -2.510241    0.000000
     20          1           0       -2.476750   -2.501084    0.000000
     21          1           0       -4.612812   -1.271474    0.000000
     22          1           0       -4.615653    1.204689    0.000000
     23          1           0       -2.482271    2.444372    0.000000
     24          1           0        0.040000    2.145537   -0.859310
     25          1           0        0.040000    2.145537    0.859310
 ---------------------------------------------------------------------
                    Distance matrix (angstroms):
                    1          2          3          4          5
     1  C    0.000000
     2  C    1.389671   0.000000
     3  C    2.372291   1.379349   0.000000
     4  C    2.756726   2.438798   1.428055   0.000000
     5  C    5.713192   6.550140   6.214036   4.926315   0.000000
     6  C    6.530376   7.532925   7.367487   6.157826   1.380078
     7  C    6.229082   7.402562   7.494841   6.461313   2.402216
     8  C    4.984360   6.234134   6.499418   5.638880   2.780204
     9  C    2.500064   3.790208   4.260921   3.745827   3.802808
    10  C    3.772130   4.304907   3.791116   2.474351   2.452153
    11  C    1.430547   2.464414   2.789164   2.380225   4.282652
    12  C    2.452357   2.867521   2.464589   1.389037   3.771265
    13  C    3.835431   4.988416   5.145845   4.254812   2.431423
    14  C    4.302354   5.168864   4.939651   3.752863   1.410838
    15  H    1.083542   2.148604   3.361548   3.839674   6.298454
    16  H    2.152581   1.079208   2.147583   3.426278   7.611633
    17  H    3.365112   2.144083   1.081348   2.165456   7.089702
    18  H    3.839126   3.403035   2.164901   1.082948   5.053571
    19  H    4.627743   4.923972   4.135743   2.711247   2.686207
    20  H    6.306141   6.967595   6.424405   5.042927   1.082237
    21  H    7.592649   8.560259   8.322050   7.057544   2.135274
    22  H    7.126647   8.353924   8.520296   7.523142   3.381244
    23  H    5.108039   6.449867   6.925697   6.246106   3.863235
    24  H    2.730058   4.054566   4.705649   4.365678   4.450509
    25  H    2.730058   4.054566   4.705649   4.365678   4.450509
                    6          7          8          9         10
     6  C    0.000000
     7  C    1.392347   0.000000
     8  C    2.411805   1.393161   0.000000
     9  C    4.285598   3.775032   2.487668   0.000000
    10  C    3.714035   4.207395   3.709794   2.881706   0.000000
    11  C    5.129205   4.938165   3.796452   1.472974   2.460626
    12  C    4.903032   5.099620   4.249941   2.496733   1.437401
    13  C    2.796239   2.414241   1.384071   1.489399   2.450369
    14  C    2.427892   2.802823   2.425739   2.522471   1.404574
    15  H    6.938414   6.424966   5.084274   2.672353   4.621934
    16  H    8.559876   8.356490   7.133752   4.652177   5.384073
    17  H    8.301335   8.509397   7.554649   5.341850   4.638704
    18  H    6.381084   6.896625   6.252023   4.630881   2.701341
    19  H    4.061261   4.838646   4.580015   3.962703   1.081105
    20  H    2.140772   3.385648   3.862415   4.670937   2.670806
    21  H    1.080804   2.147564   3.391411   5.366372   4.585024
    22  H    2.149123   1.080400   2.146322   4.633223   5.287786
    23  H    3.391235   2.146764   1.083065   2.683360   4.584241
    24  H    4.777559   4.096244   2.771082   1.104481   3.677185
    25  H    4.777559   4.096244   2.771082   1.104481   3.677185
                   11         12         13         14         15
    11  C    0.000000
    12  C    1.397244   0.000000
    13  C    2.524107   2.865897   0.000000
    14  C    2.871815   2.475144   1.419090   0.000000
    15  H    2.163173   3.416521   4.149515   4.908510   0.000000
    16  H    3.444275   3.946704   5.947739   6.221326   2.486708
    17  H    3.869595   3.423859   6.190361   5.880500   4.274506
    18  H    3.367885   2.140649   4.888464   4.099273   4.922325
    19  H    3.427928   2.177606   3.428361   2.157300   5.558054
    20  H    4.897361   4.103951   3.409683   2.152454   7.010175
    21  H    6.182202   5.862998   3.877033   3.405679   8.018009
    22  H    5.897625   6.152615   3.388907   3.883217   7.215519
    23  H    4.140394   4.880275   2.137198   3.407354   4.975042
    24  H    2.098865   3.226135   2.138695   3.268807   2.615938
    25  H    2.098865   3.226135   2.138695   3.268807   2.615938
                   16         17         18         19         20
    16  H    0.000000
    17  H    2.492200   0.000000
    18  H    4.302325   2.462759   0.000000
    19  H    5.988382   4.796125   2.486822   0.000000
    20  H    8.045735   7.188068   4.935300   2.448642   0.000000
    21  H    9.598820   9.218374   7.173665   4.749094   2.464691
    22  H    9.272942   9.548181   7.975770   5.903060   4.278745
    23  H    7.243931   8.003327   6.974984   5.529107   4.945459
    24  H    4.787068   5.767705   5.289000   4.734905   5.353833
    25  H    4.787068   5.767705   5.289000   4.734905   5.353833
                   21         22         23         24         25
    21  H    0.000000
    22  H    2.476165   0.000000
    23  H    4.283307   2.467414   0.000000
    24  H    5.836355   4.826874   2.681337   0.000000
    25  H    5.836355   4.826874   2.681337   1.718620   0.000000
 Stoichiometry    C14H11(1+)
 Framework group  CS[SG(C14H9),X(H2)]
 Deg. of freedom    46
 Full point group                 CS      NOp   2
 Largest Abelian subgroup         CS      NOp   2
 Largest concise Abelian subgroup CS      NOp   2
                         Standard orientation:                         
 ---------------------------------------------------------------------
 Center     Atomic      Atomic             Coordinates (Angstroms)
 Number     Number       Type             X           Y           Z
 ---------------------------------------------------------------------
      1          6           0        0.024362    2.853568    0.000000
      2          6           0       -1.143952    3.606051    0.000000
      3          6           0       -2.346674    2.930727    0.000000
      4          6           0       -2.378887    1.503035    0.000000
      5          6           0       -0.088578   -2.858508    0.000000
      6          6           0        1.081245   -3.590717    0.000000
      7          6           0        2.312251   -2.940138    0.000000
      8          6           0        2.363336   -1.547914    0.000000
      9          6           0        1.277724    0.690374    0.000000
     10          6           0       -1.247695   -0.697606    0.000000
     11          6           0        0.000000    1.423228    0.000000
     12          6           0       -1.218526    0.739500    0.000000
     13          6           0        1.200656   -0.797029    0.000000
     14          6           0       -0.060342   -1.447952    0.000000
     15          1           0        0.988989    3.347084    0.000000
     16          1           0       -1.107357    4.684638    0.000000
     17          1           0       -3.283738    3.470380    0.000000
     18          1           0       -3.342230    1.008316    0.000000
     19          1           0       -2.203638   -1.202542    0.000000
     20          1           0       -1.047153   -3.360872    0.000000
     21          1           0        1.040645   -4.670758    0.000000
     22          1           0        3.228924   -3.511955    0.000000
     23          1           0        3.323262   -1.046345    0.000000
     24          1           0        1.876393    1.041172    0.859310
     25          1           0        1.876393    1.041172   -0.859310
 ---------------------------------------------------------------------
 Rotational constants (GHZ):           2.1367524           0.4446489           0.3688574
 Standard basis: 6-311++G(d,p) (5D, 7F)
 There are   299 symmetry adapted cartesian basis functions of A'  symmetry.
 There are   100 symmetry adapted cartesian basis functions of A"  symmetry.
 There are   285 symmetry adapted basis functions of A'  symmetry.
 There are   100 symmetry adapted basis functions of A"  symmetry.
   385 basis functions,   603 primitive gaussians,   399 cartesian basis functions
    47 alpha electrons       47 beta electrons
       nuclear repulsion energy       781.2684935932 Hartrees.
 NAtoms=   25 NActive=   25 NUniq=   24 SFac= 1.09D+00 NAtFMM=   60 NAOKFM=F Big=F
 Integral buffers will be    131072 words long.
 Regular integral format.
 Two-electron integral symmetry is turned on.
 Nuclear repulsion after empirical dispersion term =      781.2675142880 Hartrees.
 One-electron integrals computed using PRISM.
 NBasis=   385 RedAO= T EigKep=  1.12D-06  NBF=   285   100
 NBsUse=   379 1.00D-06 EigRej=  8.37D-07 NBFU=   279   100
 ExpMin= 3.60D-02 ExpMax= 4.56D+03 ExpMxC= 6.82D+02 IAcc=3 IRadAn=         5 AccDes= 0.00D+00
 Harris functional with IExCor= 1009 and IRadAn=       5 diagonalized for initial guess.
 HarFok:  IExCor= 1009 AccDes= 0.00D+00 IRadAn=         5 IDoV= 1 UseB2=F ITyADJ=14
 ICtDFT=  3500011 ScaDFX=  1.000000  1.000000  1.000000  1.000000
 FoFCou: FMM=F IPFlag=           0 FMFlag=      100000 FMFlg1=           0
         NFxFlg=           0 DoJE=T BraDBF=F KetDBF=T FulRan=T
         wScrn=  0.000000 ICntrl=       500 IOpCl=  0 I1Cent=   200000004 NGrid=           0
         NMat0=    1 NMatS0=      1 NMatT0=    0 NMatD0=    1 NMtDS0=    0 NMtDT0=    0
 Petite list used in FoFCou.
 Initial guess orbital symmetries:
       Occupied  (A') (A') (A') (A') (A') (A') (A') (A') (A') (A')
                 (A') (A') (A') (A') (A') (A') (A') (A') (A') (A')
                 (A') (A') (A') (A') (A') (A') (A') (A') (A') (A')
                 (A') (A') (A") (A') (A') (A') (A') (A') (A") (A')
                 (A") (A') (A') (A") (A") (A") (A")
       Virtual   (A") (A") (A") (A") (A") (A') (A') (A') (A') (A")
                 (A") (A') (A') (A') (A") (A') (A') (A') (A') (A")
                 (A') (A") (A') (A') (A') (A") (A') (A") (A') (A')
                 (A') (A') (A') (A') (A") (A') (A") (A') (A') (A')
                 (A") (A') (A') (A") (A') (A') (A') (A') (A') (A")
                 (A') (A') (A") (A") (A') (A') (A') (A") (A") (A')
                 (A') (A') (A') (A') (A') (A') (A") (A') (A') (A")
                 (A') (A') (A') (A') (A') (A') (A') (A') (A') (A')
                 (A') (A') (A') (A') (A') (A') (A') (A') (A') (A')
                 (A') (A') (A') (A') (A') (A') (A') (A") (A') (A")
                 (A') (A') (A") (A") (A') (A") (A') (A") (A") (A')
                 (A") (A') (A') (A') (A") (A') (A') (A") (A") (A')
                 (A") (A") (A') (A') (A') (A") (A') (A') (A') (A")
                 (A') (A') (A') (A') (A') (A') (A") (A') (A') (A')
                 (A') (A') (A') (A') (A') (A') (A') (A') (A') (A")
                 (A") (A') (A") (A") (A') (A') (A') (A") (A") (A')
                 (A") (A') (A") (A") (A") (A') (A') (A') (A') (A')
                 (A') (A") (A') (A") (A') (A') (A') (A') (A') (A")
                 (A') (A') (A') (A') (A") (A') (A") (A') (A") (A")
                 (A') (A") (A') (A") (A') (A') (A') (A") (A') (A')
                 (A") (A") (A") (A') (A') (A") (A') (A") (A') (A')
                 (A") (A") (A') (A") (A') (A") (A') (A') (A') (A")
                 (A') (A') (A') (A') (A") (A') (A') (A') (A") (A")
                 (A') (A') (A') (A") (A') (A') (A") (A') (A") (A')
                 (A") (A') (A') (A') (A') (A") (A') (A') (A') (A")
                 (A') (A') (A") (A') (A") (A') (A') (A") (A') (A')
                 (A') (A") (A') (A") (A') (A') (A') (A") (A') (A")
                 (A') (A') (A') (A') (A") (A') (A") (A') (A") (A')
                 (A") (A') (A") (A") (A") (A') (A') (A') (A') (A')
                 (A') (A') (A') (A') (A') (A') (A') (A') (A') (A')
                 (A') (A') (A') (A') (A") (A') (A') (A') (A') (A')
                 (A') (A') (A') (A') (A') (A') (A') (A') (A') (A')
                 (A') (A') (A') (A') (A') (A') (A') (A') (A') (A')
                 (A') (A')
 The electronic state of the initial guess is 1-A'.
 Requested convergence on RMS density matrix=1.00D-08 within 128 cycles.
 Requested convergence on MAX density matrix=1.00D-06.
 Requested convergence on             energy=1.00D-06.
 No special actions if energy rises.
 SCF Done:  E(RM062X) =  -539.757485176     A.U. after   15 cycles
            NFock= 15  Conv=0.82D-08     -V/T= 2.0042
 DoSCS=F DFT=T ScalE2(SS,OS)=  1.000000  1.000000
 ExpMin= 3.60D-02 ExpMax= 4.56D+03 ExpMxC= 6.82D+02 IAcc=3 IRadAn=         5 AccDes= 0.00D+00
 HarFok:  IExCor=  205 AccDes= 0.00D+00 IRadAn=         5 IDoV=-2 UseB2=F ITyADJ=14
 ICtDFT= 12500011 ScaDFX=  1.000000  1.000000  1.000000  1.000000
 Range of M.O.s used for correlation:    15   379
 NBasis=   385 NAE=    47 NBE=    47 NFC=    14 NFV=     0
 NROrb=    365 NOA=    33 NOB=    33 NVA=   332 NVB=   332

 **** Warning!!: The largest alpha MO coefficient is  0.13669942D+03

 Orbital symmetries:
       Occupied  (A') (A') (A') (A') (A') (A') (A') (A') (A') (A')
                 (A') (A') (A') (A') (A') (A') (A') (A') (A') (A')
                 (A') (A') (A') (A') (A') (A') (A') (A') (A') (A')
                 (A') (A') (A") (A') (A') (A') (A') (A") (A") (A')
                 (A') (A') (A') (A") (A") (A") (A")
       Virtual   (A") (A") (A") (A") (A') (A') (A') (A') (A") (A')
                 (A') (A") (A') (A') (A") (A') (A") (A') (A') (A')
                 (A") (A") (A') (A') (A') (A") (A') (A") (A') (A')
                 (A") (A') (A") (A') (A') (A') (A') (A') (A") (A')
                 (A") (A') (A') (A") (A") (A') (A") (A') (A") (A')
                 (A') (A') (A') (A') (A') (A") (A') (A') (A') (A')
                 (A') (A") (A') (A') (A') (A") (A') (A') (A') (A')
                 (A') (A') (A') (A') (A') (A') (A') (A') (A') (A')
                 (A') (A') (A') (A') (A') (A') (A') (A') (A') (A')
                 (A') (A') (A') (A') (A") (A') (A") (A") (A') (A")
                 (A') (A') (A') (A') (A") (A") (A') (A") (A") (A')
                 (A') (A') (A") (A') (A') (A") (A') (A") (A') (A")
                 (A") (A') (A") (A') (A') (A') (A") (A') (A') (A')
                 (A') (A') (A') (A') (A') (A') (A') (A') (A') (A')
                 (A') (A') (A') (A") (A') (A') (A') (A') (A') (A')
                 (A') (A') (A") (A') (A") (A') (A") (A") (A') (A")
                 (A") (A') (A') (A") (A") (A") (A') (A") (A') (A')
                 (A') (A') (A') (A") (A") (A') (A') (A') (A') (A")
                 (A') (A') (A') (A") (A") (A') (A') (A") (A') (A")
                 (A") (A') (A') (A") (A') (A") (A') (A') (A') (A')
                 (A") (A") (A") (A') (A") (A') (A') (A") (A') (A')
                 (A') (A") (A') (A") (A") (A') (A") (A') (A') (A")
                 (A') (A') (A') (A') (A") (A') (A') (A') (A") (A")
                 (A') (A') (A') (A") (A') (A') (A') (A") (A") (A')
                 (A") (A') (A') (A") (A') (A') (A') (A') (A') (A')
                 (A") (A') (A') (A') (A') (A") (A") (A") (A') (A')
                 (A') (A') (A') (A') (A') (A') (A") (A') (A') (A')
                 (A') (A") (A') (A") (A") (A") (A') (A") (A') (A")
                 (A') (A") (A") (A') (A") (A") (A') (A') (A') (A')
                 (A') (A') (A') (A') (A') (A') (A') (A') (A') (A')
                 (A') (A') (A') (A") (A') (A') (A') (A') (A') (A')
                 (A') (A') (A') (A') (A') (A') (A') (A') (A') (A')
                 (A') (A') (A') (A') (A') (A') (A') (A') (A') (A')
                 (A') (A')
     4 initial guesses have been made.
 Convergence on wavefunction:    0.001000000000000
 Iteration     1 Dimension     4 NMult     0 NNew      4
 CISAX will form     4 AO SS matrices at one time.
 Iteration     2 Dimension     6 NMult     4 NNew      2
 Iteration     3 Dimension     8 NMult     6 NNew      2
 Iteration     4 Dimension    10 NMult     8 NNew      2
 Iteration     5 Dimension    12 NMult    10 NNew      2
 Iteration     6 Dimension    14 NMult    12 NNew      2
 ***********************************************************************
 Excited states from <AA,BB:AA,BB> singles matrix:
 ***********************************************************************
 
 Ground to excited state transition densities written to RWF  633
 Ground to excited state transition electric dipole moments (Au):
       state          X           Y           Z        Dip. S.      Osc.
         1         0.5042      0.3047     -0.0000      0.3471      0.0233
 Ground to excited state transition velocity dipole moments (Au):
       state          X           Y           Z        Dip. S.      Osc.
         1        -0.0587     -0.0315      0.0000      0.0044      0.0293
 Ground to excited state transition magnetic dipole moments (Au):
       state          X           Y           Z
         1         0.0000      0.0000      0.1564
 Ground to excited state transition velocity quadrupole moments (Au):
       state          XX          YY          ZZ          XY          XZ          YZ
         1         0.1390      0.1542     -0.0089     -0.1366     -0.0000      0.0000
 <0|del|b> * <b|rxdel|0> + <0|del|b> * <b|delr+rdel|0>
 Rotatory Strengths (R) in cgs (10**-40 erg-esu-cm/Gauss)
       state          XX          YY          ZZ    R(velocity)    E-M Angle
         1        -0.0000     -0.0000      0.0000     -0.0000       90.00
 1/2[<0|r|b>*<b|rxdel|0> + (<0|rxdel|b>*<b|r|0>)*]
 Rotatory Strengths (R) in cgs (10**-40 erg-esu-cm/Gauss)
       state          XX          YY          ZZ     R(length)
         1        -0.0000     -0.0000      0.0000     -0.0000
  1/2[<0|del|b>*<b|r|0> + (<0|r|b>*<b|del|0>)*] (Au)
       state          X           Y           Z        Dip. S.   Osc.(frdel)
         1        -0.0296     -0.0096     -0.0000      0.0392      0.0261

 Excitation energies and oscillator strengths:
 
 Excited State   1:      Singlet-A'     2.7456 eV  451.58 nm  f=0.0233  <S**2>=0.000
      47 -> 48         0.70369
 This state for optimization and/or second-order correction.
 Total Energy, E(TD-HF/TD-DFT) =  -539.656586980    
 Copying the excited state density for this state as the 1-particle RhoCI density.
 SavETr:  write IOETrn=   770 NScale= 10 NData=  16 NLR=1 NState=    1 LETran=      28.

 **********************************************************************

            Population analysis using the SCF Density.

 **********************************************************************

 Orbital symmetries:
       Occupied  (A') (A') (A') (A') (A') (A') (A') (A') (A') (A')
                 (A') (A') (A') (A') (A') (A') (A') (A') (A') (A')
                 (A') (A') (A') (A') (A') (A') (A') (A') (A') (A')
                 (A') (A') (A") (A') (A') (A') (A') (A") (A") (A')
                 (A') (A') (A') (A") (A") (A") (A")
       Virtual   (A") (A") (A") (A") (A') (A') (A') (A') (A") (A')
                 (A') (A") (A') (A') (A") (A') (A") (A') (A') (A')
                 (A") (A") (A') (A') (A') (A") (A') (A") (A') (A')
                 (A") (A') (A") (A') (A') (A') (A') (A') (A") (A')
                 (A") (A') (A') (A") (A") (A') (A") (A') (A") (A')
                 (A') (A') (A') (A') (A') (A") (A') (A') (A') (A')
                 (A') (A") (A') (A') (A') (A") (A') (A') (A') (A')
                 (A') (A') (A') (A') (A') (A') (A') (A') (A') (A')
                 (A') (A') (A') (A') (A') (A') (A') (A') (A') (A')
                 (A') (A') (A') (A') (A") (A') (A") (A") (A') (A")
                 (A') (A') (A') (A') (A") (A") (A') (A") (A") (A')
                 (A') (A') (A") (A') (A') (A") (A') (A") (A') (A")
                 (A") (A') (A") (A') (A') (A') (A") (A') (A') (A')
                 (A') (A') (A') (A') (A') (A') (A') (A') (A') (A')
                 (A') (A') (A') (A") (A') (A') (A') (A') (A') (A')
                 (A') (A') (A") (A') (A") (A') (A") (A") (A') (A")
                 (A") (A') (A') (A") (A") (A") (A') (A") (A') (A')
                 (A') (A') (A') (A") (A") (A') (A') (A') (A') (A")
                 (A') (A') (A') (A") (A") (A') (A') (A") (A') (A")
                 (A") (A') (A') (A") (A') (A") (A') (A') (A') (A')
                 (A") (A") (A") (A') (A") (A') (A') (A") (A') (A')
                 (A') (A") (A') (A") (A") (A') (A") (A') (A') (A")
                 (A') (A') (A') (A') (A") (A') (A') (A') (A") (A")
                 (A') (A') (A') (A") (A') (A') (A') (A") (A") (A')
                 (A") (A') (A') (A") (A') (A') (A') (A') (A') (A')
                 (A") (A') (A') (A') (A') (A") (A") (A") (A') (A')
                 (A') (A') (A') (A') (A') (A') (A") (A') (A') (A')
                 (A') (A") (A') (A") (A") (A") (A') (A") (A') (A")
                 (A') (A") (A") (A') (A") (A") (A') (A') (A') (A')
                 (A') (A') (A') (A') (A') (A') (A') (A') (A') (A')
                 (A') (A') (A') (A") (A') (A') (A') (A') (A') (A')
                 (A') (A') (A') (A') (A') (A') (A') (A') (A') (A')
                 (A') (A') (A') (A') (A') (A') (A') (A') (A') (A')
                 (A') (A')
 The electronic state is 1-A'.
 Alpha  occ. eigenvalues --  -10.77627 -10.73588 -10.72868 -10.72707 -10.72125
 Alpha  occ. eigenvalues --  -10.71699 -10.71665 -10.71014 -10.70977 -10.70380
 Alpha  occ. eigenvalues --  -10.70135 -10.69831 -10.69810 -10.69422  -1.16492
 Alpha  occ. eigenvalues --   -1.12474  -1.06941  -1.05796  -1.01302  -1.00296
 Alpha  occ. eigenvalues --   -0.95685  -0.91048  -0.86430  -0.85901  -0.83802
 Alpha  occ. eigenvalues --   -0.78373  -0.76084  -0.74396  -0.69661  -0.69281
 Alpha  occ. eigenvalues --   -0.68417  -0.68137  -0.68095  -0.65002  -0.64255
 Alpha  occ. eigenvalues --   -0.62912  -0.61751  -0.60252  -0.59437  -0.59124
 Alpha  occ. eigenvalues --   -0.56922  -0.55248  -0.54705  -0.52438  -0.46947
 Alpha  occ. eigenvalues --   -0.46098  -0.44155
 Alpha virt. eigenvalues --   -0.26092  -0.14669  -0.14089  -0.12767  -0.11184
 Alpha virt. eigenvalues --   -0.10090  -0.09242  -0.07973  -0.07950  -0.07480
 Alpha virt. eigenvalues --   -0.07208  -0.07142  -0.05644  -0.05579  -0.05342
 Alpha virt. eigenvalues --   -0.03837  -0.03655  -0.03277  -0.03132  -0.02161
 Alpha virt. eigenvalues --   -0.01360  -0.00941   0.00189   0.00593   0.00659
 Alpha virt. eigenvalues --    0.01061   0.01509   0.01935   0.02182   0.02297
 Alpha virt. eigenvalues --    0.02450   0.02672   0.02768   0.03263   0.03415
 Alpha virt. eigenvalues --    0.04231   0.04502   0.04707   0.05034   0.05376
 Alpha virt. eigenvalues --    0.06028   0.06294   0.06589   0.07051   0.07260
 Alpha virt. eigenvalues --    0.07899   0.08124   0.08359   0.08590   0.08920
 Alpha virt. eigenvalues --    0.09514   0.09581   0.10010   0.10852   0.11010
 Alpha virt. eigenvalues --    0.11120   0.12141   0.12251   0.12800   0.13019
 Alpha virt. eigenvalues --    0.13442   0.13524   0.14003   0.14354   0.16025
 Alpha virt. eigenvalues --    0.16350   0.16439   0.17337   0.17555   0.17794
 Alpha virt. eigenvalues --    0.18125   0.19056   0.19316   0.19636   0.19823
 Alpha virt. eigenvalues --    0.21520   0.21633   0.22704   0.23135   0.23564
 Alpha virt. eigenvalues --    0.23861   0.24549   0.25353   0.26932   0.27614
 Alpha virt. eigenvalues --    0.28857   0.29279   0.29899   0.31361   0.35809
 Alpha virt. eigenvalues --    0.36453   0.38196   0.39279   0.41114   0.41351
 Alpha virt. eigenvalues --    0.41976   0.42154   0.42983   0.43705   0.44340
 Alpha virt. eigenvalues --    0.44839   0.45102   0.45969   0.46311   0.47912
 Alpha virt. eigenvalues --    0.48470   0.48836   0.49028   0.50474   0.51155
 Alpha virt. eigenvalues --    0.51376   0.51934   0.52127   0.52845   0.54057
 Alpha virt. eigenvalues --    0.54104   0.54632   0.55659   0.55851   0.57489
 Alpha virt. eigenvalues --    0.58232   0.58883   0.61473   0.62214   0.62386
 Alpha virt. eigenvalues --    0.63191   0.63485   0.64968   0.65160   0.67374
 Alpha virt. eigenvalues --    0.70376   0.70521   0.71127   0.72464   0.72891
 Alpha virt. eigenvalues --    0.75663   0.76050   0.76364   0.76817   0.77117
 Alpha virt. eigenvalues --    0.77861   0.77949   0.78268   0.79893   0.80398
 Alpha virt. eigenvalues --    0.81252   0.81575   0.82281   0.83005   0.85220
 Alpha virt. eigenvalues --    0.87111   0.88185   0.88385   0.89212   0.90531
 Alpha virt. eigenvalues --    0.91085   0.91336   0.93243   0.94620   0.96345
 Alpha virt. eigenvalues --    0.96799   1.00303   1.01281   1.01604   1.02777
 Alpha virt. eigenvalues --    1.03234   1.03332   1.04803   1.05985   1.08827
 Alpha virt. eigenvalues --    1.19574   1.23110   1.24126   1.24770   1.28520
 Alpha virt. eigenvalues --    1.29474   1.32029   1.34277   1.35769   1.35987
 Alpha virt. eigenvalues --    1.39351   1.39911   1.40912   1.42968   1.43481
 Alpha virt. eigenvalues --    1.43541   1.44414   1.46371   1.46371   1.46642
 Alpha virt. eigenvalues --    1.47670   1.48107   1.51770   1.53653   1.55792
 Alpha virt. eigenvalues --    1.55821   1.56324   1.56577   1.57809   1.61472
 Alpha virt. eigenvalues --    1.63138   1.63348   1.64030   1.66108   1.68327
 Alpha virt. eigenvalues --    1.68352   1.68696   1.69779   1.74417   1.76014
 Alpha virt. eigenvalues --    1.77186   1.78066   1.79963   1.80078   1.80802
 Alpha virt. eigenvalues --    1.82994   1.83200   1.83629   1.83841   1.84165
 Alpha virt. eigenvalues --    1.84429   1.85604   1.86302   1.88297   1.91409
 Alpha virt. eigenvalues --    1.92120   1.94101   1.95278   1.97743   1.98164
 Alpha virt. eigenvalues --    1.99784   2.02472   2.04488   2.07288   2.11775
 Alpha virt. eigenvalues --    2.12125   2.14185   2.15243   2.19108   2.21260
 Alpha virt. eigenvalues --    2.22770   2.28530   2.30274   2.34586   2.34883
 Alpha virt. eigenvalues --    2.36290   2.38639   2.39643   2.42365   2.44550
 Alpha virt. eigenvalues --    2.46150   2.46573   2.49293   2.52941   2.53801
 Alpha virt. eigenvalues --    2.54295   2.56791   2.57880   2.58359   2.59524
 Alpha virt. eigenvalues --    2.59889   2.61581   2.62144   2.63562   2.63777
 Alpha virt. eigenvalues --    2.64810   2.65104   2.65111   2.65500   2.67987
 Alpha virt. eigenvalues --    2.68497   2.70950   2.71444   2.73362   2.74820
 Alpha virt. eigenvalues --    2.76293   2.78656   2.79695   2.83027   2.83140
 Alpha virt. eigenvalues --    2.84883   2.86302   2.92125   2.97046   2.99470
 Alpha virt. eigenvalues --    3.00114   3.05130   3.10256   3.11365   3.13733
 Alpha virt. eigenvalues --    3.20866   3.23014   3.26581   3.28586   3.30603
 Alpha virt. eigenvalues --    3.32811   3.34243   3.43649   3.46068   3.46747
 Alpha virt. eigenvalues --    3.48455   3.50133   3.56496   3.65680   3.66945
 Alpha virt. eigenvalues --    3.67669   3.93983   3.94204   3.95356   3.96357
 Alpha virt. eigenvalues --    4.03978   4.06701   4.07623   4.12540   4.35475
 Alpha virt. eigenvalues --    4.61272   4.69544   4.71434  23.45286  23.60343
 Alpha virt. eigenvalues --   23.81231  23.83927  23.86461  23.89196  23.91292
 Alpha virt. eigenvalues --   23.94471  23.96226  23.97869  24.01908  24.03730
 Alpha virt. eigenvalues --   24.10908  24.11779
          Condensed to atoms (all electrons):
               1          2          3          4          5          6
     1  C    8.814556   0.129284  -0.446182   2.154723  -0.059021  -0.102807
     2  C    0.129284   7.146076   0.288344  -1.146422   0.000221  -0.013734
     3  C   -0.446182   0.288344   6.588815   0.801927  -0.133679   0.016898
     4  C    2.154723  -1.146422   0.801927  10.733844  -0.358920  -0.114978
     5  C   -0.059021   0.000221  -0.133679  -0.358920  11.294785   0.725891
     6  C   -0.102807  -0.013734   0.016898  -0.114978   0.725891   6.599847
     7  C   -0.008570   0.001413  -0.015231  -0.036242  -1.001261   0.409707
     8  C    0.406969  -0.030437  -0.087846  -0.003119   1.787835  -0.626857
     9  C   -1.163952  -0.776074   0.291758  -0.374353  -0.059639   0.293092
    10  C   -1.347832   0.314950  -0.414479  -2.437812  -2.715809  -0.293230
    11  C    0.289045  -0.980561   1.088651  -0.287631  -1.566006  -0.213199
    12  C   -2.360377   1.598991  -1.461113  -1.590635  -0.421507  -0.142548
    13  C    0.236776  -0.280050  -0.132596  -1.444764  -0.279312   0.928804
    14  C   -1.046395  -0.119296  -0.258988  -0.248040  -1.585886  -1.347338
    15  H    0.368442  -0.106672   0.000195   0.028937   0.005070   0.001012
    16  H   -0.017754   0.375149  -0.013128   0.011137  -0.001414  -0.000307
    17  H   -0.029444  -0.010840   0.370063  -0.066494   0.000441   0.000388
    18  H    0.052410   0.002369  -0.084605   0.453935   0.006437  -0.005172
    19  H   -0.048262  -0.007379   0.051299  -0.064178  -0.077599   0.050967
    20  H    0.007240   0.002054  -0.004989   0.006527   0.462236  -0.084294
    21  H   -0.001380  -0.000381   0.000407   0.000180  -0.068883   0.379185
    22  H    0.000935   0.000390  -0.000349  -0.001652   0.016119  -0.019930
    23  H    0.005195  -0.002854   0.001197   0.006323   0.025506  -0.002877
    24  H    0.029018   0.013356  -0.001703  -0.012945  -0.011612  -0.001354
    25  H    0.029018   0.013356  -0.001703  -0.012945  -0.011612  -0.001354
               7          8          9         10         11         12
     1  C   -0.008570   0.406969  -1.163952  -1.347832   0.289045  -2.360377
     2  C    0.001413  -0.030437  -0.776074   0.314950  -0.980561   1.598991
     3  C   -0.015231  -0.087846   0.291758  -0.414479   1.088651  -1.461113
     4  C   -0.036242  -0.003119  -0.374353  -2.437812  -0.287631  -1.590635
     5  C   -1.001261   1.787835  -0.059639  -2.715809  -1.566006  -0.421507
     6  C    0.409707  -0.626857   0.293092  -0.293230  -0.213199  -0.142548
     7  C    7.145904   0.489036  -0.834310   0.181505  -0.217986  -0.269308
     8  C    0.489036   8.412574  -1.184229  -1.210845   0.186541  -1.123655
     9  C   -0.834310  -1.184229   9.625475   0.253567   1.564076  -1.813242
    10  C    0.181505  -1.210845   0.253567   9.167746  -0.517343   2.461276
    11  C   -0.217986   0.186541   1.564076  -0.517343  14.429274  -3.505075
    12  C   -0.269308  -1.123655  -1.813242   2.461276  -3.505075  15.951577
    13  C   -0.840261   0.306857   1.671647  -0.393277   1.079598  -4.838156
    14  C    1.117546  -1.815431  -2.077658   2.398879  -4.766148   3.068010
    15  H   -0.002451   0.006460   0.094450  -0.010810  -0.032403  -0.032791
    16  H    0.000332   0.000483   0.004209  -0.008598   0.027173  -0.034258
    17  H   -0.000414  -0.001260  -0.006340   0.020653  -0.028049   0.095860
    18  H    0.002010   0.007124  -0.025960   0.015184  -0.004793  -0.060946
    19  H   -0.008012  -0.044648   0.075495   0.422228   0.080786  -0.051414
    20  H    0.003367   0.047682  -0.023556   0.010293  -0.012140  -0.018546
    21  H   -0.020964  -0.020578  -0.005135   0.020212  -0.006317   0.005227
    22  H    0.381451  -0.020006   0.002734  -0.010240   0.003334  -0.010027
    23  H   -0.105003   0.366246   0.088746  -0.008350  -0.001975   0.007350
    24  H    0.015456   0.036107   0.356776   0.005469   0.005406  -0.060307
    25  H    0.015456   0.036107   0.356776   0.005469   0.005406  -0.060307
              13         14         15         16         17         18
     1  C    0.236776  -1.046395   0.368442  -0.017754  -0.029444   0.052410
     2  C   -0.280050  -0.119296  -0.106672   0.375149  -0.010840   0.002369
     3  C   -0.132596  -0.258988   0.000195  -0.013128   0.370063  -0.084605
     4  C   -1.444764  -0.248040   0.028937   0.011137  -0.066494   0.453935
     5  C   -0.279312  -1.585886   0.005070  -0.001414   0.000441   0.006437
     6  C    0.928804  -1.347338   0.001012  -0.000307   0.000388  -0.005172
     7  C   -0.840261   1.117546  -0.002451   0.000332  -0.000414   0.002010
     8  C    0.306857  -1.815431   0.006460   0.000483  -0.001260   0.007124
     9  C    1.671647  -2.077658   0.094450   0.004209  -0.006340  -0.025960
    10  C   -0.393277   2.398879  -0.010810  -0.008598   0.020653   0.015184
    11  C    1.079598  -4.766148  -0.032403   0.027173  -0.028049  -0.004793
    12  C   -4.838156   3.068010  -0.032791  -0.034258   0.095860  -0.060946
    13  C   14.578713  -4.014272   0.005374   0.002711  -0.006305  -0.011975
    14  C   -4.014272  16.208273   0.005496  -0.008124   0.005362  -0.009492
    15  H    0.005374   0.005496   0.442687  -0.008951   0.001304   0.000107
    16  H    0.002711  -0.008124  -0.008951   0.421484  -0.006196   0.001891
    17  H   -0.006305   0.005362   0.001304  -0.006196   0.424151  -0.010355
    18  H   -0.011975  -0.009492   0.000107   0.001891  -0.010355   0.457266
    19  H    0.076576  -0.080154   0.000240  -0.000493   0.001207  -0.006595
    20  H   -0.009271  -0.048381  -0.000104   0.000012  -0.000126   0.001267
    21  H   -0.026381   0.087322   0.000011  -0.000007   0.000010  -0.000159
    22  H    0.026369  -0.031934  -0.000130   0.000007  -0.000007   0.000018
    23  H   -0.029353  -0.016276   0.000579  -0.000124   0.000016  -0.000121
    24  H    0.021462  -0.059679  -0.000882   0.000632  -0.000148   0.000209
    25  H    0.021462  -0.059679  -0.000882   0.000632  -0.000148   0.000209
              19         20         21         22         23         24
     1  C   -0.048262   0.007240  -0.001380   0.000935   0.005195   0.029018
     2  C   -0.007379   0.002054  -0.000381   0.000390  -0.002854   0.013356
     3  C    0.051299  -0.004989   0.000407  -0.000349   0.001197  -0.001703
     4  C   -0.064178   0.006527   0.000180  -0.001652   0.006323  -0.012945
     5  C   -0.077599   0.462236  -0.068883   0.016119   0.025506  -0.011612
     6  C    0.050967  -0.084294   0.379185  -0.019930  -0.002877  -0.001354
     7  C   -0.008012   0.003367  -0.020964   0.381451  -0.105003   0.015456
     8  C   -0.044648   0.047682  -0.020578  -0.020006   0.366246   0.036107
     9  C    0.075495  -0.023556  -0.005135   0.002734   0.088746   0.356776
    10  C    0.422228   0.010293   0.020212  -0.010240  -0.008350   0.005469
    11  C    0.080786  -0.012140  -0.006317   0.003334  -0.001975   0.005406
    12  C   -0.051414  -0.018546   0.005227  -0.010027   0.007350  -0.060307
    13  C    0.076576  -0.009271  -0.026381   0.026369  -0.029353   0.021462
    14  C   -0.080154  -0.048381   0.087322  -0.031934  -0.016276  -0.059679
    15  H    0.000240  -0.000104   0.000011  -0.000130   0.000579  -0.000882
    16  H   -0.000493   0.000012  -0.000007   0.000007  -0.000124   0.000632
    17  H    0.001207  -0.000126   0.000010  -0.000007   0.000016  -0.000148
    18  H   -0.006595   0.001267  -0.000159   0.000018  -0.000121   0.000209
    19  H    0.443179  -0.005846   0.001624  -0.000582   0.000375   0.000602
    20  H   -0.005846   0.449808  -0.010100   0.001951   0.000232   0.000152
    21  H    0.001624  -0.010100   0.420587  -0.006966   0.001607  -0.000136
    22  H   -0.000582   0.001951  -0.006966   0.417051  -0.008930   0.000627
    23  H    0.000375   0.000232   0.001607  -0.008930   0.435420  -0.000922
    24  H    0.000602   0.000152  -0.000136   0.000627  -0.000922   0.493882
    25  H    0.000602   0.000152  -0.000136   0.000627  -0.000922  -0.079729
              25
     1  C    0.029018
     2  C    0.013356
     3  C   -0.001703
     4  C   -0.012945
     5  C   -0.011612
     6  C   -0.001354
     7  C    0.015456
     8  C    0.036107
     9  C    0.356776
    10  C    0.005469
    11  C    0.005406
    12  C   -0.060307
    13  C    0.021462
    14  C   -0.059679
    15  H   -0.000882
    16  H    0.000632
    17  H   -0.000148
    18  H    0.000209
    19  H    0.000602
    20  H    0.000152
    21  H   -0.000136
    22  H    0.000627
    23  H   -0.000922
    24  H   -0.079729
    25  H    0.493882
 Mulliken charges:
               1
     1  C    0.108364
     2  C   -0.411249
     3  C   -0.442964
     4  C    0.003598
     5  C    0.027620
     6  C   -0.435813
     7  C   -0.403171
     8  C    0.078890
     9  C   -0.334351
    10  C    0.091195
    11  C   -0.619664
    12  C    0.665921
    13  C   -0.650374
    14  C    0.702284
    15  H    0.235714
    16  H    0.253500
    17  H    0.246671
    18  H    0.219739
    19  H    0.189982
    20  H    0.224381
    21  H    0.251150
    22  H    0.259138
    23  H    0.238916
    24  H    0.250263
    25  H    0.250263
 Sum of Mulliken charges =   1.00000
 Mulliken charges with hydrogens summed into heavy atoms:
               1
     1  C    0.344078
     2  C   -0.157750
     3  C   -0.196294
     4  C    0.223336
     5  C    0.252001
     6  C   -0.184663
     7  C   -0.144033
     8  C    0.317806
     9  C    0.166175
    10  C    0.281177
    11  C   -0.619664
    12  C    0.665921
    13  C   -0.650374
    14  C    0.702284
 Electronic spatial extent (au):  <R**2>=           2855.6689
 Charge=              1.0000 electrons
 Dipole moment (field-independent basis, Debye):
    X=              0.1691    Y=             -0.7016    Z=              0.0000  Tot=              0.7217
 Quadrupole moment (field-independent basis, Debye-Ang):
   XX=            -51.0078   YY=            -36.3361   ZZ=            -84.1371
   XY=            -10.2461   XZ=              0.0000   YZ=              0.0000
 Traceless Quadrupole moment (field-independent basis, Debye-Ang):
   XX=              6.1525   YY=             20.8243   ZZ=            -26.9768
   XY=            -10.2461   XZ=              0.0000   YZ=              0.0000
 Octapole moment (field-independent basis, Debye-Ang**2):
  XXX=              2.1285  YYY=             -0.8221  ZZZ=              0.0000  XYY=              2.0974
  XXY=             -7.1169  XXZ=              0.0000  XZZ=              3.2000  YZZ=              0.5502
  YYZ=              0.0000  XYZ=              0.0000
 Hexadecapole moment (field-independent basis, Debye-Ang**3):
 XXXX=           -988.9583 YYYY=          -1848.1563 ZZZZ=            -99.3194 XXXY=            348.0977
 XXXZ=              0.0000 YYYX=            274.3769 YYYZ=              0.0000 ZZZX=             -0.0000
 ZZZY=              0.0000 XXYY=           -454.5653 XXZZ=           -241.6834 YYZZ=           -494.6588
 XXYZ=              0.0000 YYXZ=              0.0000 ZZXY=            183.0238
 N-N= 7.812675142880D+02 E-N=-2.798885139055D+03  KE= 5.375194136548D+02
 Symmetry A'   KE= 5.228694118719D+02
 Symmetry A"   KE= 1.465000178292D+01
 Unable to Open any file for archive entry.
 1\1\GINC-GADI-CPU-CLX-1762\SP\RM062X TD-FC\6-311++G(d,p)\C14H11(1+)\TS
 1578\02-Aug-2022\0\\#n M062X/6-311++G(d,p) TD(NStates=1) EmpiricalDisp
 ersion=GD3 SP\\SP_-75\\1,1\C,0,2.509305,1.359831,0.\C,0,3.721833,0.680
 889,0.\C,0,3.689461,-0.69808,0.\C,0,2.443631,-1.396113,0.\C,0,-2.48263
 1,-1.418863,0.\C,0,-3.677961,-0.72908,0.\C,0,-3.680708,0.663264,0.\C,0
 ,-2.475055,1.361331,0.\C,0,0.01095,1.452269,0.\C,0,-0.0305,-1.429139,0
 .\C,0,1.257455,0.66749,0.\C,0,1.225071,-0.729379,0.\C,0,-1.26658,0.686
 615,0.\C,0,-1.250071,-0.732379,0.\H,0,2.492771,2.443247,0.\H,0,4.65727
 8,1.219064,0.\H,0,4.605562,-1.272599,0.\H,0,2.4585,-2.478959,0.\H,0,-0
 .028125,-2.510241,0.\H,0,-2.47675,-2.501084,0.\H,0,-4.612812,-1.271474
 ,0.\H,0,-4.615653,1.204689,0.\H,0,-2.482271,2.444372,0.\H,0,0.04,2.145
 537,-0.85931\H,0,0.04,2.145537,0.85931\\Version=ES64L-G16RevC.01\State
 =1-A'\HF=-539.7574852\RMSD=8.199e-09\PG=CS [SG(C14H9),X(H2)]\\@
 The archive entry for this job was punched.


 WHAT THE SLIME CONTAINS, THE GLOWING REVEALS
 BY THE FLAME'S BRIGHT HUE WHEN YOU IGNITE IT.
   --  LEONARD THURNEYSSER, 1531-1596
 DESCRIBING HIS FLAME PHOTOLYSIS ANALYTIC METHOD
 Job cpu time:       0 days  0 hours 51 minutes 46.3 seconds.
 Elapsed time:       0 days  0 hours  1 minutes  4.8 seconds.
 File lengths (MBytes):  RWF=    460 Int=      0 D2E=      0 Chk=     15 Scr=      1
 Normal termination of Gaussian 16 at Tue Aug  2 11:25:56 2022.
