 Entering Gaussian System, Link 0=g16
 Initial command:
 /apps/gaussian/g16c01/g16/l1.exe "/jobfs/53796104.gadi-pbs/Gau-3662400.inp" -scrdir="/jobfs/53796104.gadi-pbs/"
 Entering Link 1 = /apps/gaussian/g16c01/g16/l1.exe PID=   3662401.
  
 Copyright (c) 1988-2019, Gaussian, Inc.  All Rights Reserved.
  
 This is part of the Gaussian(R) 16 program.  It is based on
 the Gaussian(R) 09 system (copyright 2009, Gaussian, Inc.),
 the Gaussian(R) 03 system (copyright 2003, Gaussian, Inc.),
 the Gaussian(R) 98 system (copyright 1998, Gaussian, Inc.),
 the Gaussian(R) 94 system (copyright 1995, Gaussian, Inc.),
 the Gaussian 92(TM) system (copyright 1992, Gaussian, Inc.),
 the Gaussian 90(TM) system (copyright 1990, Gaussian, Inc.),
 the Gaussian 88(TM) system (copyright 1988, Gaussian, Inc.),
 the Gaussian 86(TM) system (copyright 1986, Carnegie Mellon
 University), and the Gaussian 82(TM) system (copyright 1983,
 Carnegie Mellon University). Gaussian is a federally registered
 trademark of Gaussian, Inc.
  
 This software contains proprietary and confidential information,
 including trade secrets, belonging to Gaussian, Inc.
  
 This software is provided under written license and may be
 used, copied, transmitted, or stored only in accord with that
 written license.
  
 The following legend is applicable only to US Government
 contracts under FAR:
  
                    RESTRICTED RIGHTS LEGEND
  
 Use, reproduction and disclosure by the US Government is
 subject to restrictions as set forth in subparagraphs (a)
 and (c) of the Commercial Computer Software - Restricted
 Rights clause in FAR 52.227-19.
  
 Gaussian, Inc.
 340 Quinnipiac St., Bldg. 40, Wallingford CT 06492
  
  
 ---------------------------------------------------------------
 Warning -- This program may not be used in any manner that
 competes with the business of Gaussian, Inc. or will provide
 assistance to any competitor of Gaussian, Inc.  The licensee
 of this program is prohibited from giving any competitor of
 Gaussian, Inc. access to this program.  By using this program,
 the user acknowledges that Gaussian, Inc. is engaged in the
 business of creating and licensing software in the field of
 computational chemistry and represents and warrants to the
 licensee that it is not a competitor of Gaussian, Inc. and that
 it will not use this program in any manner prohibited above.
 ---------------------------------------------------------------
  

 Cite this work as:
 Gaussian 16, Revision C.01,
 M. J. Frisch, G. W. Trucks, H. B. Schlegel, G. E. Scuseria, 
 M. A. Robb, J. R. Cheeseman, G. Scalmani, V. Barone, 
 G. A. Petersson, H. Nakatsuji, X. Li, M. Caricato, A. V. Marenich, 
 J. Bloino, B. G. Janesko, R. Gomperts, B. Mennucci, H. P. Hratchian, 
 J. V. Ortiz, A. F. Izmaylov, J. L. Sonnenberg, D. Williams-Young, 
 F. Ding, F. Lipparini, F. Egidi, J. Goings, B. Peng, A. Petrone, 
 T. Henderson, D. Ranasinghe, V. G. Zakrzewski, J. Gao, N. Rega, 
 G. Zheng, W. Liang, M. Hada, M. Ehara, K. Toyota, R. Fukuda, 
 J. Hasegawa, M. Ishida, T. Nakajima, Y. Honda, O. Kitao, H. Nakai, 
 T. Vreven, K. Throssell, J. A. Montgomery, Jr., J. E. Peralta, 
 F. Ogliaro, M. J. Bearpark, J. J. Heyd, E. N. Brothers, K. N. Kudin, 
 V. N. Staroverov, T. A. Keith, R. Kobayashi, J. Normand, 
 K. Raghavachari, A. P. Rendell, J. C. Burant, S. S. Iyengar, 
 J. Tomasi, M. Cossi, J. M. Millam, M. Klene, C. Adamo, R. Cammi, 
 J. W. Ochterski, R. L. Martin, K. Morokuma, O. Farkas, 
 J. B. Foresman, and D. J. Fox, Gaussian, Inc., Wallingford CT, 2019.
 
 ******************************************
 Gaussian 16:  ES64L-G16RevC.01  3-Jul-2019
                 2-Aug-2022 
 ******************************************
 %NProcShared=48
 Will use up to   48 processors via shared memory.
 %mem = 190GB
 ---------------------------------------------------------------
 #n M062X/6-311++G(d,p) TD(NStates=1) EmpiricalDispersion=GD3 SP
 ---------------------------------------------------------------
 1/38=1,172=1/1;
 2/12=2,17=6,18=5,40=1/2;
 3/5=4,6=6,7=1111,11=9,25=1,30=1,74=-55,124=31/1,2,3,8;
 4//1;
 5/5=2,38=5/2;
 8/6=1,10=2,108=1/1;
 9/41=1,42=1,70=2/14;
 6/7=2,8=2,9=2,10=2/1;
 99/5=1,9=1/99;
 ------
 SP_100
 ------
 Symbolic Z-matrix:
 Charge =  1 Multiplicity = 1
 C                     2.46136   1.36193   0. 
 C                     3.66426   0.65621   0. 
 C                     3.67336  -0.74148   0. 
 C                     2.49823  -1.42796   0. 
 C                    -2.42803  -1.38701   0. 
 C                    -3.69406  -0.68568   0. 
 C                    -3.73828   0.68794   0. 
 C                    -2.52301   1.35923   0. 
 C                    -0.01968   1.45227   0. 
 C                     0.0549   -1.42914   0. 
 C                     1.27023   0.69427   0. 
 C                     1.26007  -0.73358   0. 
 C                    -1.25381   0.65984   0. 
 C                    -1.21507  -0.72818   0. 
 H                     2.47807   2.44482   0. 
 H                     4.599     1.19894   0. 
 H                     4.61571  -1.27102   0. 
 H                     2.48405  -2.50993   0. 
 H                     0.05063  -2.51024   0. 
 H                    -2.4512   -2.47011   0. 
 H                    -4.60266  -1.27305   0. 
 H                    -4.67393   1.22481   0. 
 H                    -2.49697   2.4428    0. 
 H                    -0.072     2.14554  -0.85931 
 H                    -0.072     2.14554   0.85931 
 
                          Input orientation:                          
 ---------------------------------------------------------------------
 Center     Atomic      Atomic             Coordinates (Angstroms)
 Number     Number       Type             X           Y           Z
 ---------------------------------------------------------------------
      1          6           0        2.461355    1.361931    0.000000
      2          6           0        3.664258    0.656214    0.000000
      3          6           0        3.673361   -0.741480    0.000000
      4          6           0        2.498231   -1.427963    0.000000
      5          6           0       -2.428031   -1.387013    0.000000
      6          6           0       -3.694061   -0.685680    0.000000
      7          6           0       -3.738283    0.687939    0.000000
      8          6           0       -2.523005    1.359231    0.000000
      9          6           0       -0.019675    1.452269    0.000000
     10          6           0        0.054900   -1.429139    0.000000
     11          6           0        1.270230    0.694265    0.000000
     12          6           0        1.260071   -0.733579    0.000000
     13          6           0       -1.253805    0.659840    0.000000
     14          6           0       -1.215071   -0.728179    0.000000
     15          1           0        2.478071    2.444822    0.000000
     16          1           0        4.599003    1.198939    0.000000
     17          1           0        4.615712   -1.271024    0.000000
     18          1           0        2.484050   -2.509934    0.000000
     19          1           0        0.050625   -2.510241    0.000000
     20          1           0       -2.451200   -2.470109    0.000000
     21          1           0       -4.602662   -1.273049    0.000000
     22          1           0       -4.673928    1.224814    0.000000
     23          1           0       -2.496971    2.442797    0.000000
     24          1           0       -0.072000    2.145537   -0.859310
     25          1           0       -0.072000    2.145537    0.859310
 ---------------------------------------------------------------------
                    Distance matrix (angstroms):
                    1          2          3          4          5
     1  C    0.000000
     2  C    1.394637   0.000000
     3  C    2.427611   1.397724   0.000000
     4  C    2.790138   2.388182   1.360952   0.000000
     5  C    5.609170   6.425789   6.135446   4.926432   0.000000
     6  C    6.487053   7.479675   7.367633   6.236623   1.447308
     7  C    6.236167   7.402609   7.548225   6.585678   2.454014
     8  C    4.984361   6.227074   6.542778   5.742931   2.747886
     9  C    2.482674   3.768961   4.295468   3.825649   3.723131
    10  C    3.685254   4.168472   3.683223   2.443331   2.483288
    11  C    1.365488   2.394330   2.799357   2.451905   4.243684
    12  C    2.415418   2.776984   2.413303   1.419581   3.745540
    13  C    3.780919   4.918064   5.122564   4.293797   2.359749
    14  C    4.229027   5.071922   4.888450   3.778665   1.380338
    15  H    1.083020   2.146196   3.403122   3.872837   6.225174
    16  H    2.143853   1.080879   2.149893   3.363608   7.487747
    17  H    3.402015   2.149305   1.080945   2.123289   7.044698
    18  H    3.871932   3.378962   2.131171   1.082064   5.038799
    19  H    4.561287   4.804662   4.031468   2.676210   2.721282
    20  H    6.230387   6.868240   6.363836   5.057958   1.083344
    21  H    7.539460   8.489053   8.293077   7.102583   2.177615
    22  H    7.136600   8.357551   8.575753   7.647031   3.444662
    23  H    5.074768   6.415031   6.943531   6.319401   3.830430
    24  H    2.787533   4.112921   4.806351   4.484908   4.332229
    25  H    2.787533   4.112921   4.806351   4.484908   4.332229
                    6          7          8          9         10
     6  C    0.000000
     7  C    1.374331   0.000000
     8  C    2.356487   1.388356   0.000000
     9  C    4.251110   3.796346   2.505058   0.000000
    10  C    3.821968   4.343991   3.797447   2.882373   0.000000
    11  C    5.152517   5.008517   3.851079   1.496137   2.446604
    12  C    4.954364   5.196562   4.323369   2.532920   1.391489
    13  C    2.786624   2.484637   1.449143   1.466636   2.465064
    14  C    2.479354   2.893439   2.463325   2.486629   1.450576
    15  H    6.920640   6.459853   5.117545   2.687731   4.569391
    16  H    8.504511   8.352931   7.123812   4.625620   5.249349
    17  H    8.330363   8.580604   7.607859   5.376164   4.563552
    18  H    6.441813   6.995986   6.327799   4.686970   2.658738
    19  H    4.165537   4.958244   4.647191   3.963134   1.081110
    20  H    2.174601   3.410257   3.830013   4.614907   2.713698
    21  H    1.081923   2.143041   3.354679   5.332085   4.660177
    22  H    2.147121   1.078734   2.155119   4.659808   5.422664
    23  H    3.349685   2.149507   1.083879   2.667984   4.637233
    24  H    4.676915   4.037900   2.713691   1.105338   3.678699
    25  H    4.676915   4.037900   2.713691   1.105338   3.678699
                   11         12         13         14         15
    11  C    0.000000
    12  C    1.427880   0.000000
    13  C    2.524270   2.874228   0.000000
    14  C    2.863576   2.475148   1.388559   0.000000
    15  H    2.126812   3.403786   4.136793   4.869007   0.000000
    16  H    3.366812   3.857861   5.877584   6.125132   2.459792
    17  H    3.880027   3.398408   6.178953   5.855998   4.286843
    18  H    3.426405   2.157212   4.900921   4.105867   4.954760
    19  H    3.428745   2.149253   3.427966   2.185802   5.517712
    20  H    4.884906   4.097447   3.351169   2.135962   6.960909
    21  H    6.193641   5.887501   3.866640   3.431130   7.997459
    22  H    5.967788   6.248812   3.466473   3.972137   7.255309
    23  H    4.153212   4.919830   2.173568   3.420286   4.975042
    24  H    2.155501   3.286660   2.083836   3.209871   2.707554
    25  H    2.155501   3.286660   2.083836   3.209871   2.707554
                   16         17         18         19         20
    16  H    0.000000
    17  H    2.470020   0.000000
    18  H    4.269516   2.465539   0.000000
    19  H    5.869051   4.730294   2.433425   0.000000
    20  H    7.947784   7.167918   4.935411   2.502147   0.000000
    21  H    9.527925   9.218374   7.193843   4.814948   2.462060
    22  H    9.272967   9.619076   8.073722   6.022627   4.311957
    23  H    7.204168   8.023885   7.024252   5.569814   4.913119
    24  H    4.842802   5.863953   5.380076   4.736002   5.263382
    25  H    4.842802   5.863953   5.380076   4.736002   5.263382
                   21         22         23         24         25
    21  H    0.000000
    22  H    2.498879   0.000000
    23  H    4.271001   2.494519   0.000000
    24  H    5.740387   4.771151   2.589838   0.000000
    25  H    5.740387   4.771151   2.589838   1.718620   0.000000
 Stoichiometry    C14H11(1+)
 Framework group  CS[SG(C14H9),X(H2)]
 Deg. of freedom    46
 Full point group                 CS      NOp   2
 Largest Abelian subgroup         CS      NOp   2
 Largest concise Abelian subgroup CS      NOp   2
                         Standard orientation:                         
 ---------------------------------------------------------------------
 Center     Atomic      Atomic             Coordinates (Angstroms)
 Number     Number       Type             X           Y           Z
 ---------------------------------------------------------------------
      1          6           0        0.098309   -2.812032    0.000000
      2          6           0        1.322196   -3.480697    0.000000
      3          6           0        2.525551   -2.769663    0.000000
      4          6           0        2.509909   -1.408802    0.000000
      5          6           0       -0.058810    2.794937    0.000000
      6          6           0       -1.311404    3.519995    0.000000
      7          6           0       -2.512173    2.851461    0.000000
      8          6           0       -2.462855    1.463981    0.000000
      9          6           0       -1.255171   -0.730743    0.000000
     10          6           0        1.254301    0.687222    0.000000
     11          6           0        0.058303   -1.447131    0.000000
     12          6           0        1.277608   -0.704071    0.000000
     13          6           0       -1.210297    0.735206    0.000000
     14          6           0        0.000000    1.415852    0.000000
     15          1           0       -0.821789   -3.383304    0.000000
     16          1           0        1.337495   -4.561468    0.000000
     17          1           0        3.464347   -3.305484    0.000000
     18          1           0        3.430522   -0.840177    0.000000
     19          1           0        2.179263    1.246904    0.000000
     20          1           0        0.858145    3.371848    0.000000
     21          1           0       -1.274969    4.601305    0.000000
     22          1           0       -3.453808    3.377760    0.000000
     23          1           0       -3.378740    0.884371    0.000000
     24          1           0       -1.876634   -1.042420    0.859310
     25          1           0       -1.876634   -1.042420   -0.859310
 ---------------------------------------------------------------------
 Rotational constants (GHZ):           2.1371222           0.4445782           0.3688197
 Standard basis: 6-311++G(d,p) (5D, 7F)
 There are   299 symmetry adapted cartesian basis functions of A'  symmetry.
 There are   100 symmetry adapted cartesian basis functions of A"  symmetry.
 There are   285 symmetry adapted basis functions of A'  symmetry.
 There are   100 symmetry adapted basis functions of A"  symmetry.
   385 basis functions,   603 primitive gaussians,   399 cartesian basis functions
    47 alpha electrons       47 beta electrons
       nuclear repulsion energy       781.3161059647 Hartrees.
 NAtoms=   25 NActive=   25 NUniq=   24 SFac= 1.09D+00 NAtFMM=   60 NAOKFM=F Big=F
 Integral buffers will be    131072 words long.
 Regular integral format.
 Two-electron integral symmetry is turned on.
 Nuclear repulsion after empirical dispersion term =      781.3151270424 Hartrees.
 One-electron integrals computed using PRISM.
 NBasis=   385 RedAO= T EigKep=  1.11D-06  NBF=   285   100
 NBsUse=   379 1.00D-06 EigRej=  8.35D-07 NBFU=   279   100
 ExpMin= 3.60D-02 ExpMax= 4.56D+03 ExpMxC= 6.82D+02 IAcc=3 IRadAn=         5 AccDes= 0.00D+00
 Harris functional with IExCor= 1009 and IRadAn=       5 diagonalized for initial guess.
 HarFok:  IExCor= 1009 AccDes= 0.00D+00 IRadAn=         5 IDoV= 1 UseB2=F ITyADJ=14
 ICtDFT=  3500011 ScaDFX=  1.000000  1.000000  1.000000  1.000000
 FoFCou: FMM=F IPFlag=           0 FMFlag=      100000 FMFlg1=           0
         NFxFlg=           0 DoJE=T BraDBF=F KetDBF=T FulRan=T
         wScrn=  0.000000 ICntrl=       500 IOpCl=  0 I1Cent=   200000004 NGrid=           0
         NMat0=    1 NMatS0=      1 NMatT0=    0 NMatD0=    1 NMtDS0=    0 NMtDT0=    0
 Petite list used in FoFCou.
 Initial guess orbital symmetries:
       Occupied  (A') (A') (A') (A') (A') (A') (A') (A') (A') (A')
                 (A') (A') (A') (A') (A') (A') (A') (A') (A') (A')
                 (A') (A') (A') (A') (A') (A') (A') (A') (A') (A')
                 (A') (A') (A") (A') (A') (A') (A') (A') (A") (A')
                 (A") (A') (A') (A") (A") (A") (A")
       Virtual   (A") (A") (A") (A") (A") (A') (A') (A') (A') (A")
                 (A") (A') (A') (A') (A") (A') (A') (A') (A') (A")
                 (A') (A") (A') (A') (A') (A") (A') (A") (A') (A')
                 (A') (A') (A') (A') (A") (A') (A") (A') (A') (A')
                 (A") (A') (A") (A') (A') (A') (A') (A') (A") (A')
                 (A') (A') (A") (A") (A') (A') (A') (A") (A") (A')
                 (A') (A') (A') (A') (A') (A') (A") (A') (A') (A")
                 (A') (A') (A') (A') (A') (A') (A') (A') (A') (A')
                 (A') (A') (A') (A') (A') (A') (A') (A') (A') (A')
                 (A') (A') (A') (A') (A') (A') (A') (A") (A') (A")
                 (A') (A') (A") (A") (A') (A") (A') (A") (A") (A')
                 (A") (A') (A') (A') (A") (A') (A') (A") (A") (A')
                 (A") (A") (A') (A') (A') (A") (A') (A') (A') (A")
                 (A') (A') (A') (A') (A') (A') (A") (A') (A') (A')
                 (A') (A') (A') (A') (A') (A') (A') (A') (A') (A")
                 (A") (A') (A") (A") (A') (A') (A') (A") (A') (A")
                 (A") (A') (A") (A") (A") (A') (A') (A') (A') (A')
                 (A') (A") (A') (A') (A") (A') (A') (A') (A') (A")
                 (A') (A') (A') (A') (A") (A") (A') (A') (A") (A")
                 (A") (A') (A') (A") (A') (A') (A') (A") (A') (A')
                 (A") (A") (A") (A') (A') (A") (A') (A") (A') (A')
                 (A") (A") (A') (A") (A') (A") (A') (A') (A') (A")
                 (A') (A') (A') (A') (A") (A') (A') (A') (A") (A")
                 (A') (A') (A') (A") (A') (A') (A") (A') (A") (A')
                 (A") (A') (A') (A') (A') (A") (A') (A') (A') (A")
                 (A') (A') (A') (A") (A") (A') (A') (A") (A') (A')
                 (A') (A") (A') (A") (A') (A') (A') (A") (A') (A")
                 (A') (A') (A') (A') (A") (A') (A") (A') (A") (A")
                 (A') (A') (A") (A") (A") (A') (A') (A') (A') (A')
                 (A') (A') (A') (A') (A') (A') (A') (A') (A') (A')
                 (A') (A') (A') (A") (A') (A') (A') (A') (A') (A')
                 (A') (A') (A') (A') (A') (A') (A') (A') (A') (A')
                 (A') (A') (A') (A') (A') (A') (A') (A') (A') (A')
                 (A') (A')
 The electronic state of the initial guess is 1-A'.
 Requested convergence on RMS density matrix=1.00D-08 within 128 cycles.
 Requested convergence on MAX density matrix=1.00D-06.
 Requested convergence on             energy=1.00D-06.
 No special actions if energy rises.
 SCF Done:  E(RM062X) =  -539.751390471     A.U. after   16 cycles
            NFock= 16  Conv=0.36D-08     -V/T= 2.0041
 DoSCS=F DFT=T ScalE2(SS,OS)=  1.000000  1.000000
 ExpMin= 3.60D-02 ExpMax= 4.56D+03 ExpMxC= 6.82D+02 IAcc=3 IRadAn=         5 AccDes= 0.00D+00
 HarFok:  IExCor=  205 AccDes= 0.00D+00 IRadAn=         5 IDoV=-2 UseB2=F ITyADJ=14
 ICtDFT= 12500011 ScaDFX=  1.000000  1.000000  1.000000  1.000000
 Range of M.O.s used for correlation:    15   379
 NBasis=   385 NAE=    47 NBE=    47 NFC=    14 NFV=     0
 NROrb=    365 NOA=    33 NOB=    33 NVA=   332 NVB=   332

 **** Warning!!: The largest alpha MO coefficient is  0.14101261D+03

 Orbital symmetries:
       Occupied  (A') (A') (A') (A') (A') (A') (A') (A') (A') (A')
                 (A') (A') (A') (A') (A') (A') (A') (A') (A') (A')
                 (A') (A') (A') (A') (A') (A') (A') (A') (A') (A')
                 (A') (A") (A') (A') (A') (A') (A') (A") (A') (A")
                 (A') (A') (A') (A") (A") (A") (A")
       Virtual   (A") (A") (A") (A") (A') (A') (A') (A') (A") (A')
                 (A') (A") (A') (A') (A") (A') (A") (A') (A') (A')
                 (A") (A") (A') (A') (A') (A") (A') (A") (A') (A')
                 (A") (A') (A") (A') (A') (A') (A') (A') (A") (A')
                 (A") (A') (A') (A") (A") (A') (A") (A') (A") (A')
                 (A') (A') (A') (A') (A') (A") (A') (A') (A') (A')
                 (A') (A") (A') (A') (A') (A") (A') (A') (A') (A')
                 (A') (A') (A') (A') (A') (A') (A') (A') (A') (A')
                 (A') (A') (A') (A') (A') (A') (A') (A') (A') (A')
                 (A') (A') (A') (A') (A") (A') (A") (A") (A') (A")
                 (A') (A') (A') (A') (A") (A") (A') (A") (A") (A')
                 (A') (A") (A') (A') (A") (A') (A') (A") (A') (A")
                 (A") (A') (A") (A') (A') (A') (A") (A') (A') (A')
                 (A') (A') (A') (A') (A') (A') (A') (A') (A') (A')
                 (A') (A') (A') (A") (A') (A') (A') (A') (A') (A')
                 (A') (A") (A') (A') (A") (A') (A") (A") (A') (A")
                 (A") (A') (A') (A") (A') (A") (A") (A") (A') (A')
                 (A') (A') (A") (A') (A') (A") (A') (A') (A') (A")
                 (A') (A') (A') (A") (A") (A') (A') (A") (A") (A')
                 (A") (A') (A') (A") (A') (A") (A') (A') (A') (A')
                 (A") (A") (A") (A') (A") (A') (A') (A") (A') (A')
                 (A') (A") (A') (A") (A") (A') (A") (A') (A') (A")
                 (A') (A') (A') (A') (A") (A') (A') (A') (A") (A")
                 (A') (A') (A') (A") (A') (A') (A') (A") (A") (A')
                 (A") (A') (A') (A") (A') (A') (A') (A') (A') (A')
                 (A") (A') (A') (A') (A') (A") (A") (A") (A') (A')
                 (A') (A') (A') (A') (A') (A') (A') (A") (A') (A')
                 (A') (A") (A') (A") (A") (A") (A') (A") (A') (A")
                 (A') (A") (A") (A') (A") (A") (A') (A') (A') (A')
                 (A') (A') (A') (A') (A') (A') (A') (A') (A') (A')
                 (A') (A') (A') (A") (A') (A') (A') (A') (A') (A')
                 (A') (A') (A') (A') (A') (A') (A') (A') (A') (A')
                 (A') (A') (A') (A') (A') (A') (A') (A') (A') (A')
                 (A') (A')
     4 initial guesses have been made.
 Convergence on wavefunction:    0.001000000000000
 Iteration     1 Dimension     4 NMult     0 NNew      4
 CISAX will form     4 AO SS matrices at one time.
 Iteration     2 Dimension     6 NMult     4 NNew      2
 Iteration     3 Dimension     8 NMult     6 NNew      2
 Iteration     4 Dimension    10 NMult     8 NNew      2
 Iteration     5 Dimension    12 NMult    10 NNew      2
 Iteration     6 Dimension    14 NMult    12 NNew      2
 ***********************************************************************
 Excited states from <AA,BB:AA,BB> singles matrix:
 ***********************************************************************
 
 Ground to excited state transition densities written to RWF  633
 Ground to excited state transition electric dipole moments (Au):
       state          X           Y           Z        Dip. S.      Osc.
         1        -0.4900     -0.2151     -0.0000      0.2864      0.0184
 Ground to excited state transition velocity dipole moments (Au):
       state          X           Y           Z        Dip. S.      Osc.
         1         0.0509      0.0277     -0.0000      0.0034      0.0232
 Ground to excited state transition magnetic dipole moments (Au):
       state          X           Y           Z
         1        -0.0000     -0.0000     -0.1681
 Ground to excited state transition velocity quadrupole moments (Au):
       state          XX          YY          ZZ          XY          XZ          YZ
         1         0.0007      0.2497     -0.0079     -0.0502     -0.0000      0.0000
 <0|del|b> * <b|rxdel|0> + <0|del|b> * <b|delr+rdel|0>
 Rotatory Strengths (R) in cgs (10**-40 erg-esu-cm/Gauss)
       state          XX          YY          ZZ    R(velocity)    E-M Angle
         1         0.0000      0.0000     -0.0000     -0.0000       90.00
 1/2[<0|r|b>*<b|rxdel|0> + (<0|rxdel|b>*<b|r|0>)*]
 Rotatory Strengths (R) in cgs (10**-40 erg-esu-cm/Gauss)
       state          XX          YY          ZZ     R(length)
         1        -0.0000     -0.0000     -0.0000     -0.0000
  1/2[<0|del|b>*<b|r|0> + (<0|r|b>*<b|del|0>)*] (Au)
       state          X           Y           Z        Dip. S.   Osc.(frdel)
         1        -0.0249     -0.0060      0.0000      0.0309      0.0206

 Excitation energies and oscillator strengths:
 
 Excited State   1:      Singlet-A'     2.6222 eV  472.83 nm  f=0.0184  <S**2>=0.000
      47 -> 48         0.70344
 This state for optimization and/or second-order correction.
 Total Energy, E(TD-HF/TD-DFT) =  -539.655027294    
 Copying the excited state density for this state as the 1-particle RhoCI density.
 SavETr:  write IOETrn=   770 NScale= 10 NData=  16 NLR=1 NState=    1 LETran=      28.

 **********************************************************************

            Population analysis using the SCF Density.

 **********************************************************************

 Orbital symmetries:
       Occupied  (A') (A') (A') (A') (A') (A') (A') (A') (A') (A')
                 (A') (A') (A') (A') (A') (A') (A') (A') (A') (A')
                 (A') (A') (A') (A') (A') (A') (A') (A') (A') (A')
                 (A') (A") (A') (A') (A') (A') (A') (A") (A') (A")
                 (A') (A') (A') (A") (A") (A") (A")
       Virtual   (A") (A") (A") (A") (A') (A') (A') (A') (A") (A')
                 (A') (A") (A') (A') (A") (A') (A") (A') (A') (A')
                 (A") (A") (A') (A') (A') (A") (A') (A") (A') (A')
                 (A") (A') (A") (A') (A') (A') (A') (A') (A") (A')
                 (A") (A') (A') (A") (A") (A') (A") (A') (A") (A')
                 (A') (A') (A') (A') (A') (A") (A') (A') (A') (A')
                 (A') (A") (A') (A') (A') (A") (A') (A') (A') (A')
                 (A') (A') (A') (A') (A') (A') (A') (A') (A') (A')
                 (A') (A') (A') (A') (A') (A') (A') (A') (A') (A')
                 (A') (A') (A') (A') (A") (A') (A") (A") (A') (A")
                 (A') (A') (A') (A') (A") (A") (A') (A") (A") (A')
                 (A') (A") (A') (A') (A") (A') (A') (A") (A') (A")
                 (A") (A') (A") (A') (A') (A') (A") (A') (A') (A')
                 (A') (A') (A') (A') (A') (A') (A') (A') (A') (A')
                 (A') (A') (A') (A") (A') (A') (A') (A') (A') (A')
                 (A') (A") (A') (A') (A") (A') (A") (A") (A') (A")
                 (A") (A') (A') (A") (A') (A") (A") (A") (A') (A')
                 (A') (A') (A") (A') (A') (A") (A') (A') (A') (A")
                 (A') (A') (A') (A") (A") (A') (A') (A") (A") (A')
                 (A") (A') (A') (A") (A') (A") (A') (A') (A') (A')
                 (A") (A") (A") (A') (A") (A') (A') (A") (A') (A')
                 (A') (A") (A') (A") (A") (A') (A") (A') (A') (A")
                 (A') (A') (A') (A') (A") (A') (A') (A') (A") (A")
                 (A') (A') (A') (A") (A') (A') (A') (A") (A") (A')
                 (A") (A') (A') (A") (A') (A') (A') (A') (A') (A')
                 (A") (A') (A') (A') (A') (A") (A") (A") (A') (A')
                 (A') (A') (A') (A') (A') (A') (A') (A") (A') (A')
                 (A') (A") (A') (A") (A") (A") (A') (A") (A') (A")
                 (A') (A") (A") (A') (A") (A") (A') (A') (A') (A')
                 (A') (A') (A') (A') (A') (A') (A') (A') (A') (A')
                 (A') (A') (A') (A") (A') (A') (A') (A') (A') (A')
                 (A') (A') (A') (A') (A') (A') (A') (A') (A') (A')
                 (A') (A') (A') (A') (A') (A') (A') (A') (A') (A')
                 (A') (A')
 The electronic state is 1-A'.
 Alpha  occ. eigenvalues --  -10.77545 -10.73860 -10.72897 -10.72574 -10.72210
 Alpha  occ. eigenvalues --  -10.71940 -10.71856 -10.70982 -10.70718 -10.70264
 Alpha  occ. eigenvalues --  -10.69989 -10.69910 -10.69681 -10.69259  -1.16589
 Alpha  occ. eigenvalues --   -1.12482  -1.06935  -1.05917  -1.01277  -1.00503
 Alpha  occ. eigenvalues --   -0.95497  -0.91022  -0.86451  -0.85892  -0.83766
 Alpha  occ. eigenvalues --   -0.78312  -0.76188  -0.74353  -0.69847  -0.69345
 Alpha  occ. eigenvalues --   -0.68255  -0.68084  -0.68032  -0.65401  -0.64232
 Alpha  occ. eigenvalues --   -0.62686  -0.61498  -0.60548  -0.59181  -0.59166
 Alpha  occ. eigenvalues --   -0.56960  -0.55267  -0.54467  -0.52439  -0.47498
 Alpha  occ. eigenvalues --   -0.46132  -0.43605
 Alpha virt. eigenvalues --   -0.26107  -0.14667  -0.14069  -0.12755  -0.11196
 Alpha virt. eigenvalues --   -0.10098  -0.09269  -0.07953  -0.07909  -0.07488
 Alpha virt. eigenvalues --   -0.07217  -0.07133  -0.05647  -0.05572  -0.05361
 Alpha virt. eigenvalues --   -0.03858  -0.03672  -0.03271  -0.03131  -0.02152
 Alpha virt. eigenvalues --   -0.01343  -0.00966   0.00183   0.00594   0.00643
 Alpha virt. eigenvalues --    0.01068   0.01499   0.01927   0.02121   0.02304
 Alpha virt. eigenvalues --    0.02448   0.02676   0.02814   0.03216   0.03461
 Alpha virt. eigenvalues --    0.04211   0.04497   0.04731   0.05042   0.05399
 Alpha virt. eigenvalues --    0.06019   0.06289   0.06572   0.07063   0.07276
 Alpha virt. eigenvalues --    0.07910   0.08056   0.08349   0.08679   0.08901
 Alpha virt. eigenvalues --    0.09466   0.09591   0.09946   0.10804   0.10953
 Alpha virt. eigenvalues --    0.11130   0.12075   0.12250   0.12638   0.13046
 Alpha virt. eigenvalues --    0.13485   0.13524   0.13969   0.14297   0.15800
 Alpha virt. eigenvalues --    0.16355   0.16530   0.17323   0.17400   0.17762
 Alpha virt. eigenvalues --    0.18133   0.19060   0.19372   0.19712   0.19992
 Alpha virt. eigenvalues --    0.21468   0.21679   0.22650   0.23206   0.23582
 Alpha virt. eigenvalues --    0.23978   0.24506   0.25433   0.26958   0.27626
 Alpha virt. eigenvalues --    0.28876   0.29246   0.29966   0.31359   0.35769
 Alpha virt. eigenvalues --    0.36498   0.38226   0.39285   0.41010   0.41234
 Alpha virt. eigenvalues --    0.41995   0.42063   0.42983   0.43725   0.44433
 Alpha virt. eigenvalues --    0.44740   0.45153   0.45838   0.46463   0.47850
 Alpha virt. eigenvalues --    0.48350   0.48760   0.49038   0.50571   0.51104
 Alpha virt. eigenvalues --    0.51201   0.52154   0.52173   0.52739   0.54135
 Alpha virt. eigenvalues --    0.54214   0.54601   0.55607   0.56041   0.57570
 Alpha virt. eigenvalues --    0.58216   0.59035   0.61538   0.62274   0.62467
 Alpha virt. eigenvalues --    0.63149   0.63470   0.64945   0.65176   0.67588
 Alpha virt. eigenvalues --    0.70262   0.70432   0.71303   0.72570   0.72937
 Alpha virt. eigenvalues --    0.75498   0.76072   0.76474   0.76709   0.77129
 Alpha virt. eigenvalues --    0.77890   0.78077   0.78331   0.79927   0.80392
 Alpha virt. eigenvalues --    0.81235   0.81525   0.82516   0.82989   0.85286
 Alpha virt. eigenvalues --    0.87005   0.87987   0.88194   0.89396   0.90688
 Alpha virt. eigenvalues --    0.91062   0.91522   0.93360   0.94593   0.96237
 Alpha virt. eigenvalues --    0.97012   1.00020   1.01298   1.01449   1.02776
 Alpha virt. eigenvalues --    1.02895   1.03317   1.04949   1.06693   1.08974
 Alpha virt. eigenvalues --    1.19607   1.22826   1.23957   1.24192   1.29137
 Alpha virt. eigenvalues --    1.29304   1.32464   1.34238   1.35753   1.35949
 Alpha virt. eigenvalues --    1.39303   1.39483   1.40738   1.42874   1.43370
 Alpha virt. eigenvalues --    1.43432   1.44332   1.46378   1.46562   1.47239
 Alpha virt. eigenvalues --    1.47734   1.48338   1.51842   1.53711   1.55731
 Alpha virt. eigenvalues --    1.55845   1.56259   1.56596   1.57861   1.61519
 Alpha virt. eigenvalues --    1.62842   1.63380   1.64310   1.66092   1.68266
 Alpha virt. eigenvalues --    1.68432   1.68721   1.69883   1.74461   1.76062
 Alpha virt. eigenvalues --    1.77203   1.78105   1.79804   1.79967   1.80966
 Alpha virt. eigenvalues --    1.82715   1.83179   1.83642   1.83819   1.84177
 Alpha virt. eigenvalues --    1.84698   1.85360   1.86527   1.88440   1.91458
 Alpha virt. eigenvalues --    1.92214   1.94051   1.95439   1.97854   1.98176
 Alpha virt. eigenvalues --    1.99865   2.02494   2.04645   2.07350   2.11699
 Alpha virt. eigenvalues --    2.12250   2.14348   2.15295   2.19091   2.21244
 Alpha virt. eigenvalues --    2.22713   2.28373   2.30432   2.34424   2.34738
 Alpha virt. eigenvalues --    2.36424   2.38556   2.39728   2.42335   2.44387
 Alpha virt. eigenvalues --    2.46105   2.46607   2.49132   2.52994   2.53788
 Alpha virt. eigenvalues --    2.54365   2.56842   2.57967   2.58484   2.59358
 Alpha virt. eigenvalues --    2.59959   2.61516   2.62160   2.63601   2.63716
 Alpha virt. eigenvalues --    2.64872   2.65040   2.65071   2.65698   2.68004
 Alpha virt. eigenvalues --    2.68376   2.70927   2.71503   2.73397   2.74814
 Alpha virt. eigenvalues --    2.76270   2.78332   2.79627   2.83289   2.83307
 Alpha virt. eigenvalues --    2.84875   2.86299   2.92142   2.97153   2.99391
 Alpha virt. eigenvalues --    3.00208   3.05051   3.09040   3.11166   3.14488
 Alpha virt. eigenvalues --    3.20468   3.21806   3.25985   3.29055   3.30886
 Alpha virt. eigenvalues --    3.32863   3.35022   3.44193   3.46419   3.46920
 Alpha virt. eigenvalues --    3.48382   3.50077   3.56482   3.65485   3.67148
 Alpha virt. eigenvalues --    3.68136   3.93373   3.93941   3.95320   3.96648
 Alpha virt. eigenvalues --    4.03886   4.06355   4.07766   4.12525   4.35267
 Alpha virt. eigenvalues --    4.60884   4.68892   4.70967  23.45165  23.59906
 Alpha virt. eigenvalues --   23.79239  23.81400  23.84402  23.89341  23.92194
 Alpha virt. eigenvalues --   23.95147  23.96108  23.98141  24.04617  24.07715
 Alpha virt. eigenvalues --   24.11764  24.14322
          Condensed to atoms (all electrons):
               1          2          3          4          5          6
     1  C    8.307625   0.588306  -0.676944   1.666502   0.007249  -0.082081
     2  C    0.588306   7.188914   0.439596  -0.957147  -0.046678  -0.015544
     3  C   -0.676944   0.439596   6.617437   0.700564  -0.109238   0.016868
     4  C    1.666502  -0.957147   0.700564  11.600187  -0.372259  -0.143995
     5  C    0.007249  -0.046678  -0.109238  -0.372259  10.572667   0.841144
     6  C   -0.082081  -0.015544   0.016868  -0.143995   0.841144   6.604525
     7  C   -0.038681   0.000148  -0.012880   0.020444  -1.221108   0.214264
     8  C    0.412726   0.001355  -0.108592  -0.096838   2.319955  -0.342164
     9  C   -1.168567  -0.874332   0.292360   0.092682  -0.471495   0.292480
    10  C   -1.168167   0.131897  -0.240425  -2.830551  -2.326659  -0.460303
    11  C    0.335681  -0.770209   0.859496  -0.329407  -1.397215  -0.094848
    12  C   -1.694861   0.961465  -1.327884  -1.621861  -0.189459  -0.308756
    13  C    0.186846  -0.207195  -0.239630  -1.609670  -0.333189   1.139721
    14  C   -1.166718  -0.321920  -0.096645  -0.496746  -1.617426  -1.534501
    15  H    0.366251  -0.105105  -0.003735   0.024082   0.006615   0.001275
    16  H   -0.020023   0.383288  -0.022604   0.018072  -0.001720  -0.000365
    17  H   -0.018213  -0.023778   0.382534  -0.070114   0.000075   0.000415
    18  H    0.046067   0.003764  -0.083335   0.468252   0.006290  -0.004987
    19  H   -0.042738  -0.008443   0.051100  -0.084692  -0.060052   0.051736
    20  H    0.006910   0.002012  -0.005296   0.006290   0.452576  -0.084189
    21  H   -0.001219  -0.000421   0.000378   0.000504  -0.065502   0.366020
    22  H    0.000313   0.000301  -0.000288  -0.001269   0.009166  -0.010529
    23  H    0.007075  -0.002211   0.000943   0.004279   0.030233   0.001943
    24  H    0.038647   0.016155  -0.001205  -0.010997  -0.013506  -0.001839
    25  H    0.038647   0.016155  -0.001205  -0.010997  -0.013506  -0.001839
               7          8          9         10         11         12
     1  C   -0.038681   0.412726  -1.168567  -1.168167   0.335681  -1.694861
     2  C    0.000148   0.001355  -0.874332   0.131897  -0.770209   0.961465
     3  C   -0.012880  -0.108592   0.292360  -0.240425   0.859496  -1.327884
     4  C    0.020444  -0.096838   0.092682  -2.830551  -0.329407  -1.621861
     5  C   -1.221108   2.319955  -0.471495  -2.326659  -1.397215  -0.189459
     6  C    0.214264  -0.342164   0.292480  -0.460303  -0.094848  -0.308756
     7  C    7.205023  -0.080859  -0.773615   0.372682  -0.322621  -0.048172
     8  C   -0.080859   9.074122  -1.133396  -1.409986   0.295914  -1.042175
     9  C   -0.773615  -1.133396   9.667559   0.242204   1.654688  -2.169259
    10  C    0.372682  -1.409986   0.242204   9.130542  -0.311827   2.374220
    11  C   -0.322621   0.295914   1.654688  -0.311827  14.621268  -4.177715
    12  C   -0.048172  -1.042175  -2.169259   2.374220  -4.177715  16.360546
    13  C   -1.015146   0.288985   1.467705  -0.526622   1.044768  -4.693451
    14  C    1.839365  -2.690841  -1.696637   2.480786  -4.835046   3.078944
    15  H   -0.002977   0.004744   0.086554  -0.007241  -0.029344  -0.009617
    16  H    0.000408   0.001128   0.001613  -0.010748   0.024840  -0.029604
    17  H   -0.000364  -0.001437  -0.004555   0.019908  -0.024902   0.083656
    18  H    0.002115   0.007069  -0.022052   0.006566  -0.010057  -0.045523
    19  H   -0.007355  -0.048869   0.074762   0.422826   0.076845  -0.092275
    20  H    0.001663   0.054696  -0.026411   0.015769  -0.012180  -0.006424
    21  H   -0.005413  -0.034148  -0.006662   0.020387  -0.006257   0.005311
    22  H    0.371716  -0.015835   0.004297  -0.007688   0.002286  -0.007244
    23  H   -0.108477   0.370586   0.097181  -0.011655   0.009030   0.004195
    24  H    0.012465   0.026088   0.357084   0.005579   0.027444  -0.059303
    25  H    0.012465   0.026088   0.357084   0.005579   0.027444  -0.059303
              13         14         15         16         17         18
     1  C    0.186846  -1.166718   0.366251  -0.020023  -0.018213   0.046067
     2  C   -0.207195  -0.321920  -0.105105   0.383288  -0.023778   0.003764
     3  C   -0.239630  -0.096645  -0.003735  -0.022604   0.382534  -0.083335
     4  C   -1.609670  -0.496746   0.024082   0.018072  -0.070114   0.468252
     5  C   -0.333189  -1.617426   0.006615  -0.001720   0.000075   0.006290
     6  C    1.139721  -1.534501   0.001275  -0.000365   0.000415  -0.004987
     7  C   -1.015146   1.839365  -0.002977   0.000408  -0.000364   0.002115
     8  C    0.288985  -2.690841   0.004744   0.001128  -0.001437   0.007069
     9  C    1.467705  -1.696637   0.086554   0.001613  -0.004555  -0.022052
    10  C   -0.526622   2.480786  -0.007241  -0.010748   0.019908   0.006566
    11  C    1.044768  -4.835046  -0.029344   0.024840  -0.024902  -0.010057
    12  C   -4.693451   3.078944  -0.009617  -0.029604   0.083656  -0.045523
    13  C   14.296158  -3.224362  -0.004553   0.003508  -0.006329  -0.012456
    14  C   -3.224362  15.853681   0.007793  -0.010747   0.005202  -0.022922
    15  H   -0.004553   0.007793   0.432876  -0.008797   0.001704   0.000251
    16  H    0.003508  -0.010747  -0.008797   0.415057  -0.007147   0.001982
    17  H   -0.006329   0.005202   0.001704  -0.007147   0.419027  -0.009991
    18  H   -0.012456  -0.022922   0.000251   0.001982  -0.009991   0.447033
    19  H    0.083566  -0.040832   0.000439  -0.000620   0.001805  -0.005666
    20  H   -0.002096  -0.067701  -0.000129   0.000021  -0.000172   0.001264
    21  H   -0.027268   0.098335   0.000018  -0.000007   0.000010  -0.000114
    22  H    0.026112  -0.033459  -0.000123   0.000007  -0.000007   0.000010
    23  H   -0.035101  -0.039813   0.000568  -0.000132   0.000009  -0.000099
    24  H   -0.001202  -0.060044  -0.000931   0.000623  -0.000130   0.000131
    25  H   -0.001202  -0.060044  -0.000931   0.000623  -0.000130   0.000131
              19         20         21         22         23         24
     1  C   -0.042738   0.006910  -0.001219   0.000313   0.007075   0.038647
     2  C   -0.008443   0.002012  -0.000421   0.000301  -0.002211   0.016155
     3  C    0.051100  -0.005296   0.000378  -0.000288   0.000943  -0.001205
     4  C   -0.084692   0.006290   0.000504  -0.001269   0.004279  -0.010997
     5  C   -0.060052   0.452576  -0.065502   0.009166   0.030233  -0.013506
     6  C    0.051736  -0.084189   0.366020  -0.010529   0.001943  -0.001839
     7  C   -0.007355   0.001663  -0.005413   0.371716  -0.108477   0.012465
     8  C   -0.048869   0.054696  -0.034148  -0.015835   0.370586   0.026088
     9  C    0.074762  -0.026411  -0.006662   0.004297   0.097181   0.357084
    10  C    0.422826   0.015769   0.020387  -0.007688  -0.011655   0.005579
    11  C    0.076845  -0.012180  -0.006257   0.002286   0.009030   0.027444
    12  C   -0.092275  -0.006424   0.005311  -0.007244   0.004195  -0.059303
    13  C    0.083566  -0.002096  -0.027268   0.026112  -0.035101  -0.001202
    14  C   -0.040832  -0.067701   0.098335  -0.033459  -0.039813  -0.060044
    15  H    0.000439  -0.000129   0.000018  -0.000123   0.000568  -0.000931
    16  H   -0.000620   0.000021  -0.000007   0.000007  -0.000132   0.000623
    17  H    0.001805  -0.000172   0.000010  -0.000007   0.000009  -0.000130
    18  H   -0.005666   0.001264  -0.000114   0.000010  -0.000099   0.000131
    19  H    0.444331  -0.007014   0.001057  -0.000461   0.000201   0.000603
    20  H   -0.007014   0.460360  -0.010396   0.001871   0.000025   0.000232
    21  H    0.001057  -0.010396   0.425389  -0.005761   0.001158  -0.000151
    22  H   -0.000461   0.001871  -0.005761   0.422876  -0.008829   0.000632
    23  H    0.000201   0.000025   0.001158  -0.008829   0.445945  -0.000858
    24  H    0.000603   0.000232  -0.000151   0.000632  -0.000858   0.493463
    25  H    0.000603   0.000232  -0.000151   0.000632  -0.000858  -0.079503
              25
     1  C    0.038647
     2  C    0.016155
     3  C   -0.001205
     4  C   -0.010997
     5  C   -0.013506
     6  C   -0.001839
     7  C    0.012465
     8  C    0.026088
     9  C    0.357084
    10  C    0.005579
    11  C    0.027444
    12  C   -0.059303
    13  C   -0.001202
    14  C   -0.060044
    15  H   -0.000931
    16  H    0.000623
    17  H   -0.000130
    18  H    0.000131
    19  H    0.000603
    20  H    0.000232
    21  H   -0.000151
    22  H    0.000632
    23  H   -0.000858
    24  H   -0.079503
    25  H    0.493463
 Mulliken charges:
               1
     1  C    0.069369
     2  C   -0.400372
     3  C   -0.431371
     4  C    0.034686
     5  C   -0.006959
     6  C   -0.444451
     7  C   -0.415092
     8  C    0.121683
     9  C   -0.341270
    10  C    0.082927
    11  C   -0.658075
    12  C    0.714546
    13  C   -0.597895
    14  C    0.652299
    15  H    0.240314
    16  H    0.261347
    17  H    0.252926
    18  H    0.226275
    19  H    0.189141
    20  H    0.218086
    21  H    0.244904
    22  H    0.251272
    23  H    0.234660
    24  H    0.250525
    25  H    0.250525
 Sum of Mulliken charges =   1.00000
 Mulliken charges with hydrogens summed into heavy atoms:
               1
     1  C    0.309684
     2  C   -0.139025
     3  C   -0.178445
     4  C    0.260961
     5  C    0.211127
     6  C   -0.199547
     7  C   -0.163820
     8  C    0.356343
     9  C    0.159780
    10  C    0.272068
    11  C   -0.658075
    12  C    0.714546
    13  C   -0.597895
    14  C    0.652299
 Electronic spatial extent (au):  <R**2>=           2855.8681
 Charge=              1.0000 electrons
 Dipole moment (field-independent basis, Debye):
    X=              0.7844    Y=             -0.9897    Z=             -0.0000  Tot=              1.2628
 Quadrupole moment (field-independent basis, Debye-Ang):
   XX=            -49.0523   YY=            -38.2045   ZZ=            -84.1272
   XY=            -11.4524   XZ=             -0.0000   YZ=              0.0000
 Traceless Quadrupole moment (field-independent basis, Debye-Ang):
   XX=              8.0757   YY=             18.9235   ZZ=            -26.9992
   XY=            -11.4524   XZ=             -0.0000   YZ=              0.0000
 Octapole moment (field-independent basis, Debye-Ang**2):
  XXX=              5.0159  YYY=            -15.6287  ZZZ=             -0.0000  XYY=              3.1858
  XXY=              1.7753  XXZ=             -0.0000  XZZ=             -1.7088  YZZ=             -3.1486
  YYZ=             -0.0000  XYZ=             -0.0000
 Hexadecapole moment (field-independent basis, Debye-Ang**3):
 XXXX=          -1083.4603 YYYY=          -1772.2300 ZZZZ=            -99.3042 XXXY=            368.0307
 XXXZ=             -0.0000 YYYX=            304.6695 YYYZ=             -0.0000 ZZZX=             -0.0000
 ZZZY=              0.0000 XXYY=           -444.7243 XXZZ=           -267.0073 YYZZ=           -469.2747
 XXYZ=              0.0000 YYXZ=              0.0000 ZZXY=            198.1289
 N-N= 7.813151270424D+02 E-N=-2.798995833218D+03  KE= 5.375447362423D+02
 Symmetry A'   KE= 5.228884566627D+02
 Symmetry A"   KE= 1.465627957957D+01
 Unable to Open any file for archive entry.
 1\1\GINC-GADI-CPU-CLX-1762\SP\RM062X TD-FC\6-311++G(d,p)\C14H11(1+)\TS
 1578\02-Aug-2022\0\\#n M062X/6-311++G(d,p) TD(NStates=1) EmpiricalDisp
 ersion=GD3 SP\\SP_100\\1,1\C,0,2.461355,1.361931,0.\C,0,3.664258,0.656
 214,0.\C,0,3.673361,-0.74148,0.\C,0,2.498231,-1.427963,0.\C,0,-2.42803
 1,-1.387013,0.\C,0,-3.694061,-0.68568,0.\C,0,-3.738283,0.687939,0.\C,0
 ,-2.523005,1.359231,0.\C,0,-0.019675,1.452269,0.\C,0,0.0549,-1.429139,
 0.\C,0,1.27023,0.694265,0.\C,0,1.260071,-0.733579,0.\C,0,-1.253805,0.6
 5984,0.\C,0,-1.215071,-0.728179,0.\H,0,2.478071,2.444822,0.\H,0,4.5990
 03,1.198939,0.\H,0,4.615712,-1.271024,0.\H,0,2.48405,-2.509934,0.\H,0,
 0.050625,-2.510241,0.\H,0,-2.4512,-2.470109,0.\H,0,-4.602662,-1.273049
 ,0.\H,0,-4.673928,1.224814,0.\H,0,-2.496971,2.442797,0.\H,0,-0.072,2.1
 45537,-0.85931\H,0,-0.072,2.145537,0.85931\\Version=ES64L-G16RevC.01\S
 tate=1-A'\HF=-539.7513905\RMSD=3.564e-09\PG=CS [SG(C14H9),X(H2)]\\@
 The archive entry for this job was punched.


 OF ALL THE WONDERS OF THE UNIVERSE, THE GREATEST IS MAN.

                                    -- ARISTOTLE
 Job cpu time:       0 days  0 hours 53 minutes  2.1 seconds.
 Elapsed time:       0 days  0 hours  1 minutes  6.4 seconds.
 File lengths (MBytes):  RWF=    460 Int=      0 D2E=      0 Chk=     15 Scr=      1
 Normal termination of Gaussian 16 at Tue Aug  2 12:57:50 2022.
