 Entering Gaussian System, Link 0=g16
 Initial command:
 /apps/gaussian/g16c01/g16/l1.exe "/jobfs/53796104.gadi-pbs/Gau-3651262.inp" -scrdir="/jobfs/53796104.gadi-pbs/"
 Entering Link 1 = /apps/gaussian/g16c01/g16/l1.exe PID=   3651263.
  
 Copyright (c) 1988-2019, Gaussian, Inc.  All Rights Reserved.
  
 This is part of the Gaussian(R) 16 program.  It is based on
 the Gaussian(R) 09 system (copyright 2009, Gaussian, Inc.),
 the Gaussian(R) 03 system (copyright 2003, Gaussian, Inc.),
 the Gaussian(R) 98 system (copyright 1998, Gaussian, Inc.),
 the Gaussian(R) 94 system (copyright 1995, Gaussian, Inc.),
 the Gaussian 92(TM) system (copyright 1992, Gaussian, Inc.),
 the Gaussian 90(TM) system (copyright 1990, Gaussian, Inc.),
 the Gaussian 88(TM) system (copyright 1988, Gaussian, Inc.),
 the Gaussian 86(TM) system (copyright 1986, Carnegie Mellon
 University), and the Gaussian 82(TM) system (copyright 1983,
 Carnegie Mellon University). Gaussian is a federally registered
 trademark of Gaussian, Inc.
  
 This software contains proprietary and confidential information,
 including trade secrets, belonging to Gaussian, Inc.
  
 This software is provided under written license and may be
 used, copied, transmitted, or stored only in accord with that
 written license.
  
 The following legend is applicable only to US Government
 contracts under FAR:
  
                    RESTRICTED RIGHTS LEGEND
  
 Use, reproduction and disclosure by the US Government is
 subject to restrictions as set forth in subparagraphs (a)
 and (c) of the Commercial Computer Software - Restricted
 Rights clause in FAR 52.227-19.
  
 Gaussian, Inc.
 340 Quinnipiac St., Bldg. 40, Wallingford CT 06492
  
  
 ---------------------------------------------------------------
 Warning -- This program may not be used in any manner that
 competes with the business of Gaussian, Inc. or will provide
 assistance to any competitor of Gaussian, Inc.  The licensee
 of this program is prohibited from giving any competitor of
 Gaussian, Inc. access to this program.  By using this program,
 the user acknowledges that Gaussian, Inc. is engaged in the
 business of creating and licensing software in the field of
 computational chemistry and represents and warrants to the
 licensee that it is not a competitor of Gaussian, Inc. and that
 it will not use this program in any manner prohibited above.
 ---------------------------------------------------------------
  

 Cite this work as:
 Gaussian 16, Revision C.01,
 M. J. Frisch, G. W. Trucks, H. B. Schlegel, G. E. Scuseria, 
 M. A. Robb, J. R. Cheeseman, G. Scalmani, V. Barone, 
 G. A. Petersson, H. Nakatsuji, X. Li, M. Caricato, A. V. Marenich, 
 J. Bloino, B. G. Janesko, R. Gomperts, B. Mennucci, H. P. Hratchian, 
 J. V. Ortiz, A. F. Izmaylov, J. L. Sonnenberg, D. Williams-Young, 
 F. Ding, F. Lipparini, F. Egidi, J. Goings, B. Peng, A. Petrone, 
 T. Henderson, D. Ranasinghe, V. G. Zakrzewski, J. Gao, N. Rega, 
 G. Zheng, W. Liang, M. Hada, M. Ehara, K. Toyota, R. Fukuda, 
 J. Hasegawa, M. Ishida, T. Nakajima, Y. Honda, O. Kitao, H. Nakai, 
 T. Vreven, K. Throssell, J. A. Montgomery, Jr., J. E. Peralta, 
 F. Ogliaro, M. J. Bearpark, J. J. Heyd, E. N. Brothers, K. N. Kudin, 
 V. N. Staroverov, T. A. Keith, R. Kobayashi, J. Normand, 
 K. Raghavachari, A. P. Rendell, J. C. Burant, S. S. Iyengar, 
 J. Tomasi, M. Cossi, J. M. Millam, M. Klene, C. Adamo, R. Cammi, 
 J. W. Ochterski, R. L. Martin, K. Morokuma, O. Farkas, 
 J. B. Foresman, and D. J. Fox, Gaussian, Inc., Wallingford CT, 2019.
 
 ******************************************
 Gaussian 16:  ES64L-G16RevC.01  3-Jul-2019
                 2-Aug-2022 
 ******************************************
 %NProcShared=48
 Will use up to   48 processors via shared memory.
 %mem = 190GB
 ---------------------------------------------------------------
 #n M062X/6-311++G(d,p) TD(NStates=1) EmpiricalDispersion=GD3 SP
 ---------------------------------------------------------------
 1/38=1,172=1/1;
 2/12=2,17=6,18=5,40=1/2;
 3/5=4,6=6,7=1111,11=9,25=1,30=1,74=-55,124=31/1,2,3,8;
 4//1;
 5/5=2,38=5/2;
 8/6=1,10=2,108=1/1;
 9/41=1,42=1,70=2/14;
 6/7=2,8=2,9=2,10=2/1;
 99/5=1,9=1/99;
 -----
 SP_50
 -----
 Symbolic Z-matrix:
 Charge =  1 Multiplicity = 1
 C                     2.49846   1.35953   0. 
 C                     3.70681   0.67331   0. 
 C                     3.68576  -0.71198   0. 
 C                     2.45938  -1.40551   0. 
 C                    -2.46718  -1.41006   0. 
 C                    -3.68346  -0.71818   0. 
 C                    -3.69858   0.66979   0. 
 C                    -2.49161   1.35983   0. 
 C                     0.00213   1.45887   0. 
 C                    -0.0061   -1.42944   0. 
 C                     1.26133   0.67522   0. 
 C                     1.23447  -0.73013   0. 
 C                    -1.26316   0.67904   0. 
 C                    -1.23947  -0.73073   0. 
 H                     2.49187   2.44272   0. 
 H                     4.64235   1.21219   0. 
 H                     4.60891  -1.27402   0. 
 H                     2.46535  -2.48803   0. 
 H                    -0.00563  -2.51039   0. 
 H                    -2.469    -2.49246   0. 
 H                    -4.61036  -1.2738    0. 
 H                    -4.63403   1.20931   0. 
 H                    -2.48977   2.44295   0. 
 H                     0.008     2.14704  -0.86096 
 H                     0.008     2.14704   0.86096 
 
                          Input orientation:                          
 ---------------------------------------------------------------------
 Center     Atomic      Atomic             Coordinates (Angstroms)
 Number     Number       Type             X           Y           Z
 ---------------------------------------------------------------------
      1          6           0        2.498455    1.359531    0.000000
      2          6           0        3.706808    0.673314    0.000000
      3          6           0        3.685761   -0.711980    0.000000
      4          6           0        2.459381   -1.405513    0.000000
      5          6           0       -2.467181   -1.410063    0.000000
      6          6           0       -3.683461   -0.718180    0.000000
      7          6           0       -3.698583    0.669789    0.000000
      8          6           0       -2.491605    1.359831    0.000000
      9          6           0        0.002125    1.458869    0.000000
     10          6           0       -0.006100   -1.429439    0.000000
     11          6           0        1.261330    0.675215    0.000000
     12          6           0        1.234471   -0.730129    0.000000
     13          6           0       -1.263155    0.679040    0.000000
     14          6           0       -1.239471   -0.730729    0.000000
     15          1           0        2.491871    2.442722    0.000000
     16          1           0        4.642353    1.212189    0.000000
     17          1           0        4.608912   -1.274024    0.000000
     18          1           0        2.465350   -2.488034    0.000000
     19          1           0       -0.005625   -2.510391    0.000000
     20          1           0       -2.469000   -2.492459    0.000000
     21          1           0       -4.610362   -1.273799    0.000000
     22          1           0       -4.634028    1.209314    0.000000
     23          1           0       -2.489771    2.442947    0.000000
     24          1           0        0.008000    2.147037   -0.860960
     25          1           0        0.008000    2.147037    0.860960
 ---------------------------------------------------------------------
                    Distance matrix (angstroms):
                    1          2          3          4          5
     1  C    0.000000
     2  C    1.389608   0.000000
     3  C    2.387646   1.385454   0.000000
     4  C    2.765320   2.424375   1.408899   0.000000
     5  C    5.685789   6.516026   6.192416   4.926564   0.000000
     6  C    6.521730   7.520128   7.369225   6.181176   1.399300
     7  C    6.235305   7.405392   7.512511   6.498261   2.417051
     8  C    4.990060   6.236315   6.515539   5.670925   2.770002
     9  C    2.498306   3.787053   4.275717   3.773962   3.785267
    10  C    3.748486   4.266996   3.760929   2.465597   2.461157
    11  C    1.413777   2.445479   2.793237   2.400990   4.272023
    12  C    2.442199   2.842904   2.451357   1.398767   3.763580
    13  C    3.822666   4.969966   5.140691   4.266455   2.411230
    14  C    4.282672   5.141694   4.925268   3.759899   1.403127
    15  H    1.083211   2.146364   3.373058   3.848372   6.279821
    16  H    2.148955   1.079644   2.148836   3.408479   7.577709
    17  H    3.374854   2.146140   1.080787   2.153549   7.077401
    18  H    3.847707   3.396371   2.154941   1.082537   5.048949
    19  H    4.609416   4.890617   4.106168   2.701298   2.696290
    20  H    6.285971   6.939937   6.407120   5.046820   1.082398
    21  H    7.580878   8.542047   8.315125   7.070970   2.147508
    22  H    7.134065   8.358041   8.538750   7.560011   3.399465
    23  H    5.104526   6.444315   6.934750   6.269350   3.853076
    24  H    2.750233   4.073609   4.737210   4.401265   4.418227
    25  H    2.750233   4.073609   4.737210   4.401265   4.418227
                    6          7          8          9         10
     6  C    0.000000
     7  C    1.388051   0.000000
     8  C    2.395548   1.390307   0.000000
     9  C    4.280547   3.783898   2.495696   0.000000
    10  C    3.745514   4.247492   3.736009   2.888320   0.000000
    11  C    5.137364   4.959916   3.814868   1.483142   2.456816
    12  C    4.917947   5.127845   4.272186   2.512049   1.424097
    13  C    2.794656   2.435446   1.404481   1.486293   2.454765
    14  C    2.444022   2.829962   2.436859   2.517121   1.417533
    15  H    6.937292   6.439333   5.099773   2.677088   4.607981
    16  H    8.546666   8.358553   7.135486   4.646780   5.346617
    17  H    8.310981   8.531874   7.573278   5.356416   4.617628
    18  H    6.398458   6.925743   6.275147   4.652475   2.688622
    19  H    4.091271   4.873549   4.599860   3.969268   1.080952
    20  H    2.150112   3.392888   3.852356   4.660413   2.682515
    21  H    1.080675   2.146829   3.380109   5.361204   4.606892
    22  H    2.149142   1.079882   2.147704   4.642865   5.327357
    23  H    3.378997   2.146000   1.083118   2.679171   4.600434
    24  H    4.751590   4.081945   2.758436   1.102208   3.678673
    25  H    4.751590   4.081945   2.758436   1.102208   3.678673
                   11         12         13         14         15
    11  C    0.000000
    12  C    1.405601   0.000000
    13  C    2.524488   2.867733   0.000000
    14  C    2.868917   2.473942   1.409968   0.000000
    15  H    2.153674   3.412922   4.148589   4.898337   0.000000
    16  H    3.423399   3.922532   5.929525   6.194416   2.477657
    17  H    3.873737   3.417993   6.188346   5.873564   4.277390
    18  H    3.384643   2.145995   4.892045   4.100466   4.930827
    19  H    3.428303   2.169602   3.428389   2.165542   5.547145
    20  H    4.893825   4.101403   3.393003   2.148356   6.997589
    21  H    6.186713   5.870064   3.875226   3.414357   8.015874
    22  H    5.919502   6.180673   3.412327   3.909832   7.231855
    23  H    4.146762   4.892687   2.148477   3.411080   4.981642
    24  H    2.116211   3.244005   2.124171   3.252533   2.645429
    25  H    2.116211   3.244005   2.124171   3.252533   2.645429
                   16         17         18         19         20
    16  H    0.000000
    17  H    2.486438   0.000000
    18  H    4.293133   2.463469   0.000000
    19  H    5.954939   4.777296   2.471076   0.000000
    20  H    8.018464   7.182021   4.934352   2.463440   0.000000
    21  H    9.580860   9.219274   7.179141   4.767889   2.463851
    22  H    9.276381   9.570732   8.004471   5.937872   4.288411
    23  H    7.237538   8.012938   6.990551   5.541348   4.935450
    24  H    4.805457   5.797698   5.316362   4.736357   5.329325
    25  H    4.805457   5.797698   5.316362   4.736357   5.329325
                   21         22         23         24         25
    21  H    0.000000
    22  H    2.483226   0.000000
    23  H    4.279148   2.473800   0.000000
    24  H    5.811423   4.813419   2.658510   0.000000
    25  H    5.811423   4.813419   2.658510   1.721920   0.000000
 Stoichiometry    C14H11(1+)
 Framework group  CS[SG(C14H9),X(H2)]
 Deg. of freedom    46
 Full point group                 CS      NOp   2
 Largest Abelian subgroup         CS      NOp   2
 Largest concise Abelian subgroup CS      NOp   2
                         Standard orientation:                         
 ---------------------------------------------------------------------
 Center     Atomic      Atomic             Coordinates (Angstroms)
 Number     Number       Type             X           Y           Z
 ---------------------------------------------------------------------
      1          6           0        2.492458   -1.370335    0.000000
      2          6           0        3.703771   -0.689355    0.000000
      3          6           0        3.688721    0.696017    0.000000
      4          6           0        2.465354    1.394853    0.000000
      5          6           0       -2.461142    1.420729    0.000000
      6          6           0       -3.680405    0.734118    0.000000
      7          6           0       -3.701536   -0.653773    0.000000
      8          6           0       -2.497556   -1.349033    0.000000
      9          6           0       -0.004278   -1.458865    0.000000
     10          6           0        0.000000    1.429451    0.000000
     11          6           0        1.258307   -0.680670    0.000000
     12          6           0        1.237532    0.724777    0.000000
     13          6           0       -1.266171   -0.673567    0.000000
     14          6           0       -1.236384    0.736087    0.000000
     15          1           0        2.481186   -2.453487    0.000000
     16          1           0        4.636974   -1.232275    0.000000
     17          1           0        4.614296    1.254060    0.000000
     18          1           0        2.476009    2.477338    0.000000
     19          1           0        0.005154    2.510391    0.000000
     20          1           0       -2.458275    2.503123    0.000000
     21          1           0       -4.604893    1.293744    0.000000
     22          1           0       -4.639307   -1.189244    0.000000
     23          1           0       -2.500411   -2.432147    0.000000
     24          1           0       -0.001382   -2.147052    0.860960
     25          1           0       -0.001382   -2.147052   -0.860960
 ---------------------------------------------------------------------
 Rotational constants (GHZ):           2.1344294           0.4443570           0.3685903
 Standard basis: 6-311++G(d,p) (5D, 7F)
 There are   299 symmetry adapted cartesian basis functions of A'  symmetry.
 There are   100 symmetry adapted cartesian basis functions of A"  symmetry.
 There are   285 symmetry adapted basis functions of A'  symmetry.
 There are   100 symmetry adapted basis functions of A"  symmetry.
   385 basis functions,   603 primitive gaussians,   399 cartesian basis functions
    47 alpha electrons       47 beta electrons
       nuclear repulsion energy       780.9496856498 Hartrees.
 NAtoms=   25 NActive=   25 NUniq=   24 SFac= 1.09D+00 NAtFMM=   60 NAOKFM=F Big=F
 Integral buffers will be    131072 words long.
 Regular integral format.
 Two-electron integral symmetry is turned on.
 Nuclear repulsion after empirical dispersion term =      780.9487060844 Hartrees.
 One-electron integrals computed using PRISM.
 NBasis=   385 RedAO= T EigKep=  1.13D-06  NBF=   285   100
 NBsUse=   379 1.00D-06 EigRej=  8.42D-07 NBFU=   279   100
 ExpMin= 3.60D-02 ExpMax= 4.56D+03 ExpMxC= 6.82D+02 IAcc=3 IRadAn=         5 AccDes= 0.00D+00
 Harris functional with IExCor= 1009 and IRadAn=       5 diagonalized for initial guess.
 HarFok:  IExCor= 1009 AccDes= 0.00D+00 IRadAn=         5 IDoV= 1 UseB2=F ITyADJ=14
 ICtDFT=  3500011 ScaDFX=  1.000000  1.000000  1.000000  1.000000
 FoFCou: FMM=F IPFlag=           0 FMFlag=      100000 FMFlg1=           0
         NFxFlg=           0 DoJE=T BraDBF=F KetDBF=T FulRan=T
         wScrn=  0.000000 ICntrl=       500 IOpCl=  0 I1Cent=   200000004 NGrid=           0
         NMat0=    1 NMatS0=      1 NMatT0=    0 NMatD0=    1 NMtDS0=    0 NMtDT0=    0
 Petite list used in FoFCou.
 Initial guess orbital symmetries:
       Occupied  (A') (A') (A') (A') (A') (A') (A') (A') (A') (A')
                 (A') (A') (A') (A') (A') (A') (A') (A') (A') (A')
                 (A') (A') (A') (A') (A') (A') (A') (A') (A') (A')
                 (A') (A') (A") (A') (A') (A') (A') (A') (A') (A")
                 (A") (A') (A') (A") (A") (A") (A")
       Virtual   (A") (A") (A") (A") (A") (A') (A') (A') (A') (A")
                 (A") (A') (A') (A') (A") (A') (A') (A') (A') (A")
                 (A') (A") (A') (A') (A') (A") (A') (A") (A') (A')
                 (A') (A') (A') (A") (A') (A') (A") (A') (A') (A")
                 (A') (A') (A') (A") (A') (A') (A') (A') (A') (A")
                 (A') (A') (A") (A") (A') (A') (A') (A") (A") (A')
                 (A') (A') (A') (A') (A') (A') (A") (A') (A') (A")
                 (A') (A') (A') (A') (A') (A') (A') (A') (A') (A')
                 (A') (A') (A') (A') (A') (A') (A') (A') (A') (A')
                 (A') (A') (A') (A') (A') (A') (A') (A") (A') (A")
                 (A') (A') (A") (A") (A') (A") (A') (A") (A') (A")
                 (A") (A') (A') (A') (A") (A') (A') (A") (A") (A')
                 (A") (A") (A') (A') (A') (A") (A') (A') (A') (A")
                 (A') (A') (A') (A') (A') (A') (A") (A') (A') (A')
                 (A') (A') (A') (A') (A') (A') (A') (A') (A') (A")
                 (A') (A") (A") (A") (A') (A') (A') (A") (A") (A')
                 (A") (A') (A") (A") (A") (A') (A') (A') (A') (A')
                 (A') (A") (A") (A') (A') (A') (A') (A') (A') (A")
                 (A') (A') (A') (A') (A') (A") (A") (A') (A") (A")
                 (A') (A") (A') (A") (A') (A') (A') (A") (A') (A')
                 (A") (A") (A") (A') (A') (A") (A') (A") (A') (A')
                 (A") (A") (A') (A") (A') (A") (A') (A') (A') (A")
                 (A') (A') (A') (A') (A") (A') (A') (A') (A") (A")
                 (A') (A') (A') (A") (A') (A') (A") (A') (A") (A')
                 (A") (A') (A') (A') (A') (A") (A') (A') (A') (A")
                 (A') (A') (A") (A') (A") (A') (A') (A") (A') (A')
                 (A') (A") (A') (A") (A') (A') (A') (A") (A') (A")
                 (A') (A') (A') (A') (A") (A') (A") (A') (A") (A')
                 (A") (A') (A") (A") (A") (A') (A') (A') (A') (A')
                 (A') (A') (A') (A') (A') (A') (A') (A') (A') (A')
                 (A') (A') (A') (A') (A') (A") (A') (A') (A') (A')
                 (A') (A') (A') (A') (A') (A') (A') (A') (A') (A')
                 (A') (A') (A') (A') (A') (A') (A') (A') (A') (A')
                 (A') (A')
 The electronic state of the initial guess is 1-A'.
 Requested convergence on RMS density matrix=1.00D-08 within 128 cycles.
 Requested convergence on MAX density matrix=1.00D-06.
 Requested convergence on             energy=1.00D-06.
 No special actions if energy rises.
 SCF Done:  E(RM062X) =  -539.760164401     A.U. after   15 cycles
            NFock= 15  Conv=0.47D-08     -V/T= 2.0042
 DoSCS=F DFT=T ScalE2(SS,OS)=  1.000000  1.000000
 ExpMin= 3.60D-02 ExpMax= 4.56D+03 ExpMxC= 6.82D+02 IAcc=3 IRadAn=         5 AccDes= 0.00D+00
 HarFok:  IExCor=  205 AccDes= 0.00D+00 IRadAn=         5 IDoV=-2 UseB2=F ITyADJ=14
 ICtDFT= 12500011 ScaDFX=  1.000000  1.000000  1.000000  1.000000
 Range of M.O.s used for correlation:    15   379
 NBasis=   385 NAE=    47 NBE=    47 NFC=    14 NFV=     0
 NROrb=    365 NOA=    33 NOB=    33 NVA=   332 NVB=   332

 **** Warning!!: The largest alpha MO coefficient is  0.15057318D+03

 Orbital symmetries:
       Occupied  (A') (A') (A') (A') (A') (A') (A') (A') (A') (A')
                 (A') (A') (A') (A') (A') (A') (A') (A') (A') (A')
                 (A') (A') (A') (A') (A') (A') (A') (A') (A') (A')
                 (A') (A') (A") (A') (A') (A') (A') (A") (A") (A')
                 (A') (A') (A') (A") (A") (A") (A")
       Virtual   (A") (A") (A") (A") (A') (A') (A') (A') (A") (A')
                 (A') (A") (A') (A') (A") (A') (A") (A') (A') (A')
                 (A") (A") (A') (A') (A') (A") (A') (A") (A') (A')
                 (A") (A') (A") (A') (A') (A') (A') (A') (A") (A')
                 (A") (A') (A') (A") (A") (A') (A") (A') (A") (A')
                 (A') (A') (A') (A') (A') (A") (A') (A') (A') (A')
                 (A') (A") (A') (A') (A') (A') (A") (A') (A') (A')
                 (A') (A') (A') (A') (A') (A') (A') (A') (A') (A')
                 (A') (A') (A') (A') (A') (A') (A') (A') (A') (A')
                 (A') (A') (A') (A') (A") (A') (A") (A") (A') (A")
                 (A') (A') (A') (A') (A") (A") (A') (A") (A") (A')
                 (A') (A') (A") (A') (A') (A") (A') (A") (A') (A")
                 (A") (A') (A") (A') (A') (A') (A") (A') (A') (A')
                 (A') (A') (A') (A') (A') (A') (A') (A') (A') (A')
                 (A') (A') (A') (A") (A') (A') (A') (A') (A') (A')
                 (A') (A') (A") (A') (A") (A') (A") (A") (A') (A")
                 (A") (A') (A') (A") (A") (A") (A') (A") (A') (A')
                 (A') (A') (A') (A") (A") (A') (A') (A') (A') (A")
                 (A') (A') (A') (A") (A') (A") (A') (A') (A") (A")
                 (A") (A') (A') (A") (A") (A') (A') (A') (A') (A')
                 (A") (A") (A") (A') (A') (A") (A') (A") (A') (A')
                 (A') (A") (A') (A") (A") (A') (A") (A') (A') (A")
                 (A') (A') (A') (A') (A") (A') (A') (A') (A") (A")
                 (A') (A') (A') (A") (A') (A') (A') (A") (A") (A')
                 (A") (A') (A') (A") (A') (A') (A') (A') (A') (A')
                 (A") (A') (A') (A') (A') (A") (A") (A") (A') (A')
                 (A') (A') (A') (A') (A') (A') (A") (A') (A') (A')
                 (A') (A") (A') (A") (A") (A") (A') (A") (A') (A")
                 (A') (A") (A") (A') (A") (A") (A') (A') (A') (A')
                 (A') (A') (A') (A') (A') (A') (A') (A') (A') (A')
                 (A') (A') (A') (A") (A') (A') (A') (A') (A') (A')
                 (A') (A') (A') (A') (A') (A') (A') (A') (A') (A')
                 (A') (A') (A') (A') (A') (A') (A') (A') (A') (A')
                 (A') (A')
     4 initial guesses have been made.
 Convergence on wavefunction:    0.001000000000000
 Iteration     1 Dimension     4 NMult     0 NNew      4
 CISAX will form     4 AO SS matrices at one time.
 Iteration     2 Dimension     6 NMult     4 NNew      2
 Iteration     3 Dimension     8 NMult     6 NNew      2
 Iteration     4 Dimension    10 NMult     8 NNew      2
 Iteration     5 Dimension    12 NMult    10 NNew      2
 Iteration     6 Dimension    14 NMult    12 NNew      2
 ***********************************************************************
 Excited states from <AA,BB:AA,BB> singles matrix:
 ***********************************************************************
 
 Ground to excited state transition densities written to RWF  633
 Ground to excited state transition electric dipole moments (Au):
       state          X           Y           Z        Dip. S.      Osc.
         1         0.0031     -0.6379      0.0000      0.4070      0.0281
 Ground to excited state transition velocity dipole moments (Au):
       state          X           Y           Z        Dip. S.      Osc.
         1         0.0005      0.0738      0.0000      0.0054      0.0350
 Ground to excited state transition magnetic dipole moments (Au):
       state          X           Y           Z
         1         0.0000      0.0000      0.0471
 Ground to excited state transition velocity quadrupole moments (Au):
       state          XX          YY          ZZ          XY          XZ          YZ
         1         0.2972      0.0350     -0.0098      0.0182     -0.0000      0.0000
 <0|del|b> * <b|rxdel|0> + <0|del|b> * <b|delr+rdel|0>
 Rotatory Strengths (R) in cgs (10**-40 erg-esu-cm/Gauss)
       state          XX          YY          ZZ    R(velocity)    E-M Angle
         1         0.0000      0.0000      0.0000      0.0000       90.00
 1/2[<0|r|b>*<b|rxdel|0> + (<0|rxdel|b>*<b|r|0>)*]
 Rotatory Strengths (R) in cgs (10**-40 erg-esu-cm/Gauss)
       state          XX          YY          ZZ     R(length)
         1        -0.0000      0.0000     -0.0000      0.0000
  1/2[<0|del|b>*<b|r|0> + (<0|r|b>*<b|del|0>)*] (Au)
       state          X           Y           Z        Dip. S.   Osc.(frdel)
         1         0.0000     -0.0471      0.0000      0.0471      0.0314

 Excitation energies and oscillator strengths:
 
 Excited State   1:      Singlet-A'     2.8196 eV  439.72 nm  f=0.0281  <S**2>=0.000
      47 -> 48         0.70422
 This state for optimization and/or second-order correction.
 Total Energy, E(TD-HF/TD-DFT) =  -539.656545148    
 Copying the excited state density for this state as the 1-particle RhoCI density.
 SavETr:  write IOETrn=   770 NScale= 10 NData=  16 NLR=1 NState=    1 LETran=      28.

 **********************************************************************

            Population analysis using the SCF Density.

 **********************************************************************

 Orbital symmetries:
       Occupied  (A') (A') (A') (A') (A') (A') (A') (A') (A') (A')
                 (A') (A') (A') (A') (A') (A') (A') (A') (A') (A')
                 (A') (A') (A') (A') (A') (A') (A') (A') (A') (A')
                 (A') (A') (A") (A') (A') (A') (A') (A") (A") (A')
                 (A') (A') (A') (A") (A") (A") (A")
       Virtual   (A") (A") (A") (A") (A') (A') (A') (A') (A") (A')
                 (A') (A") (A') (A') (A") (A') (A") (A') (A') (A')
                 (A") (A") (A') (A') (A') (A") (A') (A") (A') (A')
                 (A") (A') (A") (A') (A') (A') (A') (A') (A") (A')
                 (A") (A') (A') (A") (A") (A') (A") (A') (A") (A')
                 (A') (A') (A') (A') (A') (A") (A') (A') (A') (A')
                 (A') (A") (A') (A') (A') (A') (A") (A') (A') (A')
                 (A') (A') (A') (A') (A') (A') (A') (A') (A') (A')
                 (A') (A') (A') (A') (A') (A') (A') (A') (A') (A')
                 (A') (A') (A') (A') (A") (A') (A") (A") (A') (A")
                 (A') (A') (A') (A') (A") (A") (A') (A") (A") (A')
                 (A') (A') (A") (A') (A') (A") (A') (A") (A') (A")
                 (A") (A') (A") (A') (A') (A') (A") (A') (A') (A')
                 (A') (A') (A') (A') (A') (A') (A') (A') (A') (A')
                 (A') (A') (A') (A") (A') (A') (A') (A') (A') (A')
                 (A') (A') (A") (A') (A") (A') (A") (A") (A') (A")
                 (A") (A') (A') (A") (A") (A") (A') (A") (A') (A')
                 (A') (A') (A') (A") (A") (A') (A') (A') (A') (A")
                 (A') (A') (A') (A") (A') (A") (A') (A') (A") (A")
                 (A") (A') (A') (A") (A") (A') (A') (A') (A') (A')
                 (A") (A") (A") (A') (A') (A") (A') (A") (A') (A')
                 (A') (A") (A') (A") (A") (A') (A") (A') (A') (A")
                 (A') (A') (A') (A') (A") (A') (A') (A') (A") (A")
                 (A') (A') (A') (A") (A') (A') (A') (A") (A") (A')
                 (A") (A') (A') (A") (A') (A') (A') (A') (A') (A')
                 (A") (A') (A') (A') (A') (A") (A") (A") (A') (A')
                 (A') (A') (A') (A') (A') (A') (A") (A') (A') (A')
                 (A') (A") (A') (A") (A") (A") (A') (A") (A') (A")
                 (A') (A") (A") (A') (A") (A") (A') (A') (A') (A')
                 (A') (A') (A') (A') (A') (A') (A') (A') (A') (A')
                 (A') (A') (A') (A") (A') (A') (A') (A') (A') (A')
                 (A') (A') (A') (A') (A') (A') (A') (A') (A') (A')
                 (A') (A') (A') (A') (A') (A') (A') (A') (A') (A')
                 (A') (A')
 The electronic state is 1-A'.
 Alpha  occ. eigenvalues --  -10.77675 -10.73346 -10.73201 -10.72504 -10.72387
 Alpha  occ. eigenvalues --  -10.71440 -10.71303 -10.71129 -10.70997 -10.70871
 Alpha  occ. eigenvalues --  -10.70006 -10.69940 -10.69679 -10.69597  -1.16412
 Alpha  occ. eigenvalues --   -1.12445  -1.06945  -1.05681  -1.01312  -1.00152
 Alpha  occ. eigenvalues --   -0.95782  -0.91043  -0.86414  -0.85890  -0.83806
 Alpha  occ. eigenvalues --   -0.78393  -0.76000  -0.74414  -0.69580  -0.69239
 Alpha  occ. eigenvalues --   -0.68490  -0.68177  -0.68112  -0.64744  -0.64268
 Alpha  occ. eigenvalues --   -0.63011  -0.61859  -0.60054  -0.59650  -0.59101
 Alpha  occ. eigenvalues --   -0.56881  -0.55224  -0.54809  -0.52442  -0.46621
 Alpha  occ. eigenvalues --   -0.46059  -0.44503
 Alpha virt. eigenvalues --   -0.26101  -0.14666  -0.14099  -0.12776  -0.11177
 Alpha virt. eigenvalues --   -0.10082  -0.09231  -0.07982  -0.07976  -0.07475
 Alpha virt. eigenvalues --   -0.07199  -0.07143  -0.05645  -0.05579  -0.05330
 Alpha virt. eigenvalues --   -0.03826  -0.03645  -0.03278  -0.03135  -0.02167
 Alpha virt. eigenvalues --   -0.01365  -0.00929   0.00197   0.00592   0.00644
 Alpha virt. eigenvalues --    0.01054   0.01515   0.01946   0.02214   0.02296
 Alpha virt. eigenvalues --    0.02449   0.02668   0.02743   0.03351   0.03380
 Alpha virt. eigenvalues --    0.04242   0.04500   0.04699   0.05034   0.05366
 Alpha virt. eigenvalues --    0.06037   0.06291   0.06594   0.07033   0.07260
 Alpha virt. eigenvalues --    0.07890   0.08157   0.08355   0.08526   0.08928
 Alpha virt. eigenvalues --    0.09540   0.09559   0.10028   0.10854   0.10997
 Alpha virt. eigenvalues --    0.11122   0.12160   0.12238   0.12904   0.12958
 Alpha virt. eigenvalues --    0.13405   0.13525   0.14006   0.14389   0.16175
 Alpha virt. eigenvalues --    0.16289   0.16399   0.17344   0.17617   0.17796
 Alpha virt. eigenvalues --    0.18113   0.19089   0.19243   0.19621   0.19722
 Alpha virt. eigenvalues --    0.21525   0.21581   0.22716   0.23094   0.23545
 Alpha virt. eigenvalues --    0.23853   0.24600   0.25406   0.26919   0.27595
 Alpha virt. eigenvalues --    0.28828   0.29281   0.29835   0.31344   0.35778
 Alpha virt. eigenvalues --    0.36403   0.38187   0.39271   0.41148   0.41405
 Alpha virt. eigenvalues --    0.41936   0.42222   0.42985   0.43652   0.44291
 Alpha virt. eigenvalues --    0.44958   0.45012   0.46089   0.46156   0.47982
 Alpha virt. eigenvalues --    0.48523   0.48840   0.49038   0.50416   0.51072
 Alpha virt. eigenvalues --    0.51504   0.51670   0.52117   0.52872   0.53968
 Alpha virt. eigenvalues --    0.54092   0.54616   0.55685   0.55759   0.57566
 Alpha virt. eigenvalues --    0.58238   0.58811   0.61430   0.62223   0.62336
 Alpha virt. eigenvalues --    0.63200   0.63486   0.64909   0.65145   0.67179
 Alpha virt. eigenvalues --    0.70437   0.70635   0.71001   0.72396   0.72855
 Alpha virt. eigenvalues --    0.75783   0.76009   0.76267   0.76900   0.77089
 Alpha virt. eigenvalues --    0.77832   0.77844   0.78209   0.79899   0.80385
 Alpha virt. eigenvalues --    0.81218   0.81672   0.82143   0.83004   0.85155
 Alpha virt. eigenvalues --    0.87137   0.88132   0.88566   0.89134   0.90395
 Alpha virt. eigenvalues --    0.91028   0.91268   0.93189   0.94615   0.96425
 Alpha virt. eigenvalues --    0.96650   1.00413   1.01258   1.01697   1.02704
 Alpha virt. eigenvalues --    1.03190   1.03795   1.04732   1.05458   1.08741
 Alpha virt. eigenvalues --    1.19532   1.23283   1.24025   1.25215   1.27920
 Alpha virt. eigenvalues --    1.29740   1.31724   1.34356   1.35743   1.35994
 Alpha virt. eigenvalues --    1.39315   1.40139   1.40925   1.43070   1.43425
 Alpha virt. eigenvalues --    1.43513   1.45021   1.45449   1.46345   1.46668
 Alpha virt. eigenvalues --    1.47638   1.47984   1.51670   1.53611   1.55587
 Alpha virt. eigenvalues --    1.55833   1.56333   1.56594   1.57743   1.61393
 Alpha virt. eigenvalues --    1.63271   1.63525   1.63795   1.66079   1.68243
 Alpha virt. eigenvalues --    1.68358   1.68722   1.69757   1.74342   1.75967
 Alpha virt. eigenvalues --    1.77121   1.78047   1.79902   1.80094   1.80680
 Alpha virt. eigenvalues --    1.83125   1.83217   1.83566   1.83831   1.84190
 Alpha virt. eigenvalues --    1.84257   1.85865   1.86058   1.88207   1.91365
 Alpha virt. eigenvalues --    1.92036   1.94102   1.95162   1.97675   1.98126
 Alpha virt. eigenvalues --    1.99701   2.02240   2.04351   2.07259   2.11794
 Alpha virt. eigenvalues --    2.12014   2.14100   2.15224   2.19033   2.21152
 Alpha virt. eigenvalues --    2.22786   2.28692   2.29983   2.34577   2.34910
 Alpha virt. eigenvalues --    2.36219   2.38684   2.39592   2.42344   2.44918
 Alpha virt. eigenvalues --    2.46138   2.46280   2.49325   2.52868   2.53782
 Alpha virt. eigenvalues --    2.54104   2.56884   2.57830   2.58303   2.59618
 Alpha virt. eigenvalues --    2.59809   2.61578   2.62105   2.63512   2.63750
 Alpha virt. eigenvalues --    2.64770   2.65084   2.65219   2.65302   2.67828
 Alpha virt. eigenvalues --    2.68444   2.70935   2.71413   2.73334   2.74806
 Alpha virt. eigenvalues --    2.76304   2.78598   2.79690   2.82716   2.83038
 Alpha virt. eigenvalues --    2.84850   2.86224   2.92081   2.97029   2.99485
 Alpha virt. eigenvalues --    3.00024   3.04840   3.10894   3.11312   3.13026
 Alpha virt. eigenvalues --    3.20850   3.23214   3.26596   3.28151   3.30728
 Alpha virt. eigenvalues --    3.32799   3.33575   3.43417   3.45895   3.46404
 Alpha virt. eigenvalues --    3.48364   3.50017   3.56359   3.66461   3.66640
 Alpha virt. eigenvalues --    3.67383   3.94189   3.94568   3.95202   3.96183
 Alpha virt. eigenvalues --    4.03991   4.06843   4.07402   4.12560   4.35326
 Alpha virt. eigenvalues --    4.60982   4.69729   4.71572  23.45349  23.60443
 Alpha virt. eigenvalues --   23.82121  23.85187  23.87690  23.89156  23.90584
 Alpha virt. eigenvalues --   23.92374  23.97460  23.99241  23.99895  24.00475
 Alpha virt. eigenvalues --   24.10503  24.10649
          Condensed to atoms (all electrons):
               1          2          3          4          5          6
     1  C    8.693018   0.213167  -0.509197   2.098775  -0.053946  -0.097909
     2  C    0.213167   7.183589   0.329477  -1.133424  -0.007822  -0.014010
     3  C   -0.509197   0.329477   6.591432   0.784914  -0.128832   0.016946
     4  C    2.098775  -1.133424   0.784914  11.087089  -0.406490  -0.124893
     5  C   -0.053946  -0.007822  -0.128832  -0.406490  11.203772   0.769273
     6  C   -0.097909  -0.014010   0.016946  -0.124893   0.769273   6.592779
     7  C   -0.011323   0.000156  -0.014294  -0.015352  -1.103906   0.354370
     8  C    0.402383  -0.015747  -0.095041  -0.041827   2.026751  -0.546641
     9  C   -1.105226  -0.815531   0.299713  -0.216797  -0.153520   0.299854
    10  C   -1.327065   0.272353  -0.361712  -2.562901  -2.620113  -0.337607
    11  C    0.323469  -0.903366   1.015852  -0.307502  -1.521572  -0.179686
    12  C   -2.297978   1.443037  -1.431181  -1.696868  -0.356486  -0.186763
    13  C    0.253818  -0.250943  -0.163571  -1.496502  -0.308569   0.984422
    14  C   -1.083126  -0.173047  -0.210572  -0.323348  -1.697396  -1.407774
    15  H    0.369532  -0.108462  -0.000644   0.028421   0.005400   0.001087
    16  H   -0.018875   0.379243  -0.016680   0.013010  -0.001505  -0.000325
    17  H   -0.027294  -0.014881   0.374320  -0.068574   0.000345   0.000402
    18  H    0.051858   0.002738  -0.084581   0.460143   0.005472  -0.005187
    19  H   -0.047023  -0.007797   0.051705  -0.068188  -0.070905   0.051631
    20  H    0.007029   0.002117  -0.005151   0.005475   0.461874  -0.084493
    21  H   -0.001322  -0.000398   0.000406   0.000298  -0.069096   0.376201
    22  H    0.000781   0.000376  -0.000333  -0.001557   0.013981  -0.018006
    23  H    0.005429  -0.002653   0.001123   0.005665   0.027755  -0.001276
    24  H    0.033072   0.014423  -0.001634  -0.012265  -0.011998  -0.001565
    25  H    0.033072   0.014423  -0.001634  -0.012265  -0.011998  -0.001565
               7          8          9         10         11         12
     1  C   -0.011323   0.402383  -1.105226  -1.327065   0.323469  -2.297978
     2  C    0.000156  -0.015747  -0.815531   0.272353  -0.903366   1.443037
     3  C   -0.014294  -0.095041   0.299713  -0.361712   1.015852  -1.431181
     4  C   -0.015352  -0.041827  -0.216797  -2.562901  -0.307502  -1.696868
     5  C   -1.103906   2.026751  -0.153520  -2.620113  -1.521572  -0.356486
     6  C    0.354370  -0.546641   0.299854  -0.337607  -0.179686  -0.186763
     7  C    7.182605   0.287411  -0.827337   0.245951  -0.237883  -0.203619
     8  C    0.287411   8.605669  -1.107937  -1.300913   0.241118  -1.096118
     9  C   -0.827337  -1.107937   9.547470   0.265375   1.500166  -1.859596
    10  C    0.245951  -1.300913   0.265375   9.092005  -0.389375   2.430122
    11  C   -0.237883   0.241118   1.500166  -0.389375  14.352124  -3.668400
    12  C   -0.203619  -1.096118  -1.859596   2.430122  -3.668400  16.039577
    13  C   -0.875568   0.328273   1.520606  -0.366173   1.103294  -4.765850
    14  C    1.344592  -2.186265  -1.912758   2.418668  -4.750631   3.173335
    15  H   -0.002568   0.005684   0.091509  -0.009830  -0.030920  -0.026345
    16  H    0.000364   0.000692   0.002922  -0.008910   0.025066  -0.031767
    17  H   -0.000405  -0.001298  -0.005667   0.020299  -0.026727   0.093695
    18  H    0.002105   0.007021  -0.024642   0.010840  -0.004628  -0.058208
    19  H   -0.007923  -0.046382   0.075048   0.421685   0.077875  -0.062830
    20  H    0.002982   0.050899  -0.024154   0.009811  -0.012001  -0.015972
    21  H   -0.016983  -0.025489  -0.005436   0.020260  -0.006252   0.005321
    22  H    0.380574  -0.019380   0.002602  -0.009247   0.003079  -0.009242
    23  H   -0.108141   0.369031   0.090431  -0.009356   0.000757   0.006598
    24  H    0.014846   0.034444   0.354965   0.005121   0.012193  -0.060528
    25  H    0.014846   0.034444   0.354965   0.005121   0.012193  -0.060528
              13         14         15         16         17         18
     1  C    0.253818  -1.083126   0.369532  -0.018875  -0.027294   0.051858
     2  C   -0.250943  -0.173047  -0.108462   0.379243  -0.014881   0.002738
     3  C   -0.163571  -0.210572  -0.000644  -0.016680   0.374320  -0.084581
     4  C   -1.496502  -0.323348   0.028421   0.013010  -0.068574   0.460143
     5  C   -0.308569  -1.697396   0.005400  -0.001505   0.000345   0.005472
     6  C    0.984422  -1.407774   0.001087  -0.000325   0.000402  -0.005187
     7  C   -0.875568   1.344592  -0.002568   0.000364  -0.000405   0.002105
     8  C    0.328273  -2.186265   0.005684   0.000692  -0.001298   0.007021
     9  C    1.520606  -1.912758   0.091509   0.002922  -0.005667  -0.024642
    10  C   -0.366173   2.418668  -0.009830  -0.008910   0.020299   0.010840
    11  C    1.103294  -4.750631  -0.030920   0.025066  -0.026727  -0.004628
    12  C   -4.765850   3.173335  -0.026345  -0.031767   0.093695  -0.058208
    13  C   14.388890  -3.774560   0.002248   0.002943  -0.006241  -0.011955
    14  C   -3.774560  16.098283   0.006185  -0.008854   0.005334  -0.014153
    15  H    0.002248   0.006185   0.440179  -0.009076   0.001442   0.000140
    16  H    0.002943  -0.008854  -0.009076   0.420110  -0.006544   0.001928
    17  H   -0.006241   0.005334   0.001442  -0.006544   0.422822  -0.010376
    18  H   -0.011955  -0.014153   0.000140   0.001928  -0.010376   0.454882
    19  H    0.077171  -0.068456   0.000308  -0.000540   0.001391  -0.006379
    20  H   -0.005530  -0.055705  -0.000112   0.000015  -0.000141   0.001247
    21  H   -0.026482   0.092058   0.000014  -0.000007   0.000010  -0.000148
    22  H    0.024910  -0.031296  -0.000128   0.000008  -0.000007   0.000016
    23  H   -0.030307  -0.023042   0.000555  -0.000127   0.000015  -0.000116
    24  H    0.015355  -0.060455  -0.000920   0.000635  -0.000144   0.000194
    25  H    0.015355  -0.060455  -0.000920   0.000635  -0.000144   0.000194
              19         20         21         22         23         24
     1  C   -0.047023   0.007029  -0.001322   0.000781   0.005429   0.033072
     2  C   -0.007797   0.002117  -0.000398   0.000376  -0.002653   0.014423
     3  C    0.051705  -0.005151   0.000406  -0.000333   0.001123  -0.001634
     4  C   -0.068188   0.005475   0.000298  -0.001557   0.005665  -0.012265
     5  C   -0.070905   0.461874  -0.069096   0.013981   0.027755  -0.011998
     6  C    0.051631  -0.084493   0.376201  -0.018006  -0.001276  -0.001565
     7  C   -0.007923   0.002982  -0.016983   0.380574  -0.108141   0.014846
     8  C   -0.046382   0.050899  -0.025489  -0.019380   0.369031   0.034444
     9  C    0.075048  -0.024154  -0.005436   0.002602   0.090431   0.354965
    10  C    0.421685   0.009811   0.020260  -0.009247  -0.009356   0.005121
    11  C    0.077875  -0.012001  -0.006252   0.003079   0.000757   0.012193
    12  C   -0.062830  -0.015972   0.005321  -0.009242   0.006598  -0.060528
    13  C    0.077171  -0.005530  -0.026482   0.024910  -0.030307   0.015355
    14  C   -0.068456  -0.055705   0.092058  -0.031296  -0.023042  -0.060455
    15  H    0.000308  -0.000112   0.000014  -0.000128   0.000555  -0.000920
    16  H   -0.000540   0.000015  -0.000007   0.000008  -0.000127   0.000635
    17  H    0.001391  -0.000141   0.000010  -0.000007   0.000015  -0.000144
    18  H   -0.006379   0.001247  -0.000148   0.000016  -0.000116   0.000194
    19  H    0.442900  -0.006224   0.001474  -0.000558   0.000334   0.000572
    20  H   -0.006224   0.453393  -0.010331   0.001939   0.000166   0.000182
    21  H    0.001474  -0.010331   0.422123  -0.006703   0.001504  -0.000142
    22  H   -0.000558   0.001939  -0.006703   0.419224  -0.009075   0.000634
    23  H    0.000334   0.000166   0.001504  -0.009075   0.438722  -0.000928
    24  H    0.000572   0.000182  -0.000142   0.000634  -0.000928   0.493103
    25  H    0.000572   0.000182  -0.000142   0.000634  -0.000928  -0.078636
              25
     1  C    0.033072
     2  C    0.014423
     3  C   -0.001634
     4  C   -0.012265
     5  C   -0.011998
     6  C   -0.001565
     7  C    0.014846
     8  C    0.034444
     9  C    0.354965
    10  C    0.005121
    11  C    0.012193
    12  C   -0.060528
    13  C    0.015355
    14  C   -0.060455
    15  H   -0.000920
    16  H    0.000635
    17  H   -0.000144
    18  H    0.000194
    19  H    0.000572
    20  H    0.000182
    21  H   -0.000142
    22  H    0.000634
    23  H   -0.000928
    24  H   -0.078636
    25  H    0.493103
 Mulliken charges:
               1
     1  C    0.094878
     2  C   -0.407019
     3  C   -0.440833
     4  C    0.004962
     5  C    0.009532
     6  C   -0.439267
     7  C   -0.405503
     8  C    0.089216
     9  C   -0.347023
    10  C    0.085588
    11  C   -0.628244
    12  C    0.696595
    13  C   -0.635036
    14  C    0.703435
    15  H    0.237220
    16  H    0.255639
    17  H    0.248368
    18  H    0.221593
    19  H    0.190538
    20  H    0.222504
    21  H    0.249262
    22  H    0.256775
    23  H    0.237864
    24  H    0.249477
    25  H    0.249477
 Sum of Mulliken charges =   1.00000
 Mulliken charges with hydrogens summed into heavy atoms:
               1
     1  C    0.332098
     2  C   -0.151380
     3  C   -0.192465
     4  C    0.226555
     5  C    0.232036
     6  C   -0.190004
     7  C   -0.148728
     8  C    0.327081
     9  C    0.151931
    10  C    0.276126
    11  C   -0.628244
    12  C    0.696595
    13  C   -0.635036
    14  C    0.703435
 Electronic spatial extent (au):  <R**2>=           2857.6063
 Charge=              1.0000 electrons
 Dipole moment (field-independent basis, Debye):
    X=             -0.1393    Y=              0.1923    Z=              0.0000  Tot=              0.2375
 Quadrupole moment (field-independent basis, Debye-Ang):
   XX=            -31.0868   YY=            -56.2700   ZZ=            -84.1428
   XY=             -0.1768   XZ=              0.0000   YZ=             -0.0000
 Traceless Quadrupole moment (field-independent basis, Debye-Ang):
   XX=             26.0797   YY=              0.8965   ZZ=            -26.9763
   XY=             -0.1768   XZ=              0.0000   YZ=             -0.0000
 Octapole moment (field-independent basis, Debye-Ang**2):
  XXX=             -1.5176  YYY=              5.2663  ZZZ=              0.0000  XYY=             -0.2844
  XXY=             -5.1760  XXZ=              0.0000  XZZ=             -0.2169  YZZ=             -3.1093
  YYZ=              0.0000  XYZ=             -0.0000
 Hexadecapole moment (field-independent basis, Debye-Ang**3):
 XXXX=          -2122.9233 YYYY=           -609.8748 ZZZZ=            -99.3429 XXXY=              3.1158
 XXXZ=              0.0000 YYYX=              4.8825 YYYZ=             -0.0000 ZZZX=              0.0000
 ZZZY=             -0.0000 XXYY=           -508.0520 XXZZ=           -591.1080 YYZZ=           -145.7747
 XXYZ=              0.0000 YYXZ=              0.0000 ZZXY=              2.3825
 N-N= 7.809487060844D+02 E-N=-2.798230879774D+03  KE= 5.374929026798D+02
 Symmetry A'   KE= 5.228456318241D+02
 Symmetry A"   KE= 1.464727085571D+01
 Unable to Open any file for archive entry.
 1\1\GINC-GADI-CPU-CLX-1762\SP\RM062X TD-FC\6-311++G(d,p)\C14H11(1+)\TS
 1578\02-Aug-2022\0\\#n M062X/6-311++G(d,p) TD(NStates=1) EmpiricalDisp
 ersion=GD3 SP\\SP_50\\1,1\C,0,2.498455,1.359531,0.\C,0,3.706808,0.6733
 14,0.\C,0,3.685761,-0.71198,0.\C,0,2.459381,-1.405513,0.\C,0,-2.467181
 ,-1.410063,0.\C,0,-3.683461,-0.71818,0.\C,0,-3.698583,0.669789,0.\C,0,
 -2.491605,1.359831,0.\C,0,0.002125,1.458869,0.\C,0,-0.0061,-1.429439,0
 .\C,0,1.26133,0.675215,0.\C,0,1.234471,-0.730129,0.\C,0,-1.263155,0.67
 904,0.\C,0,-1.239471,-0.730729,0.\H,0,2.491871,2.442722,0.\H,0,4.64235
 3,1.212189,0.\H,0,4.608912,-1.274024,0.\H,0,2.46535,-2.488034,0.\H,0,-
 0.005625,-2.510391,0.\H,0,-2.469,-2.492459,0.\H,0,-4.610362,-1.273799,
 0.\H,0,-4.634028,1.209314,0.\H,0,-2.489771,2.442947,0.\H,0,0.008,2.147
 037,-0.86096\H,0,0.008,2.147037,0.86096\\Version=ES64L-G16RevC.01\Stat
 e=1-A'\HF=-539.7601644\RMSD=4.702e-09\PG=CS [SG(C14H9),X(H2)]\\@
 The archive entry for this job was punched.


 MYSTERY IS THE WISDOM OF BLOCKHEADS... HORACE WALPOLE 
 Job cpu time:       0 days  0 hours 53 minutes 14.5 seconds.
 Elapsed time:       0 days  0 hours  1 minutes  7.3 seconds.
 File lengths (MBytes):  RWF=    460 Int=      0 D2E=      0 Chk=     15 Scr=      1
 Normal termination of Gaussian 16 at Tue Aug  2 12:38:08 2022.
