 Entering Gaussian System, Link 0=g16
 Initial command:
 /apps/gaussian/g16c01/g16/l1.exe "/jobfs/53796104.gadi-pbs/Gau-3684057.inp" -scrdir="/jobfs/53796104.gadi-pbs/"
 Entering Link 1 = /apps/gaussian/g16c01/g16/l1.exe PID=   3684058.
  
 Copyright (c) 1988-2019, Gaussian, Inc.  All Rights Reserved.
  
 This is part of the Gaussian(R) 16 program.  It is based on
 the Gaussian(R) 09 system (copyright 2009, Gaussian, Inc.),
 the Gaussian(R) 03 system (copyright 2003, Gaussian, Inc.),
 the Gaussian(R) 98 system (copyright 1998, Gaussian, Inc.),
 the Gaussian(R) 94 system (copyright 1995, Gaussian, Inc.),
 the Gaussian 92(TM) system (copyright 1992, Gaussian, Inc.),
 the Gaussian 90(TM) system (copyright 1990, Gaussian, Inc.),
 the Gaussian 88(TM) system (copyright 1988, Gaussian, Inc.),
 the Gaussian 86(TM) system (copyright 1986, Carnegie Mellon
 University), and the Gaussian 82(TM) system (copyright 1983,
 Carnegie Mellon University). Gaussian is a federally registered
 trademark of Gaussian, Inc.
  
 This software contains proprietary and confidential information,
 including trade secrets, belonging to Gaussian, Inc.
  
 This software is provided under written license and may be
 used, copied, transmitted, or stored only in accord with that
 written license.
  
 The following legend is applicable only to US Government
 contracts under FAR:
  
                    RESTRICTED RIGHTS LEGEND
  
 Use, reproduction and disclosure by the US Government is
 subject to restrictions as set forth in subparagraphs (a)
 and (c) of the Commercial Computer Software - Restricted
 Rights clause in FAR 52.227-19.
  
 Gaussian, Inc.
 340 Quinnipiac St., Bldg. 40, Wallingford CT 06492
  
  
 ---------------------------------------------------------------
 Warning -- This program may not be used in any manner that
 competes with the business of Gaussian, Inc. or will provide
 assistance to any competitor of Gaussian, Inc.  The licensee
 of this program is prohibited from giving any competitor of
 Gaussian, Inc. access to this program.  By using this program,
 the user acknowledges that Gaussian, Inc. is engaged in the
 business of creating and licensing software in the field of
 computational chemistry and represents and warrants to the
 licensee that it is not a competitor of Gaussian, Inc. and that
 it will not use this program in any manner prohibited above.
 ---------------------------------------------------------------
  

 Cite this work as:
 Gaussian 16, Revision C.01,
 M. J. Frisch, G. W. Trucks, H. B. Schlegel, G. E. Scuseria, 
 M. A. Robb, J. R. Cheeseman, G. Scalmani, V. Barone, 
 G. A. Petersson, H. Nakatsuji, X. Li, M. Caricato, A. V. Marenich, 
 J. Bloino, B. G. Janesko, R. Gomperts, B. Mennucci, H. P. Hratchian, 
 J. V. Ortiz, A. F. Izmaylov, J. L. Sonnenberg, D. Williams-Young, 
 F. Ding, F. Lipparini, F. Egidi, J. Goings, B. Peng, A. Petrone, 
 T. Henderson, D. Ranasinghe, V. G. Zakrzewski, J. Gao, N. Rega, 
 G. Zheng, W. Liang, M. Hada, M. Ehara, K. Toyota, R. Fukuda, 
 J. Hasegawa, M. Ishida, T. Nakajima, Y. Honda, O. Kitao, H. Nakai, 
 T. Vreven, K. Throssell, J. A. Montgomery, Jr., J. E. Peralta, 
 F. Ogliaro, M. J. Bearpark, J. J. Heyd, E. N. Brothers, K. N. Kudin, 
 V. N. Staroverov, T. A. Keith, R. Kobayashi, J. Normand, 
 K. Raghavachari, A. P. Rendell, J. C. Burant, S. S. Iyengar, 
 J. Tomasi, M. Cossi, J. M. Millam, M. Klene, C. Adamo, R. Cammi, 
 J. W. Ochterski, R. L. Martin, K. Morokuma, O. Farkas, 
 J. B. Foresman, and D. J. Fox, Gaussian, Inc., Wallingford CT, 2019.
 
 ******************************************
 Gaussian 16:  ES64L-G16RevC.01  3-Jul-2019
                 2-Aug-2022 
 ******************************************
 %NProcShared=48
 Will use up to   48 processors via shared memory.
 %mem = 190GB
 ---------------------------------------------------------------
 #n M062X/6-311++G(d,p) TD(NStates=1) EmpiricalDispersion=GD3 SP
 ---------------------------------------------------------------
 1/38=1,172=1/1;
 2/12=2,17=6,18=5,40=1/2;
 3/5=4,6=6,7=1111,11=9,25=1,30=1,74=-55,124=31/1,2,3,8;
 4//1;
 5/5=2,38=5/2;
 8/6=1,10=2,108=1/1;
 9/41=1,42=1,70=2/14;
 6/7=2,8=2,9=2,10=2/1;
 99/5=1,9=1/99;
 ------
 SP_150
 ------
 Symbolic Z-matrix:
 Charge =  1 Multiplicity = 1
 C                     2.49056   1.35923   0. 
 C                     3.69566   0.66759   0. 
 C                     3.68306  -0.72253   0. 
 C                     2.47121  -1.41259   0. 
 C                    -2.45561  -1.40349   0. 
 C                    -3.68766  -0.71013   0. 
 C                    -3.71211   0.67464   0. 
 C                    -2.50426   1.35863   0. 
 C                    -0.0045    1.46437   0. 
 C                     0.0122   -1.42969   0. 
 C                     1.26426   0.68102   0. 
 C                     1.24147  -0.73065   0. 
 C                    -1.2606    0.67337   0. 
 C                    -1.23147  -0.72945   0. 
 H                     2.49147   2.44225   0. 
 H                     4.6313    1.20694   0. 
 H                     4.61146  -1.27525   0. 
 H                     2.47045  -2.49486   0. 
 H                     0.01125  -2.51052   0. 
 H                    -2.46315  -2.48601   0. 
 H                    -4.60856  -1.2757    0. 
 H                    -4.64795   1.21269   0. 
 H                    -2.49567   2.4418    0. 
 H                    -0.016     2.14829  -0.86234 
 H                    -0.016     2.14829   0.86234 
 
                          Input orientation:                          
 ---------------------------------------------------------------------
 Center     Atomic      Atomic             Coordinates (Angstroms)
 Number     Number       Type             X           Y           Z
 ---------------------------------------------------------------------
      1          6           0        2.490555    1.359231    0.000000
      2          6           0        3.695658    0.667589    0.000000
      3          6           0        3.683061   -0.722530    0.000000
      4          6           0        2.471206   -1.412588    0.000000
      5          6           0       -2.455606   -1.403488    0.000000
      6          6           0       -3.687661   -0.710130    0.000000
      7          6           0       -3.712108    0.674639    0.000000
      8          6           0       -2.504255    1.358631    0.000000
      9          6           0       -0.004500    1.464369    0.000000
     10          6           0        0.012200   -1.429689    0.000000
     11          6           0        1.264255    0.681015    0.000000
     12          6           0        1.241471   -0.730654    0.000000
     13          6           0       -1.260605    0.673365    0.000000
     14          6           0       -1.231471   -0.729454    0.000000
     15          1           0        2.491471    2.442247    0.000000
     16          1           0        4.631303    1.206939    0.000000
     17          1           0        4.611462   -1.275249    0.000000
     18          1           0        2.470450   -2.494859    0.000000
     19          1           0        0.011250   -2.510516    0.000000
     20          1           0       -2.463150   -2.486009    0.000000
     21          1           0       -4.608562   -1.275699    0.000000
     22          1           0       -4.647953    1.212689    0.000000
     23          1           0       -2.495671    2.441797    0.000000
     24          1           0       -0.016000    2.148287   -0.862335
     25          1           0       -0.016000    2.148287    0.862335
 ---------------------------------------------------------------------
                    Distance matrix (angstroms):
                    1          2          3          4          5
     1  C    0.000000
     2  C    1.389475   0.000000
     3  C    2.399125   1.390176   0.000000
     4  C    2.771887   2.413798   1.394551   0.000000
     5  C    5.665432   6.490563   6.176321   4.926820   0.000000
     6  C    6.515567   7.510760   7.370732   6.198797   1.413756
     7  C    6.240328   7.407769   7.525995   6.526093   2.428458
     8  C    4.994810   6.238306   6.527948   5.695162   2.762547
     9  C    2.497269   3.784974   4.287264   3.795524   3.772602
    10  C    3.730994   4.238684   3.738354   2.459065   2.467945
    11  C    1.401352   2.431440   2.796527   2.416589   4.264096
    12  C    2.434714   2.824556   2.441604   1.406159   3.757803
    13  C    3.813347   4.956266   5.136960   4.275233   2.396111
    14  C    4.268030   5.121360   4.914537   3.765168   1.397436
    15  H    1.083016   2.144639   3.381671   3.854888   6.266039
    16  H    2.146158   1.079968   2.149887   3.395282   7.552391
    17  H    3.382119   2.147863   1.080475   2.144658   7.068231
    18  H    3.854142   3.391491   2.147458   1.082271   5.045505
    19  H    4.595856   4.865718   4.084004   2.693850   2.703866
    20  H    6.270970   6.919255   6.394198   5.049763   1.082547
    21  H    7.572339   8.528566   8.310055   7.081091   2.156745
    22  H    7.140012   8.361398   8.552828   7.587787   3.413322
    23  H    5.102391   6.440526   6.941880   6.286983   3.845494
    24  H    2.765691   4.088092   4.761120   4.428278   4.394361
    25  H    2.765691   4.088092   4.761120   4.428278   4.394361
                    6          7          8          9         10
     6  C    0.000000
     7  C    1.384985   0.000000
     8  C    2.383322   1.388076   0.000000
     9  C    4.277163   3.790782   2.501990   0.000000
    10  C    3.769182   4.277694   3.755965   2.894106   0.000000
    11  C    5.143613   4.976367   3.828946   1.491101   2.454122
    12  C    4.929175   5.149058   4.289006   2.523999   1.414128
    13  C    2.793682   2.451503   1.419949   1.484415   2.458225
    14  C    2.456266   2.850445   2.445420   2.513626   1.427251
    15  H    6.936797   6.450491   5.111898   2.680693   4.597681
    16  H    8.536997   8.360374   7.137170   4.642945   5.318639
    17  H    8.318341   8.548911   7.587539   5.367738   4.601854
    18  H    6.411520   6.947643   6.292621   4.669140   2.679101
    19  H    4.113798   4.899858   4.614983   3.974916   1.080827
    20  H    2.157122   3.398469   3.844860   4.653004   2.691314
    21  H    1.080707   2.146497   3.371617   5.357738   4.623327
    22  H    2.149277   1.079492   2.148660   4.650269   5.357162
    23  H    3.369790   2.145359   1.083200   2.676060   4.612789
    24  H    4.732363   4.071422   2.749289   1.100681   3.680534
    25  H    4.732363   4.071422   2.749289   1.100681   3.680534
                   11         12         13         14         15
    11  C    0.000000
    12  C    1.411853   0.000000
    13  C    2.524872   2.869086   0.000000
    14  C    2.866718   2.472942   1.403121   0.000000
    15  H    2.146625   3.410249   4.148134   4.890806   0.000000
    16  H    3.407874   3.904514   5.916019   6.174280   2.470803
    17  H    3.876953   3.413711   6.186943   5.868369   4.279502
    18  H    3.397217   2.150072   4.894733   4.101326   4.937151
    19  H    3.428687   2.163643   3.428515   2.171759   5.539076
    20  H    4.891175   4.099450   3.380497   2.145348   6.988274
    21  H    6.190211   5.875369   3.873973   3.420983   8.014586
    22  H    5.936066   6.201766   3.430014   3.929920   7.244528
    23  H    4.151794   4.902109   2.157021   3.413947   4.987142
    24  H    2.129686   3.257784   2.113778   3.240738   2.667854
    25  H    2.129686   3.257784   2.113778   3.240738   2.667854
                   16         17         18         19         20
    16  H    0.000000
    17  H    2.482267   0.000000
    18  H    4.286326   2.464017   0.000000
    19  H    5.929955   4.763175   2.459250   0.000000
    20  H    7.998070   7.177470   4.933608   2.474521   0.000000
    21  H    9.567581   9.220024   7.183228   4.781991   2.463259
    22  H    9.279258   9.587836   8.026056   5.964095   4.295781
    23  H    7.233162   8.020459   7.002352   5.550681   4.927913
    24  H    4.819459   5.820449   5.337121   4.738017   5.311202
    25  H    4.819459   5.820449   5.337121   4.738017   5.311202
                   21         22         23         24         25
    21  H    0.000000
    22  H    2.488700   0.000000
    23  H    4.275989   2.478513   0.000000
    24  H    5.793007   4.803536   2.641692   0.000000
    25  H    5.793007   4.803536   2.641692   1.724670   0.000000
 Stoichiometry    C14H11(1+)
 Framework group  CS[SG(C14H9),X(H2)]
 Deg. of freedom    46
 Full point group                 CS      NOp   2
 Largest Abelian subgroup         CS      NOp   2
 Largest concise Abelian subgroup CS      NOp   2
                         Standard orientation:                         
 ---------------------------------------------------------------------
 Center     Atomic      Atomic             Coordinates (Angstroms)
 Number     Number       Type             X           Y           Z
 ---------------------------------------------------------------------
      1          6           0       -2.372543   -1.556398    0.000000
      2          6           0       -2.330361   -2.945233    0.000000
      3          6           0       -1.098314   -3.589165    0.000000
      4          6           0        0.081373   -2.845449    0.000000
      5          6           0        2.394925    1.504382    0.000000
      6          6           0        2.363930    2.917798    0.000000
      7          6           0        1.154057    3.591882    0.000000
      8          6           0       -0.018394    2.848838    0.000000
      9          6           0       -1.289574    0.693831    0.000000
     10          6           0        1.255172   -0.684617    0.000000
     11          6           0       -1.196495   -0.794362    0.000000
     12          6           0        0.059361   -1.439463    0.000000
     13          6           0        0.000000    1.429009    0.000000
     14          6           0        1.223585    0.742285    0.000000
     15          1           0       -3.328216   -1.046875    0.000000
     16          1           0       -3.246967   -3.516341    0.000000
     17          1           0       -1.048280   -4.668481    0.000000
     18          1           0        1.036313   -3.354763    0.000000
     19          1           0        2.208930   -1.193078    0.000000
     20          1           0        3.353284    1.000938    0.000000
     21          1           0        3.296713    3.463547    0.000000
     22          1           0        1.120469    4.670852    0.000000
     23          1           0       -0.977812    3.351669    0.000000
     24          1           0       -1.887384    1.026246    0.862335
     25          1           0       -1.887384    1.026246   -0.862335
 ---------------------------------------------------------------------
 Rotational constants (GHZ):           2.1326402           0.4440848           0.3683523
 Standard basis: 6-311++G(d,p) (5D, 7F)
 There are   299 symmetry adapted cartesian basis functions of A'  symmetry.
 There are   100 symmetry adapted cartesian basis functions of A"  symmetry.
 There are   285 symmetry adapted basis functions of A'  symmetry.
 There are   100 symmetry adapted basis functions of A"  symmetry.
   385 basis functions,   603 primitive gaussians,   399 cartesian basis functions
    47 alpha electrons       47 beta electrons
       nuclear repulsion energy       780.7035970872 Hartrees.
 NAtoms=   25 NActive=   25 NUniq=   24 SFac= 1.09D+00 NAtFMM=   60 NAOKFM=F Big=F
 Integral buffers will be    131072 words long.
 Regular integral format.
 Two-electron integral symmetry is turned on.
 Nuclear repulsion after empirical dispersion term =      780.7026174625 Hartrees.
 One-electron integrals computed using PRISM.
 NBasis=   385 RedAO= T EigKep=  1.15D-06  NBF=   285   100
 NBsUse=   379 1.00D-06 EigRej=  8.45D-07 NBFU=   279   100
 ExpMin= 3.60D-02 ExpMax= 4.56D+03 ExpMxC= 6.82D+02 IAcc=3 IRadAn=         5 AccDes= 0.00D+00
 Harris functional with IExCor= 1009 and IRadAn=       5 diagonalized for initial guess.
 HarFok:  IExCor= 1009 AccDes= 0.00D+00 IRadAn=         5 IDoV= 1 UseB2=F ITyADJ=14
 ICtDFT=  3500011 ScaDFX=  1.000000  1.000000  1.000000  1.000000
 FoFCou: FMM=F IPFlag=           0 FMFlag=      100000 FMFlg1=           0
         NFxFlg=           0 DoJE=T BraDBF=F KetDBF=T FulRan=T
         wScrn=  0.000000 ICntrl=       500 IOpCl=  0 I1Cent=   200000004 NGrid=           0
         NMat0=    1 NMatS0=      1 NMatT0=    0 NMatD0=    1 NMtDS0=    0 NMtDT0=    0
 Petite list used in FoFCou.
 Initial guess orbital symmetries:
       Occupied  (A') (A') (A') (A') (A') (A') (A') (A') (A') (A')
                 (A') (A') (A') (A') (A') (A') (A') (A') (A') (A')
                 (A') (A') (A') (A') (A') (A') (A') (A') (A') (A')
                 (A') (A') (A") (A') (A') (A') (A') (A') (A') (A")
                 (A") (A') (A') (A") (A") (A") (A")
       Virtual   (A") (A") (A") (A") (A") (A') (A') (A') (A') (A")
                 (A") (A') (A') (A') (A") (A') (A') (A') (A') (A")
                 (A') (A") (A') (A') (A') (A") (A') (A") (A') (A')
                 (A') (A') (A') (A') (A") (A') (A") (A') (A') (A")
                 (A') (A') (A') (A") (A') (A') (A') (A') (A') (A")
                 (A') (A') (A") (A") (A') (A') (A') (A") (A") (A')
                 (A') (A') (A') (A') (A') (A') (A") (A') (A') (A")
                 (A') (A') (A') (A') (A') (A') (A') (A') (A') (A')
                 (A') (A') (A') (A') (A') (A') (A') (A') (A') (A')
                 (A') (A') (A') (A') (A') (A') (A') (A") (A') (A")
                 (A') (A') (A") (A") (A') (A") (A') (A") (A') (A")
                 (A") (A') (A') (A') (A") (A') (A') (A") (A') (A")
                 (A") (A") (A') (A') (A') (A") (A') (A') (A') (A")
                 (A') (A') (A') (A') (A') (A') (A") (A') (A') (A')
                 (A') (A') (A') (A') (A') (A') (A') (A') (A') (A")
                 (A') (A") (A") (A") (A') (A') (A') (A") (A") (A')
                 (A") (A') (A") (A") (A") (A') (A') (A') (A') (A')
                 (A') (A") (A") (A') (A') (A') (A') (A') (A') (A")
                 (A') (A') (A') (A') (A') (A") (A") (A') (A") (A")
                 (A') (A") (A') (A") (A') (A') (A') (A") (A') (A')
                 (A") (A") (A") (A') (A') (A") (A') (A") (A') (A')
                 (A") (A") (A') (A") (A') (A") (A') (A') (A') (A')
                 (A") (A') (A') (A') (A") (A') (A') (A') (A") (A")
                 (A') (A') (A') (A") (A') (A') (A") (A') (A") (A')
                 (A") (A') (A') (A') (A') (A") (A') (A') (A') (A")
                 (A') (A') (A") (A') (A") (A') (A') (A") (A') (A')
                 (A') (A") (A') (A") (A') (A') (A') (A") (A') (A")
                 (A') (A') (A') (A') (A") (A') (A") (A') (A") (A')
                 (A") (A') (A") (A") (A") (A') (A') (A') (A') (A')
                 (A') (A') (A') (A') (A') (A') (A') (A') (A') (A')
                 (A') (A') (A') (A') (A') (A") (A') (A') (A') (A')
                 (A') (A') (A') (A') (A') (A') (A') (A') (A') (A')
                 (A') (A') (A') (A') (A') (A') (A') (A') (A') (A')
                 (A') (A')
 The electronic state of the initial guess is 1-A'.
 Requested convergence on RMS density matrix=1.00D-08 within 128 cycles.
 Requested convergence on MAX density matrix=1.00D-06.
 Requested convergence on             energy=1.00D-06.
 No special actions if energy rises.
 SCF Done:  E(RM062X) =  -539.759806404     A.U. after   15 cycles
            NFock= 15  Conv=0.55D-08     -V/T= 2.0042
 DoSCS=F DFT=T ScalE2(SS,OS)=  1.000000  1.000000
 ExpMin= 3.60D-02 ExpMax= 4.56D+03 ExpMxC= 6.82D+02 IAcc=3 IRadAn=         5 AccDes= 0.00D+00
 HarFok:  IExCor=  205 AccDes= 0.00D+00 IRadAn=         5 IDoV=-2 UseB2=F ITyADJ=14
 ICtDFT= 12500011 ScaDFX=  1.000000  1.000000  1.000000  1.000000
 Range of M.O.s used for correlation:    15   379
 NBasis=   385 NAE=    47 NBE=    47 NFC=    14 NFV=     0
 NROrb=    365 NOA=    33 NOB=    33 NVA=   332 NVB=   332

 **** Warning!!: The largest alpha MO coefficient is  0.13447698D+03

 Orbital symmetries:
       Occupied  (A') (A') (A') (A') (A') (A') (A') (A') (A') (A')
                 (A') (A') (A') (A') (A') (A') (A') (A') (A') (A')
                 (A') (A') (A') (A') (A') (A') (A') (A') (A') (A')
                 (A') (A') (A") (A') (A') (A') (A') (A") (A") (A')
                 (A') (A') (A') (A") (A") (A") (A")
       Virtual   (A") (A") (A") (A") (A') (A') (A') (A') (A") (A')
                 (A') (A") (A') (A') (A") (A') (A") (A') (A') (A')
                 (A") (A") (A') (A') (A') (A") (A') (A") (A') (A')
                 (A") (A') (A") (A') (A') (A') (A') (A') (A") (A')
                 (A") (A') (A') (A") (A") (A') (A") (A') (A") (A')
                 (A') (A') (A') (A') (A') (A") (A') (A') (A') (A')
                 (A') (A") (A') (A') (A') (A') (A") (A') (A') (A')
                 (A') (A') (A') (A') (A') (A') (A') (A') (A') (A')
                 (A') (A') (A') (A') (A') (A') (A') (A') (A') (A')
                 (A') (A') (A') (A') (A") (A') (A") (A") (A') (A")
                 (A') (A') (A') (A') (A") (A") (A') (A") (A") (A')
                 (A') (A') (A") (A') (A') (A") (A') (A") (A') (A")
                 (A") (A') (A") (A') (A') (A') (A") (A') (A') (A')
                 (A') (A') (A') (A') (A') (A') (A') (A') (A') (A')
                 (A') (A') (A') (A") (A') (A') (A') (A') (A') (A')
                 (A') (A') (A") (A') (A") (A') (A") (A") (A') (A")
                 (A") (A') (A') (A") (A") (A") (A') (A") (A') (A')
                 (A') (A') (A') (A") (A") (A') (A') (A') (A') (A")
                 (A') (A') (A') (A") (A') (A") (A') (A') (A") (A")
                 (A") (A') (A') (A") (A") (A') (A') (A') (A') (A')
                 (A") (A") (A") (A') (A') (A") (A') (A") (A') (A')
                 (A') (A") (A') (A") (A") (A') (A") (A') (A') (A")
                 (A') (A') (A') (A') (A") (A') (A') (A') (A") (A")
                 (A') (A') (A') (A") (A') (A') (A') (A") (A") (A')
                 (A") (A') (A') (A") (A') (A') (A') (A') (A') (A')
                 (A') (A") (A') (A') (A') (A") (A") (A") (A') (A')
                 (A') (A') (A') (A') (A') (A') (A") (A') (A') (A')
                 (A') (A") (A') (A") (A") (A") (A') (A") (A') (A")
                 (A') (A") (A") (A') (A") (A") (A') (A') (A') (A')
                 (A') (A') (A') (A') (A') (A') (A') (A') (A') (A')
                 (A') (A') (A') (A') (A") (A') (A') (A') (A') (A')
                 (A') (A') (A') (A') (A') (A') (A') (A') (A') (A')
                 (A') (A') (A') (A') (A') (A') (A') (A') (A') (A')
                 (A') (A')
     4 initial guesses have been made.
 Convergence on wavefunction:    0.001000000000000
 Iteration     1 Dimension     4 NMult     0 NNew      4
 CISAX will form     4 AO SS matrices at one time.
 Iteration     2 Dimension     6 NMult     4 NNew      2
 Iteration     3 Dimension     8 NMult     6 NNew      2
 Iteration     4 Dimension    10 NMult     8 NNew      2
 Iteration     5 Dimension    12 NMult    10 NNew      2
 Iteration     6 Dimension    14 NMult    12 NNew      2
 ***********************************************************************
 Excited states from <AA,BB:AA,BB> singles matrix:
 ***********************************************************************
 
 Ground to excited state transition densities written to RWF  633
 Ground to excited state transition electric dipole moments (Au):
       state          X           Y           Z        Dip. S.      Osc.
         1        -0.5458      0.3047      0.0000      0.3908      0.0269
 Ground to excited state transition velocity dipole moments (Au):
       state          X           Y           Z        Dip. S.      Osc.
         1         0.0637     -0.0337     -0.0000      0.0052      0.0336
 Ground to excited state transition magnetic dipole moments (Au):
       state          X           Y           Z
         1        -0.0000     -0.0000     -0.0936
 Ground to excited state transition velocity quadrupole moments (Au):
       state          XX          YY          ZZ          XY          XZ          YZ
         1         0.1233      0.2040     -0.0097      0.1283      0.0000      0.0000
 <0|del|b> * <b|rxdel|0> + <0|del|b> * <b|delr+rdel|0>
 Rotatory Strengths (R) in cgs (10**-40 erg-esu-cm/Gauss)
       state          XX          YY          ZZ    R(velocity)    E-M Angle
         1         0.0000      0.0000     -0.0000      0.0000       90.00
 1/2[<0|r|b>*<b|rxdel|0> + (<0|rxdel|b>*<b|r|0>)*]
 Rotatory Strengths (R) in cgs (10**-40 erg-esu-cm/Gauss)
       state          XX          YY          ZZ     R(length)
         1        -0.0000      0.0000      0.0000      0.0000
  1/2[<0|del|b>*<b|r|0> + (<0|r|b>*<b|del|0>)*] (Au)
       state          X           Y           Z        Dip. S.   Osc.(frdel)
         1        -0.0348     -0.0103     -0.0000      0.0451      0.0300

 Excitation energies and oscillator strengths:
 
 Excited State   1:      Singlet-A'     2.8089 eV  441.39 nm  f=0.0269  <S**2>=0.000
      47 -> 48         0.70410
 This state for optimization and/or second-order correction.
 Total Energy, E(TD-HF/TD-DFT) =  -539.656580225    
 Copying the excited state density for this state as the 1-particle RhoCI density.
 SavETr:  write IOETrn=   770 NScale= 10 NData=  16 NLR=1 NState=    1 LETran=      28.

 **********************************************************************

            Population analysis using the SCF Density.

 **********************************************************************

 Orbital symmetries:
       Occupied  (A') (A') (A') (A') (A') (A') (A') (A') (A') (A')
                 (A') (A') (A') (A') (A') (A') (A') (A') (A') (A')
                 (A') (A') (A') (A') (A') (A') (A') (A') (A') (A')
                 (A') (A') (A") (A') (A') (A') (A') (A") (A") (A')
                 (A') (A') (A') (A") (A") (A") (A")
       Virtual   (A") (A") (A") (A") (A') (A') (A') (A') (A") (A')
                 (A') (A") (A') (A') (A") (A') (A") (A') (A') (A')
                 (A") (A") (A') (A') (A') (A") (A') (A") (A') (A')
                 (A") (A') (A") (A') (A') (A') (A') (A') (A") (A')
                 (A") (A') (A') (A") (A") (A') (A") (A') (A") (A')
                 (A') (A') (A') (A') (A') (A") (A') (A') (A') (A')
                 (A') (A") (A') (A') (A') (A') (A") (A') (A') (A')
                 (A') (A') (A') (A') (A') (A') (A') (A') (A') (A')
                 (A') (A') (A') (A') (A') (A') (A') (A') (A') (A')
                 (A') (A') (A') (A') (A") (A') (A") (A") (A') (A")
                 (A') (A') (A') (A') (A") (A") (A') (A") (A") (A')
                 (A') (A') (A") (A') (A') (A") (A') (A") (A') (A")
                 (A") (A') (A") (A') (A') (A') (A") (A') (A') (A')
                 (A') (A') (A') (A') (A') (A') (A') (A') (A') (A')
                 (A') (A') (A') (A") (A') (A') (A') (A') (A') (A')
                 (A') (A') (A") (A') (A") (A') (A") (A") (A') (A")
                 (A") (A') (A') (A") (A") (A") (A') (A") (A') (A')
                 (A') (A') (A') (A") (A") (A') (A') (A') (A') (A")
                 (A') (A') (A') (A") (A') (A") (A') (A') (A") (A")
                 (A") (A') (A') (A") (A") (A') (A') (A') (A') (A')
                 (A") (A") (A") (A') (A') (A") (A') (A") (A') (A')
                 (A') (A") (A') (A") (A") (A') (A") (A') (A') (A")
                 (A') (A') (A') (A') (A") (A') (A') (A') (A") (A")
                 (A') (A') (A') (A") (A') (A') (A') (A") (A") (A')
                 (A") (A') (A') (A") (A') (A') (A') (A') (A') (A')
                 (A') (A") (A') (A') (A') (A") (A") (A") (A') (A')
                 (A') (A') (A') (A') (A') (A') (A") (A') (A') (A')
                 (A') (A") (A') (A") (A") (A") (A') (A") (A') (A")
                 (A') (A") (A") (A') (A") (A") (A') (A') (A') (A')
                 (A') (A') (A') (A') (A') (A') (A') (A') (A') (A')
                 (A') (A') (A') (A') (A") (A') (A') (A') (A') (A')
                 (A') (A') (A') (A') (A') (A') (A') (A') (A') (A')
                 (A') (A') (A') (A') (A') (A') (A') (A') (A') (A')
                 (A') (A')
 The electronic state is 1-A'.
 Alpha  occ. eigenvalues --  -10.77682 -10.73452 -10.73159 -10.72572 -10.72338
 Alpha  occ. eigenvalues --  -10.71510 -10.71254 -10.71237 -10.71015 -10.70739
 Alpha  occ. eigenvalues --  -10.70041 -10.69908 -10.69728 -10.69565  -1.16386
 Alpha  occ. eigenvalues --   -1.12424  -1.06946  -1.05634  -1.01310  -1.00128
 Alpha  occ. eigenvalues --   -0.95775  -0.91029  -0.86412  -0.85878  -0.83794
 Alpha  occ. eigenvalues --   -0.78384  -0.75977  -0.74408  -0.69607  -0.69237
 Alpha  occ. eigenvalues --   -0.68467  -0.68157  -0.68122  -0.64770  -0.64248
 Alpha  occ. eigenvalues --   -0.62944  -0.61839  -0.60125  -0.59603  -0.59111
 Alpha  occ. eigenvalues --   -0.56868  -0.55236  -0.54767  -0.52446  -0.46644
 Alpha  occ. eigenvalues --   -0.46068  -0.44472
 Alpha virt. eigenvalues --   -0.26114  -0.14663  -0.14099  -0.12777  -0.11176
 Alpha virt. eigenvalues --   -0.10079  -0.09232  -0.07980  -0.07980  -0.07474
 Alpha virt. eigenvalues --   -0.07195  -0.07139  -0.05647  -0.05577  -0.05329
 Alpha virt. eigenvalues --   -0.03828  -0.03646  -0.03277  -0.03138  -0.02168
 Alpha virt. eigenvalues --   -0.01362  -0.00930   0.00202   0.00592   0.00625
 Alpha virt. eigenvalues --    0.01056   0.01516   0.01949   0.02204   0.02308
 Alpha virt. eigenvalues --    0.02449   0.02666   0.02741   0.03350   0.03423
 Alpha virt. eigenvalues --    0.04244   0.04494   0.04704   0.05037   0.05368
 Alpha virt. eigenvalues --    0.06038   0.06285   0.06592   0.07022   0.07265
 Alpha virt. eigenvalues --    0.07888   0.08146   0.08347   0.08521   0.08927
 Alpha virt. eigenvalues --    0.09530   0.09562   0.10013   0.10834   0.10961
 Alpha virt. eigenvalues --    0.11128   0.12141   0.12235   0.12870   0.12957
 Alpha virt. eigenvalues --    0.13405   0.13528   0.13996   0.14393   0.16106
 Alpha virt. eigenvalues --    0.16296   0.16444   0.17341   0.17599   0.17793
 Alpha virt. eigenvalues --    0.18103   0.19104   0.19260   0.19601   0.19723
 Alpha virt. eigenvalues --    0.21487   0.21576   0.22702   0.23085   0.23530
 Alpha virt. eigenvalues --    0.23897   0.24623   0.25490   0.26921   0.27585
 Alpha virt. eigenvalues --    0.28808   0.29265   0.29815   0.31330   0.35736
 Alpha virt. eigenvalues --    0.36380   0.38196   0.39267   0.41134   0.41399
 Alpha virt. eigenvalues --    0.41907   0.42241   0.42986   0.43625   0.44294
 Alpha virt. eigenvalues --    0.44934   0.45027   0.46049   0.46187   0.48012
 Alpha virt. eigenvalues --    0.48512   0.48811   0.49051   0.50413   0.50985
 Alpha virt. eigenvalues --    0.51408   0.51681   0.52120   0.52832   0.53975
 Alpha virt. eigenvalues --    0.54097   0.54577   0.55684   0.55763   0.57667
 Alpha virt. eigenvalues --    0.58235   0.58816   0.61422   0.62254   0.62329
 Alpha virt. eigenvalues --    0.63186   0.63482   0.64851   0.65137   0.67118
 Alpha virt. eigenvalues --    0.70453   0.70653   0.70993   0.72386   0.72844
 Alpha virt. eigenvalues --    0.75775   0.76006   0.76257   0.76888   0.77091
 Alpha virt. eigenvalues --    0.77811   0.77835   0.78182   0.79917   0.80377
 Alpha virt. eigenvalues --    0.81194   0.81677   0.82168   0.82994   0.85130
 Alpha virt. eigenvalues --    0.87106   0.88087   0.88506   0.89154   0.90395
 Alpha virt. eigenvalues --    0.90971   0.91287   0.93193   0.94597   0.96384
 Alpha virt. eigenvalues --    0.96676   1.00421   1.01229   1.01695   1.02706
 Alpha virt. eigenvalues --    1.03188   1.03684   1.04735   1.05570   1.08722
 Alpha virt. eigenvalues --    1.19511   1.23272   1.24011   1.25106   1.27888
 Alpha virt. eigenvalues --    1.29751   1.31721   1.34402   1.35722   1.35984
 Alpha virt. eigenvalues --    1.39276   1.40086   1.40905   1.43114   1.43406
 Alpha virt. eigenvalues --    1.43494   1.44798   1.45641   1.46325   1.46654
 Alpha virt. eigenvalues --    1.47641   1.47963   1.51615   1.53590   1.55412
 Alpha virt. eigenvalues --    1.55840   1.56311   1.56614   1.57712   1.61346
 Alpha virt. eigenvalues --    1.63291   1.63501   1.63869   1.66048   1.68183
 Alpha virt. eigenvalues --    1.68355   1.68757   1.69787   1.74297   1.75946
 Alpha virt. eigenvalues --    1.77076   1.78045   1.79783   1.80048   1.80662
 Alpha virt. eigenvalues --    1.83071   1.83225   1.83521   1.83833   1.84216
 Alpha virt. eigenvalues --    1.84263   1.85811   1.86099   1.88200   1.91349
 Alpha virt. eigenvalues --    1.92009   1.94074   1.95138   1.97666   1.98099
 Alpha virt. eigenvalues --    1.99663   2.02059   2.04303   2.07263   2.11769
 Alpha virt. eigenvalues --    2.11977   2.14102   2.15231   2.18964   2.21055
 Alpha virt. eigenvalues --    2.22774   2.28746   2.29817   2.34501   2.34865
 Alpha virt. eigenvalues --    2.36224   2.38675   2.39598   2.42314   2.45160
 Alpha virt. eigenvalues --    2.46058   2.46112   2.49281   2.52836   2.53760
 Alpha virt. eigenvalues --    2.53976   2.56981   2.57823   2.58310   2.59581
 Alpha virt. eigenvalues --    2.59810   2.61551   2.62076   2.63487   2.63700
 Alpha virt. eigenvalues --    2.64764   2.65053   2.65175   2.65326   2.67703
 Alpha virt. eigenvalues --    2.68347   2.70913   2.71415   2.73326   2.74793
 Alpha virt. eigenvalues --    2.76304   2.78401   2.79656   2.82584   2.83027
 Alpha virt. eigenvalues --    2.84817   2.86157   2.92052   2.97055   2.99457
 Alpha virt. eigenvalues --    2.99997   3.04564   3.10615   3.11180   3.13064
 Alpha virt. eigenvalues --    3.20689   3.22673   3.26461   3.28097   3.30671
 Alpha virt. eigenvalues --    3.32774   3.33650   3.43447   3.45881   3.46263
 Alpha virt. eigenvalues --    3.48194   3.49897   3.56231   3.66454   3.67021
 Alpha virt. eigenvalues --    3.67365   3.94170   3.94486   3.95270   3.96161
 Alpha virt. eigenvalues --    4.03967   4.06758   4.07332   4.12569   4.35102
 Alpha virt. eigenvalues --    4.60577   4.69604   4.71495  23.45348  23.60336
 Alpha virt. eigenvalues --   23.81886  23.84680  23.87307  23.89004  23.90732
 Alpha virt. eigenvalues --   23.92681  23.97050  23.98692  24.00162  24.01090
 Alpha virt. eigenvalues --   24.10509  24.10742
          Condensed to atoms (all electrons):
               1          2          3          4          5          6
     1  C    8.626676   0.253952  -0.548377   2.081506  -0.054857  -0.094521
     2  C    0.253952   7.228570   0.354179  -1.131043  -0.012560  -0.014016
     3  C   -0.548377   0.354179   6.596573   0.775249  -0.125360   0.016925
     4  C    2.081506  -1.131043   0.775249  11.406083  -0.446223  -0.133744
     5  C   -0.054857  -0.012560  -0.125360  -0.446223  11.163798   0.807733
     6  C   -0.094521  -0.014016   0.016925  -0.133744   0.807733   6.595819
     7  C   -0.013030  -0.001415  -0.013473   0.003059  -1.191793   0.303256
     8  C    0.397089  -0.004306  -0.099986  -0.080115   2.220747  -0.470331
     9  C   -1.047756  -0.849992   0.304082  -0.090405  -0.218331   0.303907
    10  C   -1.318873   0.243119  -0.321173  -2.662960  -2.545786  -0.369658
    11  C    0.348766  -0.833563   0.956455  -0.368069  -1.492459  -0.152500
    12  C   -2.287021   1.334781  -1.416744  -1.789732  -0.310791  -0.221866
    13  C    0.268196  -0.231970  -0.184529  -1.543491  -0.360292   1.017728
    14  C   -1.110774  -0.211351  -0.173247  -0.376025  -1.782908  -1.464643
    15  H    0.371001  -0.110075  -0.001137   0.028308   0.005583   0.001140
    16  H   -0.019639   0.382245  -0.019306   0.014267  -0.001571  -0.000338
    17  H   -0.026053  -0.017565   0.377565  -0.070193   0.000280   0.000412
    18  H    0.051764   0.002994  -0.084093   0.466308   0.004600  -0.005217
    19  H   -0.045969  -0.008086   0.051907  -0.072356  -0.066782   0.052074
    20  H    0.006793   0.002161  -0.005278   0.004644   0.462641  -0.084319
    21  H   -0.001279  -0.000408   0.000403   0.000361  -0.069070   0.373702
    22  H    0.000664   0.000361  -0.000320  -0.001460   0.012346  -0.016711
    23  H    0.005596  -0.002466   0.001070   0.005024   0.029593   0.000174
    24  H    0.035947   0.015236  -0.001600  -0.011826  -0.012365  -0.001736
    25  H    0.035947   0.015236  -0.001600  -0.011826  -0.012365  -0.001736
               7          8          9         10         11         12
     1  C   -0.013030   0.397089  -1.047756  -1.318873   0.348766  -2.287021
     2  C   -0.001415  -0.004306  -0.849992   0.243119  -0.833563   1.334781
     3  C   -0.013473  -0.099986   0.304082  -0.321173   0.956455  -1.416744
     4  C    0.003059  -0.080115  -0.090405  -2.662960  -0.368069  -1.789732
     5  C   -1.191793   2.220747  -0.218331  -2.545786  -1.492459  -0.310791
     6  C    0.303256  -0.470331   0.303907  -0.369658  -0.152500  -0.221866
     7  C    7.234768   0.099599  -0.826460   0.295708  -0.259749  -0.149385
     8  C    0.099599   8.815247  -1.046394  -1.368235   0.298192  -1.090156
     9  C   -0.826460  -1.046394   9.498411   0.274013   1.423289  -1.883014
    10  C    0.295708  -1.368235   0.274013   9.017289  -0.270402   2.396746
    11  C   -0.259749   0.298192   1.423289  -0.270402  14.302146  -3.776164
    12  C   -0.149385  -1.090156  -1.883014   2.396746  -3.776164  16.131628
    13  C   -0.887916   0.338005   1.385954  -0.314521   1.120762  -4.693354
    14  C    1.535497  -2.512777  -1.774977   2.417145  -4.725870   3.256699
    15  H   -0.002647   0.005091   0.089153  -0.009185  -0.030468  -0.021435
    16  H    0.000386   0.000844   0.001703  -0.009081   0.023141  -0.029195
    17  H   -0.000395  -0.001329  -0.005139   0.019980  -0.025511   0.091916
    18  H    0.002190   0.006791  -0.023417   0.006755  -0.004252  -0.057208
    19  H   -0.007848  -0.047104   0.074339   0.421428   0.077522  -0.071684
    20  H    0.002356   0.053685  -0.024413   0.008957  -0.012108  -0.014323
    21  H   -0.013217  -0.029732  -0.005571   0.019972  -0.006174   0.005328
    22  H    0.379509  -0.018621   0.002350  -0.008378   0.002781  -0.008597
    23  H   -0.110744   0.372057   0.091155  -0.010093   0.002892   0.005754
    24  H    0.014399   0.033312   0.353721   0.004989   0.017221  -0.061006
    25  H    0.014399   0.033312   0.353721   0.004989   0.017221  -0.061006
              13         14         15         16         17         18
     1  C    0.268196  -1.110774   0.371001  -0.019639  -0.026053   0.051764
     2  C   -0.231970  -0.211351  -0.110075   0.382245  -0.017565   0.002994
     3  C   -0.184529  -0.173247  -0.001137  -0.019306   0.377565  -0.084093
     4  C   -1.543491  -0.376025   0.028308   0.014267  -0.070193   0.466308
     5  C   -0.360292  -1.782908   0.005583  -0.001571   0.000280   0.004600
     6  C    1.017728  -1.464643   0.001140  -0.000338   0.000412  -0.005217
     7  C   -0.887916   1.535497  -0.002647   0.000386  -0.000395   0.002190
     8  C    0.338005  -2.512777   0.005091   0.000844  -0.001329   0.006791
     9  C    1.385954  -1.774977   0.089153   0.001703  -0.005139  -0.023417
    10  C   -0.314521   2.417145  -0.009185  -0.009081   0.019980   0.006755
    11  C    1.120762  -4.725870  -0.030468   0.023141  -0.025511  -0.004252
    12  C   -4.693354   3.256699  -0.021435  -0.029195   0.091916  -0.057208
    13  C   14.209123  -3.553887  -0.000140   0.003081  -0.006208  -0.012230
    14  C   -3.553887  15.993056   0.006660  -0.009398   0.005332  -0.018011
    15  H   -0.000140   0.006660   0.438402  -0.009134   0.001541   0.000158
    16  H    0.003081  -0.009398  -0.009134   0.418975  -0.006774   0.001955
    17  H   -0.006208   0.005332   0.001541  -0.006774   0.421782  -0.010390
    18  H   -0.012230  -0.018011   0.000158   0.001955  -0.010390   0.453179
    19  H    0.078682  -0.060604   0.000357  -0.000574   0.001527  -0.006226
    20  H   -0.002450  -0.062115  -0.000119   0.000017  -0.000152   0.001226
    21  H   -0.025817   0.095038   0.000016  -0.000007   0.000011  -0.000139
    22  H    0.023385  -0.030019  -0.000128   0.000008  -0.000007   0.000015
    23  H   -0.031646  -0.027988   0.000532  -0.000130   0.000014  -0.000113
    24  H    0.011081  -0.061018  -0.000953   0.000637  -0.000143   0.000183
    25  H    0.011081  -0.061018  -0.000953   0.000637  -0.000143   0.000183
              19         20         21         22         23         24
     1  C   -0.045969   0.006793  -0.001279   0.000664   0.005596   0.035947
     2  C   -0.008086   0.002161  -0.000408   0.000361  -0.002466   0.015236
     3  C    0.051907  -0.005278   0.000403  -0.000320   0.001070  -0.001600
     4  C   -0.072356   0.004644   0.000361  -0.001460   0.005024  -0.011826
     5  C   -0.066782   0.462641  -0.069070   0.012346   0.029593  -0.012365
     6  C    0.052074  -0.084319   0.373702  -0.016711   0.000174  -0.001736
     7  C   -0.007848   0.002356  -0.013217   0.379509  -0.110744   0.014399
     8  C   -0.047104   0.053685  -0.029732  -0.018621   0.372057   0.033312
     9  C    0.074339  -0.024413  -0.005571   0.002350   0.091155   0.353721
    10  C    0.421428   0.008957   0.019972  -0.008378  -0.010093   0.004989
    11  C    0.077522  -0.012108  -0.006174   0.002781   0.002892   0.017221
    12  C   -0.071684  -0.014323   0.005328  -0.008597   0.005754  -0.061006
    13  C    0.078682  -0.002450  -0.025817   0.023385  -0.031646   0.011081
    14  C   -0.060604  -0.062115   0.095038  -0.030019  -0.027988  -0.061018
    15  H    0.000357  -0.000119   0.000016  -0.000128   0.000532  -0.000953
    16  H   -0.000574   0.000017  -0.000007   0.000008  -0.000130   0.000637
    17  H    0.001527  -0.000152   0.000011  -0.000007   0.000014  -0.000143
    18  H   -0.006226   0.001226  -0.000139   0.000015  -0.000113   0.000183
    19  H    0.443057  -0.006538   0.001359  -0.000538   0.000306   0.000552
    20  H   -0.006538   0.456140  -0.010466   0.001931   0.000106   0.000206
    21  H    0.001359  -0.010466   0.423165  -0.006447   0.001413  -0.000147
    22  H   -0.000538   0.001931  -0.006447   0.420749  -0.009128   0.000639
    23  H    0.000306   0.000106   0.001413  -0.009128   0.441339  -0.000932
    24  H    0.000552   0.000206  -0.000147   0.000639  -0.000932   0.492277
    25  H    0.000552   0.000206  -0.000147   0.000639  -0.000932  -0.077577
              25
     1  C    0.035947
     2  C    0.015236
     3  C   -0.001600
     4  C   -0.011826
     5  C   -0.012365
     6  C   -0.001736
     7  C    0.014399
     8  C    0.033312
     9  C    0.353721
    10  C    0.004989
    11  C    0.017221
    12  C   -0.061006
    13  C    0.011081
    14  C   -0.061018
    15  H   -0.000953
    16  H    0.000637
    17  H   -0.000143
    18  H    0.000183
    19  H    0.000552
    20  H    0.000206
    21  H   -0.000147
    22  H    0.000639
    23  H   -0.000932
    24  H   -0.077577
    25  H    0.492277
 Mulliken charges:
               1
     1  C    0.084249
     2  C   -0.404019
     3  C   -0.438186
     4  C    0.004658
     5  C   -0.003806
     6  C   -0.441534
     7  C   -0.407056
     8  C    0.095114
     9  C   -0.359929
    10  C    0.077256
    11  C   -0.633101
    12  C    0.719828
    13  C   -0.618629
    14  C    0.707205
    15  H    0.238432
    16  H    0.257251
    17  H    0.249644
    18  H    0.222993
    19  H    0.190644
    20  H    0.221212
    21  H    0.247853
    22  H    0.254979
    23  H    0.237144
    24  H    0.248900
    25  H    0.248900
 Sum of Mulliken charges =   1.00000
 Mulliken charges with hydrogens summed into heavy atoms:
               1
     1  C    0.322681
     2  C   -0.146768
     3  C   -0.188542
     4  C    0.227651
     5  C    0.217405
     6  C   -0.193681
     7  C   -0.152077
     8  C    0.332258
     9  C    0.137870
    10  C    0.267900
    11  C   -0.633101
    12  C    0.719828
    13  C   -0.618629
    14  C    0.707205
 Electronic spatial extent (au):  <R**2>=           2859.3055
 Charge=              1.0000 electrons
 Dipole moment (field-independent basis, Debye):
    X=              0.0401    Y=             -0.3394    Z=             -0.0000  Tot=              0.3418
 Quadrupole moment (field-independent basis, Debye-Ang):
   XX=            -50.7907   YY=            -36.5416   ZZ=            -84.1432
   XY=             10.4101   XZ=              0.0000   YZ=              0.0000
 Traceless Quadrupole moment (field-independent basis, Debye-Ang):
   XX=              6.3678   YY=             20.6170   ZZ=            -26.9847
   XY=             10.4101   XZ=              0.0000   YZ=              0.0000
 Octapole moment (field-independent basis, Debye-Ang**2):
  XXX=             -0.4801  YYY=              2.7418  ZZZ=              0.0000  XYY=             -1.1088
  XXY=             -5.9857  XXZ=             -0.0000  XZZ=             -2.9545  YZZ=              1.1172
  YYZ=              0.0000  XYZ=             -0.0000
 Hexadecapole moment (field-independent basis, Debye-Ang**3):
 XXXX=           -998.2686 YYYY=          -1844.2250 ZZZZ=            -99.3547 XXXY=           -350.3376
 XXXZ=              0.0000 YYYX=           -276.8818 YYYZ=              0.0000 ZZZX=              0.0000
 ZZZY=             -0.0000 XXYY=           -454.0884 XXZZ=           -244.0218 YYZZ=           -493.2872
 XXYZ=             -0.0000 YYXZ=             -0.0000 ZZXY=           -184.7202
 N-N= 7.807026174625D+02 E-N=-2.797731004644D+03  KE= 5.374811523614D+02
 Symmetry A'   KE= 5.228334511291D+02
 Symmetry A"   KE= 1.464770123223D+01
 Unable to Open any file for archive entry.
 1\1\GINC-GADI-CPU-CLX-1762\SP\RM062X TD-FC\6-311++G(d,p)\C14H11(1+)\TS
 1578\02-Aug-2022\0\\#n M062X/6-311++G(d,p) TD(NStates=1) EmpiricalDisp
 ersion=GD3 SP\\SP_150\\1,1\C,0,2.490555,1.359231,0.\C,0,3.695658,0.667
 589,0.\C,0,3.683061,-0.72253,0.\C,0,2.471206,-1.412588,0.\C,0,-2.45560
 6,-1.403488,0.\C,0,-3.687661,-0.71013,0.\C,0,-3.712108,0.674639,0.\C,0
 ,-2.504255,1.358631,0.\C,0,-0.0045,1.464369,0.\C,0,0.0122,-1.429689,0.
 \C,0,1.264255,0.681015,0.\C,0,1.241471,-0.730654,0.\C,0,-1.260605,0.67
 3365,0.\C,0,-1.231471,-0.729454,0.\H,0,2.491471,2.442247,0.\H,0,4.6313
 03,1.206939,0.\H,0,4.611462,-1.275249,0.\H,0,2.47045,-2.494859,0.\H,0,
 0.01125,-2.510516,0.\H,0,-2.46315,-2.486009,0.\H,0,-4.608562,-1.275699
 ,0.\H,0,-4.647953,1.212689,0.\H,0,-2.495671,2.441797,0.\H,0,-0.016,2.1
 48287,-0.862335\H,0,-0.016,2.148287,0.862335\\Version=ES64L-G16RevC.01
 \State=1-A'\HF=-539.7598064\RMSD=5.528e-09\PG=CS [SG(C14H9),X(H2)]\\@
 The archive entry for this job was punched.


 THE WORLD IS NOT A HAMBURGER - YOU CAN'T HAVE IT YOUR WAY.
 Job cpu time:       0 days  0 hours 52 minutes 33.2 seconds.
 Elapsed time:       0 days  0 hours  1 minutes  6.2 seconds.
 File lengths (MBytes):  RWF=    460 Int=      0 D2E=      0 Chk=     15 Scr=      1
 Normal termination of Gaussian 16 at Tue Aug  2 13:36:54 2022.
