 Entering Gaussian System, Link 0=g16
 Initial command:
 /apps/gaussian/g16c01/g16/l1.exe "/jobfs/53796104.gadi-pbs/Gau-3664250.inp" -scrdir="/jobfs/53796104.gadi-pbs/"
 Entering Link 1 = /apps/gaussian/g16c01/g16/l1.exe PID=   3664251.
  
 Copyright (c) 1988-2019, Gaussian, Inc.  All Rights Reserved.
  
 This is part of the Gaussian(R) 16 program.  It is based on
 the Gaussian(R) 09 system (copyright 2009, Gaussian, Inc.),
 the Gaussian(R) 03 system (copyright 2003, Gaussian, Inc.),
 the Gaussian(R) 98 system (copyright 1998, Gaussian, Inc.),
 the Gaussian(R) 94 system (copyright 1995, Gaussian, Inc.),
 the Gaussian 92(TM) system (copyright 1992, Gaussian, Inc.),
 the Gaussian 90(TM) system (copyright 1990, Gaussian, Inc.),
 the Gaussian 88(TM) system (copyright 1988, Gaussian, Inc.),
 the Gaussian 86(TM) system (copyright 1986, Carnegie Mellon
 University), and the Gaussian 82(TM) system (copyright 1983,
 Carnegie Mellon University). Gaussian is a federally registered
 trademark of Gaussian, Inc.
  
 This software contains proprietary and confidential information,
 including trade secrets, belonging to Gaussian, Inc.
  
 This software is provided under written license and may be
 used, copied, transmitted, or stored only in accord with that
 written license.
  
 The following legend is applicable only to US Government
 contracts under FAR:
  
                    RESTRICTED RIGHTS LEGEND
  
 Use, reproduction and disclosure by the US Government is
 subject to restrictions as set forth in subparagraphs (a)
 and (c) of the Commercial Computer Software - Restricted
 Rights clause in FAR 52.227-19.
  
 Gaussian, Inc.
 340 Quinnipiac St., Bldg. 40, Wallingford CT 06492
  
  
 ---------------------------------------------------------------
 Warning -- This program may not be used in any manner that
 competes with the business of Gaussian, Inc. or will provide
 assistance to any competitor of Gaussian, Inc.  The licensee
 of this program is prohibited from giving any competitor of
 Gaussian, Inc. access to this program.  By using this program,
 the user acknowledges that Gaussian, Inc. is engaged in the
 business of creating and licensing software in the field of
 computational chemistry and represents and warrants to the
 licensee that it is not a competitor of Gaussian, Inc. and that
 it will not use this program in any manner prohibited above.
 ---------------------------------------------------------------
  

 Cite this work as:
 Gaussian 16, Revision C.01,
 M. J. Frisch, G. W. Trucks, H. B. Schlegel, G. E. Scuseria, 
 M. A. Robb, J. R. Cheeseman, G. Scalmani, V. Barone, 
 G. A. Petersson, H. Nakatsuji, X. Li, M. Caricato, A. V. Marenich, 
 J. Bloino, B. G. Janesko, R. Gomperts, B. Mennucci, H. P. Hratchian, 
 J. V. Ortiz, A. F. Izmaylov, J. L. Sonnenberg, D. Williams-Young, 
 F. Ding, F. Lipparini, F. Egidi, J. Goings, B. Peng, A. Petrone, 
 T. Henderson, D. Ranasinghe, V. G. Zakrzewski, J. Gao, N. Rega, 
 G. Zheng, W. Liang, M. Hada, M. Ehara, K. Toyota, R. Fukuda, 
 J. Hasegawa, M. Ishida, T. Nakajima, Y. Honda, O. Kitao, H. Nakai, 
 T. Vreven, K. Throssell, J. A. Montgomery, Jr., J. E. Peralta, 
 F. Ogliaro, M. J. Bearpark, J. J. Heyd, E. N. Brothers, K. N. Kudin, 
 V. N. Staroverov, T. A. Keith, R. Kobayashi, J. Normand, 
 K. Raghavachari, A. P. Rendell, J. C. Burant, S. S. Iyengar, 
 J. Tomasi, M. Cossi, J. M. Millam, M. Klene, C. Adamo, R. Cammi, 
 J. W. Ochterski, R. L. Martin, K. Morokuma, O. Farkas, 
 J. B. Foresman, and D. J. Fox, Gaussian, Inc., Wallingford CT, 2019.
 
 ******************************************
 Gaussian 16:  ES64L-G16RevC.01  3-Jul-2019
                 2-Aug-2022 
 ******************************************
 %NProcShared=48
 Will use up to   48 processors via shared memory.
 %mem = 190GB
 ---------------------------------------------------------------
 #n M062X/6-311++G(d,p) TD(NStates=1) EmpiricalDispersion=GD3 SP
 ---------------------------------------------------------------
 1/38=1,172=1/1;
 2/12=2,17=6,18=5,40=1/2;
 3/5=4,6=6,7=1111,11=9,25=1,30=1,74=-55,124=31/1,2,3,8;
 4//1;
 5/5=2,38=5/2;
 8/6=1,10=2,108=1/1;
 9/41=1,42=1,70=2/14;
 6/7=2,8=2,9=2,10=2/1;
 99/5=1,9=1/99;
 ------
 SP_100
 ------
 Symbolic Z-matrix:
 Charge =  1 Multiplicity = 1
 C                     2.47306   1.36103   0. 
 C                     3.67731   0.66124   0. 
 C                     3.67726  -0.73293   0. 
 C                     2.48661  -1.42129   0. 
 C                    -2.43981  -1.39399   0. 
 C                    -3.69106  -0.69573   0. 
 C                    -3.72666   0.68239   0. 
 C                    -2.51416   1.35923   0. 
 C                    -0.01315   1.45557   0. 
 C                     0.0366   -1.42929   0. 
 C                     1.26761   0.68857   0. 
 C                     1.25227  -0.73245   0. 
 C                    -1.25666   0.66562   0. 
 C                    -1.22227  -0.72885   0. 
 H                     2.48287   2.444     0. 
 H                     4.61235   1.20269   0. 
 H                     4.61376  -1.2723    0. 
 H                     2.47835  -2.50341   0. 
 H                     0.03375  -2.51032   0. 
 H                    -2.45645  -2.47686   0. 
 H                    -4.60506  -1.27365   0. 
 H                    -4.6623    1.21994   0. 
 H                    -2.49547   2.44265   0. 
 H                    -0.048     2.14629  -0.86014 
 H                    -0.048     2.14629   0.86014 
 
                          Input orientation:                          
 ---------------------------------------------------------------------
 Center     Atomic      Atomic             Coordinates (Angstroms)
 Number     Number       Type             X           Y           Z
 ---------------------------------------------------------------------
      1          6           0        2.473055    1.361031    0.000000
      2          6           0        3.677308    0.661239    0.000000
      3          6           0        3.677261   -0.732930    0.000000
      4          6           0        2.486606   -1.421288    0.000000
      5          6           0       -2.439806   -1.393988    0.000000
      6          6           0       -3.691061   -0.695730    0.000000
      7          6           0       -3.726658    0.682389    0.000000
      8          6           0       -2.514155    1.359231    0.000000
      9          6           0       -0.013150    1.455569    0.000000
     10          6           0        0.036600   -1.429289    0.000000
     11          6           0        1.267605    0.688565    0.000000
     12          6           0        1.252271   -0.732454    0.000000
     13          6           0       -1.256655    0.665615    0.000000
     14          6           0       -1.222271   -0.728854    0.000000
     15          1           0        2.482871    2.443997    0.000000
     16          1           0        4.612353    1.202689    0.000000
     17          1           0        4.613762   -1.272299    0.000000
     18          1           0        2.478350   -2.503409    0.000000
     19          1           0        0.033750   -2.510316    0.000000
     20          1           0       -2.456450   -2.476859    0.000000
     21          1           0       -4.605062   -1.273649    0.000000
     22          1           0       -4.662303    1.219939    0.000000
     23          1           0       -2.495471    2.442647    0.000000
     24          1           0       -0.048000    2.146287   -0.860135
     25          1           0       -0.048000    2.146287    0.860135
 ---------------------------------------------------------------------
                    Distance matrix (angstroms):
                    1          2          3          4          5
     1  C    0.000000
     2  C    1.392815   0.000000
     3  C    2.415530   1.394169   0.000000
     4  C    2.782352   2.398893   1.375317   0.000000
     5  C    5.632613   6.453142   6.152683   4.926488   0.000000
     6  C    6.498199   7.492278   7.368416   6.220129   1.432900
     7  C    6.236746   7.403996   7.537980   6.559734   2.442812
     8  C    4.987210   6.230683   6.535348   5.721791   2.754223
     9  C    2.488002   3.774976   4.290532   3.811179   3.742811
    10  C    3.704349   4.198221   3.706660   2.450019   2.476658
    11  C    1.380333   2.409858   2.797694   2.436687   4.252284
    12  C    2.423426   2.796996   2.424990   1.413533   3.750875
    13  C    3.793987   4.933965   5.128299   4.285693   2.375250
    14  C    4.245357   5.092959   4.899534   3.772961   1.387370
    15  H    1.083010   2.145904   3.394029   3.865287   6.242025
    16  H    2.145150   1.080499   2.149655   3.376989   7.515030
    17  H    3.393678   2.148375   1.080719   2.132367   7.054618
    18  H    3.864444   3.384154   2.138220   1.082152   5.041733
    19  H    4.575755   4.830556   4.053921   2.683745   2.713792
    20  H    6.247353   6.889895   6.376809   5.054506   1.082999
    21  H    7.552568   8.505377   8.299955   7.093205   2.168597
    22  H    7.136753   8.358305   8.565163   7.621219   3.431050
    23  H    5.084894   6.424688   6.941679   6.304846   3.837039
    24  H    2.777081   4.101600   4.786156   4.460006   4.358224
    25  H    2.777081   4.101600   4.786156   4.460006   4.358224
                    6          7          8          9         10
     6  C    0.000000
     7  C    1.378579   0.000000
     8  C    2.368116   1.388625   0.000000
     9  C    4.260882   3.793145   2.502860   0.000000
    10  C    3.799153   4.315240   3.779179   2.885287   0.000000
    11  C    5.148266   4.994267   3.840768   1.492859   2.449628
    12  C    4.943468   5.176052   4.308261   2.527595   1.401226
    13  C    2.789192   2.470060   1.436109   1.473205   2.461936
    14  C    2.469012   2.874641   2.455415   2.496733   1.440613
    15  H    6.926422   6.454573   5.113412   2.684606   4.581112
    16  H    8.517669   8.355227   7.128227   4.632410   5.278714
    17  H    8.324813   8.566412   7.598168   5.371180   4.579853
    18  H    6.428790   6.975058   6.312297   4.677722   2.667560
    19  H    4.143301   4.932954   4.633057   3.966162   1.081031
    20  H    2.167184   3.405037   3.836524   4.629655   2.704201
    21  H    1.081383   2.144220   3.362135   5.341749   4.644271
    22  H    2.147813   1.079070   2.152659   4.655120   5.394265
    23  H    3.358399   2.148099   1.083577   2.671374   4.626367
    24  H    4.699871   4.051587   2.727858   1.103693   3.678550
    25  H    4.699871   4.051587   2.727858   1.103693   3.678550
                   11         12         13         14         15
    11  C    0.000000
    12  C    1.421102   0.000000
    13  C    2.524364   2.872161   0.000000
    14  C    2.865058   2.474545   1.394893   0.000000
    15  H    2.135044   3.406496   4.140857   4.878018   0.000000
    16  H    3.384031   3.877490   5.893531   6.146031   2.464861
    17  H    3.878370   3.404564   6.182015   5.861281   4.283871
    18  H    3.413884   2.153962   4.898262   4.104101   4.947408
    19  H    3.428591   2.155362   3.428073   2.179724   5.526609
    20  H    4.887586   4.098483   3.363726   2.139794   6.972210
    21  H    6.191809   5.882282   3.869441   3.426380   8.003730
    22  H    5.953668   6.228485   3.450466   3.953684   7.249264
    23  H    4.151812   4.911908   2.166220   3.417522   4.978342
    24  H    2.143736   3.273788   2.095965   3.222605   2.689567
    25  H    2.143736   3.273788   2.095965   3.222605   2.689567
                   16         17         18         19         20
    16  H    0.000000
    17  H    2.474988   0.000000
    18  H    4.276579   2.464877   0.000000
    19  H    5.894914   4.744386   2.444610   0.000000
    20  H    7.969131   7.172089   4.934871   2.490425   0.000000
    21  H    9.544265   9.218824   7.189370   4.800825   2.462569
    22  H    9.274672   9.605032   8.053089   5.997309   4.304893
    23  H    7.215169   8.021348   7.014440   5.561367   4.919661
    24  H    4.832091   5.844535   5.361152   4.736081   5.283365
    25  H    4.832091   5.844535   5.361152   4.736081   5.283365
                   21         22         23         24         25
    21  H    0.000000
    22  H    2.494245   0.000000
    23  H    4.273316   2.488006   0.000000
    24  H    5.762170   4.784323   2.611087   0.000000
    25  H    5.762170   4.784323   2.611087   1.720270   0.000000
 Stoichiometry    C14H11(1+)
 Framework group  CS[SG(C14H9),X(H2)]
 Deg. of freedom    46
 Full point group                 CS      NOp   2
 Largest Abelian subgroup         CS      NOp   2
 Largest concise Abelian subgroup CS      NOp   2
                         Standard orientation:                         
 ---------------------------------------------------------------------
 Center     Atomic      Atomic             Coordinates (Angstroms)
 Number     Number       Type             X           Y           Z
 ---------------------------------------------------------------------
      1          6           0       -2.360831   -1.548424    0.000000
      2          6           0       -2.306355   -2.940174    0.000000
      3          6           0       -1.074435   -3.592922    0.000000
      4          6           0        0.091302   -2.863159    0.000000
      5          6           0        2.373866    1.502638    0.000000
      6          6           0        2.342753    2.935200    0.000000
      7          6           0        1.141704    3.611929    0.000000
      8          6           0       -0.024087    2.857469    0.000000
      9          6           0       -1.280254    0.692670    0.000000
     10          6           0        1.245534   -0.702062    0.000000
     11          6           0       -1.202209   -0.798148    0.000000
     12          6           0        0.060594   -1.449960    0.000000
     13          6           0        0.000000    1.421562    0.000000
     14          6           0        1.216064    0.738250    0.000000
     15          1           0       -3.322344   -1.050023    0.000000
     16          1           0       -3.222599   -3.512864    0.000000
     17          1           0       -1.036341   -4.672969    0.000000
     18          1           0        1.051338   -3.362544    0.000000
     19          1           0        2.202072   -1.205711    0.000000
     20          1           0        3.338492    1.010314    0.000000
     21          1           0        3.281367    3.472220    0.000000
     22          1           0        1.104816    4.690368    0.000000
     23          1           0       -0.990150    3.348245    0.000000
     24          1           0       -1.874259    1.046878    0.860135
     25          1           0       -1.874259    1.046878   -0.860135
 ---------------------------------------------------------------------
 Rotational constants (GHZ):           2.1357434           0.4444739           0.3687084
 Standard basis: 6-311++G(d,p) (5D, 7F)
 There are   299 symmetry adapted cartesian basis functions of A'  symmetry.
 There are   100 symmetry adapted cartesian basis functions of A"  symmetry.
 There are   285 symmetry adapted basis functions of A'  symmetry.
 There are   100 symmetry adapted basis functions of A"  symmetry.
   385 basis functions,   603 primitive gaussians,   399 cartesian basis functions
    47 alpha electrons       47 beta electrons
       nuclear repulsion energy       781.1285984940 Hartrees.
 NAtoms=   25 NActive=   25 NUniq=   24 SFac= 1.09D+00 NAtFMM=   60 NAOKFM=F Big=F
 Integral buffers will be    131072 words long.
 Regular integral format.
 Two-electron integral symmetry is turned on.
 Nuclear repulsion after empirical dispersion term =      781.1276192149 Hartrees.
 One-electron integrals computed using PRISM.
 NBasis=   385 RedAO= T EigKep=  1.12D-06  NBF=   285   100
 NBsUse=   379 1.00D-06 EigRej=  8.39D-07 NBFU=   279   100
 ExpMin= 3.60D-02 ExpMax= 4.56D+03 ExpMxC= 6.82D+02 IAcc=3 IRadAn=         5 AccDes= 0.00D+00
 Harris functional with IExCor= 1009 and IRadAn=       5 diagonalized for initial guess.
 HarFok:  IExCor= 1009 AccDes= 0.00D+00 IRadAn=         5 IDoV= 1 UseB2=F ITyADJ=14
 ICtDFT=  3500011 ScaDFX=  1.000000  1.000000  1.000000  1.000000
 FoFCou: FMM=F IPFlag=           0 FMFlag=      100000 FMFlg1=           0
         NFxFlg=           0 DoJE=T BraDBF=F KetDBF=T FulRan=T
         wScrn=  0.000000 ICntrl=       500 IOpCl=  0 I1Cent=   200000004 NGrid=           0
         NMat0=    1 NMatS0=      1 NMatT0=    0 NMatD0=    1 NMtDS0=    0 NMtDT0=    0
 Petite list used in FoFCou.
 Initial guess orbital symmetries:
       Occupied  (A') (A') (A') (A') (A') (A') (A') (A') (A') (A')
                 (A') (A') (A') (A') (A') (A') (A') (A') (A') (A')
                 (A') (A') (A') (A') (A') (A') (A') (A') (A') (A')
                 (A') (A') (A") (A') (A') (A') (A') (A') (A") (A')
                 (A") (A') (A') (A") (A") (A") (A")
       Virtual   (A") (A") (A") (A") (A") (A') (A') (A') (A') (A")
                 (A") (A') (A') (A') (A") (A') (A') (A') (A') (A")
                 (A') (A") (A') (A') (A') (A") (A') (A") (A') (A')
                 (A') (A') (A') (A') (A") (A') (A") (A') (A') (A')
                 (A") (A') (A') (A") (A') (A') (A') (A') (A") (A')
                 (A') (A') (A") (A") (A') (A') (A') (A") (A") (A')
                 (A') (A') (A') (A') (A') (A') (A") (A') (A') (A")
                 (A') (A') (A') (A') (A') (A') (A') (A') (A') (A')
                 (A') (A') (A') (A') (A') (A') (A') (A') (A') (A')
                 (A') (A') (A') (A') (A') (A') (A') (A") (A') (A")
                 (A') (A') (A") (A") (A') (A") (A') (A") (A") (A')
                 (A") (A') (A') (A') (A") (A') (A') (A") (A") (A')
                 (A") (A") (A') (A') (A') (A") (A') (A') (A') (A")
                 (A') (A') (A') (A') (A') (A') (A") (A') (A') (A')
                 (A') (A') (A') (A') (A') (A') (A') (A') (A') (A")
                 (A") (A') (A") (A") (A') (A') (A') (A") (A") (A')
                 (A") (A') (A") (A") (A") (A') (A') (A') (A') (A')
                 (A') (A") (A') (A") (A') (A') (A') (A') (A') (A")
                 (A') (A') (A') (A') (A") (A') (A") (A') (A") (A")
                 (A') (A") (A') (A") (A') (A') (A') (A") (A') (A')
                 (A") (A") (A") (A') (A') (A") (A') (A") (A') (A')
                 (A") (A") (A') (A") (A') (A") (A') (A') (A') (A")
                 (A') (A') (A') (A') (A") (A') (A') (A') (A") (A")
                 (A') (A') (A') (A") (A') (A') (A") (A') (A") (A')
                 (A") (A') (A') (A') (A') (A") (A') (A') (A') (A")
                 (A') (A') (A") (A') (A") (A') (A') (A") (A') (A')
                 (A') (A") (A') (A") (A') (A') (A') (A") (A') (A")
                 (A') (A') (A') (A') (A") (A') (A") (A') (A") (A')
                 (A") (A') (A") (A") (A") (A') (A') (A') (A') (A')
                 (A') (A') (A') (A') (A') (A') (A') (A') (A') (A')
                 (A') (A') (A') (A') (A') (A") (A') (A') (A') (A')
                 (A') (A') (A') (A') (A') (A') (A') (A') (A') (A')
                 (A') (A') (A') (A') (A') (A') (A') (A') (A') (A')
                 (A') (A')
 The electronic state of the initial guess is 1-A'.
 Requested convergence on RMS density matrix=1.00D-08 within 128 cycles.
 Requested convergence on MAX density matrix=1.00D-06.
 Requested convergence on             energy=1.00D-06.
 No special actions if energy rises.
 SCF Done:  E(RM062X) =  -539.756334851     A.U. after   15 cycles
            NFock= 15  Conv=0.90D-08     -V/T= 2.0042
 DoSCS=F DFT=T ScalE2(SS,OS)=  1.000000  1.000000
 ExpMin= 3.60D-02 ExpMax= 4.56D+03 ExpMxC= 6.82D+02 IAcc=3 IRadAn=         5 AccDes= 0.00D+00
 HarFok:  IExCor=  205 AccDes= 0.00D+00 IRadAn=         5 IDoV=-2 UseB2=F ITyADJ=14
 ICtDFT= 12500011 ScaDFX=  1.000000  1.000000  1.000000  1.000000
 Range of M.O.s used for correlation:    15   379
 NBasis=   385 NAE=    47 NBE=    47 NFC=    14 NFV=     0
 NROrb=    365 NOA=    33 NOB=    33 NVA=   332 NVB=   332

 **** Warning!!: The largest alpha MO coefficient is  0.13716880D+03

 Orbital symmetries:
       Occupied  (A') (A') (A') (A') (A') (A') (A') (A') (A') (A')
                 (A') (A') (A') (A') (A') (A') (A') (A') (A') (A')
                 (A') (A') (A') (A') (A') (A') (A') (A') (A') (A')
                 (A') (A') (A") (A') (A') (A') (A') (A") (A") (A')
                 (A') (A') (A') (A") (A") (A") (A")
       Virtual   (A") (A") (A") (A") (A') (A') (A') (A') (A") (A')
                 (A') (A") (A') (A') (A") (A') (A") (A') (A') (A')
                 (A") (A") (A') (A') (A') (A") (A') (A") (A') (A')
                 (A") (A') (A") (A') (A') (A') (A') (A') (A") (A')
                 (A") (A') (A') (A") (A") (A') (A") (A') (A") (A')
                 (A') (A') (A') (A') (A') (A") (A') (A') (A') (A')
                 (A') (A") (A') (A') (A') (A") (A') (A') (A') (A')
                 (A') (A') (A') (A') (A') (A') (A') (A') (A') (A')
                 (A') (A') (A') (A') (A') (A') (A') (A') (A') (A')
                 (A') (A') (A') (A') (A") (A') (A") (A") (A') (A")
                 (A') (A') (A') (A') (A") (A") (A') (A") (A") (A')
                 (A') (A') (A") (A') (A') (A") (A') (A") (A') (A")
                 (A") (A') (A") (A') (A') (A') (A") (A') (A') (A')
                 (A') (A') (A') (A') (A') (A') (A') (A') (A') (A')
                 (A') (A') (A') (A") (A') (A') (A') (A') (A') (A')
                 (A') (A') (A") (A') (A") (A') (A") (A") (A') (A")
                 (A") (A') (A') (A") (A") (A') (A") (A") (A') (A')
                 (A') (A') (A') (A") (A") (A') (A') (A') (A') (A")
                 (A') (A') (A') (A") (A") (A') (A') (A") (A') (A")
                 (A") (A') (A') (A") (A") (A') (A') (A') (A') (A')
                 (A") (A") (A") (A') (A") (A') (A') (A") (A') (A')
                 (A') (A") (A') (A") (A") (A') (A") (A') (A') (A")
                 (A') (A') (A') (A') (A") (A') (A') (A') (A") (A")
                 (A') (A') (A') (A") (A') (A') (A') (A") (A") (A')
                 (A") (A') (A') (A") (A') (A') (A') (A') (A') (A')
                 (A") (A') (A') (A') (A') (A") (A") (A") (A') (A')
                 (A') (A') (A') (A') (A') (A') (A") (A') (A') (A')
                 (A') (A") (A') (A") (A") (A") (A') (A") (A') (A")
                 (A') (A") (A") (A') (A") (A") (A') (A') (A') (A')
                 (A') (A') (A') (A') (A') (A') (A') (A') (A') (A')
                 (A') (A') (A') (A") (A') (A') (A') (A') (A') (A')
                 (A') (A') (A') (A') (A') (A') (A') (A') (A') (A')
                 (A') (A') (A') (A') (A') (A') (A') (A') (A') (A')
                 (A') (A')
     4 initial guesses have been made.
 Convergence on wavefunction:    0.001000000000000
 Iteration     1 Dimension     4 NMult     0 NNew      4
 CISAX will form     4 AO SS matrices at one time.
 Iteration     2 Dimension     6 NMult     4 NNew      2
 Iteration     3 Dimension     8 NMult     6 NNew      2
 Iteration     4 Dimension    10 NMult     8 NNew      2
 Iteration     5 Dimension    12 NMult    10 NNew      2
 Iteration     6 Dimension    14 NMult    12 NNew      2
 ***********************************************************************
 Excited states from <AA,BB:AA,BB> singles matrix:
 ***********************************************************************
 
 Ground to excited state transition densities written to RWF  633
 Ground to excited state transition electric dipole moments (Au):
       state          X           Y           Z        Dip. S.      Osc.
         1        -0.4851      0.3018      0.0000      0.3264      0.0217
 Ground to excited state transition velocity dipole moments (Au):
       state          X           Y           Z        Dip. S.      Osc.
         1         0.0562     -0.0305     -0.0000      0.0041      0.0273
 Ground to excited state transition magnetic dipole moments (Au):
       state          X           Y           Z
         1        -0.0000     -0.0000     -0.1703
 Ground to excited state transition velocity quadrupole moments (Au):
       state          XX          YY          ZZ          XY          XZ          YZ
         1         0.1414      0.1410     -0.0086      0.1375      0.0000     -0.0000
 <0|del|b> * <b|rxdel|0> + <0|del|b> * <b|delr+rdel|0>
 Rotatory Strengths (R) in cgs (10**-40 erg-esu-cm/Gauss)
       state          XX          YY          ZZ    R(velocity)    E-M Angle
         1         0.0000     -0.0000     -0.0000     -0.0000       90.00
 1/2[<0|r|b>*<b|rxdel|0> + (<0|rxdel|b>*<b|r|0>)*]
 Rotatory Strengths (R) in cgs (10**-40 erg-esu-cm/Gauss)
       state          XX          YY          ZZ     R(length)
         1        -0.0000      0.0000      0.0000      0.0000
  1/2[<0|del|b>*<b|r|0> + (<0|r|b>*<b|del|0>)*] (Au)
       state          X           Y           Z        Dip. S.   Osc.(frdel)
         1        -0.0273     -0.0092     -0.0000      0.0365      0.0243

 Excitation energies and oscillator strengths:
 
 Excited State   1:      Singlet-A'     2.7168 eV  456.35 nm  f=0.0217  <S**2>=0.000
      47 -> 48         0.70361
 This state for optimization and/or second-order correction.
 Total Energy, E(TD-HF/TD-DFT) =  -539.656492629    
 Copying the excited state density for this state as the 1-particle RhoCI density.
 SavETr:  write IOETrn=   770 NScale= 10 NData=  16 NLR=1 NState=    1 LETran=      28.

 **********************************************************************

            Population analysis using the SCF Density.

 **********************************************************************

 Orbital symmetries:
       Occupied  (A') (A') (A') (A') (A') (A') (A') (A') (A') (A')
                 (A') (A') (A') (A') (A') (A') (A') (A') (A') (A')
                 (A') (A') (A') (A') (A') (A') (A') (A') (A') (A')
                 (A') (A') (A") (A') (A') (A') (A') (A") (A") (A')
                 (A') (A') (A') (A") (A") (A") (A")
       Virtual   (A") (A") (A") (A") (A') (A') (A') (A') (A") (A')
                 (A') (A") (A') (A') (A") (A') (A") (A') (A') (A')
                 (A") (A") (A') (A') (A') (A") (A') (A") (A') (A')
                 (A") (A') (A") (A') (A') (A') (A') (A') (A") (A')
                 (A") (A') (A') (A") (A") (A') (A") (A') (A") (A')
                 (A') (A') (A') (A') (A') (A") (A') (A') (A') (A')
                 (A') (A") (A') (A') (A') (A") (A') (A') (A') (A')
                 (A') (A') (A') (A') (A') (A') (A') (A') (A') (A')
                 (A') (A') (A') (A') (A') (A') (A') (A') (A') (A')
                 (A') (A') (A') (A') (A") (A') (A") (A") (A') (A")
                 (A') (A') (A') (A') (A") (A") (A') (A") (A") (A')
                 (A') (A') (A") (A') (A') (A") (A') (A") (A') (A")
                 (A") (A') (A") (A') (A') (A') (A") (A') (A') (A')
                 (A') (A') (A') (A') (A') (A') (A') (A') (A') (A')
                 (A') (A') (A') (A") (A') (A') (A') (A') (A') (A')
                 (A') (A') (A") (A') (A") (A') (A") (A") (A') (A")
                 (A") (A') (A') (A") (A") (A') (A") (A") (A') (A')
                 (A') (A') (A') (A") (A") (A') (A') (A') (A') (A")
                 (A') (A') (A') (A") (A") (A') (A') (A") (A') (A")
                 (A") (A') (A') (A") (A") (A') (A') (A') (A') (A')
                 (A") (A") (A") (A') (A") (A') (A') (A") (A') (A')
                 (A') (A") (A') (A") (A") (A') (A") (A') (A') (A")
                 (A') (A') (A') (A') (A") (A') (A') (A') (A") (A")
                 (A') (A') (A') (A") (A') (A') (A') (A") (A") (A')
                 (A") (A') (A') (A") (A') (A') (A') (A') (A') (A')
                 (A") (A') (A') (A') (A') (A") (A") (A") (A') (A')
                 (A') (A') (A') (A') (A') (A') (A") (A') (A') (A')
                 (A') (A") (A') (A") (A") (A") (A') (A") (A') (A")
                 (A') (A") (A") (A') (A") (A") (A') (A') (A') (A')
                 (A') (A') (A') (A') (A') (A') (A') (A') (A') (A')
                 (A') (A') (A') (A") (A') (A') (A') (A') (A') (A')
                 (A') (A') (A') (A') (A') (A') (A') (A') (A') (A')
                 (A') (A') (A') (A') (A') (A') (A') (A') (A') (A')
                 (A') (A')
 The electronic state is 1-A'.
 Alpha  occ. eigenvalues --  -10.77618 -10.73678 -10.72813 -10.72764 -10.72066
 Alpha  occ. eigenvalues --  -10.71797 -10.71763 -10.70989 -10.70943 -10.70256
 Alpha  occ. eigenvalues --  -10.70169 -10.69876 -10.69778 -10.69387  -1.16493
 Alpha  occ. eigenvalues --   -1.12462  -1.06940  -1.05788  -1.01296  -1.00317
 Alpha  occ. eigenvalues --   -0.95647  -0.91035  -0.86432  -0.85892  -0.83789
 Alpha  occ. eigenvalues --   -0.78357  -0.76088  -0.74384  -0.69708  -0.69292
 Alpha  occ. eigenvalues --   -0.68376  -0.68106  -0.68098  -0.65087  -0.64241
 Alpha  occ. eigenvalues --   -0.62836  -0.61692  -0.60336  -0.59371  -0.59140
 Alpha  occ. eigenvalues --   -0.56921  -0.55257  -0.54642  -0.52440  -0.47060
 Alpha  occ. eigenvalues --   -0.46109  -0.44037
 Alpha virt. eigenvalues --   -0.26102  -0.14666  -0.14086  -0.12767  -0.11185
 Alpha virt. eigenvalues --   -0.10089  -0.09248  -0.07969  -0.07946  -0.07481
 Alpha virt. eigenvalues --   -0.07207  -0.07139  -0.05646  -0.05576  -0.05344
 Alpha virt. eigenvalues --   -0.03841  -0.03658  -0.03275  -0.03133  -0.02160
 Alpha virt. eigenvalues --   -0.01355  -0.00946   0.00191   0.00593   0.00644
 Alpha virt. eigenvalues --    0.01062   0.01508   0.01936   0.02169   0.02303
 Alpha virt. eigenvalues --    0.02449   0.02672   0.02775   0.03268   0.03437
 Alpha virt. eigenvalues --    0.04228   0.04498   0.04714   0.05037   0.05381
 Alpha virt. eigenvalues --    0.06028   0.06290   0.06585   0.07047   0.07266
 Alpha virt. eigenvalues --    0.07900   0.08105   0.08353   0.08602   0.08916
 Alpha virt. eigenvalues --    0.09502   0.09584   0.09991   0.10832   0.10980
 Alpha virt. eigenvalues --    0.11125   0.12121   0.12249   0.12755   0.13019
 Alpha virt. eigenvalues --    0.13450   0.13525   0.13990   0.14346   0.15954
 Alpha virt. eigenvalues --    0.16376   0.16446   0.17333   0.17518   0.17791
 Alpha virt. eigenvalues --    0.18121   0.19066   0.19338   0.19635   0.19851
 Alpha virt. eigenvalues --    0.21494   0.21632   0.22683   0.23152   0.23560
 Alpha virt. eigenvalues --    0.23907   0.24555   0.25413   0.26936   0.27611
 Alpha virt. eigenvalues --    0.28847   0.29264   0.29897   0.31351   0.35778
 Alpha virt. eigenvalues --    0.36446   0.38204   0.39277   0.41087   0.41329
 Alpha virt. eigenvalues --    0.41962   0.42150   0.42983   0.43695   0.44358
 Alpha virt. eigenvalues --    0.44813   0.45109   0.45936   0.46342   0.47920
 Alpha virt. eigenvalues --    0.48442   0.48807   0.49038   0.50489   0.51095
 Alpha virt. eigenvalues --    0.51301   0.51969   0.52133   0.52803   0.54087
 Alpha virt. eigenvalues --    0.54112   0.54605   0.55652   0.55886   0.57559
 Alpha virt. eigenvalues --    0.58227   0.58910   0.61479   0.62243   0.62395
 Alpha virt. eigenvalues --    0.63175   0.63479   0.64927   0.65157   0.67371
 Alpha virt. eigenvalues --    0.70371   0.70512   0.71154   0.72477   0.72892
 Alpha virt. eigenvalues --    0.75629   0.76049   0.76384   0.76786   0.77118
 Alpha virt. eigenvalues --    0.77860   0.77959   0.78263   0.79910   0.80392
 Alpha virt. eigenvalues --    0.81239   0.81562   0.82336   0.82996   0.85216
 Alpha virt. eigenvalues --    0.87076   0.88159   0.88280   0.89255   0.90565
 Alpha virt. eigenvalues --    0.91048   0.91374   0.93264   0.94604   0.96306
 Alpha virt. eigenvalues --    0.96846   1.00261   1.01270   1.01574   1.02799
 Alpha virt. eigenvalues --    1.03170   1.03247   1.04830   1.06174   1.08837
 Alpha virt. eigenvalues --    1.19569   1.23051   1.24135   1.24555   1.28645
 Alpha virt. eigenvalues --    1.29414   1.32106   1.34299   1.35752   1.35975
 Alpha virt. eigenvalues --    1.39325   1.39796   1.40880   1.42978   1.43454
 Alpha virt. eigenvalues --    1.43529   1.44300   1.46360   1.46580   1.46619
 Alpha virt. eigenvalues --    1.47683   1.48129   1.51749   1.53659   1.55714
 Alpha virt. eigenvalues --    1.55786   1.56307   1.56585   1.57800   1.61453
 Alpha virt. eigenvalues --    1.63078   1.63372   1.64109   1.66086   1.68314
 Alpha virt. eigenvalues --    1.68333   1.68717   1.69814   1.74398   1.76010
 Alpha virt. eigenvalues --    1.77161   1.78072   1.79866   1.80031   1.80819
 Alpha virt. eigenvalues --    1.82921   1.83200   1.83603   1.83824   1.84182
 Alpha virt. eigenvalues --    1.84491   1.85538   1.86353   1.88318   1.91407
 Alpha virt. eigenvalues --    1.92119   1.94073   1.95289   1.97755   1.98150
 Alpha virt. eigenvalues --    1.99777   2.02364   2.04485   2.07299   2.11745
 Alpha virt. eigenvalues --    2.12128   2.14212   2.15255   2.19063   2.21199
 Alpha virt. eigenvalues --    2.22755   2.28533   2.30211   2.34513   2.34832
 Alpha virt. eigenvalues --    2.36316   2.38620   2.39661   2.42342   2.44664
 Alpha virt. eigenvalues --    2.46126   2.46441   2.49239   2.52930   2.53784
 Alpha virt. eigenvalues --    2.54228   2.56857   2.57890   2.58385   2.59476
 Alpha virt. eigenvalues --    2.59899   2.61554   2.62130   2.63555   2.63739
 Alpha virt. eigenvalues --    2.64815   2.65080   2.65082   2.65536   2.67915
 Alpha virt. eigenvalues --    2.68420   2.70933   2.71453   2.73363   2.74811
 Alpha virt. eigenvalues --    2.76289   2.78482   2.79662   2.82997   2.83161
 Alpha virt. eigenvalues --    2.84859   2.86261   2.92110   2.97082   2.99438
 Alpha virt. eigenvalues --    3.00115   3.04956   3.09886   3.11258   3.13882
 Alpha virt. eigenvalues --    3.20698   3.22521   3.26398   3.28596   3.30607
 Alpha virt. eigenvalues --    3.32802   3.34443   3.43753   3.46123   3.46692
 Alpha virt. eigenvalues --    3.48328   3.50047   3.56421   3.65994   3.66863
 Alpha virt. eigenvalues --    3.67739   3.93863   3.94124   3.95378   3.96403
 Alpha virt. eigenvalues --    4.03949   4.06589   4.07608   4.12542   4.35317
 Alpha virt. eigenvalues --    4.60972   4.69357   4.71315  23.45267  23.60206
 Alpha virt. eigenvalues --   23.80740  23.83236  23.85885  23.89125  23.91575
 Alpha virt. eigenvalues --   23.94936  23.95915  23.97661  24.02459  24.04568
 Alpha virt. eigenvalues --   24.11063  24.12216
          Condensed to atoms (all electrons):
               1          2          3          4          5          6
     1  C    8.405236   0.478708  -0.632587   1.810464  -0.009842  -0.087091
     2  C    0.478708   7.180950   0.411374  -1.014350  -0.035382  -0.015066
     3  C   -0.632587   0.411374   6.603968   0.727283  -0.114797   0.016891
     4  C    1.810464  -1.014350   0.727283  11.458695  -0.387340  -0.138150
     5  C   -0.009842  -0.035382  -0.114797  -0.387340  10.767781   0.821231
     6  C   -0.087091  -0.015066   0.016891  -0.138150   0.821231   6.595211
     7  C   -0.029548   0.000254  -0.013322   0.009564  -1.191053   0.262220
     8  C    0.406313  -0.003156  -0.104560  -0.080374   2.244538  -0.408849
     9  C   -1.139823  -0.854772   0.296152  -0.001437  -0.380613   0.295300
    10  C   -1.221055   0.175739  -0.277790  -2.756317  -2.417790  -0.423624
    11  C    0.331397  -0.808565   0.906155  -0.319156  -1.435537  -0.121690
    12  C   -1.874825   1.099133  -1.353484  -1.655695  -0.238779  -0.271453
    13  C    0.204549  -0.214614  -0.218169  -1.581743  -0.317567   1.093956
    14  C   -1.135408  -0.279020  -0.129585  -0.441840  -1.652513  -1.492436
    15  H    0.367392  -0.106365  -0.002873   0.025675   0.006308   0.001216
    16  H   -0.020053   0.382634  -0.020938   0.016480  -0.001670  -0.000353
    17  H   -0.020794  -0.021584   0.380361  -0.069805   0.000164   0.000412
    18  H    0.048003   0.003502  -0.083875   0.465756   0.005917  -0.005040
    19  H   -0.044276  -0.008181   0.051221  -0.079160  -0.062836   0.051636
    20  H    0.006968   0.002045  -0.005248   0.005889   0.455363  -0.084391
    21  H   -0.001244  -0.000416   0.000388   0.000452  -0.066737   0.369222
    22  H    0.000452   0.000327  -0.000302  -0.001366   0.010591  -0.012920
    23  H    0.006492  -0.002356   0.000997   0.004733   0.029713   0.000920
    24  H    0.037229   0.015743  -0.001357  -0.011407  -0.013041  -0.001776
    25  H    0.037229   0.015743  -0.001357  -0.011407  -0.013041  -0.001776
               7          8          9         10         11         12
     1  C   -0.029548   0.406313  -1.139823  -1.221055   0.331397  -1.874825
     2  C    0.000254  -0.003156  -0.854772   0.175739  -0.808565   1.099133
     3  C   -0.013322  -0.104560   0.296152  -0.277790   0.906155  -1.353484
     4  C    0.009564  -0.080374  -0.001437  -2.756317  -0.319156  -1.655695
     5  C   -1.191053   2.244538  -0.380613  -2.417790  -1.435537  -0.238779
     6  C    0.262220  -0.408849   0.295300  -0.423624  -0.121690  -0.271453
     7  C    7.188926   0.034166  -0.785644   0.335268  -0.292111  -0.096446
     8  C    0.034166   8.921117  -1.121332  -1.380803   0.277121  -1.054477
     9  C   -0.785644  -1.121332   9.603852   0.255751   1.604364  -2.071518
    10  C    0.335268  -1.380803   0.255751   9.116407  -0.327608   2.389425
    11  C   -0.292111   0.277121   1.604364  -0.327608  14.530883  -4.034799
    12  C   -0.096446  -1.054477  -2.071518   2.389425  -4.034799  16.261071
    13  C   -0.974200   0.303483   1.480547  -0.469713   1.078451  -4.720456
    14  C    1.686144  -2.540160  -1.752951   2.459430  -4.812756   3.126117
    15  H   -0.002864   0.004971   0.087954  -0.008127  -0.029558  -0.014699
    16  H    0.000398   0.000993   0.002004  -0.010176   0.024964  -0.030320
    17  H   -0.000378  -0.001390  -0.004903   0.020076  -0.025689   0.087050
    18  H    0.002113   0.007057  -0.022901   0.007778  -0.008366  -0.049150
    19  H   -0.007456  -0.048277   0.074969   0.422201   0.076842  -0.083169
    20  H    0.002050   0.053744  -0.025813   0.013900  -0.012068  -0.009382
    21  H   -0.009150  -0.031539  -0.006301   0.020383  -0.006249   0.005340
    22  H    0.374845  -0.017189   0.003834  -0.008155   0.002551  -0.007867
    23  H   -0.108449   0.370263   0.094670  -0.011006   0.006264   0.005029
    24  H    0.013239   0.028920   0.356068   0.005376   0.023039  -0.059957
    25  H    0.013239   0.028920   0.356068   0.005376   0.023039  -0.059957
              13         14         15         16         17         18
     1  C    0.204549  -1.135408   0.367392  -0.020053  -0.020794   0.048003
     2  C   -0.214614  -0.279020  -0.106365   0.382634  -0.021584   0.003502
     3  C   -0.218169  -0.129585  -0.002873  -0.020938   0.380361  -0.083875
     4  C   -1.581743  -0.441840   0.025675   0.016480  -0.069805   0.465756
     5  C   -0.317567  -1.652513   0.006308  -0.001670   0.000164   0.005917
     6  C    1.093956  -1.492436   0.001216  -0.000353   0.000412  -0.005040
     7  C   -0.974200   1.686144  -0.002864   0.000398  -0.000378   0.002113
     8  C    0.303483  -2.540160   0.004971   0.000993  -0.001390   0.007057
     9  C    1.480547  -1.752951   0.087954   0.002004  -0.004903  -0.022901
    10  C   -0.469713   2.459430  -0.008127  -0.010176   0.020076   0.007778
    11  C    1.078451  -4.812756  -0.029558   0.024964  -0.025689  -0.008366
    12  C   -4.720456   3.126117  -0.014699  -0.030320   0.087050  -0.049150
    13  C   14.312191  -3.399361  -0.002695   0.003357  -0.006297  -0.012306
    14  C   -3.399361  15.914764   0.007460  -0.010197   0.005250  -0.020312
    15  H   -0.002695   0.007460   0.435017  -0.008946   0.001638   0.000226
    16  H    0.003357  -0.010197  -0.008946   0.416688  -0.007020   0.001964
    17  H   -0.006297   0.005250   0.001638  -0.007020   0.420236  -0.010136
    18  H   -0.012306  -0.020312   0.000226   0.001964  -0.010136   0.449435
    19  H    0.081224  -0.049113   0.000396  -0.000596   0.001677  -0.005843
    20  H   -0.002936  -0.064067  -0.000124   0.000019  -0.000163   0.001254
    21  H   -0.027267   0.096918   0.000017  -0.000007   0.000010  -0.000124
    22  H    0.025824  -0.032995  -0.000125   0.000007  -0.000007   0.000012
    23  H   -0.033210  -0.034604   0.000563  -0.000131   0.000011  -0.000104
    24  H    0.004030  -0.060429  -0.000938   0.000629  -0.000136   0.000150
    25  H    0.004030  -0.060429  -0.000938   0.000629  -0.000136   0.000150
              19         20         21         22         23         24
     1  C   -0.044276   0.006968  -0.001244   0.000452   0.006492   0.037229
     2  C   -0.008181   0.002045  -0.000416   0.000327  -0.002356   0.015743
     3  C    0.051221  -0.005248   0.000388  -0.000302   0.000997  -0.001357
     4  C   -0.079160   0.005889   0.000452  -0.001366   0.004733  -0.011407
     5  C   -0.062836   0.455363  -0.066737   0.010591   0.029713  -0.013041
     6  C    0.051636  -0.084391   0.369222  -0.012920   0.000920  -0.001776
     7  C   -0.007456   0.002050  -0.009150   0.374845  -0.108449   0.013239
     8  C   -0.048277   0.053744  -0.031539  -0.017189   0.370263   0.028920
     9  C    0.074969  -0.025813  -0.006301   0.003834   0.094670   0.356068
    10  C    0.422201   0.013900   0.020383  -0.008155  -0.011006   0.005376
    11  C    0.076842  -0.012068  -0.006249   0.002551   0.006264   0.023039
    12  C   -0.083169  -0.009382   0.005340  -0.007867   0.005029  -0.059957
    13  C    0.081224  -0.002936  -0.027267   0.025824  -0.033210   0.004030
    14  C   -0.049113  -0.064067   0.096918  -0.032995  -0.034604  -0.060429
    15  H    0.000396  -0.000124   0.000017  -0.000125   0.000563  -0.000938
    16  H   -0.000596   0.000019  -0.000007   0.000007  -0.000131   0.000629
    17  H    0.001677  -0.000163   0.000010  -0.000007   0.000011  -0.000136
    18  H   -0.005843   0.001254  -0.000124   0.000012  -0.000104   0.000150
    19  H    0.443475  -0.006749   0.001176  -0.000490   0.000239   0.000589
    20  H   -0.006749   0.458347  -0.010410   0.001892   0.000074   0.000219
    21  H    0.001176  -0.010410   0.424462  -0.006081   0.001270  -0.000149
    22  H   -0.000490   0.001892  -0.006081   0.421977  -0.008962   0.000634
    23  H    0.000239   0.000074   0.001270  -0.008962   0.443760  -0.000885
    24  H    0.000589   0.000219  -0.000149   0.000634  -0.000885   0.493323
    25  H    0.000589   0.000219  -0.000149   0.000634  -0.000885  -0.079071
              25
     1  C    0.037229
     2  C    0.015743
     3  C   -0.001357
     4  C   -0.011407
     5  C   -0.013041
     6  C   -0.001776
     7  C    0.013239
     8  C    0.028920
     9  C    0.356068
    10  C    0.005376
    11  C    0.023039
    12  C   -0.059957
    13  C    0.004030
    14  C   -0.060429
    15  H   -0.000938
    16  H    0.000629
    17  H   -0.000136
    18  H    0.000150
    19  H    0.000589
    20  H    0.000219
    21  H   -0.000149
    22  H    0.000634
    23  H   -0.000885
    24  H   -0.079071
    25  H    0.493323
 Mulliken charges:
               1
     1  C    0.076112
     2  C   -0.402322
     3  C   -0.434547
     4  C    0.024558
     5  C   -0.003069
     6  C   -0.443601
     7  C   -0.411804
     8  C    0.110499
     9  C   -0.343525
    10  C    0.085053
    11  C   -0.650916
    12  C    0.713268
    13  C   -0.611106
    14  C    0.672094
    15  H    0.239417
    16  H    0.259644
    17  H    0.251549
    18  H    0.224841
    19  H    0.189912
    20  H    0.219367
    21  H    0.246186
    22  H    0.252876
    23  H    0.235593
    24  H    0.249959
    25  H    0.249959
 Sum of Mulliken charges =   1.00000
 Mulliken charges with hydrogens summed into heavy atoms:
               1
     1  C    0.315530
     2  C   -0.142678
     3  C   -0.182997
     4  C    0.249399
     5  C    0.216298
     6  C   -0.197414
     7  C   -0.158928
     8  C    0.346092
     9  C    0.156394
    10  C    0.274966
    11  C   -0.650916
    12  C    0.713268
    13  C   -0.611106
    14  C    0.672094
 Electronic spatial extent (au):  <R**2>=           2856.7187
 Charge=              1.0000 electrons
 Dipole moment (field-independent basis, Debye):
    X=             -0.2341    Y=             -0.8246    Z=              0.0000  Tot=              0.8572
 Quadrupole moment (field-independent basis, Debye-Ang):
   XX=            -51.0795   YY=            -36.2348   ZZ=            -84.1358
   XY=             10.2145   XZ=             -0.0000   YZ=              0.0000
 Traceless Quadrupole moment (field-independent basis, Debye-Ang):
   XX=              6.0705   YY=             20.9153   ZZ=            -26.9858
   XY=             10.2145   XZ=             -0.0000   YZ=              0.0000
 Octapole moment (field-independent basis, Debye-Ang**2):
  XXX=             -2.6302  YYY=             -2.0041  ZZZ=             -0.0000  XYY=             -2.4151
  XXY=             -7.5254  XXZ=              0.0000  XZZ=             -3.3071  YZZ=              0.3745
  YYZ=              0.0000  XYZ=             -0.0000
 Hexadecapole moment (field-independent basis, Debye-Ang**3):
 XXXX=           -986.7961 YYYY=          -1850.3948 ZZZZ=            -99.3245 XXXY=           -347.4546
 XXXZ=             -0.0000 YYYX=           -273.3367 YYYZ=              0.0000 ZZZX=             -0.0000
 ZZZY=              0.0000 XXYY=           -454.9599 XXZZ=           -241.0657 YYZZ=           -495.5216
 XXYZ=              0.0000 YYXZ=             -0.0000 ZZXY=           -182.6163
 N-N= 7.811276192149D+02 E-N=-2.798603265704D+03  KE= 5.375164027412D+02
 Symmetry A'   KE= 5.228651694791D+02
 Symmetry A"   KE= 1.465123326209D+01
 Unable to Open any file for archive entry.
 1\1\GINC-GADI-CPU-CLX-1762\SP\RM062X TD-FC\6-311++G(d,p)\C14H11(1+)\TS
 1578\02-Aug-2022\0\\#n M062X/6-311++G(d,p) TD(NStates=1) EmpiricalDisp
 ersion=GD3 SP\\SP_100\\1,1\C,0,2.473055,1.361031,0.\C,0,3.677308,0.661
 239,0.\C,0,3.677261,-0.73293,0.\C,0,2.486606,-1.421288,0.\C,0,-2.43980
 6,-1.393988,0.\C,0,-3.691061,-0.69573,0.\C,0,-3.726658,0.682389,0.\C,0
 ,-2.514155,1.359231,0.\C,0,-0.01315,1.455569,0.\C,0,0.0366,-1.429289,0
 .\C,0,1.267605,0.688565,0.\C,0,1.252271,-0.732454,0.\C,0,-1.256655,0.6
 65615,0.\C,0,-1.222271,-0.728854,0.\H,0,2.482871,2.443997,0.\H,0,4.612
 353,1.202689,0.\H,0,4.613762,-1.272299,0.\H,0,2.47835,-2.503409,0.\H,0
 ,0.03375,-2.510316,0.\H,0,-2.45645,-2.476859,0.\H,0,-4.605062,-1.27364
 9,0.\H,0,-4.662303,1.219939,0.\H,0,-2.495471,2.442647,0.\H,0,-0.048,2.
 146287,-0.860135\H,0,-0.048,2.146287,0.860135\\Version=ES64L-G16RevC.0
 1\State=1-A'\HF=-539.7563349\RMSD=8.963e-09\PG=CS [SG(C14H9),X(H2)]\\@
 The archive entry for this job was punched.


 I LOVE THOSE WHO LONG FOR THE IMPOSSIBLE.

                                 -- GOETHE
 Job cpu time:       0 days  0 hours 51 minutes 55.7 seconds.
 Elapsed time:       0 days  0 hours  1 minutes  5.0 seconds.
 File lengths (MBytes):  RWF=    460 Int=      0 D2E=      0 Chk=     15 Scr=      1
 Normal termination of Gaussian 16 at Tue Aug  2 13:01:12 2022.
