 Entering Gaussian System, Link 0=g16
 Initial command:
 /apps/gaussian/g16c01/g16/l1.exe "/jobfs/53796104.gadi-pbs/Gau-3630842.inp" -scrdir="/jobfs/53796104.gadi-pbs/"
 Entering Link 1 = /apps/gaussian/g16c01/g16/l1.exe PID=   3630843.
  
 Copyright (c) 1988-2019, Gaussian, Inc.  All Rights Reserved.
  
 This is part of the Gaussian(R) 16 program.  It is based on
 the Gaussian(R) 09 system (copyright 2009, Gaussian, Inc.),
 the Gaussian(R) 03 system (copyright 2003, Gaussian, Inc.),
 the Gaussian(R) 98 system (copyright 1998, Gaussian, Inc.),
 the Gaussian(R) 94 system (copyright 1995, Gaussian, Inc.),
 the Gaussian 92(TM) system (copyright 1992, Gaussian, Inc.),
 the Gaussian 90(TM) system (copyright 1990, Gaussian, Inc.),
 the Gaussian 88(TM) system (copyright 1988, Gaussian, Inc.),
 the Gaussian 86(TM) system (copyright 1986, Carnegie Mellon
 University), and the Gaussian 82(TM) system (copyright 1983,
 Carnegie Mellon University). Gaussian is a federally registered
 trademark of Gaussian, Inc.
  
 This software contains proprietary and confidential information,
 including trade secrets, belonging to Gaussian, Inc.
  
 This software is provided under written license and may be
 used, copied, transmitted, or stored only in accord with that
 written license.
  
 The following legend is applicable only to US Government
 contracts under FAR:
  
                    RESTRICTED RIGHTS LEGEND
  
 Use, reproduction and disclosure by the US Government is
 subject to restrictions as set forth in subparagraphs (a)
 and (c) of the Commercial Computer Software - Restricted
 Rights clause in FAR 52.227-19.
  
 Gaussian, Inc.
 340 Quinnipiac St., Bldg. 40, Wallingford CT 06492
  
  
 ---------------------------------------------------------------
 Warning -- This program may not be used in any manner that
 competes with the business of Gaussian, Inc. or will provide
 assistance to any competitor of Gaussian, Inc.  The licensee
 of this program is prohibited from giving any competitor of
 Gaussian, Inc. access to this program.  By using this program,
 the user acknowledges that Gaussian, Inc. is engaged in the
 business of creating and licensing software in the field of
 computational chemistry and represents and warrants to the
 licensee that it is not a competitor of Gaussian, Inc. and that
 it will not use this program in any manner prohibited above.
 ---------------------------------------------------------------
  

 Cite this work as:
 Gaussian 16, Revision C.01,
 M. J. Frisch, G. W. Trucks, H. B. Schlegel, G. E. Scuseria, 
 M. A. Robb, J. R. Cheeseman, G. Scalmani, V. Barone, 
 G. A. Petersson, H. Nakatsuji, X. Li, M. Caricato, A. V. Marenich, 
 J. Bloino, B. G. Janesko, R. Gomperts, B. Mennucci, H. P. Hratchian, 
 J. V. Ortiz, A. F. Izmaylov, J. L. Sonnenberg, D. Williams-Young, 
 F. Ding, F. Lipparini, F. Egidi, J. Goings, B. Peng, A. Petrone, 
 T. Henderson, D. Ranasinghe, V. G. Zakrzewski, J. Gao, N. Rega, 
 G. Zheng, W. Liang, M. Hada, M. Ehara, K. Toyota, R. Fukuda, 
 J. Hasegawa, M. Ishida, T. Nakajima, Y. Honda, O. Kitao, H. Nakai, 
 T. Vreven, K. Throssell, J. A. Montgomery, Jr., J. E. Peralta, 
 F. Ogliaro, M. J. Bearpark, J. J. Heyd, E. N. Brothers, K. N. Kudin, 
 V. N. Staroverov, T. A. Keith, R. Kobayashi, J. Normand, 
 K. Raghavachari, A. P. Rendell, J. C. Burant, S. S. Iyengar, 
 J. Tomasi, M. Cossi, J. M. Millam, M. Klene, C. Adamo, R. Cammi, 
 J. W. Ochterski, R. L. Martin, K. Morokuma, O. Farkas, 
 J. B. Foresman, and D. J. Fox, Gaussian, Inc., Wallingford CT, 2019.
 
 ******************************************
 Gaussian 16:  ES64L-G16RevC.01  3-Jul-2019
                 2-Aug-2022 
 ******************************************
 %NProcShared=48
 Will use up to   48 processors via shared memory.
 %mem = 190GB
 ---------------------------------------------------------------
 #n M062X/6-311++G(d,p) TD(NStates=1) EmpiricalDispersion=GD3 SP
 ---------------------------------------------------------------
 1/38=1,172=1/1;
 2/12=2,17=6,18=5,40=1/2;
 3/5=4,6=6,7=1111,11=9,25=1,30=1,74=-55,124=31/1,2,3,8;
 4//1;
 5/5=2,38=5/2;
 8/6=1,10=2,108=1/1;
 9/41=1,42=1,70=2/14;
 6/7=2,8=2,9=2,10=2/1;
 99/5=1,9=1/99;
 ----
 SP_0
 ----
 Symbolic Z-matrix:
 Charge =  1 Multiplicity = 1
 C                     2.47706   1.36163   0. 
 C                     3.68411   0.66529   0. 
 C                     3.67866  -0.72523   0. 
 C                     2.47866  -1.41644   0. 
 C                    -2.44746  -1.39824   0. 
 C                    -3.68786  -0.70043   0. 
 C                    -3.71701   0.67939   0. 
 C                    -2.50446   1.36043   0. 
 C                    -0.0087    1.44897   0. 
 C                     0.0244   -1.42899   0. 
 C                     1.26555   0.68467   0. 
 C                     1.24787  -0.7323    0. 
 C                    -1.25826   0.66937   0. 
 C                    -1.22787  -0.7299    0. 
 H                     2.48167   2.44475   0. 
 H                     4.61895   1.20669   0. 
 H                     4.61186  -1.27065   0. 
 H                     2.47515  -2.49876   0. 
 H                     0.0225   -2.51017   0. 
 H                    -2.46055  -2.48106   0. 
 H                    -4.60606  -1.27155   0. 
 H                    -4.65225   1.21819   0. 
 H                    -2.49007   2.44385   0. 
 H                    -0.032     2.14479  -0.85849 
 H                    -0.032     2.14479   0.85849 
 
                          Input orientation:                          
 ---------------------------------------------------------------------
 Center     Atomic      Atomic             Coordinates (Angstroms)
 Number     Number       Type             X           Y           Z
 ---------------------------------------------------------------------
      1          6           0        2.477055    1.361631    0.000000
      2          6           0        3.684108    0.665289    0.000000
      3          6           0        3.678661   -0.725230    0.000000
      4          6           0        2.478656   -1.416438    0.000000
      5          6           0       -2.447456   -1.398238    0.000000
      6          6           0       -3.687861   -0.700430    0.000000
      7          6           0       -3.717008    0.679389    0.000000
      8          6           0       -2.504455    1.360431    0.000000
      9          6           0       -0.008700    1.448969    0.000000
     10          6           0        0.024400   -1.428989    0.000000
     11          6           0        1.265555    0.684665    0.000000
     12          6           0        1.247871   -0.732304    0.000000
     13          6           0       -1.258255    0.669365    0.000000
     14          6           0       -1.227871   -0.729904    0.000000
     15          1           0        2.481671    2.444747    0.000000
     16          1           0        4.618953    1.206689    0.000000
     17          1           0        4.611862   -1.270649    0.000000
     18          1           0        2.475150   -2.498759    0.000000
     19          1           0        0.022500   -2.510166    0.000000
     20          1           0       -2.460550   -2.481059    0.000000
     21          1           0       -4.606062   -1.271549    0.000000
     22          1           0       -4.652253    1.218189    0.000000
     23          1           0       -2.490071    2.443847    0.000000
     24          1           0       -0.032000    2.144787   -0.858485
     25          1           0       -0.032000    2.144787    0.858485
 ---------------------------------------------------------------------
                    Distance matrix (angstroms):
                    1          2          3          4          5
     1  C    0.000000
     2  C    1.393510   0.000000
     3  C    2.408079   1.390530   0.000000
     4  C    2.778069   2.405556   1.384840   0.000000
     5  C    5.645147   6.469484   6.162974   4.926146   0.000000
     6  C    6.500637   7.497407   7.366564   6.207946   1.423215
     7  C    6.231522   7.401129   7.527873   6.540546   2.434809
     8  C    4.981510   6.227482   6.525405   5.704594   2.759258
     9  C    2.487289   3.775048   4.280628   3.794403   3.748882
    10  C    3.715249   4.216570   3.721411   2.454288   2.472047
    11  C    1.387810   2.418631   2.794796   2.426159   4.257339
    12  C    2.428056   2.808650   2.430800   1.408145   3.754851
    13  C    3.798917   4.942365   5.130111   4.279612   2.385200
    14  C    4.254526   5.106281   4.906534   3.769572   1.390704
    15  H    1.083126   2.147633   3.388442   3.861186   6.250186
    16  H    2.147495   1.080300   2.148595   3.385508   7.531254
    17  H    3.389144   2.146761   1.080901   2.138182   7.060471
    18  H    3.860390   3.387149   2.143325   1.082327   5.044125
    19  H    4.584283   4.846740   4.068600   2.688669   2.708702
    20  H    6.256693   6.903356   6.385362   5.052640   1.082900
    21  H    7.556731   8.513416   8.302716   7.086199   2.162321
    22  H    7.130751   8.354676   8.554590   7.602047   3.421523
    23  H    5.083653   6.425244   6.935150   6.292062   3.842321
    24  H    2.765084   4.090889   4.768962   4.441026   4.373151
    25  H    2.765084   4.090889   4.768962   4.441026   4.373151
                    6          7          8          9         10
     6  C    0.000000
     7  C    1.380127   0.000000
     8  C    2.376468   1.390720   0.000000
     9  C    4.261002   3.787321   2.497325   0.000000
    10  C    3.783078   4.294577   3.765099   2.878148   0.000000
    11  C    5.143425   4.982566   3.830096   1.485896   2.451122
    12  C    4.935835   5.161676   4.296451   2.517324   1.407924
    13  C    2.789144   2.458773   1.424987   1.472810   2.459328
    14  C    2.460167   2.860404   2.449320   2.496771   1.434191
    15  H    6.924974   6.445162   5.102665   2.682074   4.587375
    16  H    8.522926   8.352622   7.125067   4.633991   5.296859
    17  H    8.319288   8.554106   7.587131   5.361522   4.590194
    18  H    6.420023   6.960133   6.299985   4.664126   2.674057
    19  H    4.128186   4.914996   4.622448   3.959258   1.081179
    20  H    2.162622   3.401047   3.841741   4.632136   2.698486
    21  H    1.081328   2.143963   3.368096   5.341999   4.633138
    22  H    2.147359   1.079346   2.152503   4.649284   5.373885
    23  H    3.364696   2.149113   1.083511   2.673384   4.617513
    24  H    4.711430   4.057545   2.732260   1.105306   3.675874
    25  H    4.711430   4.057545   2.732260   1.105306   3.675874
                   11         12         13         14         15
    11  C    0.000000
    12  C    1.417079   0.000000
    13  C    2.523856   2.871471   0.000000
    14  C    2.866737   2.475743   1.399599   0.000000
    15  H    2.139352   3.408213   4.139931   4.882531   0.000000
    16  H    3.393787   3.888944   5.901719   6.159200   2.469972
    17  H    3.875697   3.406795   6.182389   5.864715   4.282742
    18  H    3.405482   2.150948   4.896460   4.103805   4.943510
    19  H    3.428138   2.159242   3.427791   2.175491   5.531608
    20  H    4.889342   4.100065   3.372045   2.141504   6.977758
    21  H    6.188914   5.878717   3.869749   3.421338   8.002925
    22  H    5.941809   6.214168   3.438085   3.939728   7.238599
    23  H    4.147222   4.905114   2.160129   3.415530   4.971742
    24  H    2.133683   3.263850   2.101801   3.229698   2.673109
    25  H    2.133683   3.263850   2.101801   3.229698   2.673109
                   16         17         18         19         20
    16  H    0.000000
    17  H    2.477348   0.000000
    18  H    4.280915   2.464507   0.000000
    19  H    5.911209   4.753803   2.452677   0.000000
    20  H    7.982409   7.175242   4.935732   2.483221   0.000000
    21  H    9.552097   9.217924   7.186766   4.791425   2.462953
    22  H    9.271213   9.592609   8.038381   5.979460   4.299767
    23  H    7.215870   8.014670   7.005910   5.554751   4.924994
    24  H    4.821658   5.828178   5.346524   4.733767   5.294649
    25  H    4.821658   5.828178   5.346524   4.733767   5.294649
                   21         22         23         24         25
    21  H    0.000000
    22  H    2.490166   0.000000
    23  H    4.275697   2.485411   0.000000
    24  H    5.773248   4.789814   2.620791   0.000000
    25  H    5.773248   4.789814   2.620791   1.716970   0.000000
 Stoichiometry    C14H11(1+)
 Framework group  CS[SG(C14H9),X(H2)]
 Deg. of freedom    46
 Full point group                 CS      NOp   2
 Largest Abelian subgroup         CS      NOp   2
 Largest concise Abelian subgroup CS      NOp   2
                         Standard orientation:                         
 ---------------------------------------------------------------------
 Center     Atomic      Atomic             Coordinates (Angstroms)
 Number     Number       Type             X           Y           Z
 ---------------------------------------------------------------------
      1          6           0       -2.365836   -1.547406    0.000000
      2          6           0       -2.318138   -2.940099    0.000000
      3          6           0       -1.088039   -3.588504    0.000000
      4          6           0        0.085872   -2.853851    0.000000
      5          6           0        2.383907    1.503435    0.000000
      6          6           0        2.350583    2.926260    0.000000
      7          6           0        1.146180    3.600178    0.000000
      8          6           0       -0.024650    2.849672    0.000000
      9          6           0       -1.275223    0.688029    0.000000
     10          6           0        1.249869   -0.693147    0.000000
     11          6           0       -1.199098   -0.795915    0.000000
     12          6           0        0.060100   -1.445943    0.000000
     13          6           0        0.000000    1.424899    0.000000
     14          6           0        1.220991    0.740752    0.000000
     15          1           0       -3.324171   -1.042673    0.000000
     16          1           0       -3.235237   -3.511044    0.000000
     17          1           0       -1.044929   -4.668544    0.000000
     18          1           0        1.042984   -3.359190    0.000000
     19          1           0        2.205217   -1.199366    0.000000
     20          1           0        3.345965    1.006326    0.000000
     21          1           0        3.286099    3.468551    0.000000
     22          1           0        1.109875    4.678913    0.000000
     23          1           0       -0.987839    3.345922    0.000000
     24          1           0       -1.878541    1.035468    0.858485
     25          1           0       -1.878541    1.035468   -0.858485
 ---------------------------------------------------------------------
 Rotational constants (GHZ):           2.1377725           0.4448215           0.3690050
 Standard basis: 6-311++G(d,p) (5D, 7F)
 There are   299 symmetry adapted cartesian basis functions of A'  symmetry.
 There are   100 symmetry adapted cartesian basis functions of A"  symmetry.
 There are   285 symmetry adapted basis functions of A'  symmetry.
 There are   100 symmetry adapted basis functions of A"  symmetry.
   385 basis functions,   603 primitive gaussians,   399 cartesian basis functions
    47 alpha electrons       47 beta electrons
       nuclear repulsion energy       781.4100765796 Hartrees.
 NAtoms=   25 NActive=   25 NUniq=   24 SFac= 1.09D+00 NAtFMM=   60 NAOKFM=F Big=F
 Integral buffers will be    131072 words long.
 Regular integral format.
 Two-electron integral symmetry is turned on.
 Nuclear repulsion after empirical dispersion term =      781.4090972618 Hartrees.
 One-electron integrals computed using PRISM.
 NBasis=   385 RedAO= T EigKep=  1.11D-06  NBF=   285   100
 NBsUse=   379 1.00D-06 EigRej=  8.35D-07 NBFU=   279   100
 ExpMin= 3.60D-02 ExpMax= 4.56D+03 ExpMxC= 6.82D+02 IAcc=3 IRadAn=         5 AccDes= 0.00D+00
 Harris functional with IExCor= 1009 and IRadAn=       5 diagonalized for initial guess.
 HarFok:  IExCor= 1009 AccDes= 0.00D+00 IRadAn=         5 IDoV= 1 UseB2=F ITyADJ=14
 ICtDFT=  3500011 ScaDFX=  1.000000  1.000000  1.000000  1.000000
 FoFCou: FMM=F IPFlag=           0 FMFlag=      100000 FMFlg1=           0
         NFxFlg=           0 DoJE=T BraDBF=F KetDBF=T FulRan=T
         wScrn=  0.000000 ICntrl=       500 IOpCl=  0 I1Cent=   200000004 NGrid=           0
         NMat0=    1 NMatS0=      1 NMatT0=    0 NMatD0=    1 NMtDS0=    0 NMtDT0=    0
 Petite list used in FoFCou.
 Initial guess orbital symmetries:
       Occupied  (A') (A') (A') (A') (A') (A') (A') (A') (A') (A')
                 (A') (A') (A') (A') (A') (A') (A') (A') (A') (A')
                 (A') (A') (A') (A') (A') (A') (A') (A') (A') (A')
                 (A') (A') (A") (A') (A') (A') (A') (A') (A") (A')
                 (A") (A') (A') (A") (A") (A") (A")
       Virtual   (A") (A") (A") (A") (A") (A') (A') (A') (A') (A")
                 (A") (A') (A') (A') (A") (A') (A') (A') (A') (A")
                 (A') (A") (A') (A') (A') (A") (A') (A") (A') (A')
                 (A') (A') (A') (A") (A') (A') (A") (A') (A') (A')
                 (A") (A') (A') (A") (A') (A') (A') (A') (A') (A")
                 (A') (A') (A") (A") (A') (A') (A') (A") (A") (A')
                 (A') (A') (A') (A') (A') (A") (A') (A') (A') (A")
                 (A') (A') (A') (A') (A') (A') (A') (A') (A') (A')
                 (A') (A') (A') (A') (A') (A') (A') (A') (A') (A')
                 (A') (A') (A') (A') (A') (A') (A') (A") (A') (A")
                 (A') (A') (A") (A") (A') (A") (A') (A") (A") (A')
                 (A") (A') (A') (A') (A") (A') (A') (A") (A") (A')
                 (A") (A") (A') (A') (A') (A") (A') (A') (A') (A")
                 (A') (A') (A') (A') (A') (A') (A") (A') (A') (A')
                 (A') (A') (A') (A') (A') (A') (A') (A') (A') (A")
                 (A") (A') (A") (A") (A') (A') (A') (A") (A") (A')
                 (A") (A') (A") (A") (A") (A') (A') (A') (A') (A')
                 (A') (A") (A') (A") (A') (A') (A') (A') (A') (A")
                 (A') (A') (A') (A') (A") (A') (A") (A') (A") (A")
                 (A') (A") (A') (A") (A') (A') (A') (A") (A') (A')
                 (A") (A") (A") (A') (A') (A") (A') (A") (A') (A')
                 (A") (A") (A') (A") (A') (A") (A') (A') (A') (A")
                 (A') (A') (A') (A') (A") (A') (A') (A') (A") (A")
                 (A') (A') (A') (A") (A') (A') (A") (A') (A") (A')
                 (A") (A') (A') (A') (A') (A") (A') (A') (A') (A")
                 (A') (A') (A") (A') (A") (A') (A') (A") (A') (A')
                 (A') (A") (A') (A") (A') (A') (A') (A") (A') (A")
                 (A') (A') (A') (A') (A") (A') (A") (A') (A") (A')
                 (A") (A') (A") (A") (A") (A') (A') (A') (A') (A')
                 (A') (A') (A') (A') (A') (A') (A') (A') (A') (A')
                 (A') (A') (A') (A') (A") (A') (A') (A') (A') (A')
                 (A') (A') (A') (A') (A') (A') (A') (A') (A') (A')
                 (A') (A') (A') (A') (A') (A') (A') (A') (A') (A')
                 (A') (A')
 The electronic state of the initial guess is 1-A'.
 Requested convergence on RMS density matrix=1.00D-08 within 128 cycles.
 Requested convergence on MAX density matrix=1.00D-06.
 Requested convergence on             energy=1.00D-06.
 No special actions if energy rises.
 SCF Done:  E(RM062X) =  -539.758402928     A.U. after   15 cycles
            NFock= 15  Conv=0.75D-08     -V/T= 2.0042
 DoSCS=F DFT=T ScalE2(SS,OS)=  1.000000  1.000000
 ExpMin= 3.60D-02 ExpMax= 4.56D+03 ExpMxC= 6.82D+02 IAcc=3 IRadAn=         5 AccDes= 0.00D+00
 HarFok:  IExCor=  205 AccDes= 0.00D+00 IRadAn=         5 IDoV=-2 UseB2=F ITyADJ=14
 ICtDFT= 12500011 ScaDFX=  1.000000  1.000000  1.000000  1.000000
 Range of M.O.s used for correlation:    15   379
 NBasis=   385 NAE=    47 NBE=    47 NFC=    14 NFV=     0
 NROrb=    365 NOA=    33 NOB=    33 NVA=   332 NVB=   332

 **** Warning!!: The largest alpha MO coefficient is  0.13789475D+03

 Orbital symmetries:
       Occupied  (A') (A') (A') (A') (A') (A') (A') (A') (A') (A')
                 (A') (A') (A') (A') (A') (A') (A') (A') (A') (A')
                 (A') (A') (A') (A') (A') (A') (A') (A') (A') (A')
                 (A') (A') (A") (A') (A') (A') (A') (A") (A") (A')
                 (A') (A') (A') (A") (A") (A") (A")
       Virtual   (A") (A") (A") (A") (A') (A') (A') (A') (A") (A')
                 (A') (A") (A') (A') (A") (A') (A") (A') (A') (A')
                 (A") (A") (A') (A') (A') (A") (A') (A") (A') (A')
                 (A") (A') (A") (A') (A') (A') (A') (A') (A") (A')
                 (A") (A') (A') (A") (A") (A') (A") (A') (A") (A')
                 (A') (A') (A') (A') (A') (A") (A') (A') (A') (A')
                 (A') (A") (A') (A') (A') (A") (A') (A') (A') (A')
                 (A') (A') (A') (A') (A') (A') (A') (A') (A') (A')
                 (A') (A') (A') (A') (A') (A') (A') (A') (A') (A')
                 (A') (A') (A') (A') (A") (A') (A") (A") (A') (A")
                 (A') (A') (A') (A') (A") (A") (A') (A") (A") (A')
                 (A') (A') (A") (A') (A') (A") (A') (A") (A') (A")
                 (A") (A') (A") (A') (A') (A') (A") (A') (A') (A')
                 (A') (A') (A') (A') (A') (A') (A') (A') (A') (A')
                 (A') (A') (A') (A") (A') (A') (A') (A') (A') (A')
                 (A') (A') (A") (A') (A") (A') (A") (A") (A') (A")
                 (A") (A') (A') (A") (A") (A") (A') (A") (A') (A')
                 (A') (A') (A') (A") (A") (A') (A') (A') (A') (A")
                 (A') (A') (A') (A") (A") (A') (A') (A') (A") (A")
                 (A") (A') (A') (A") (A') (A") (A') (A') (A') (A')
                 (A") (A") (A") (A') (A") (A') (A') (A") (A') (A')
                 (A') (A") (A') (A") (A") (A') (A") (A') (A') (A")
                 (A') (A') (A') (A') (A") (A') (A') (A') (A") (A")
                 (A') (A') (A') (A") (A') (A') (A') (A") (A") (A')
                 (A") (A') (A') (A") (A') (A') (A') (A') (A') (A')
                 (A") (A') (A') (A') (A') (A") (A") (A") (A') (A')
                 (A') (A') (A') (A') (A') (A') (A") (A') (A') (A')
                 (A') (A") (A') (A") (A") (A") (A') (A") (A') (A")
                 (A') (A") (A") (A') (A") (A") (A') (A') (A') (A')
                 (A') (A') (A') (A') (A') (A') (A') (A') (A') (A')
                 (A') (A') (A') (A") (A') (A') (A') (A') (A') (A')
                 (A') (A') (A') (A') (A') (A') (A') (A') (A') (A')
                 (A') (A') (A') (A') (A') (A') (A') (A') (A') (A')
                 (A') (A')
     4 initial guesses have been made.
 Convergence on wavefunction:    0.001000000000000
 Iteration     1 Dimension     4 NMult     0 NNew      4
 CISAX will form     4 AO SS matrices at one time.
 Iteration     2 Dimension     6 NMult     4 NNew      2
 Iteration     3 Dimension     8 NMult     6 NNew      2
 Iteration     4 Dimension    10 NMult     8 NNew      2
 Iteration     5 Dimension    12 NMult    10 NNew      2
 Iteration     6 Dimension    14 NMult    12 NNew      2
 ***********************************************************************
 Excited states from <AA,BB:AA,BB> singles matrix:
 ***********************************************************************
 
 Ground to excited state transition densities written to RWF  633
 Ground to excited state transition electric dipole moments (Au):
       state          X           Y           Z        Dip. S.      Osc.
         1        -0.5233      0.3078      0.0000      0.3685      0.0250
 Ground to excited state transition velocity dipole moments (Au):
       state          X           Y           Z        Dip. S.      Osc.
         1         0.0610     -0.0326      0.0000      0.0048      0.0313
 Ground to excited state transition magnetic dipole moments (Au):
       state          X           Y           Z
         1         0.0000      0.0000     -0.1364
 Ground to excited state transition velocity quadrupole moments (Au):
       state          XX          YY          ZZ          XY          XZ          YZ
         1         0.1347      0.1692     -0.0092      0.1345     -0.0000     -0.0000
 <0|del|b> * <b|rxdel|0> + <0|del|b> * <b|delr+rdel|0>
 Rotatory Strengths (R) in cgs (10**-40 erg-esu-cm/Gauss)
       state          XX          YY          ZZ    R(velocity)    E-M Angle
         1        -0.0000     -0.0000      0.0000      0.0000       90.00
 1/2[<0|r|b>*<b|rxdel|0> + (<0|rxdel|b>*<b|r|0>)*]
 Rotatory Strengths (R) in cgs (10**-40 erg-esu-cm/Gauss)
       state          XX          YY          ZZ     R(length)
         1         0.0000     -0.0000      0.0000      0.0000
  1/2[<0|del|b>*<b|r|0> + (<0|r|b>*<b|del|0>)*] (Au)
       state          X           Y           Z        Dip. S.   Osc.(frdel)
         1        -0.0319     -0.0100      0.0000      0.0419      0.0280

 Excitation energies and oscillator strengths:
 
 Excited State   1:      Singlet-A'     2.7710 eV  447.44 nm  f=0.0250  <S**2>=0.000
      47 -> 48         0.70381
 This state for optimization and/or second-order correction.
 Total Energy, E(TD-HF/TD-DFT) =  -539.656571144    
 Copying the excited state density for this state as the 1-particle RhoCI density.
 SavETr:  write IOETrn=   770 NScale= 10 NData=  16 NLR=1 NState=    1 LETran=      28.

 **********************************************************************

            Population analysis using the SCF Density.

 **********************************************************************

 Orbital symmetries:
       Occupied  (A') (A') (A') (A') (A') (A') (A') (A') (A') (A')
                 (A') (A') (A') (A') (A') (A') (A') (A') (A') (A')
                 (A') (A') (A') (A') (A') (A') (A') (A') (A') (A')
                 (A') (A') (A") (A') (A') (A') (A') (A") (A") (A')
                 (A') (A') (A') (A") (A") (A") (A")
       Virtual   (A") (A") (A") (A") (A') (A') (A') (A') (A") (A')
                 (A') (A") (A') (A') (A") (A') (A") (A') (A') (A')
                 (A") (A") (A') (A') (A') (A") (A') (A") (A') (A')
                 (A") (A') (A") (A') (A') (A') (A') (A') (A") (A')
                 (A") (A') (A') (A") (A") (A') (A") (A') (A") (A')
                 (A') (A') (A') (A') (A') (A") (A') (A') (A') (A')
                 (A') (A") (A') (A') (A') (A") (A') (A') (A') (A')
                 (A') (A') (A') (A') (A') (A') (A') (A') (A') (A')
                 (A') (A') (A') (A') (A') (A') (A') (A') (A') (A')
                 (A') (A') (A') (A') (A") (A') (A") (A") (A') (A")
                 (A') (A') (A') (A') (A") (A") (A') (A") (A") (A')
                 (A') (A') (A") (A') (A') (A") (A') (A") (A') (A")
                 (A") (A') (A") (A') (A') (A') (A") (A') (A') (A')
                 (A') (A') (A') (A') (A') (A') (A') (A') (A') (A')
                 (A') (A') (A') (A") (A') (A') (A') (A') (A') (A')
                 (A') (A') (A") (A') (A") (A') (A") (A") (A') (A")
                 (A") (A') (A') (A") (A") (A") (A') (A") (A') (A')
                 (A') (A') (A') (A") (A") (A') (A') (A') (A') (A")
                 (A') (A') (A') (A") (A") (A') (A') (A') (A") (A")
                 (A") (A') (A') (A") (A') (A") (A') (A') (A') (A')
                 (A") (A") (A") (A') (A") (A') (A') (A") (A') (A')
                 (A') (A") (A') (A") (A") (A') (A") (A') (A') (A")
                 (A') (A') (A') (A') (A") (A') (A') (A') (A") (A")
                 (A') (A') (A') (A") (A') (A') (A') (A") (A") (A')
                 (A") (A') (A') (A") (A') (A') (A') (A') (A') (A')
                 (A") (A') (A') (A') (A') (A") (A") (A") (A') (A')
                 (A') (A') (A') (A') (A') (A') (A") (A') (A') (A')
                 (A') (A") (A') (A") (A") (A") (A') (A") (A') (A")
                 (A') (A") (A") (A') (A") (A") (A') (A') (A') (A')
                 (A') (A') (A') (A') (A') (A') (A') (A') (A') (A')
                 (A') (A') (A') (A") (A') (A') (A') (A') (A') (A')
                 (A') (A') (A') (A') (A') (A') (A') (A') (A') (A')
                 (A') (A') (A') (A') (A') (A') (A') (A') (A') (A')
                 (A') (A')
 The electronic state is 1-A'.
 Alpha  occ. eigenvalues --  -10.77633 -10.73498 -10.72923 -10.72649 -10.72182
 Alpha  occ. eigenvalues --  -10.71633 -10.71534 -10.71084 -10.70966 -10.70505
 Alpha  occ. eigenvalues --  -10.70102 -10.69842 -10.69786 -10.69458  -1.16496
 Alpha  occ. eigenvalues --   -1.12485  -1.06942  -1.05807  -1.01306  -1.00282
 Alpha  occ. eigenvalues --   -0.95717  -0.91060  -0.86428  -0.85909  -0.83814
 Alpha  occ. eigenvalues --   -0.78386  -0.76084  -0.74406  -0.69619  -0.69274
 Alpha  occ. eigenvalues --   -0.68454  -0.68165  -0.68091  -0.64924  -0.64270
 Alpha  occ. eigenvalues --   -0.62989  -0.61797  -0.60169  -0.59503  -0.59108
 Alpha  occ. eigenvalues --   -0.56924  -0.55236  -0.54763  -0.52435  -0.46850
 Alpha  occ. eigenvalues --   -0.46086  -0.44258
 Alpha virt. eigenvalues --   -0.26082  -0.14671  -0.14091  -0.12768  -0.11183
 Alpha virt. eigenvalues --   -0.10092  -0.09238  -0.07976  -0.07953  -0.07479
 Alpha virt. eigenvalues --   -0.07209  -0.07145  -0.05642  -0.05581  -0.05340
 Alpha virt. eigenvalues --   -0.03834  -0.03653  -0.03278  -0.03131  -0.02161
 Alpha virt. eigenvalues --   -0.01364  -0.00938   0.00186   0.00593   0.00672
 Alpha virt. eigenvalues --    0.01061   0.01509   0.01934   0.02194   0.02290
 Alpha virt. eigenvalues --    0.02450   0.02673   0.02763   0.03255   0.03398
 Alpha virt. eigenvalues --    0.04233   0.04506   0.04700   0.05031   0.05372
 Alpha virt. eigenvalues --    0.06028   0.06298   0.06593   0.07056   0.07255
 Alpha virt. eigenvalues --    0.07898   0.08141   0.08365   0.08580   0.08923
 Alpha virt. eigenvalues --    0.09525   0.09578   0.10027   0.10870   0.11036
 Alpha virt. eigenvalues --    0.11115   0.12160   0.12253   0.12841   0.13019
 Alpha virt. eigenvalues --    0.13434   0.13523   0.14015   0.14360   0.16094
 Alpha virt. eigenvalues --    0.16323   0.16428   0.17342   0.17584   0.17794
 Alpha virt. eigenvalues --    0.18130   0.19048   0.19291   0.19641   0.19802
 Alpha virt. eigenvalues --    0.21545   0.21635   0.22719   0.23128   0.23570
 Alpha virt. eigenvalues --    0.23812   0.24542   0.25298   0.26929   0.27617
 Alpha virt. eigenvalues --    0.28866   0.29294   0.29903   0.31371   0.35838
 Alpha virt. eigenvalues --    0.36463   0.38189   0.39282   0.41135   0.41369
 Alpha virt. eigenvalues --    0.41992   0.42156   0.42982   0.43715   0.44326
 Alpha virt. eigenvalues --    0.44864   0.45092   0.46002   0.46282   0.47901
 Alpha virt. eigenvalues --    0.48494   0.48864   0.49019   0.50462   0.51212
 Alpha virt. eigenvalues --    0.51455   0.51899   0.52122   0.52885   0.54031
 Alpha virt. eigenvalues --    0.54097   0.54660   0.55666   0.55821   0.57420
 Alpha virt. eigenvalues --    0.58237   0.58861   0.61470   0.62187   0.62377
 Alpha virt. eigenvalues --    0.63208   0.63490   0.65007   0.65164   0.67389
 Alpha virt. eigenvalues --    0.70376   0.70528   0.71104   0.72456   0.72893
 Alpha virt. eigenvalues --    0.75693   0.76047   0.76349   0.76846   0.77115
 Alpha virt. eigenvalues --    0.77861   0.77945   0.78275   0.79878   0.80403
 Alpha virt. eigenvalues --    0.81267   0.81587   0.82230   0.83015   0.85227
 Alpha virt. eigenvalues --    0.87144   0.88211   0.88479   0.89174   0.90502
 Alpha virt. eigenvalues --    0.91121   0.91302   0.93226   0.94635   0.96385
 Alpha virt. eigenvalues --    0.96754   1.00328   1.01298   1.01629   1.02758
 Alpha virt. eigenvalues --    1.03224   1.03496   1.04782   1.05800   1.08823
 Alpha virt. eigenvalues --    1.19580   1.23158   1.24121   1.24962   1.28415
 Alpha virt. eigenvalues --    1.29526   1.31964   1.34252   1.35785   1.35998
 Alpha virt. eigenvalues --    1.39375   1.40013   1.40940   1.42952   1.43507
 Alpha virt. eigenvalues --    1.43543   1.44563   1.46161   1.46382   1.46661
 Alpha virt. eigenvalues --    1.47660   1.48094   1.51794   1.53647   1.55796
 Alpha virt. eigenvalues --    1.55931   1.56338   1.56569   1.57819   1.61493
 Alpha virt. eigenvalues --    1.63174   1.63348   1.63950   1.66130   1.68337
 Alpha virt. eigenvalues --    1.68372   1.68677   1.69748   1.74438   1.76019
 Alpha virt. eigenvalues --    1.77213   1.78059   1.80058   1.80124   1.80789
 Alpha virt. eigenvalues --    1.83063   1.83199   1.83654   1.83843   1.84149
 Alpha virt. eigenvalues --    1.84381   1.85670   1.86250   1.88281   1.91413
 Alpha virt. eigenvalues --    1.92125   1.94127   1.95272   1.97734   1.98178
 Alpha virt. eigenvalues --    1.99792   2.02582   2.04497   2.07279   2.11802
 Alpha virt. eigenvalues --    2.12127   2.14163   2.15232   2.19151   2.21319
 Alpha virt. eigenvalues --    2.22782   2.28516   2.30346   2.34653   2.34930
 Alpha virt. eigenvalues --    2.36268   2.38657   2.39628   2.42386   2.44430
 Alpha virt. eigenvalues --    2.46174   2.46710   2.49341   2.52953   2.53817
 Alpha virt. eigenvalues --    2.54365   2.56726   2.57874   2.58337   2.59571
 Alpha virt. eigenvalues --    2.59878   2.61604   2.62160   2.63570   2.63813
 Alpha virt. eigenvalues --    2.64806   2.65128   2.65143   2.65467   2.68059
 Alpha virt. eigenvalues --    2.68572   2.70966   2.71437   2.73362   2.74828
 Alpha virt. eigenvalues --    2.76296   2.78821   2.79726   2.83064   2.83125
 Alpha virt. eigenvalues --    2.84905   2.86343   2.92140   2.97012   2.99499
 Alpha virt. eigenvalues --    3.00117   3.05302   3.10606   3.11466   3.13583
 Alpha virt. eigenvalues --    3.21020   3.23502   3.26738   3.28541   3.30644
 Alpha virt. eigenvalues --    3.32817   3.34058   3.43565   3.46019   3.46813
 Alpha virt. eigenvalues --    3.48584   3.50216   3.56573   3.65355   3.67039
 Alpha virt. eigenvalues --    3.67615   3.94072   3.94298   3.95313   3.96326
 Alpha virt. eigenvalues --    4.04004   4.06802   4.07640   4.12536   4.35622
 Alpha virt. eigenvalues --    4.61558   4.69705   4.71538  23.45300  23.60466
 Alpha virt. eigenvalues --   23.81648  23.84597  23.87026  23.89250  23.91003
 Alpha virt. eigenvalues --   23.93939  23.96646  23.98174  24.01385  24.02934
 Alpha virt. eigenvalues --   24.10787  24.11428
          Condensed to atoms (all electrons):
               1          2          3          4          5          6
     1  C    8.422171   0.498566  -0.621359   1.767398   0.003619  -0.088699
     2  C    0.498566   7.111259   0.407936  -0.987857  -0.037160  -0.015380
     3  C   -0.621359   0.407936   6.595638   0.723549  -0.115015   0.016906
     4  C    1.767398  -0.987857   0.723549  11.132088  -0.329874  -0.129355
     5  C    0.003619  -0.037160  -0.115015  -0.329874  10.696473   0.782615
     6  C   -0.088699  -0.015380   0.016906  -0.129355   0.782615   6.583808
     7  C   -0.031274   0.002522  -0.014149  -0.008819  -1.102294   0.313164
     8  C    0.407011  -0.013886  -0.100971  -0.038692   2.064805  -0.481381
     9  C   -1.229096  -0.813479   0.289487  -0.118590  -0.368672   0.287918
    10  C   -1.200192   0.187163  -0.308239  -2.673940  -2.454968  -0.404932
    11  C    0.278748  -0.871102   0.951240  -0.246750  -1.453795  -0.143406
    12  C   -1.753752   1.134642  -1.340543  -1.514271  -0.257262  -0.246848
    13  C    0.166518  -0.221120  -0.207968  -1.549693  -0.261493   1.081488
    14  C   -1.111002  -0.259636  -0.155141  -0.399465  -1.524617  -1.429726
    15  H    0.365113  -0.103598  -0.002871   0.025353   0.006333   0.001177
    16  H   -0.020034   0.380297  -0.018893   0.015719  -0.001634  -0.000344
    17  H   -0.020352  -0.020348   0.378027  -0.067943   0.000198   0.000402
    18  H    0.047386   0.003238  -0.084696   0.458841   0.007140  -0.004939
    19  H   -0.045054  -0.007842   0.050718  -0.076109  -0.065551   0.050968
    20  H    0.007285   0.001974  -0.005094   0.007018   0.452489  -0.084840
    21  H   -0.001278  -0.000410   0.000388   0.000422  -0.066160   0.370856
    22  H    0.000516   0.000336  -0.000311  -0.001456   0.011675  -0.013359
    23  H    0.006409  -0.002538   0.001026   0.005378   0.028151  -0.000489
    24  H    0.034942   0.015163  -0.001351  -0.011810  -0.012857  -0.001631
    25  H    0.034942   0.015163  -0.001351  -0.011810  -0.012857  -0.001631
               7          8          9         10         11         12
     1  C   -0.031274   0.407011  -1.229096  -1.200192   0.278748  -1.753752
     2  C    0.002522  -0.013886  -0.813479   0.187163  -0.871102   1.134642
     3  C   -0.014149  -0.100971   0.289487  -0.308239   0.951240  -1.340543
     4  C   -0.008819  -0.038692  -0.118590  -2.673940  -0.246750  -1.514271
     5  C   -1.102294   2.064805  -0.368672  -2.454968  -1.453795  -0.257262
     6  C    0.313164  -0.481381   0.287918  -0.404932  -0.143406  -0.246848
     7  C    7.106315   0.219025  -0.766305   0.294137  -0.268557  -0.141378
     8  C    0.219025   8.720888  -1.208806  -1.312542   0.198342  -1.040990
     9  C   -0.766305  -1.208806   9.647264   0.251700   1.737186  -2.080788
    10  C    0.294137  -1.312542   0.251700   9.216962  -0.458688   2.405175
    11  C   -0.268557   0.198342   1.737186  -0.458688  14.632938  -3.993817
    12  C   -0.141378  -1.040990  -2.080788   2.405175  -3.993817  16.156200
    13  C   -0.984462   0.268047   1.647592  -0.562701   1.081783  -4.808251
    14  C    1.513086  -2.181163  -1.870697   2.458698  -4.861263   3.005787
    15  H   -0.002845   0.005400   0.089488  -0.008584  -0.029160  -0.017809
    16  H    0.000382   0.000878   0.003443  -0.010312   0.027830  -0.033524
    17  H   -0.000384  -0.001371  -0.005362   0.020355  -0.027068   0.087531
    18  H    0.001999   0.007411  -0.024206   0.012857  -0.010293  -0.047735
    19  H   -0.007311  -0.048176   0.075997   0.422284   0.076477  -0.077106
    20  H    0.002607   0.051121  -0.026105   0.016604  -0.011874  -0.009555
    21  H   -0.012456  -0.027353  -0.006357   0.020858  -0.006352   0.005365
    22  H    0.375413  -0.018344   0.004584  -0.009032   0.002858  -0.008368
    23  H   -0.104872   0.366715   0.094137  -0.010599   0.004494   0.005904
    24  H    0.013474   0.029125   0.357493   0.005574   0.019830  -0.059430
    25  H    0.013474   0.029125   0.357493   0.005574   0.019830  -0.059430
              13         14         15         16         17         18
     1  C    0.166518  -1.111002   0.365113  -0.020034  -0.020352   0.047386
     2  C   -0.221120  -0.259636  -0.103598   0.380297  -0.020348   0.003238
     3  C   -0.207968  -0.155141  -0.002871  -0.018893   0.378027  -0.084696
     4  C   -1.549693  -0.399465   0.025353   0.015719  -0.067943   0.458841
     5  C   -0.261493  -1.524617   0.006333  -0.001634   0.000198   0.007140
     6  C    1.081488  -1.429726   0.001177  -0.000344   0.000402  -0.004939
     7  C   -0.984462   1.513086  -0.002845   0.000382  -0.000384   0.001999
     8  C    0.268047  -2.181163   0.005400   0.000878  -0.001371   0.007411
     9  C    1.647592  -1.870697   0.089488   0.003443  -0.005362  -0.024206
    10  C   -0.562701   2.458698  -0.008584  -0.010312   0.020355   0.012857
    11  C    1.081783  -4.861263  -0.029160   0.027830  -0.027068  -0.010293
    12  C   -4.808251   3.005787  -0.017809  -0.033524   0.087531  -0.047735
    13  C   14.540898  -3.602996  -0.001284   0.003317  -0.006340  -0.011975
    14  C   -3.602996  15.976654   0.007248  -0.009859   0.005209  -0.016753
    15  H   -0.001284   0.007248   0.435821  -0.008912   0.001575   0.000238
    16  H    0.003317  -0.009859  -0.008912   0.417411  -0.006909   0.001937
    17  H   -0.006340   0.005209   0.001575  -0.006909   0.420936  -0.010064
    18  H   -0.011975  -0.016753   0.000238   0.001937  -0.010064   0.450187
    19  H    0.080285  -0.053802   0.000354  -0.000568   0.001572  -0.005852
    20  H   -0.006752  -0.057905  -0.000119   0.000017  -0.000155   0.001280
    21  H   -0.028686   0.094602   0.000015  -0.000007   0.000010  -0.000129
    22  H    0.028547  -0.035463  -0.000124   0.000007  -0.000007   0.000012
    23  H   -0.031620  -0.030949   0.000596  -0.000129   0.000011  -0.000104
    24  H    0.006819  -0.060123  -0.000906   0.000626  -0.000137   0.000153
    25  H    0.006819  -0.060123  -0.000906   0.000626  -0.000137   0.000153
              19         20         21         22         23         24
     1  C   -0.045054   0.007285  -0.001278   0.000516   0.006409   0.034942
     2  C   -0.007842   0.001974  -0.000410   0.000336  -0.002538   0.015163
     3  C    0.050718  -0.005094   0.000388  -0.000311   0.001026  -0.001351
     4  C   -0.076109   0.007018   0.000422  -0.001456   0.005378  -0.011810
     5  C   -0.065551   0.452489  -0.066160   0.011675   0.028151  -0.012857
     6  C    0.050968  -0.084840   0.370856  -0.013359  -0.000489  -0.001631
     7  C   -0.007311   0.002607  -0.012456   0.375413  -0.104872   0.013474
     8  C   -0.048176   0.051121  -0.027353  -0.018344   0.366715   0.029125
     9  C    0.075997  -0.026105  -0.006357   0.004584   0.094137   0.357493
    10  C    0.422284   0.016604   0.020858  -0.009032  -0.010599   0.005574
    11  C    0.076477  -0.011874  -0.006352   0.002858   0.004494   0.019830
    12  C   -0.077106  -0.009555   0.005365  -0.008368   0.005904  -0.059430
    13  C    0.080285  -0.006752  -0.028686   0.028547  -0.031620   0.006819
    14  C   -0.053802  -0.057905   0.094602  -0.035463  -0.030949  -0.060123
    15  H    0.000354  -0.000119   0.000015  -0.000124   0.000596  -0.000906
    16  H   -0.000568   0.000017  -0.000007   0.000007  -0.000129   0.000626
    17  H    0.001572  -0.000155   0.000010  -0.000007   0.000011  -0.000137
    18  H   -0.005852   0.001280  -0.000129   0.000012  -0.000104   0.000153
    19  H    0.442918  -0.006445   0.001239  -0.000497   0.000243   0.000615
    20  H   -0.006445   0.456175  -0.010288   0.001889   0.000139   0.000199
    21  H    0.001239  -0.010288   0.423822  -0.006304   0.001337  -0.000146
    22  H   -0.000497   0.001889  -0.006304   0.420976  -0.008935   0.000631
    23  H    0.000243   0.000139   0.001337  -0.008935   0.441619  -0.000879
    24  H    0.000615   0.000199  -0.000146   0.000631  -0.000879   0.494420
    25  H    0.000615   0.000199  -0.000146   0.000631  -0.000879  -0.080374
              25
     1  C    0.034942
     2  C    0.015163
     3  C   -0.001351
     4  C   -0.011810
     5  C   -0.012857
     6  C   -0.001631
     7  C    0.013474
     8  C    0.029125
     9  C    0.357493
    10  C    0.005574
    11  C    0.019830
    12  C   -0.059430
    13  C    0.006819
    14  C   -0.060123
    15  H   -0.000906
    16  H    0.000626
    17  H   -0.000137
    18  H    0.000153
    19  H    0.000615
    20  H    0.000199
    21  H   -0.000146
    22  H    0.000631
    23  H   -0.000879
    24  H   -0.080374
    25  H    0.494420
 Mulliken charges:
               1
     1  C    0.081466
     2  C   -0.403904
     3  C   -0.436962
     4  C    0.030668
     5  C    0.010711
     6  C   -0.442343
     7  C   -0.410491
     8  C    0.105780
     9  C   -0.325320
    10  C    0.096790
    11  C   -0.649430
    12  C    0.690255
    13  C   -0.626769
    14  C    0.659397
    15  H    0.238408
    16  H    0.258635
    17  H    0.250749
    18  H    0.223916
    19  H    0.190027
    20  H    0.220137
    21  H    0.247159
    22  H    0.254127
    23  H    0.235833
    24  H    0.250580
    25  H    0.250580
 Sum of Mulliken charges =   1.00000
 Mulliken charges with hydrogens summed into heavy atoms:
               1
     1  C    0.319874
     2  C   -0.145269
     3  C   -0.186213
     4  C    0.254585
     5  C    0.230849
     6  C   -0.195183
     7  C   -0.156364
     8  C    0.341613
     9  C    0.175839
    10  C    0.286818
    11  C   -0.649430
    12  C    0.690255
    13  C   -0.626769
    14  C    0.659397
 Electronic spatial extent (au):  <R**2>=           2854.6272
 Charge=              1.0000 electrons
 Dipole moment (field-independent basis, Debye):
    X=             -0.1044    Y=             -0.5782    Z=             -0.0000  Tot=              0.5875
 Quadrupole moment (field-independent basis, Debye-Ang):
   XX=            -50.9357   YY=            -36.4348   ZZ=            -84.1380
   XY=             10.2792   XZ=              0.0000   YZ=             -0.0000
 Traceless Quadrupole moment (field-independent basis, Debye-Ang):
   XX=              6.2338   YY=             20.7347   ZZ=            -26.9685
   XY=             10.2792   XZ=              0.0000   YZ=             -0.0000
 Octapole moment (field-independent basis, Debye-Ang**2):
  XXX=             -1.6247  YYY=              0.3653  ZZZ=             -0.0000  XYY=             -1.7789
  XXY=             -6.7093  XXZ=             -0.0000  XZZ=             -3.0926  YZZ=              0.7258
  YYZ=             -0.0000  XYZ=              0.0000
 Hexadecapole moment (field-independent basis, Debye-Ang**3):
 XXXX=           -991.1227 YYYY=          -1845.8850 ZZZZ=            -99.3137 XXXY=           -348.7279
 XXXZ=              0.0000 YYYX=           -275.4034 YYYZ=              0.0000 ZZZX=             -0.0000
 ZZZY=             -0.0000 XXYY=           -454.1679 XXZZ=           -242.3019 YYZZ=           -493.7934
 XXYZ=             -0.0000 YYXZ=              0.0000 ZZXY=           -183.4272
 N-N= 7.814090972618D+02 E-N=-2.799170933355D+03  KE= 5.375233499109D+02
 Symmetry A'   KE= 5.228743432789D+02
 Symmetry A"   KE= 1.464900663193D+01
 Unable to Open any file for archive entry.
 1\1\GINC-GADI-CPU-CLX-1762\SP\RM062X TD-FC\6-311++G(d,p)\C14H11(1+)\TS
 1578\02-Aug-2022\0\\#n M062X/6-311++G(d,p) TD(NStates=1) EmpiricalDisp
 ersion=GD3 SP\\SP_0\\1,1\C,0,2.477055,1.361631,0.\C,0,3.684108,0.66528
 9,0.\C,0,3.678661,-0.72523,0.\C,0,2.478656,-1.416438,0.\C,0,-2.447456,
 -1.398238,0.\C,0,-3.687861,-0.70043,0.\C,0,-3.717008,0.679389,0.\C,0,-
 2.504455,1.360431,0.\C,0,-0.0087,1.448969,0.\C,0,0.0244,-1.428989,0.\C
 ,0,1.265555,0.684665,0.\C,0,1.247871,-0.732304,0.\C,0,-1.258255,0.6693
 65,0.\C,0,-1.227871,-0.729904,0.\H,0,2.481671,2.444747,0.\H,0,4.618953
 ,1.206689,0.\H,0,4.611862,-1.270649,0.\H,0,2.47515,-2.498759,0.\H,0,0.
 0225,-2.510166,0.\H,0,-2.46055,-2.481059,0.\H,0,-4.606062,-1.271549,0.
 \H,0,-4.652253,1.218189,0.\H,0,-2.490071,2.443847,0.\H,0,-0.032,2.1447
 87,-0.858485\H,0,-0.032,2.144787,0.858485\\Version=ES64L-G16RevC.01\St
 ate=1-A'\HF=-539.7584029\RMSD=7.473e-09\PG=CS [SG(C14H9),X(H2)]\\@
 The archive entry for this job was punched.


 DEPRESSION IS WAITING FOR YOUR SHIP TO COME IN,
 AND FINDING OUT IT'S THE TITANIC.
 Job cpu time:       0 days  0 hours 52 minutes 14.8 seconds.
 Elapsed time:       0 days  0 hours  1 minutes  5.4 seconds.
 File lengths (MBytes):  RWF=    460 Int=      0 D2E=      0 Chk=     15 Scr=      1
 Normal termination of Gaussian 16 at Tue Aug  2 12:02:28 2022.
