 Entering Gaussian System, Link 0=g16
 Initial command:
 /apps/gaussian/g16c01/g16/l1.exe "/jobfs/53796104.gadi-pbs/Gau-3625095.inp" -scrdir="/jobfs/53796104.gadi-pbs/"
 Entering Link 1 = /apps/gaussian/g16c01/g16/l1.exe PID=   3625096.
  
 Copyright (c) 1988-2019, Gaussian, Inc.  All Rights Reserved.
  
 This is part of the Gaussian(R) 16 program.  It is based on
 the Gaussian(R) 09 system (copyright 2009, Gaussian, Inc.),
 the Gaussian(R) 03 system (copyright 2003, Gaussian, Inc.),
 the Gaussian(R) 98 system (copyright 1998, Gaussian, Inc.),
 the Gaussian(R) 94 system (copyright 1995, Gaussian, Inc.),
 the Gaussian 92(TM) system (copyright 1992, Gaussian, Inc.),
 the Gaussian 90(TM) system (copyright 1990, Gaussian, Inc.),
 the Gaussian 88(TM) system (copyright 1988, Gaussian, Inc.),
 the Gaussian 86(TM) system (copyright 1986, Carnegie Mellon
 University), and the Gaussian 82(TM) system (copyright 1983,
 Carnegie Mellon University). Gaussian is a federally registered
 trademark of Gaussian, Inc.
  
 This software contains proprietary and confidential information,
 including trade secrets, belonging to Gaussian, Inc.
  
 This software is provided under written license and may be
 used, copied, transmitted, or stored only in accord with that
 written license.
  
 The following legend is applicable only to US Government
 contracts under FAR:
  
                    RESTRICTED RIGHTS LEGEND
  
 Use, reproduction and disclosure by the US Government is
 subject to restrictions as set forth in subparagraphs (a)
 and (c) of the Commercial Computer Software - Restricted
 Rights clause in FAR 52.227-19.
  
 Gaussian, Inc.
 340 Quinnipiac St., Bldg. 40, Wallingford CT 06492
  
  
 ---------------------------------------------------------------
 Warning -- This program may not be used in any manner that
 competes with the business of Gaussian, Inc. or will provide
 assistance to any competitor of Gaussian, Inc.  The licensee
 of this program is prohibited from giving any competitor of
 Gaussian, Inc. access to this program.  By using this program,
 the user acknowledges that Gaussian, Inc. is engaged in the
 business of creating and licensing software in the field of
 computational chemistry and represents and warrants to the
 licensee that it is not a competitor of Gaussian, Inc. and that
 it will not use this program in any manner prohibited above.
 ---------------------------------------------------------------
  

 Cite this work as:
 Gaussian 16, Revision C.01,
 M. J. Frisch, G. W. Trucks, H. B. Schlegel, G. E. Scuseria, 
 M. A. Robb, J. R. Cheeseman, G. Scalmani, V. Barone, 
 G. A. Petersson, H. Nakatsuji, X. Li, M. Caricato, A. V. Marenich, 
 J. Bloino, B. G. Janesko, R. Gomperts, B. Mennucci, H. P. Hratchian, 
 J. V. Ortiz, A. F. Izmaylov, J. L. Sonnenberg, D. Williams-Young, 
 F. Ding, F. Lipparini, F. Egidi, J. Goings, B. Peng, A. Petrone, 
 T. Henderson, D. Ranasinghe, V. G. Zakrzewski, J. Gao, N. Rega, 
 G. Zheng, W. Liang, M. Hada, M. Ehara, K. Toyota, R. Fukuda, 
 J. Hasegawa, M. Ishida, T. Nakajima, Y. Honda, O. Kitao, H. Nakai, 
 T. Vreven, K. Throssell, J. A. Montgomery, Jr., J. E. Peralta, 
 F. Ogliaro, M. J. Bearpark, J. J. Heyd, E. N. Brothers, K. N. Kudin, 
 V. N. Staroverov, T. A. Keith, R. Kobayashi, J. Normand, 
 K. Raghavachari, A. P. Rendell, J. C. Burant, S. S. Iyengar, 
 J. Tomasi, M. Cossi, J. M. Millam, M. Klene, C. Adamo, R. Cammi, 
 J. W. Ochterski, R. L. Martin, K. Morokuma, O. Farkas, 
 J. B. Foresman, and D. J. Fox, Gaussian, Inc., Wallingford CT, 2019.
 
 ******************************************
 Gaussian 16:  ES64L-G16RevC.01  3-Jul-2019
                 2-Aug-2022 
 ******************************************
 %NProcShared=48
 Will use up to   48 processors via shared memory.
 %mem = 190GB
 ---------------------------------------------------------------
 #n M062X/6-311++G(d,p) TD(NStates=1) EmpiricalDispersion=GD3 SP
 ---------------------------------------------------------------
 1/38=1,172=1/1;
 2/12=2,17=6,18=5,40=1/2;
 3/5=4,6=6,7=1111,11=9,25=1,30=1,74=-55,124=31/1,2,3,8;
 4//1;
 5/5=2,38=5/2;
 8/6=1,10=2,108=1/1;
 9/41=1,42=1,70=2/14;
 6/7=2,8=2,9=2,10=2/1;
 99/5=1,9=1/99;
 ------
 SP_-25
 ------
 Symbolic Z-matrix:
 Charge =  1 Multiplicity = 1
 C                     2.49561   1.36043   0. 
 C                     3.70538   0.67384   0. 
 C                     3.68486  -0.71048   0. 
 C                     2.45923  -1.40521   0. 
 C                    -2.46703  -1.40976   0. 
 C                    -3.68256  -0.71668   0. 
 C                    -3.69716   0.67031   0. 
 C                    -2.48876   1.36073   0. 
 C                     0.0022    1.45227   0. 
 C                    -0.0061   -1.42914   0. 
 C                     1.26111   0.67514   0. 
 C                     1.23507  -0.73058   0. 
 C                    -1.26293   0.67897   0. 
 C                    -1.24007  -0.73118   0. 
 H                     2.48857   2.4437    0. 
 H                     4.64063   1.21331   0. 
 H                     4.60846  -1.27215   0. 
 H                     2.4658   -2.48781   0. 
 H                    -0.00563  -2.51024   0. 
 H                    -2.46945  -2.49223   0. 
 H                    -4.60991  -1.27192   0. 
 H                    -4.6323    1.21044   0. 
 H                    -2.48647   2.44392   0. 
 H                     0.008     2.14554  -0.85931 
 H                     0.008     2.14554   0.85931 
 
                          Input orientation:                          
 ---------------------------------------------------------------------
 Center     Atomic      Atomic             Coordinates (Angstroms)
 Number     Number       Type             X           Y           Z
 ---------------------------------------------------------------------
      1          6           0        2.495605    1.360431    0.000000
      2          6           0        3.705383    0.673839    0.000000
      3          6           0        3.684861   -0.710480    0.000000
      4          6           0        2.459231   -1.405213    0.000000
      5          6           0       -2.467031   -1.409763    0.000000
      6          6           0       -3.682561   -0.716680    0.000000
      7          6           0       -3.697158    0.670314    0.000000
      8          6           0       -2.488755    1.360731    0.000000
      9          6           0        0.002200    1.452269    0.000000
     10          6           0       -0.006100   -1.429139    0.000000
     11          6           0        1.261105    0.675140    0.000000
     12          6           0        1.235071   -0.730579    0.000000
     13          6           0       -1.262930    0.678965    0.000000
     14          6           0       -1.240071   -0.731179    0.000000
     15          1           0        2.488571    2.443697    0.000000
     16          1           0        4.640628    1.213314    0.000000
     17          1           0        4.608462   -1.272149    0.000000
     18          1           0        2.465800   -2.487809    0.000000
     19          1           0       -0.005625   -2.510241    0.000000
     20          1           0       -2.469450   -2.492234    0.000000
     21          1           0       -4.609912   -1.271924    0.000000
     22          1           0       -4.632303    1.210439    0.000000
     23          1           0       -2.486471    2.443922    0.000000
     24          1           0        0.008000    2.145537   -0.859310
     25          1           0        0.008000    2.145537    0.859310
 ---------------------------------------------------------------------
                    Distance matrix (angstroms):
                    1          2          3          4          5
     1  C    0.000000
     2  C    1.391032   0.000000
     3  C    2.388096   1.384471   0.000000
     4  C    2.765883   2.423913   1.408837   0.000000
     5  C    5.683461   6.514606   6.191508   4.926264   0.000000
     6  C    6.517985   7.517663   7.367425   6.180266   1.399242
     7  C    6.231097   7.402542   7.510046   6.496841   2.416595
     8  C    4.984360   6.232108   6.511793   5.668599   2.770579
     9  C    2.495096   3.784114   4.270770   3.768581   3.779991
    10  C    3.747029   4.265867   3.760274   2.465447   2.461007
    11  C    1.411954   2.444278   2.791870   2.400703   4.271512
    12  C    2.441571   2.841625   2.449872   1.397748   3.763888
    13  C    3.819814   4.968316   5.139182   4.265944   2.410943
    14  C    4.281367   5.141166   4.924975   3.760207   1.402108
    15  H    1.083289   2.147796   3.373417   3.849022   6.277511
    16  H    2.150062   1.079684   2.148133   3.408105   7.576236
    17  H    3.375595   2.145325   1.080977   2.153346   7.076831
    18  H    3.848355   3.395966   2.155228   1.082616   5.049258
    19  H    4.608498   4.889780   4.105950   2.701222   2.696214
    20  H    6.284489   6.939206   6.407042   5.047129   1.082474
    21  H    7.577444   8.539914   8.313752   7.070399   2.147310
    22  H    7.129486   8.354936   8.536108   7.558538   3.399097
    23  H    5.098533   6.439895   6.930771   6.267041   3.853734
    24  H    2.746449   4.071234   4.734401   4.399406   4.416373
    25  H    2.746449   4.071234   4.734401   4.399406   4.416373
                    6          7          8          9         10
     6  C    0.000000
     7  C    1.387071   0.000000
     8  C    2.395999   1.391730   0.000000
     9  C    4.275723   3.781098   2.492636   0.000000
    10  C    3.744858   4.246365   3.734562   2.881420   0.000000
    11  C    5.135854   4.958265   3.812018   1.479450   2.456379
    12  C    4.917652   5.127317   4.270885   2.506950   1.424251
    13  C    2.793285   2.434243   1.402659   1.482752   2.454328
    14  C    2.442533   2.828685   2.436247   2.512107   1.417686
    15  H    6.933315   6.434915   5.093779   2.676746   4.606760
    16  H    8.544024   8.355449   7.130907   4.644579   5.345525
    17  H    8.309609   8.529741   7.569845   5.351645   4.617232
    18  H    6.398378   6.925012   6.273665   4.646885   2.689065
    19  H    4.091054   4.872714   4.598952   3.962518   1.081102
    20  H    2.150402   3.392488   3.853013   4.654907   2.682958
    21  H    1.080868   2.146022   3.380855   5.356566   4.606496
    22  H    2.148441   1.079922   2.148810   4.640808   5.326268
    23  H    3.379354   2.147428   1.083193   2.678966   4.599222
    24  H    4.748783   4.079570   2.754654   1.104114   3.676537
    25  H    4.748783   4.079570   2.754654   1.104114   3.676537
                   11         12         13         14         15
    11  C    0.000000
    12  C    1.405960   0.000000
    13  C    2.524038   2.868244   0.000000
    14  C    2.869428   2.475142   1.410329   0.000000
    15  H    2.152781   3.412813   4.145846   4.897204   0.000000
    16  H    3.422106   3.921293   5.927691   6.193842   2.478950
    17  H    3.872562   3.416587   6.187091   5.873499   4.278019
    18  H    3.384603   2.145356   4.892023   4.101125   4.931559
    19  H    3.428011   2.169452   3.428097   2.165391   5.546397
    20  H    4.893802   4.102061   3.392962   2.147717   6.996098
    21  H    6.185459   5.869998   3.874049   3.412951   8.012135
    22  H    5.917669   6.180099   3.411032   3.908595   7.226878
    23  H    4.144022   4.891557   2.147586   3.410979   4.975042
    24  H    2.114416   3.242863   2.122383   3.251398   2.642072
    25  H    2.114416   3.242863   2.122383   3.251398   2.642072
                   16         17         18         19         20
    16  H    0.000000
    17  H    2.485671   0.000000
    18  H    4.292807   2.463499   0.000000
    19  H    5.954203   4.777308   2.471527   0.000000
    20  H    8.017749   7.182301   4.935252   2.463891   0.000000
    21  H    9.578565   9.218374   7.179420   4.767902   2.463886
    22  H    9.272931   9.568437   8.003756   5.937138   4.288091
    23  H    7.232561   8.009198   6.989060   5.540607   4.936185
    24  H    4.802988   5.795105   5.314799   4.734434   5.327766
    25  H    4.802988   5.795105   5.314799   4.734434   5.327766
                   21         22         23         24         25
    21  H    0.000000
    22  H    2.482464   0.000000
    23  H    4.279780   2.475091   0.000000
    24  H    5.808835   4.810949   2.655152   0.000000
    25  H    5.808835   4.810949   2.655152   1.718620   0.000000
 Stoichiometry    C14H11(1+)
 Framework group  CS[SG(C14H9),X(H2)]
 Deg. of freedom    46
 Full point group                 CS      NOp   2
 Largest Abelian subgroup         CS      NOp   2
 Largest concise Abelian subgroup CS      NOp   2
                         Standard orientation:                         
 ---------------------------------------------------------------------
 Center     Atomic      Atomic             Coordinates (Angstroms)
 Number     Number       Type             X           Y           Z
 ---------------------------------------------------------------------
      1          6           0        2.489594   -1.371231    0.000000
      2          6           0        3.702336   -0.689888    0.000000
      3          6           0        3.687812    0.694507    0.000000
      4          6           0        2.465204    1.394544    0.000000
      5          6           0       -2.460992    1.420440    0.000000
      6          6           0       -3.679514    0.732631    0.000000
      7          6           0       -3.700120   -0.654287    0.000000
      8          6           0       -2.494720   -1.349934    0.000000
      9          6           0       -0.004185   -1.452264    0.000000
     10          6           0        0.000000    1.429153    0.000000
     11          6           0        1.258075   -0.680597    0.000000
     12          6           0        1.238132    0.725221    0.000000
     13          6           0       -1.265953   -0.673486    0.000000
     14          6           0       -1.236984    0.736546    0.000000
     15          1           0        2.477866   -2.454457    0.000000
     16          1           0        4.635234   -1.233410    0.000000
     17          1           0        4.613838    1.252169    0.000000
     18          1           0        2.476464    2.477102    0.000000
     19          1           0        0.005159    2.510242    0.000000
     20          1           0       -2.458720    2.502912    0.000000
     21          1           0       -4.604450    1.291888    0.000000
     22          1           0       -4.637597   -1.190355    0.000000
     23          1           0       -2.497130   -2.433124    0.000000
     24          1           0       -0.001389   -2.145551    0.859310
     25          1           0       -0.001389   -2.145551   -0.859310
 ---------------------------------------------------------------------
 Rotational constants (GHZ):           2.1365938           0.4446792           0.3688735
 Standard basis: 6-311++G(d,p) (5D, 7F)
 There are   299 symmetry adapted cartesian basis functions of A'  symmetry.
 There are   100 symmetry adapted cartesian basis functions of A"  symmetry.
 There are   285 symmetry adapted basis functions of A'  symmetry.
 There are   100 symmetry adapted basis functions of A"  symmetry.
   385 basis functions,   603 primitive gaussians,   399 cartesian basis functions
    47 alpha electrons       47 beta electrons
       nuclear repulsion energy       781.2480990399 Hartrees.
 NAtoms=   25 NActive=   25 NUniq=   24 SFac= 1.09D+00 NAtFMM=   60 NAOKFM=F Big=F
 Integral buffers will be    131072 words long.
 Regular integral format.
 Two-electron integral symmetry is turned on.
 Nuclear repulsion after empirical dispersion term =      781.2471195709 Hartrees.
 One-electron integrals computed using PRISM.
 NBasis=   385 RedAO= T EigKep=  1.12D-06  NBF=   285   100
 NBsUse=   379 1.00D-06 EigRej=  8.38D-07 NBFU=   279   100
 ExpMin= 3.60D-02 ExpMax= 4.56D+03 ExpMxC= 6.82D+02 IAcc=3 IRadAn=         5 AccDes= 0.00D+00
 Harris functional with IExCor= 1009 and IRadAn=       5 diagonalized for initial guess.
 HarFok:  IExCor= 1009 AccDes= 0.00D+00 IRadAn=         5 IDoV= 1 UseB2=F ITyADJ=14
 ICtDFT=  3500011 ScaDFX=  1.000000  1.000000  1.000000  1.000000
 FoFCou: FMM=F IPFlag=           0 FMFlag=      100000 FMFlg1=           0
         NFxFlg=           0 DoJE=T BraDBF=F KetDBF=T FulRan=T
         wScrn=  0.000000 ICntrl=       500 IOpCl=  0 I1Cent=   200000004 NGrid=           0
         NMat0=    1 NMatS0=      1 NMatT0=    0 NMatD0=    1 NMtDS0=    0 NMtDT0=    0
 Petite list used in FoFCou.
 Initial guess orbital symmetries:
       Occupied  (A') (A') (A') (A') (A') (A') (A') (A') (A') (A')
                 (A') (A') (A') (A') (A') (A') (A') (A') (A') (A')
                 (A') (A') (A') (A') (A') (A') (A') (A') (A') (A')
                 (A') (A') (A") (A') (A') (A') (A') (A') (A') (A")
                 (A") (A') (A') (A") (A") (A") (A")
       Virtual   (A") (A") (A") (A") (A") (A') (A') (A') (A') (A")
                 (A") (A') (A') (A') (A") (A') (A') (A') (A') (A")
                 (A') (A") (A') (A') (A') (A") (A') (A") (A') (A')
                 (A') (A') (A') (A") (A') (A') (A") (A') (A') (A")
                 (A') (A') (A') (A") (A') (A') (A') (A') (A') (A")
                 (A') (A') (A") (A") (A') (A') (A') (A") (A") (A')
                 (A') (A') (A') (A') (A') (A') (A") (A') (A') (A")
                 (A') (A') (A') (A') (A') (A') (A') (A') (A') (A')
                 (A') (A') (A') (A') (A') (A') (A') (A') (A') (A')
                 (A') (A') (A') (A') (A') (A') (A') (A") (A') (A")
                 (A') (A') (A") (A") (A') (A") (A") (A') (A') (A")
                 (A") (A') (A') (A') (A") (A') (A') (A") (A") (A')
                 (A") (A") (A') (A') (A') (A") (A') (A') (A') (A")
                 (A') (A') (A') (A') (A') (A') (A") (A') (A') (A')
                 (A') (A') (A') (A') (A') (A') (A') (A') (A') (A")
                 (A") (A') (A") (A") (A') (A') (A') (A") (A") (A')
                 (A") (A') (A") (A") (A") (A') (A') (A') (A') (A')
                 (A') (A") (A") (A') (A') (A') (A') (A') (A') (A")
                 (A') (A') (A') (A') (A') (A") (A") (A') (A") (A")
                 (A') (A") (A') (A") (A') (A') (A') (A") (A') (A')
                 (A") (A") (A") (A') (A') (A") (A') (A") (A') (A')
                 (A") (A") (A') (A") (A') (A") (A') (A') (A') (A")
                 (A') (A') (A') (A') (A") (A') (A') (A') (A") (A")
                 (A') (A') (A') (A") (A') (A') (A") (A') (A") (A')
                 (A") (A') (A') (A') (A') (A") (A') (A') (A') (A")
                 (A') (A') (A") (A') (A") (A') (A') (A") (A') (A')
                 (A') (A') (A") (A") (A') (A') (A') (A") (A') (A")
                 (A') (A') (A') (A') (A") (A') (A") (A') (A") (A')
                 (A") (A') (A") (A") (A") (A') (A') (A') (A') (A')
                 (A') (A') (A') (A') (A') (A') (A') (A') (A') (A')
                 (A') (A') (A') (A') (A') (A") (A') (A') (A') (A')
                 (A') (A') (A') (A') (A') (A') (A') (A') (A') (A')
                 (A') (A') (A') (A') (A') (A') (A') (A') (A') (A')
                 (A') (A')
 The electronic state of the initial guess is 1-A'.
 Requested convergence on RMS density matrix=1.00D-08 within 128 cycles.
 Requested convergence on MAX density matrix=1.00D-06.
 Requested convergence on             energy=1.00D-06.
 No special actions if energy rises.
 SCF Done:  E(RM062X) =  -539.760110472     A.U. after   15 cycles
            NFock= 15  Conv=0.47D-08     -V/T= 2.0042
 DoSCS=F DFT=T ScalE2(SS,OS)=  1.000000  1.000000
 ExpMin= 3.60D-02 ExpMax= 4.56D+03 ExpMxC= 6.82D+02 IAcc=3 IRadAn=         5 AccDes= 0.00D+00
 HarFok:  IExCor=  205 AccDes= 0.00D+00 IRadAn=         5 IDoV=-2 UseB2=F ITyADJ=14
 ICtDFT= 12500011 ScaDFX=  1.000000  1.000000  1.000000  1.000000
 Range of M.O.s used for correlation:    15   379
 NBasis=   385 NAE=    47 NBE=    47 NFC=    14 NFV=     0
 NROrb=    365 NOA=    33 NOB=    33 NVA=   332 NVB=   332

 **** Warning!!: The largest alpha MO coefficient is  0.15306647D+03

 Orbital symmetries:
       Occupied  (A') (A') (A') (A') (A') (A') (A') (A') (A') (A')
                 (A') (A') (A') (A') (A') (A') (A') (A') (A') (A')
                 (A') (A') (A') (A') (A') (A') (A') (A') (A') (A')
                 (A') (A') (A") (A') (A') (A') (A') (A") (A") (A')
                 (A') (A') (A') (A") (A") (A") (A")
       Virtual   (A") (A") (A") (A") (A') (A') (A') (A') (A") (A')
                 (A') (A") (A') (A') (A") (A') (A") (A') (A') (A')
                 (A") (A") (A') (A') (A') (A") (A') (A") (A') (A')
                 (A") (A') (A") (A') (A') (A') (A') (A') (A") (A')
                 (A") (A') (A') (A") (A") (A') (A") (A') (A") (A')
                 (A') (A') (A') (A') (A') (A") (A') (A') (A') (A')
                 (A') (A") (A') (A') (A') (A') (A") (A') (A') (A')
                 (A') (A') (A') (A') (A') (A') (A') (A') (A') (A')
                 (A') (A') (A') (A') (A') (A') (A') (A') (A') (A')
                 (A') (A') (A') (A') (A") (A') (A") (A") (A') (A")
                 (A') (A') (A') (A') (A") (A") (A') (A") (A") (A')
                 (A') (A') (A") (A') (A') (A") (A') (A") (A') (A")
                 (A") (A') (A") (A') (A') (A') (A") (A') (A') (A')
                 (A') (A') (A') (A') (A') (A') (A') (A') (A') (A')
                 (A') (A') (A') (A") (A') (A') (A') (A') (A') (A')
                 (A') (A') (A") (A') (A") (A') (A") (A") (A') (A")
                 (A") (A') (A') (A") (A") (A") (A') (A") (A') (A')
                 (A') (A') (A') (A") (A") (A') (A') (A') (A') (A")
                 (A') (A') (A') (A") (A') (A") (A') (A') (A") (A")
                 (A") (A') (A') (A") (A") (A') (A') (A') (A') (A')
                 (A") (A") (A") (A') (A') (A") (A') (A") (A') (A')
                 (A') (A") (A') (A") (A") (A') (A") (A') (A') (A")
                 (A') (A') (A') (A') (A") (A') (A') (A') (A") (A")
                 (A') (A') (A') (A") (A') (A') (A') (A") (A") (A')
                 (A") (A') (A') (A") (A') (A') (A') (A') (A') (A')
                 (A") (A') (A') (A') (A') (A") (A") (A") (A') (A')
                 (A') (A') (A') (A') (A') (A') (A") (A') (A') (A')
                 (A') (A") (A') (A") (A") (A") (A') (A") (A') (A")
                 (A') (A") (A") (A') (A") (A") (A') (A') (A') (A')
                 (A') (A') (A') (A') (A') (A') (A') (A') (A') (A')
                 (A') (A') (A') (A") (A') (A') (A') (A') (A') (A')
                 (A') (A') (A') (A') (A') (A') (A') (A') (A') (A')
                 (A') (A') (A') (A') (A') (A') (A') (A') (A') (A')
                 (A') (A')
     4 initial guesses have been made.
 Convergence on wavefunction:    0.001000000000000
 Iteration     1 Dimension     4 NMult     0 NNew      4
 CISAX will form     4 AO SS matrices at one time.
 Iteration     2 Dimension     6 NMult     4 NNew      2
 Iteration     3 Dimension     8 NMult     6 NNew      2
 Iteration     4 Dimension    10 NMult     8 NNew      2
 Iteration     5 Dimension    12 NMult    10 NNew      2
 Iteration     6 Dimension    14 NMult    12 NNew      2
 ***********************************************************************
 Excited states from <AA,BB:AA,BB> singles matrix:
 ***********************************************************************
 
 Ground to excited state transition densities written to RWF  633
 Ground to excited state transition electric dipole moments (Au):
       state          X           Y           Z        Dip. S.      Osc.
         1         0.0033     -0.6416      0.0000      0.4117      0.0284
 Ground to excited state transition velocity dipole moments (Au):
       state          X           Y           Z        Dip. S.      Osc.
         1         0.0005      0.0742      0.0000      0.0055      0.0354
 Ground to excited state transition magnetic dipole moments (Au):
       state          X           Y           Z
         1        -0.0000      0.0000      0.0444
 Ground to excited state transition velocity quadrupole moments (Au):
       state          XX          YY          ZZ          XY          XZ          YZ
         1         0.2955      0.0346     -0.0098      0.0176     -0.0000      0.0000
 <0|del|b> * <b|rxdel|0> + <0|del|b> * <b|delr+rdel|0>
 Rotatory Strengths (R) in cgs (10**-40 erg-esu-cm/Gauss)
       state          XX          YY          ZZ    R(velocity)    E-M Angle
         1         0.0000      0.0000     -0.0000      0.0000       90.00
 1/2[<0|r|b>*<b|rxdel|0> + (<0|rxdel|b>*<b|r|0>)*]
 Rotatory Strengths (R) in cgs (10**-40 erg-esu-cm/Gauss)
       state          XX          YY          ZZ     R(length)
         1         0.0000      0.0000     -0.0000      0.0000
  1/2[<0|del|b>*<b|r|0> + (<0|r|b>*<b|del|0>)*] (Au)
       state          X           Y           Z        Dip. S.   Osc.(frdel)
         1         0.0000     -0.0476      0.0000      0.0476      0.0317

 Excitation energies and oscillator strengths:
 
 Excited State   1:      Singlet-A'     2.8191 eV  439.80 nm  f=0.0284  <S**2>=0.000
      47 -> 48         0.70422
 This state for optimization and/or second-order correction.
 Total Energy, E(TD-HF/TD-DFT) =  -539.656510002    
 Copying the excited state density for this state as the 1-particle RhoCI density.
 SavETr:  write IOETrn=   770 NScale= 10 NData=  16 NLR=1 NState=    1 LETran=      28.

 **********************************************************************

            Population analysis using the SCF Density.

 **********************************************************************

 Orbital symmetries:
       Occupied  (A') (A') (A') (A') (A') (A') (A') (A') (A') (A')
                 (A') (A') (A') (A') (A') (A') (A') (A') (A') (A')
                 (A') (A') (A') (A') (A') (A') (A') (A') (A') (A')
                 (A') (A') (A") (A') (A') (A') (A') (A") (A") (A')
                 (A') (A') (A') (A") (A") (A") (A")
       Virtual   (A") (A") (A") (A") (A') (A') (A') (A') (A") (A')
                 (A') (A") (A') (A') (A") (A') (A") (A') (A') (A')
                 (A") (A") (A') (A') (A') (A") (A') (A") (A') (A')
                 (A") (A') (A") (A') (A') (A') (A') (A') (A") (A')
                 (A") (A') (A') (A") (A") (A') (A") (A') (A") (A')
                 (A') (A') (A') (A') (A') (A") (A') (A') (A') (A')
                 (A') (A") (A') (A') (A') (A') (A") (A') (A') (A')
                 (A') (A') (A') (A') (A') (A') (A') (A') (A') (A')
                 (A') (A') (A') (A') (A') (A') (A') (A') (A') (A')
                 (A') (A') (A') (A') (A") (A') (A") (A") (A') (A")
                 (A') (A') (A') (A') (A") (A") (A') (A") (A") (A')
                 (A') (A') (A") (A') (A') (A") (A') (A") (A') (A")
                 (A") (A') (A") (A') (A') (A') (A") (A') (A') (A')
                 (A') (A') (A') (A') (A') (A') (A') (A') (A') (A')
                 (A') (A') (A') (A") (A') (A') (A') (A') (A') (A')
                 (A') (A') (A") (A') (A") (A') (A") (A") (A') (A")
                 (A") (A') (A') (A") (A") (A") (A') (A") (A') (A')
                 (A') (A') (A') (A") (A") (A') (A') (A') (A') (A")
                 (A') (A') (A') (A") (A') (A") (A') (A') (A") (A")
                 (A") (A') (A') (A") (A") (A') (A') (A') (A') (A')
                 (A") (A") (A") (A') (A') (A") (A') (A") (A') (A')
                 (A') (A") (A') (A") (A") (A') (A") (A') (A') (A")
                 (A') (A') (A') (A') (A") (A') (A') (A') (A") (A")
                 (A') (A') (A') (A") (A') (A') (A') (A") (A") (A')
                 (A") (A') (A') (A") (A') (A') (A') (A') (A') (A')
                 (A") (A') (A') (A') (A') (A") (A") (A") (A') (A')
                 (A') (A') (A') (A') (A') (A') (A") (A') (A') (A')
                 (A') (A") (A') (A") (A") (A") (A') (A") (A') (A")
                 (A') (A") (A") (A') (A") (A") (A') (A') (A') (A')
                 (A') (A') (A') (A') (A') (A') (A') (A') (A') (A')
                 (A') (A') (A') (A") (A') (A') (A') (A') (A') (A')
                 (A') (A') (A') (A') (A') (A') (A') (A') (A') (A')
                 (A') (A') (A') (A') (A') (A') (A') (A') (A') (A')
                 (A') (A')
 The electronic state is 1-A'.
 Alpha  occ. eigenvalues --  -10.77662 -10.73306 -10.73161 -10.72491 -10.72374
 Alpha  occ. eigenvalues --  -10.71436 -10.71299 -10.71135 -10.70976 -10.70878
 Alpha  occ. eigenvalues --  -10.70005 -10.69939 -10.69669 -10.69587  -1.16451
 Alpha  occ. eigenvalues --   -1.12470  -1.06945  -1.05743  -1.01313  -1.00197
 Alpha  occ. eigenvalues --   -0.95777  -0.91058  -0.86419  -0.85904  -0.83818
 Alpha  occ. eigenvalues --   -0.78400  -0.76036  -0.74418  -0.69562  -0.69249
 Alpha  occ. eigenvalues --   -0.68503  -0.68193  -0.68100  -0.64753  -0.64285
 Alpha  occ. eigenvalues --   -0.63067  -0.61863  -0.60013  -0.59665  -0.59092
 Alpha  occ. eigenvalues --   -0.56901  -0.55215  -0.54838  -0.52437  -0.46643
 Alpha  occ. eigenvalues --   -0.46059  -0.44482
 Alpha virt. eigenvalues --   -0.26086  -0.14670  -0.14097  -0.12773  -0.11180
 Alpha virt. eigenvalues --   -0.10087  -0.09230  -0.07983  -0.07968  -0.07476
 Alpha virt. eigenvalues --   -0.07204  -0.07146  -0.05643  -0.05582  -0.05333
 Alpha virt. eigenvalues --   -0.03827  -0.03647  -0.03279  -0.03132  -0.02165
 Alpha virt. eigenvalues --   -0.01368  -0.00930   0.00191   0.00592   0.00666
 Alpha virt. eigenvalues --    0.01056   0.01512   0.01940   0.02219   0.02284
 Alpha virt. eigenvalues --    0.02450   0.02670   0.02748   0.03307   0.03372
 Alpha virt. eigenvalues --    0.04240   0.04506   0.04695   0.05031   0.05365
 Alpha virt. eigenvalues --    0.06033   0.06297   0.06596   0.07046   0.07254
 Alpha virt. eigenvalues --    0.07893   0.08163   0.08364   0.08541   0.08928
 Alpha virt. eigenvalues --    0.09546   0.09561   0.10040   0.10873   0.11034
 Alpha virt. eigenvalues --    0.11115   0.12176   0.12244   0.12911   0.12983
 Alpha virt. eigenvalues --    0.13409   0.13523   0.14018   0.14381   0.16218
 Alpha virt. eigenvalues --    0.16313   0.16347   0.17347   0.17624   0.17797
 Alpha virt. eigenvalues --    0.18125   0.19069   0.19239   0.19639   0.19740
 Alpha virt. eigenvalues --    0.21564   0.21593   0.22726   0.23114   0.23563
 Alpha virt. eigenvalues --    0.23795   0.24569   0.25316   0.26920   0.27607
 Alpha virt. eigenvalues --    0.28850   0.29297   0.29867   0.31362   0.35826
 Alpha virt. eigenvalues --    0.36435   0.38181   0.39277   0.41157   0.41402
 Alpha virt. eigenvalues --    0.41973   0.42194   0.42983   0.43686   0.44296
 Alpha virt. eigenvalues --    0.44950   0.45024   0.46094   0.46170   0.47940
 Alpha virt. eigenvalues --    0.48528   0.48871   0.49023   0.50428   0.51173
 Alpha virt. eigenvalues --    0.51573   0.51710   0.52115   0.52910   0.53973
 Alpha virt. eigenvalues --    0.54089   0.54657   0.55683   0.55764   0.57452
 Alpha virt. eigenvalues --    0.58241   0.58816   0.61445   0.62189   0.62347
 Alpha virt. eigenvalues --    0.63215   0.63491   0.64978   0.65155   0.67277
 Alpha virt. eigenvalues --    0.70411   0.70595   0.71028   0.72416   0.72872
 Alpha virt. eigenvalues --    0.75772   0.76018   0.76293   0.76901   0.77094
 Alpha virt. eigenvalues --    0.77844   0.77883   0.78244   0.79879   0.80396
 Alpha virt. eigenvalues --    0.81250   0.81650   0.82138   0.83015   0.85190
 Alpha virt. eigenvalues --    0.87166   0.88185   0.88602   0.89123   0.90416
 Alpha virt. eigenvalues --    0.91094   0.91256   0.93193   0.94634   0.96454
 Alpha virt. eigenvalues --    0.96645   1.00389   1.01292   1.01687   1.02712
 Alpha virt. eigenvalues --    1.03198   1.03832   1.04738   1.05425   1.08773
 Alpha virt. eigenvalues --    1.19558   1.23265   1.24062   1.25259   1.28043
 Alpha virt. eigenvalues --    1.29689   1.31774   1.34295   1.35770   1.36004
 Alpha virt. eigenvalues --    1.39358   1.40159   1.40952   1.43007   1.43467
 Alpha virt. eigenvalues --    1.43530   1.45056   1.45484   1.46369   1.46678
 Alpha virt. eigenvalues --    1.47639   1.48021   1.51740   1.53627   1.55810
 Alpha virt. eigenvalues --    1.55820   1.56351   1.56572   1.57784   1.61452
 Alpha virt. eigenvalues --    1.63228   1.63515   1.63766   1.66116   1.68317
 Alpha virt. eigenvalues --    1.68357   1.68685   1.69731   1.74398   1.75993
 Alpha virt. eigenvalues --    1.77178   1.78049   1.80037   1.80142   1.80715
 Alpha virt. eigenvalues --    1.83164   1.83209   1.83621   1.83818   1.84160
 Alpha virt. eigenvalues --    1.84282   1.85856   1.86078   1.88226   1.91388
 Alpha virt. eigenvalues --    1.92077   1.94132   1.95203   1.97694   1.98159
 Alpha virt. eigenvalues --    1.99748   2.02464   2.04419   2.07261   2.11818
 Alpha virt. eigenvalues --    2.12064   2.14111   2.15220   2.19115   2.21267
 Alpha virt. eigenvalues --    2.22794   2.28606   2.30195   2.34657   2.34954
 Alpha virt. eigenvalues --    2.36223   2.38687   2.39594   2.42378   2.44621
 Alpha virt. eigenvalues --    2.46170   2.46558   2.49366   2.52912   2.53809
 Alpha virt. eigenvalues --    2.54264   2.56769   2.57843   2.58301   2.59641
 Alpha virt. eigenvalues --    2.59821   2.61606   2.62140   2.63543   2.63804
 Alpha virt. eigenvalues --    2.64782   2.65119   2.65225   2.65333   2.67979
 Alpha virt. eigenvalues --    2.68554   2.70959   2.71417   2.73347   2.74822
 Alpha virt. eigenvalues --    2.76303   2.78814   2.79727   2.82890   2.83064
 Alpha virt. eigenvalues --    2.84889   2.86305   2.92117   2.96999   2.99512
 Alpha virt. eigenvalues --    3.00065   3.05165   3.11075   3.11459   3.13097
 Alpha virt. eigenvalues --    3.21027   3.23761   3.26736   3.28240   3.30764
 Alpha virt. eigenvalues --    3.32805   3.33622   3.43419   3.45913   3.46621
 Alpha virt. eigenvalues --    3.48555   3.50159   3.56509   3.65763   3.66877
 Alpha virt. eigenvalues --    3.67440   3.94190   3.94574   3.95170   3.96228
 Alpha virt. eigenvalues --    4.04015   4.06905   4.07510   4.12546   4.35565
 Alpha virt. eigenvalues --    4.61438   4.69832   4.71634  23.45339  23.60541
 Alpha virt. eigenvalues --   23.82226  23.85564  23.87874  23.89261  23.90529
 Alpha virt. eigenvalues --   23.92426  23.97692  23.99319  23.99935  24.00597
 Alpha virt. eigenvalues --   24.10553  24.10705
          Condensed to atoms (all electrons):
               1          2          3          4          5          6
     1  C    8.619447   0.297511  -0.530717   1.996157  -0.030589  -0.096939
     2  C    0.297511   7.125396   0.345651  -1.081310  -0.016306  -0.014470
     3  C   -0.530717   0.345651   6.586549   0.766850  -0.125279   0.016945
     4  C    1.996157  -1.081310   0.766850  10.920806  -0.354501  -0.121579
     5  C   -0.030589  -0.016306  -0.125279  -0.354501  11.032491   0.751904
     6  C   -0.096939  -0.014470   0.016945  -0.121579   0.751904   6.589082
     7  C   -0.017383   0.001965  -0.014769  -0.023524  -1.052445   0.369622
     8  C    0.405716  -0.021742  -0.093927  -0.019595   1.922590  -0.566293
     9  C   -1.181751  -0.792459   0.292842  -0.258398  -0.195364   0.293142
    10  C   -1.288158   0.259452  -0.366638  -2.544948  -2.600607  -0.342482
    11  C    0.289811  -0.933602   1.029405  -0.259397  -1.514250  -0.183312
    12  C   -2.097384   1.388995  -1.403639  -1.577458  -0.349426  -0.188286
    13  C    0.205322  -0.248412  -0.167121  -1.489643  -0.257083   0.996900
    14  C   -1.069292  -0.182901  -0.211489  -0.314515  -1.576261  -1.380876
    15  H    0.366982  -0.105688  -0.001208   0.027491   0.005665   0.001084
    16  H   -0.019066   0.378071  -0.015844   0.013150  -0.001523  -0.000325
    17  H   -0.025400  -0.015493   0.373870  -0.067444   0.000344   0.000397
    18  H    0.050332   0.002876  -0.084889   0.456162   0.006554  -0.005081
    19  H   -0.047168  -0.007607   0.051186  -0.068594  -0.071282   0.051113
    20  H    0.007297   0.002031  -0.005044   0.006574   0.457784  -0.084840
    21  H   -0.001330  -0.000396   0.000400   0.000291  -0.067912   0.375687
    22  H    0.000757   0.000370  -0.000333  -0.001569   0.014154  -0.017215
    23  H    0.005650  -0.002713   0.001122   0.005910   0.026799  -0.001812
    24  H    0.031945   0.014219  -0.001559  -0.012364  -0.012104  -0.001491
    25  H    0.031945   0.014219  -0.001559  -0.012364  -0.012104  -0.001491
               7          8          9         10         11         12
     1  C   -0.017383   0.405716  -1.181751  -1.288158   0.289811  -2.097384
     2  C    0.001965  -0.021742  -0.792459   0.259452  -0.933602   1.388995
     3  C   -0.014769  -0.093927   0.292842  -0.366638   1.029405  -1.403639
     4  C   -0.023524  -0.019595  -0.258398  -2.544948  -0.259397  -1.577458
     5  C   -1.052445   1.922590  -0.195364  -2.600607  -1.514250  -0.349426
     6  C    0.369622  -0.566293   0.293142  -0.342482  -0.183312  -0.188286
     7  C    7.125988   0.368419  -0.804255   0.232763  -0.236068  -0.212720
     8  C    0.368419   8.541148  -1.185916  -1.260665   0.196191  -1.085400
     9  C   -0.804255  -1.185916   9.606382   0.257056   1.628944  -1.922239
    10  C    0.232763  -1.260665   0.257056   9.180631  -0.487600   2.439407
    11  C   -0.236068   0.196191   1.628944  -0.487600  14.504428  -3.733545
    12  C   -0.212720  -1.085400  -1.922239   2.439407  -3.733545  16.039094
    13  C   -0.905116   0.292692   1.650623  -0.462362   1.091140  -4.821368
    14  C    1.293152  -1.989297  -1.975163   2.426796  -4.807405   3.061616
    15  H   -0.002633   0.005906   0.092188  -0.009832  -0.030481  -0.026157
    16  H    0.000358   0.000666   0.003815  -0.009344   0.027360  -0.034025
    17  H   -0.000403  -0.001306  -0.005895   0.020618  -0.027822   0.092692
    18  H    0.002023   0.007272  -0.025231   0.014007  -0.007047  -0.055106
    19  H   -0.007741  -0.046430   0.075821   0.422005   0.077935  -0.062386
    20  H    0.003053   0.049392  -0.024746   0.013041  -0.011854  -0.014571
    21  H   -0.017509  -0.023627  -0.005652   0.020517  -0.006313   0.005294
    22  H    0.379327  -0.019508   0.003522  -0.009670   0.003152  -0.009293
    23  H   -0.105371   0.366553   0.091060  -0.009334   0.000812   0.006762
    24  H    0.014641   0.033368   0.356547   0.005365   0.011832  -0.060054
    25  H    0.014641   0.033368   0.356547   0.005365   0.011832  -0.060054
              13         14         15         16         17         18
     1  C    0.205322  -1.069292   0.366982  -0.019066  -0.025400   0.050332
     2  C   -0.248412  -0.182901  -0.105688   0.378071  -0.015493   0.002876
     3  C   -0.167121  -0.211489  -0.001208  -0.015844   0.373870  -0.084889
     4  C   -1.489643  -0.314515   0.027491   0.013150  -0.067444   0.456162
     5  C   -0.257083  -1.576261   0.005665  -0.001523   0.000344   0.006554
     6  C    0.996900  -1.380876   0.001084  -0.000325   0.000397  -0.005081
     7  C   -0.905116   1.293152  -0.002633   0.000358  -0.000403   0.002023
     8  C    0.292692  -1.989297   0.005906   0.000666  -0.001306   0.007272
     9  C    1.650623  -1.975163   0.092188   0.003815  -0.005895  -0.025231
    10  C   -0.462362   2.426796  -0.009832  -0.009344   0.020618   0.014007
    11  C    1.091140  -4.807405  -0.030481   0.027360  -0.027822  -0.007047
    12  C   -4.821368   3.061616  -0.026157  -0.034025   0.092692  -0.055106
    13  C   14.531379  -3.833117   0.002271   0.003030  -0.006312  -0.011822
    14  C   -3.833117  16.087999   0.006405  -0.008916   0.005325  -0.012761
    15  H    0.002271   0.006405   0.439641  -0.009000   0.001436   0.000168
    16  H    0.003030  -0.008916  -0.009000   0.419855  -0.006557   0.001914
    17  H   -0.006312   0.005325   0.001436  -0.006557   0.422803  -0.010272
    18  H   -0.011822  -0.012761   0.000168   0.001914  -0.010272   0.454230
    19  H    0.077028  -0.068148   0.000292  -0.000529   0.001373  -0.006266
    20  H   -0.007917  -0.052582  -0.000110   0.000014  -0.000140   0.001271
    21  H   -0.027460   0.090957   0.000013  -0.000007   0.000010  -0.000146
    22  H    0.027186  -0.033553  -0.000127   0.000007  -0.000007   0.000015
    23  H   -0.029869  -0.022873   0.000584  -0.000126   0.000014  -0.000114
    24  H    0.015056  -0.059907  -0.000900   0.000631  -0.000143   0.000186
    25  H    0.015056  -0.059907  -0.000900   0.000631  -0.000143   0.000186
              19         20         21         22         23         24
     1  C   -0.047168   0.007297  -0.001330   0.000757   0.005650   0.031945
     2  C   -0.007607   0.002031  -0.000396   0.000370  -0.002713   0.014219
     3  C    0.051186  -0.005044   0.000400  -0.000333   0.001122  -0.001559
     4  C   -0.068594   0.006574   0.000291  -0.001569   0.005910  -0.012364
     5  C   -0.071282   0.457784  -0.067912   0.014154   0.026799  -0.012104
     6  C    0.051113  -0.084840   0.375687  -0.017215  -0.001812  -0.001491
     7  C   -0.007741   0.003053  -0.017509   0.379327  -0.105371   0.014641
     8  C   -0.046430   0.049392  -0.023627  -0.019508   0.366553   0.033368
     9  C    0.075821  -0.024746  -0.005652   0.003522   0.091060   0.356547
    10  C    0.422005   0.013041   0.020517  -0.009670  -0.009334   0.005365
    11  C    0.077935  -0.011854  -0.006313   0.003152   0.000812   0.011832
    12  C   -0.062386  -0.014571   0.005294  -0.009293   0.006762  -0.060054
    13  C    0.077028  -0.007917  -0.027460   0.027186  -0.029869   0.015056
    14  C   -0.068148  -0.052582   0.090957  -0.033553  -0.022873  -0.059907
    15  H    0.000292  -0.000110   0.000013  -0.000127   0.000584  -0.000900
    16  H   -0.000529   0.000014  -0.000007   0.000007  -0.000126   0.000631
    17  H    0.001373  -0.000140   0.000010  -0.000007   0.000014  -0.000143
    18  H   -0.006266   0.001271  -0.000146   0.000015  -0.000114   0.000186
    19  H    0.442730  -0.006114   0.001457  -0.000547   0.000320   0.000599
    20  H   -0.006114   0.452735  -0.010219   0.001926   0.000192   0.000174
    21  H    0.001457  -0.010219   0.422089  -0.006711   0.001497  -0.000141
    22  H   -0.000547   0.001926  -0.006711   0.418964  -0.008996   0.000630
    23  H    0.000320   0.000192   0.001497  -0.008996   0.438192  -0.000907
    24  H    0.000599   0.000174  -0.000141   0.000630  -0.000907   0.494058
    25  H    0.000599   0.000174  -0.000141   0.000630  -0.000907  -0.079856
              25
     1  C    0.031945
     2  C    0.014219
     3  C   -0.001559
     4  C   -0.012364
     5  C   -0.012104
     6  C   -0.001491
     7  C    0.014641
     8  C    0.033368
     9  C    0.356547
    10  C    0.005365
    11  C    0.011832
    12  C   -0.060054
    13  C    0.015056
    14  C   -0.059907
    15  H   -0.000900
    16  H    0.000631
    17  H   -0.000143
    18  H    0.000186
    19  H    0.000599
    20  H    0.000174
    21  H   -0.000141
    22  H    0.000630
    23  H   -0.000907
    24  H   -0.079856
    25  H    0.494058
 Mulliken charges:
               1
     1  C    0.096303
     2  C   -0.407655
     3  C   -0.440806
     4  C    0.013812
     5  C    0.018752
     6  C   -0.439385
     7  C   -0.406016
     8  C    0.090424
     9  C   -0.331421
    10  C    0.094616
    11  C   -0.634146
    12  C    0.679250
    13  C   -0.640083
    14  C    0.686713
    15  H    0.236911
    16  H    0.255758
    17  H    0.248455
    18  H    0.221540
    19  H    0.190356
    20  H    0.222476
    21  H    0.249353
    22  H    0.256890
    23  H    0.237554
    24  H    0.250175
    25  H    0.250175
 Sum of Mulliken charges =   1.00000
 Mulliken charges with hydrogens summed into heavy atoms:
               1
     1  C    0.333214
     2  C   -0.151897
     3  C   -0.192351
     4  C    0.235352
     5  C    0.241228
     6  C   -0.190033
     7  C   -0.149126
     8  C    0.327978
     9  C    0.168930
    10  C    0.284972
    11  C   -0.634146
    12  C    0.679250
    13  C   -0.640083
    14  C    0.686713
 Electronic spatial extent (au):  <R**2>=           2855.5837
 Charge=              1.0000 electrons
 Dipole moment (field-independent basis, Debye):
    X=             -0.1393    Y=              0.1870    Z=              0.0000  Tot=              0.2332
 Quadrupole moment (field-independent basis, Debye-Ang):
   XX=            -31.1209   YY=            -56.2604   ZZ=            -84.1415
   XY=             -0.1767   XZ=             -0.0000   YZ=              0.0000
 Traceless Quadrupole moment (field-independent basis, Debye-Ang):
   XX=             26.0533   YY=              0.9139   ZZ=            -26.9672
   XY=             -0.1767   XZ=             -0.0000   YZ=              0.0000
 Octapole moment (field-independent basis, Debye-Ang**2):
  XXX=             -1.5179  YYY=              5.2044  ZZZ=             -0.0000  XYY=             -0.2848
  XXY=             -5.1715  XXZ=             -0.0000  XZZ=             -0.2166  YZZ=             -3.0830
  YYZ=              0.0000  XYZ=             -0.0000
 Hexadecapole moment (field-independent basis, Debye-Ang**3):
 XXXX=          -2122.2766 YYYY=           -609.1856 ZZZZ=            -99.3266 XXXY=              3.1225
 XXXZ=              0.0000 YYYX=              4.8861 YYYZ=              0.0000 ZZZX=             -0.0000
 ZZZY=              0.0000 XXYY=           -507.6309 XXZZ=           -590.6637 YYZZ=           -145.7046
 XXYZ=             -0.0000 YYXZ=             -0.0000 ZZXY=              2.3838
 N-N= 7.812471195709D+02 E-N=-2.798837856551D+03  KE= 5.375087030971D+02
 Symmetry A'   KE= 5.228614424580D+02
 Symmetry A"   KE= 1.464726063899D+01
 Unable to Open any file for archive entry.
 1\1\GINC-GADI-CPU-CLX-1762\SP\RM062X TD-FC\6-311++G(d,p)\C14H11(1+)\TS
 1578\02-Aug-2022\0\\#n M062X/6-311++G(d,p) TD(NStates=1) EmpiricalDisp
 ersion=GD3 SP\\SP_-25\\1,1\C,0,2.495605,1.360431,0.\C,0,3.705383,0.673
 839,0.\C,0,3.684861,-0.71048,0.\C,0,2.459231,-1.405213,0.\C,0,-2.46703
 1,-1.409763,0.\C,0,-3.682561,-0.71668,0.\C,0,-3.697158,0.670314,0.\C,0
 ,-2.488755,1.360731,0.\C,0,0.0022,1.452269,0.\C,0,-0.0061,-1.429139,0.
 \C,0,1.261105,0.67514,0.\C,0,1.235071,-0.730579,0.\C,0,-1.26293,0.6789
 65,0.\C,0,-1.240071,-0.731179,0.\H,0,2.488571,2.443697,0.\H,0,4.640628
 ,1.213314,0.\H,0,4.608462,-1.272149,0.\H,0,2.4658,-2.487809,0.\H,0,-0.
 005625,-2.510241,0.\H,0,-2.46945,-2.492234,0.\H,0,-4.609912,-1.271924,
 0.\H,0,-4.632303,1.210439,0.\H,0,-2.486471,2.443922,0.\H,0,0.008,2.145
 537,-0.85931\H,0,0.008,2.145537,0.85931\\Version=ES64L-G16RevC.01\Stat
 e=1-A'\HF=-539.7601105\RMSD=4.697e-09\PG=CS [SG(C14H9),X(H2)]\\@
 The archive entry for this job was punched.


 THERE ARE PEOPLE SO ADDICTED TO EXAGERATING THEY
 CAN'T TELL THE TRUTH WITHOUT LYING. -- FORTUNE COOKIE
 Job cpu time:       0 days  0 hours 53 minutes 18.1 seconds.
 Elapsed time:       0 days  0 hours  1 minutes  7.6 seconds.
 File lengths (MBytes):  RWF=    460 Int=      0 D2E=      0 Chk=     15 Scr=      1
 Normal termination of Gaussian 16 at Tue Aug  2 11:52:23 2022.
