 Entering Gaussian System, Link 0=g16
 Initial command:
 /apps/gaussian/g16c01/g16/l1.exe "/jobfs/53796104.gadi-pbs/Gau-3632079.inp" -scrdir="/jobfs/53796104.gadi-pbs/"
 Entering Link 1 = /apps/gaussian/g16c01/g16/l1.exe PID=   3632080.
  
 Copyright (c) 1988-2019, Gaussian, Inc.  All Rights Reserved.
  
 This is part of the Gaussian(R) 16 program.  It is based on
 the Gaussian(R) 09 system (copyright 2009, Gaussian, Inc.),
 the Gaussian(R) 03 system (copyright 2003, Gaussian, Inc.),
 the Gaussian(R) 98 system (copyright 1998, Gaussian, Inc.),
 the Gaussian(R) 94 system (copyright 1995, Gaussian, Inc.),
 the Gaussian 92(TM) system (copyright 1992, Gaussian, Inc.),
 the Gaussian 90(TM) system (copyright 1990, Gaussian, Inc.),
 the Gaussian 88(TM) system (copyright 1988, Gaussian, Inc.),
 the Gaussian 86(TM) system (copyright 1986, Carnegie Mellon
 University), and the Gaussian 82(TM) system (copyright 1983,
 Carnegie Mellon University). Gaussian is a federally registered
 trademark of Gaussian, Inc.
  
 This software contains proprietary and confidential information,
 including trade secrets, belonging to Gaussian, Inc.
  
 This software is provided under written license and may be
 used, copied, transmitted, or stored only in accord with that
 written license.
  
 The following legend is applicable only to US Government
 contracts under FAR:
  
                    RESTRICTED RIGHTS LEGEND
  
 Use, reproduction and disclosure by the US Government is
 subject to restrictions as set forth in subparagraphs (a)
 and (c) of the Commercial Computer Software - Restricted
 Rights clause in FAR 52.227-19.
  
 Gaussian, Inc.
 340 Quinnipiac St., Bldg. 40, Wallingford CT 06492
  
  
 ---------------------------------------------------------------
 Warning -- This program may not be used in any manner that
 competes with the business of Gaussian, Inc. or will provide
 assistance to any competitor of Gaussian, Inc.  The licensee
 of this program is prohibited from giving any competitor of
 Gaussian, Inc. access to this program.  By using this program,
 the user acknowledges that Gaussian, Inc. is engaged in the
 business of creating and licensing software in the field of
 computational chemistry and represents and warrants to the
 licensee that it is not a competitor of Gaussian, Inc. and that
 it will not use this program in any manner prohibited above.
 ---------------------------------------------------------------
  

 Cite this work as:
 Gaussian 16, Revision C.01,
 M. J. Frisch, G. W. Trucks, H. B. Schlegel, G. E. Scuseria, 
 M. A. Robb, J. R. Cheeseman, G. Scalmani, V. Barone, 
 G. A. Petersson, H. Nakatsuji, X. Li, M. Caricato, A. V. Marenich, 
 J. Bloino, B. G. Janesko, R. Gomperts, B. Mennucci, H. P. Hratchian, 
 J. V. Ortiz, A. F. Izmaylov, J. L. Sonnenberg, D. Williams-Young, 
 F. Ding, F. Lipparini, F. Egidi, J. Goings, B. Peng, A. Petrone, 
 T. Henderson, D. Ranasinghe, V. G. Zakrzewski, J. Gao, N. Rega, 
 G. Zheng, W. Liang, M. Hada, M. Ehara, K. Toyota, R. Fukuda, 
 J. Hasegawa, M. Ishida, T. Nakajima, Y. Honda, O. Kitao, H. Nakai, 
 T. Vreven, K. Throssell, J. A. Montgomery, Jr., J. E. Peralta, 
 F. Ogliaro, M. J. Bearpark, J. J. Heyd, E. N. Brothers, K. N. Kudin, 
 V. N. Staroverov, T. A. Keith, R. Kobayashi, J. Normand, 
 K. Raghavachari, A. P. Rendell, J. C. Burant, S. S. Iyengar, 
 J. Tomasi, M. Cossi, J. M. Millam, M. Klene, C. Adamo, R. Cammi, 
 J. W. Ochterski, R. L. Martin, K. Morokuma, O. Farkas, 
 J. B. Foresman, and D. J. Fox, Gaussian, Inc., Wallingford CT, 2019.
 
 ******************************************
 Gaussian 16:  ES64L-G16RevC.01  3-Jul-2019
                 2-Aug-2022 
 ******************************************
 %NProcShared=48
 Will use up to   48 processors via shared memory.
 %mem = 190GB
 ---------------------------------------------------------------
 #n M062X/6-311++G(d,p) TD(NStates=1) EmpiricalDispersion=GD3 SP
 ---------------------------------------------------------------
 1/38=1,172=1/1;
 2/12=2,17=6,18=5,40=1/2;
 3/5=4,6=6,7=1111,11=9,25=1,30=1,74=-55,124=31/1,2,3,8;
 4//1;
 5/5=2,38=5/2;
 8/6=1,10=2,108=1/1;
 9/41=1,42=1,70=2/14;
 6/7=2,8=2,9=2,10=2/1;
 99/5=1,9=1/99;
 ----
 SP_0
 ----
 Symbolic Z-matrix:
 Charge =  1 Multiplicity = 1
 C                     2.48486   1.36103   0. 
 C                     3.69281   0.66864   0. 
 C                     3.68126  -0.71953   0. 
 C                     2.47091  -1.41199   0. 
 C                    -2.45531  -1.40289   0. 
 C                    -3.68586  -0.70713   0. 
 C                    -3.70926   0.67569   0. 
 C                    -2.49856   1.36043   0. 
 C                    -0.00435   1.45117   0. 
 C                     0.0122   -1.42909   0. 
 C                     1.26381   0.68087   0. 
 C                     1.24267  -0.73155   0. 
 C                    -1.26016   0.67322   0. 
 C                    -1.23267  -0.73035   0. 
 H                     2.48487   2.4442    0. 
 H                     4.62785   1.20919   0. 
 H                     4.61056  -1.2715    0. 
 H                     2.47135  -2.49441   0. 
 H                     0.01125  -2.51022   0. 
 H                    -2.46405  -2.48556   0. 
 H                    -4.60766  -1.27195   0. 
 H                    -4.6445    1.21494   0. 
 H                    -2.48907   2.44375   0. 
 H                    -0.016     2.14529  -0.85904 
 H                    -0.016     2.14529   0.85904 
 
                          Input orientation:                          
 ---------------------------------------------------------------------
 Center     Atomic      Atomic             Coordinates (Angstroms)
 Number     Number       Type             X           Y           Z
 ---------------------------------------------------------------------
      1          6           0        2.484855    1.361031    0.000000
      2          6           0        3.692808    0.668639    0.000000
      3          6           0        3.681261   -0.719530    0.000000
      4          6           0        2.470906   -1.411988    0.000000
      5          6           0       -2.455306   -1.402888    0.000000
      6          6           0       -3.685861   -0.707130    0.000000
      7          6           0       -3.709258    0.675689    0.000000
      8          6           0       -2.498555    1.360431    0.000000
      9          6           0       -0.004350    1.451169    0.000000
     10          6           0        0.012200   -1.429089    0.000000
     11          6           0        1.263805    0.680865    0.000000
     12          6           0        1.242671   -0.731554    0.000000
     13          6           0       -1.260155    0.673215    0.000000
     14          6           0       -1.232671   -0.730354    0.000000
     15          1           0        2.484871    2.444197    0.000000
     16          1           0        4.627853    1.209189    0.000000
     17          1           0        4.610562   -1.271499    0.000000
     18          1           0        2.471350   -2.494409    0.000000
     19          1           0        0.011250   -2.510216    0.000000
     20          1           0       -2.464050   -2.485559    0.000000
     21          1           0       -4.607662   -1.271949    0.000000
     22          1           0       -4.644503    1.214939    0.000000
     23          1           0       -2.489071    2.443747    0.000000
     24          1           0       -0.016000    2.145287   -0.859035
     25          1           0       -0.016000    2.145287    0.859035
 ---------------------------------------------------------------------
                    Distance matrix (angstroms):
                    1          2          3          4          5
     1  C    0.000000
     2  C    1.392321   0.000000
     3  C    2.400025   1.388217   0.000000
     4  C    2.773054   2.412893   1.394438   0.000000
     5  C    5.660781   6.487721   6.174499   4.926220   0.000000
     6  C    6.508074   7.505831   7.367132   6.196984   1.413628
     7  C    6.231912   7.402069   7.521064   6.523252   2.427525
     8  C    4.983410   6.229892   6.520457   5.690505   2.763657
     9  C    2.490836   3.779065   4.277343   3.784780   3.762024
    10  C    3.728108   4.236430   3.737042   2.458765   2.467645
    11  C    1.397708   2.429034   2.793779   2.416015   4.263076
    12  C    2.433502   2.822005   2.438620   1.404120   3.758420
    13  C    3.807649   4.952965   5.133939   4.274212   2.395535
    14  C    4.265430   5.120305   4.913944   3.765781   1.395399
    15  H    1.083166   2.147491   3.382383   3.856210   6.261423
    16  H    2.148371   1.080048   2.148486   3.394553   7.549443
    17  H    3.383614   2.146254   1.080865   2.144263   7.067089
    18  H    3.855464   3.390698   2.148041   1.082421   5.046123
    19  H    4.594048   4.864051   4.083569   2.693699   2.703715
    20  H    6.268007   6.917793   6.394037   5.050381   1.082706
    21  H    7.565473   8.524300   8.307311   7.079953   2.156335
    22  H    7.130855   8.355190   8.547544   7.584840   3.412565
    23  H    5.090404   6.431690   6.933925   6.282361   3.846783
    24  H    2.758129   4.083343   4.755508   4.424573   4.390638
    25  H    2.758129   4.083343   4.755508   4.424573   4.390638
                    6          7          8          9         10
     6  C    0.000000
     7  C    1.383017   0.000000
     8  C    2.384220   1.390925   0.000000
     9  C    4.267526   3.785196   2.495855   0.000000
    10  C    3.767875   4.275434   3.753040   2.880306   0.000000
    11  C    5.140596   4.973066   3.823240   1.483774   2.453247
    12  C    4.928593   5.148003   4.286394   2.513830   1.414431
    13  C    2.790950   2.449104   1.416298   1.477247   2.457350
    14  C    2.453300   2.847883   2.444145   2.503560   1.427562
    15  H    6.928838   6.441650   5.099910   2.679986   4.595263
    16  H    8.531713   8.354163   7.128013   4.638519   5.316462
    17  H    8.315597   8.544644   7.580673   5.358202   4.601062
    18  H    6.411366   6.946181   6.289654   4.657969   2.679986
    19  H    4.113362   4.898180   4.613137   3.961416   1.081127
    20  H    2.157691   3.397651   3.846145   4.641977   2.692200
    21  H    1.081082   2.144860   3.373093   5.348444   4.622534
    22  H    2.147870   1.079571   2.150874   4.646162   5.354976
    23  H    3.370509   2.148228   1.083358   2.675640   4.610338
    24  H    4.726743   4.066671   2.741718   1.104480   3.676262
    25  H    4.726743   4.066671   2.741718   1.104480   3.676262
                   11         12         13         14         15
    11  C    0.000000
    12  C    1.412577   0.000000
    13  C    2.523972   2.870107   0.000000
    14  C    2.867740   2.475342   1.403838   0.000000
    15  H    2.144841   3.410052   4.142656   4.888547   0.000000
    16  H    3.405282   3.902043   5.912352   6.173133   2.473382
    17  H    3.874598   3.410899   6.184435   5.868237   4.280766
    18  H    3.397136   2.148793   4.894688   4.102641   4.938625
    19  H    3.428103   2.163339   3.427930   2.171462   5.537600
    20  H    4.891129   4.100770   3.380417   2.144071   6.985293
    21  H    6.187698   5.875238   3.871623   3.418170   8.007107
    22  H    5.932397   6.200617   3.427430   3.927437   7.234573
    23  H    4.146303   4.899840   2.155230   3.413716   4.973942
    24  H    2.126117   3.255520   2.110180   3.238447   2.661136
    25  H    2.126117   3.255520   2.110180   3.238447   2.661136
                   16         17         18         19         20
    16  H    0.000000
    17  H    2.480748   0.000000
    18  H    4.285691   2.464089   0.000000
    19  H    5.928490   4.763202   2.460151   0.000000
    20  H    7.996640   7.178027   4.935408   2.475423   0.000000
    21  H    9.562990   9.218224   7.183789   4.782014   2.463315
    22  H    9.272358   9.583246   8.024626   5.962618   4.295121
    23  H    7.223208   8.012980   6.999369   5.549176   4.929370
    24  H    4.814519   5.815277   5.334007   4.734173   5.308072
    25  H    4.814519   5.815277   5.334007   4.734173   5.308072
                   21         22         23         24         25
    21  H    0.000000
    22  H    2.487161   0.000000
    23  H    4.277245   2.481100   0.000000
    24  H    5.787815   4.798597   2.634976   0.000000
    25  H    5.787815   4.798597   2.634976   1.718070   0.000000
 Stoichiometry    C14H11(1+)
 Framework group  CS[SG(C14H9),X(H2)]
 Deg. of freedom    46
 Full point group                 CS      NOp   2
 Largest Abelian subgroup         CS      NOp   2
 Largest concise Abelian subgroup CS      NOp   2
                         Standard orientation:                         
 ---------------------------------------------------------------------
 Center     Atomic      Atomic             Coordinates (Angstroms)
 Number     Number       Type             X           Y           Z
 ---------------------------------------------------------------------
      1          6           0       -2.371516   -1.550395    0.000000
      2          6           0       -2.330087   -2.942099    0.000000
      3          6           0       -1.100286   -3.586101    0.000000
      4          6           0        0.080848   -2.844899    0.000000
      5          6           0        2.394338    1.504286    0.000000
      6          6           0        2.360591    2.917511    0.000000
      7          6           0        1.151977    3.589812    0.000000
      8          6           0       -0.022516    2.844667    0.000000
      9          6           0       -1.277960    0.687551    0.000000
     10          6           0        1.254615   -0.684391    0.000000
     11          6           0       -1.196183   -0.793968    0.000000
     12          6           0        0.059523   -1.440942    0.000000
     13          6           0        0.000000    1.428548    0.000000
     14          6           0        1.224989    0.742864    0.000000
     15          1           0       -3.326871   -1.039959    0.000000
     16          1           0       -3.247497   -3.512066    0.000000
     17          1           0       -1.051393   -4.665860    0.000000
     18          1           0        1.035329   -3.355390    0.000000
     19          1           0        2.208612   -1.193042    0.000000
     20          1           0        3.353369    1.001781    0.000000
     21          1           0        3.293165    3.464360    0.000000
     22          1           0        1.117102    4.668819    0.000000
     23          1           0       -0.982465    3.346823    0.000000
     24          1           0       -1.884679    1.024934    0.859035
     25          1           0       -1.884679    1.024934   -0.859035
 ---------------------------------------------------------------------
 Rotational constants (GHZ):           2.1369737           0.4447292           0.3689187
 Standard basis: 6-311++G(d,p) (5D, 7F)
 There are   299 symmetry adapted cartesian basis functions of A'  symmetry.
 There are   100 symmetry adapted cartesian basis functions of A"  symmetry.
 There are   285 symmetry adapted basis functions of A'  symmetry.
 There are   100 symmetry adapted basis functions of A"  symmetry.
   385 basis functions,   603 primitive gaussians,   399 cartesian basis functions
    47 alpha electrons       47 beta electrons
       nuclear repulsion energy       781.3003868676 Hartrees.
 NAtoms=   25 NActive=   25 NUniq=   24 SFac= 1.09D+00 NAtFMM=   60 NAOKFM=F Big=F
 Integral buffers will be    131072 words long.
 Regular integral format.
 Two-electron integral symmetry is turned on.
 Nuclear repulsion after empirical dispersion term =      781.2994074352 Hartrees.
 One-electron integrals computed using PRISM.
 NBasis=   385 RedAO= T EigKep=  1.12D-06  NBF=   285   100
 NBsUse=   379 1.00D-06 EigRej=  8.37D-07 NBFU=   279   100
 ExpMin= 3.60D-02 ExpMax= 4.56D+03 ExpMxC= 6.82D+02 IAcc=3 IRadAn=         5 AccDes= 0.00D+00
 Harris functional with IExCor= 1009 and IRadAn=       5 diagonalized for initial guess.
 HarFok:  IExCor= 1009 AccDes= 0.00D+00 IRadAn=         5 IDoV= 1 UseB2=F ITyADJ=14
 ICtDFT=  3500011 ScaDFX=  1.000000  1.000000  1.000000  1.000000
 FoFCou: FMM=F IPFlag=           0 FMFlag=      100000 FMFlg1=           0
         NFxFlg=           0 DoJE=T BraDBF=F KetDBF=T FulRan=T
         wScrn=  0.000000 ICntrl=       500 IOpCl=  0 I1Cent=   200000004 NGrid=           0
         NMat0=    1 NMatS0=      1 NMatT0=    0 NMatD0=    1 NMtDS0=    0 NMtDT0=    0
 Petite list used in FoFCou.
 Initial guess orbital symmetries:
       Occupied  (A') (A') (A') (A') (A') (A') (A') (A') (A') (A')
                 (A') (A') (A') (A') (A') (A') (A') (A') (A') (A')
                 (A') (A') (A') (A') (A') (A') (A') (A') (A') (A')
                 (A') (A') (A") (A') (A') (A') (A') (A') (A') (A")
                 (A") (A') (A') (A") (A") (A") (A")
       Virtual   (A") (A") (A") (A") (A") (A') (A') (A') (A') (A")
                 (A") (A') (A') (A') (A") (A') (A') (A') (A') (A")
                 (A') (A") (A') (A') (A') (A") (A') (A") (A') (A')
                 (A') (A') (A') (A") (A') (A') (A") (A') (A') (A")
                 (A') (A') (A') (A") (A') (A') (A') (A') (A') (A")
                 (A') (A') (A") (A") (A') (A') (A') (A") (A") (A')
                 (A') (A') (A') (A') (A') (A') (A") (A') (A') (A")
                 (A') (A') (A') (A') (A') (A') (A') (A') (A') (A')
                 (A') (A') (A') (A') (A') (A') (A') (A') (A') (A')
                 (A') (A') (A') (A') (A') (A') (A') (A") (A') (A")
                 (A') (A') (A") (A") (A') (A") (A') (A") (A') (A")
                 (A") (A') (A') (A') (A") (A') (A') (A") (A") (A')
                 (A") (A") (A') (A') (A') (A") (A') (A') (A') (A")
                 (A') (A') (A') (A') (A') (A') (A") (A') (A') (A')
                 (A') (A') (A') (A') (A') (A') (A') (A') (A') (A")
                 (A") (A') (A") (A") (A') (A') (A') (A") (A") (A')
                 (A") (A') (A") (A") (A") (A') (A') (A') (A') (A')
                 (A') (A") (A") (A') (A') (A') (A') (A') (A') (A")
                 (A') (A') (A') (A') (A') (A") (A") (A') (A") (A")
                 (A') (A") (A') (A") (A') (A') (A') (A") (A') (A')
                 (A") (A") (A") (A') (A') (A") (A') (A") (A') (A')
                 (A") (A") (A') (A") (A') (A") (A') (A') (A') (A")
                 (A') (A') (A') (A') (A") (A') (A') (A') (A") (A")
                 (A') (A') (A') (A") (A') (A') (A") (A') (A") (A')
                 (A") (A') (A') (A') (A') (A") (A') (A') (A') (A")
                 (A') (A') (A") (A') (A") (A') (A') (A") (A') (A')
                 (A') (A') (A") (A") (A') (A') (A') (A") (A') (A")
                 (A') (A') (A') (A') (A") (A') (A") (A') (A") (A')
                 (A") (A') (A") (A") (A") (A') (A') (A') (A') (A')
                 (A') (A') (A') (A') (A') (A') (A') (A') (A') (A')
                 (A') (A') (A') (A') (A") (A') (A') (A') (A') (A')
                 (A') (A') (A') (A') (A') (A') (A') (A') (A') (A')
                 (A') (A') (A') (A') (A') (A') (A') (A') (A') (A')
                 (A') (A')
 The electronic state of the initial guess is 1-A'.
 Requested convergence on RMS density matrix=1.00D-08 within 128 cycles.
 Requested convergence on MAX density matrix=1.00D-06.
 Requested convergence on             energy=1.00D-06.
 No special actions if energy rises.
 SCF Done:  E(RM062X) =  -539.759746346     A.U. after   15 cycles
            NFock= 15  Conv=0.59D-08     -V/T= 2.0042
 DoSCS=F DFT=T ScalE2(SS,OS)=  1.000000  1.000000
 ExpMin= 3.60D-02 ExpMax= 4.56D+03 ExpMxC= 6.82D+02 IAcc=3 IRadAn=         5 AccDes= 0.00D+00
 HarFok:  IExCor=  205 AccDes= 0.00D+00 IRadAn=         5 IDoV=-2 UseB2=F ITyADJ=14
 ICtDFT= 12500011 ScaDFX=  1.000000  1.000000  1.000000  1.000000
 Range of M.O.s used for correlation:    15   379
 NBasis=   385 NAE=    47 NBE=    47 NFC=    14 NFV=     0
 NROrb=    365 NOA=    33 NOB=    33 NVA=   332 NVB=   332

 **** Warning!!: The largest alpha MO coefficient is  0.14884988D+03

 Orbital symmetries:
       Occupied  (A') (A') (A') (A') (A') (A') (A') (A') (A') (A')
                 (A') (A') (A') (A') (A') (A') (A') (A') (A') (A')
                 (A') (A') (A') (A') (A') (A') (A') (A') (A') (A')
                 (A') (A') (A") (A') (A') (A') (A') (A") (A") (A')
                 (A') (A') (A') (A") (A") (A") (A")
       Virtual   (A") (A") (A") (A") (A') (A') (A') (A') (A") (A')
                 (A') (A") (A') (A') (A") (A') (A") (A') (A') (A')
                 (A") (A") (A') (A') (A') (A") (A') (A") (A') (A')
                 (A") (A') (A") (A') (A') (A') (A') (A') (A") (A')
                 (A") (A') (A') (A") (A") (A') (A") (A') (A") (A')
                 (A') (A') (A') (A') (A') (A") (A') (A') (A') (A')
                 (A') (A") (A') (A') (A') (A") (A') (A') (A') (A')
                 (A') (A') (A') (A') (A') (A') (A') (A') (A') (A')
                 (A') (A') (A') (A') (A') (A') (A') (A') (A') (A')
                 (A') (A') (A') (A') (A") (A') (A") (A") (A') (A")
                 (A') (A') (A') (A') (A") (A") (A') (A") (A") (A')
                 (A') (A') (A") (A') (A') (A") (A') (A") (A') (A")
                 (A") (A') (A") (A') (A') (A') (A") (A') (A') (A')
                 (A') (A') (A') (A') (A') (A') (A') (A') (A') (A')
                 (A') (A') (A') (A") (A') (A') (A') (A') (A') (A')
                 (A') (A') (A") (A') (A") (A') (A") (A") (A') (A")
                 (A") (A') (A') (A") (A") (A") (A') (A") (A') (A')
                 (A') (A') (A') (A") (A") (A') (A') (A') (A') (A")
                 (A') (A') (A') (A") (A') (A") (A') (A') (A") (A")
                 (A") (A') (A') (A") (A') (A") (A') (A') (A') (A')
                 (A") (A") (A") (A') (A') (A") (A') (A") (A') (A')
                 (A') (A") (A') (A") (A") (A') (A") (A') (A') (A")
                 (A') (A') (A') (A') (A") (A') (A') (A') (A") (A")
                 (A') (A') (A') (A") (A') (A') (A') (A") (A") (A')
                 (A") (A') (A') (A") (A') (A') (A') (A') (A') (A')
                 (A") (A') (A') (A') (A') (A") (A") (A") (A') (A')
                 (A') (A') (A') (A') (A') (A') (A") (A') (A') (A')
                 (A') (A") (A') (A") (A") (A") (A') (A") (A') (A")
                 (A') (A") (A") (A') (A") (A") (A') (A') (A') (A')
                 (A') (A') (A') (A') (A') (A') (A') (A') (A') (A')
                 (A') (A') (A') (A") (A') (A') (A') (A') (A') (A')
                 (A') (A') (A') (A') (A') (A') (A') (A') (A') (A')
                 (A') (A') (A') (A') (A') (A') (A') (A') (A') (A')
                 (A') (A')
     4 initial guesses have been made.
 Convergence on wavefunction:    0.001000000000000
 Iteration     1 Dimension     4 NMult     0 NNew      4
 CISAX will form     4 AO SS matrices at one time.
 Iteration     2 Dimension     6 NMult     4 NNew      2
 Iteration     3 Dimension     8 NMult     6 NNew      2
 Iteration     4 Dimension    10 NMult     8 NNew      2
 Iteration     5 Dimension    12 NMult    10 NNew      2
 Iteration     6 Dimension    14 NMult    12 NNew      2
 ***********************************************************************
 Excited states from <AA,BB:AA,BB> singles matrix:
 ***********************************************************************
 
 Ground to excited state transition densities written to RWF  633
 Ground to excited state transition electric dipole moments (Au):
       state          X           Y           Z        Dip. S.      Osc.
         1        -0.5526      0.3093     -0.0000      0.4010      0.0276
 Ground to excited state transition velocity dipole moments (Au):
       state          X           Y           Z        Dip. S.      Osc.
         1         0.0644     -0.0342      0.0000      0.0053      0.0344
 Ground to excited state transition magnetic dipole moments (Au):
       state          X           Y           Z
         1         0.0000      0.0000     -0.0833
 Ground to excited state transition velocity quadrupole moments (Au):
       state          XX          YY          ZZ          XY          XZ          YZ
         1         0.1202      0.2034     -0.0096      0.1263     -0.0000      0.0000
 <0|del|b> * <b|rxdel|0> + <0|del|b> * <b|delr+rdel|0>
 Rotatory Strengths (R) in cgs (10**-40 erg-esu-cm/Gauss)
       state          XX          YY          ZZ    R(velocity)    E-M Angle
         1        -0.0000      0.0000      0.0000      0.0000       90.00
 1/2[<0|r|b>*<b|rxdel|0> + (<0|rxdel|b>*<b|r|0>)*]
 Rotatory Strengths (R) in cgs (10**-40 erg-esu-cm/Gauss)
       state          XX          YY          ZZ     R(length)
         1         0.0000     -0.0000     -0.0000      0.0000
  1/2[<0|del|b>*<b|r|0> + (<0|r|b>*<b|del|0>)*] (Au)
       state          X           Y           Z        Dip. S.   Osc.(frdel)
         1        -0.0356     -0.0106     -0.0000      0.0462      0.0308

 Excitation energies and oscillator strengths:
 
 Excited State   1:      Singlet-A'     2.8086 eV  441.45 nm  f=0.0276  <S**2>=0.000
      47 -> 48         0.70410
 This state for optimization and/or second-order correction.
 Total Energy, E(TD-HF/TD-DFT) =  -539.656533729    
 Copying the excited state density for this state as the 1-particle RhoCI density.
 SavETr:  write IOETrn=   770 NScale= 10 NData=  16 NLR=1 NState=    1 LETran=      28.

 **********************************************************************

            Population analysis using the SCF Density.

 **********************************************************************

 Orbital symmetries:
       Occupied  (A') (A') (A') (A') (A') (A') (A') (A') (A') (A')
                 (A') (A') (A') (A') (A') (A') (A') (A') (A') (A')
                 (A') (A') (A') (A') (A') (A') (A') (A') (A') (A')
                 (A') (A') (A") (A') (A') (A') (A') (A") (A") (A')
                 (A') (A') (A') (A") (A") (A") (A")
       Virtual   (A") (A") (A") (A") (A') (A') (A') (A') (A") (A')
                 (A') (A") (A') (A') (A") (A') (A") (A') (A') (A')
                 (A") (A") (A') (A') (A') (A") (A') (A") (A') (A')
                 (A") (A') (A") (A') (A') (A') (A') (A') (A") (A')
                 (A") (A') (A') (A") (A") (A') (A") (A') (A") (A')
                 (A') (A') (A') (A') (A') (A") (A') (A') (A') (A')
                 (A') (A") (A') (A') (A') (A") (A') (A') (A') (A')
                 (A') (A') (A') (A') (A') (A') (A') (A') (A') (A')
                 (A') (A') (A') (A') (A') (A') (A') (A') (A') (A')
                 (A') (A') (A') (A') (A") (A') (A") (A") (A') (A")
                 (A') (A') (A') (A') (A") (A") (A') (A") (A") (A')
                 (A') (A') (A") (A') (A') (A") (A') (A") (A') (A")
                 (A") (A') (A") (A') (A') (A') (A") (A') (A') (A')
                 (A') (A') (A') (A') (A') (A') (A') (A') (A') (A')
                 (A') (A') (A') (A") (A') (A') (A') (A') (A') (A')
                 (A') (A') (A") (A') (A") (A') (A") (A") (A') (A")
                 (A") (A') (A') (A") (A") (A") (A') (A") (A') (A')
                 (A') (A') (A') (A") (A") (A') (A') (A') (A') (A")
                 (A') (A') (A') (A") (A') (A") (A') (A') (A") (A")
                 (A") (A') (A') (A") (A') (A") (A') (A') (A') (A')
                 (A") (A") (A") (A') (A') (A") (A') (A") (A') (A')
                 (A') (A") (A') (A") (A") (A') (A") (A') (A') (A")
                 (A') (A') (A') (A') (A") (A') (A') (A') (A") (A")
                 (A') (A') (A') (A") (A') (A') (A') (A") (A") (A')
                 (A") (A') (A') (A") (A') (A') (A') (A') (A') (A')
                 (A") (A') (A') (A') (A') (A") (A") (A") (A') (A')
                 (A') (A') (A') (A') (A') (A') (A") (A') (A') (A')
                 (A') (A") (A') (A") (A") (A") (A') (A") (A') (A")
                 (A') (A") (A") (A') (A") (A") (A') (A') (A') (A')
                 (A') (A') (A') (A') (A') (A') (A') (A') (A') (A')
                 (A') (A') (A') (A") (A') (A') (A') (A') (A') (A')
                 (A') (A') (A') (A') (A') (A') (A') (A') (A') (A')
                 (A') (A') (A') (A') (A') (A') (A') (A') (A') (A')
                 (A') (A')
 The electronic state is 1-A'.
 Alpha  occ. eigenvalues --  -10.77656 -10.73370 -10.73082 -10.72545 -10.72312
 Alpha  occ. eigenvalues --  -10.71503 -10.71267 -10.71228 -10.70972 -10.70752
 Alpha  occ. eigenvalues --  -10.70037 -10.69907 -10.69708 -10.69544  -1.16462
 Alpha  occ. eigenvalues --   -1.12475  -1.06944  -1.05760  -1.01312  -1.00217
 Alpha  occ. eigenvalues --   -0.95764  -0.91059  -0.86422  -0.85906  -0.83817
 Alpha  occ. eigenvalues --   -0.78397  -0.76048  -0.74416  -0.69573  -0.69254
 Alpha  occ. eigenvalues --   -0.68493  -0.68188  -0.68097  -0.64791  -0.64281
 Alpha  occ. eigenvalues --   -0.63054  -0.61849  -0.60051  -0.59624  -0.59095
 Alpha  occ. eigenvalues --   -0.56907  -0.55219  -0.54824  -0.52436  -0.46688
 Alpha  occ. eigenvalues --   -0.46066  -0.44432
 Alpha virt. eigenvalues --   -0.26084  -0.14670  -0.14096  -0.12772  -0.11180
 Alpha virt. eigenvalues --   -0.10088  -0.09232  -0.07981  -0.07964  -0.07477
 Alpha virt. eigenvalues --   -0.07205  -0.07145  -0.05642  -0.05582  -0.05335
 Alpha virt. eigenvalues --   -0.03829  -0.03648  -0.03279  -0.03132  -0.02164
 Alpha virt. eigenvalues --   -0.01367  -0.00932   0.00189   0.00593   0.00669
 Alpha virt. eigenvalues --    0.01059   0.01512   0.01938   0.02214   0.02285
 Alpha virt. eigenvalues --    0.02450   0.02671   0.02751   0.03291   0.03380
 Alpha virt. eigenvalues --    0.04238   0.04506   0.04696   0.05030   0.05367
 Alpha virt. eigenvalues --    0.06031   0.06298   0.06596   0.07049   0.07253
 Alpha virt. eigenvalues --    0.07894   0.08159   0.08365   0.08551   0.08927
 Alpha virt. eigenvalues --    0.09540   0.09567   0.10038   0.10874   0.11037
 Alpha virt. eigenvalues --    0.11115   0.12173   0.12247   0.12893   0.12995
 Alpha virt. eigenvalues --    0.13415   0.13524   0.14019   0.14376   0.16181
 Alpha virt. eigenvalues --    0.16339   0.16352   0.17346   0.17616   0.17797
 Alpha virt. eigenvalues --    0.18127   0.19063   0.19251   0.19638   0.19755
 Alpha virt. eigenvalues --    0.21560   0.21606   0.22724   0.23119   0.23566
 Alpha virt. eigenvalues --    0.23794   0.24561   0.25307   0.26922   0.27610
 Alpha virt. eigenvalues --    0.28855   0.29297   0.29877   0.31365   0.35832
 Alpha virt. eigenvalues --    0.36442   0.38183   0.39278   0.41153   0.41395
 Alpha virt. eigenvalues --    0.41980   0.42186   0.42983   0.43694   0.44302
 Alpha virt. eigenvalues --    0.44924   0.45047   0.46064   0.46206   0.47929
 Alpha virt. eigenvalues --    0.48521   0.48871   0.49021   0.50435   0.51188
 Alpha virt. eigenvalues --    0.51536   0.51770   0.52116   0.52907   0.53986
 Alpha virt. eigenvalues --    0.54091   0.54658   0.55679   0.55773   0.57438
 Alpha virt. eigenvalues --    0.58240   0.58826   0.61451   0.62186   0.62353
 Alpha virt. eigenvalues --    0.63215   0.63492   0.64989   0.65158   0.67307
 Alpha virt. eigenvalues --    0.70402   0.70578   0.71046   0.72426   0.72877
 Alpha virt. eigenvalues --    0.75753   0.76026   0.76307   0.76888   0.77100
 Alpha virt. eigenvalues --    0.77848   0.77899   0.78252   0.79877   0.80398
 Alpha virt. eigenvalues --    0.81256   0.81634   0.82158   0.83016   0.85200
 Alpha virt. eigenvalues --    0.87163   0.88193   0.88578   0.89133   0.90436
 Alpha virt. eigenvalues --    0.91104   0.91264   0.93200   0.94635   0.96436
 Alpha virt. eigenvalues --    0.96673   1.00375   1.01296   1.01674   1.02722
 Alpha virt. eigenvalues --    1.03204   1.03754   1.04747   1.05512   1.08786
 Alpha virt. eigenvalues --    1.19564   1.23241   1.24078   1.25196   1.28132
 Alpha virt. eigenvalues --    1.29651   1.31817   1.34282   1.35776   1.36003
 Alpha virt. eigenvalues --    1.39364   1.40129   1.40953   1.42992   1.43487
 Alpha virt. eigenvalues --    1.43527   1.44875   1.45706   1.46373   1.46675
 Alpha virt. eigenvalues --    1.47644   1.48037   1.51756   1.53632   1.55815
 Alpha virt. eigenvalues --    1.55849   1.56350   1.56570   1.57794   1.61464
 Alpha virt. eigenvalues --    1.63217   1.63460   1.63818   1.66122   1.68333
 Alpha virt. eigenvalues --    1.68353   1.68681   1.69733   1.74410   1.76000
 Alpha virt. eigenvalues --    1.77189   1.78051   1.80050   1.80141   1.80732
 Alpha virt. eigenvalues --    1.83145   1.83206   1.83631   1.83823   1.84156
 Alpha virt. eigenvalues --    1.84304   1.85802   1.86131   1.88239   1.91395
 Alpha virt. eigenvalues --    1.92089   1.94132   1.95220   1.97703   1.98165
 Alpha virt. eigenvalues --    1.99760   2.02502   2.04439   2.07265   2.11816
 Alpha virt. eigenvalues --    2.12081   2.14122   2.15222   2.19128   2.21285
 Alpha virt. eigenvalues --    2.22792   2.28582   2.30240   2.34662   2.34952
 Alpha virt. eigenvalues --    2.36232   2.38682   2.39602   2.42382   2.44562
 Alpha virt. eigenvalues --    2.46173   2.46607   2.49364   2.52924   2.53812
 Alpha virt. eigenvalues --    2.54295   2.56753   2.57850   2.58308   2.59625
 Alpha virt. eigenvalues --    2.59836   2.61608   2.62146   2.63551   2.63809
 Alpha virt. eigenvalues --    2.64787   2.65123   2.65197   2.65374   2.68004
 Alpha virt. eigenvalues --    2.68565   2.70962   2.71421   2.73350   2.74824
 Alpha virt. eigenvalues --    2.76301   2.78829   2.79729   2.82937   2.83078
 Alpha virt. eigenvalues --    2.84895   2.86318   2.92124   2.96999   2.99511
 Alpha virt. eigenvalues --    3.00079   3.05214   3.10976   3.11468   3.13217
 Alpha virt. eigenvalues --    3.21038   3.23742   3.26753   3.28303   3.30733
 Alpha virt. eigenvalues --    3.32804   3.33727   3.43448   3.45935   3.46675
 Alpha virt. eigenvalues --    3.48573   3.50181   3.56532   3.65634   3.66925
 Alpha virt. eigenvalues --    3.67479   3.94172   3.94497   3.95214   3.96250
 Alpha virt. eigenvalues --    4.04015   4.06886   4.07547   4.12543   4.35593
 Alpha virt. eigenvalues --    4.61492   4.69813   4.71619  23.45330  23.60532
 Alpha virt. eigenvalues --   23.82113  23.85373  23.87720  23.89200  23.90629
 Alpha virt. eigenvalues --   23.92814  23.97413  23.98870  24.00305  24.01304
 Alpha virt. eigenvalues --   24.10590  24.10863
          Condensed to atoms (all electrons):
               1          2          3          4          5          6
     1  C    8.498410   0.413643  -0.585476   1.871730  -0.011192  -0.092150
     2  C    0.413643   7.118790   0.383546  -1.030193  -0.028373  -0.014973
     3  C   -0.585476   0.383546   6.590060   0.742693  -0.119226   0.016918
     4  C    1.871730  -1.030193   0.742693  11.066668  -0.345063  -0.126547
     5  C   -0.011192  -0.028373  -0.119226  -0.345063  10.845089   0.772374
     6  C   -0.092150  -0.014973   0.016918  -0.126547   0.772374   6.584713
     7  C   -0.025096   0.002188  -0.014364  -0.014055  -1.087955   0.335911
     8  C    0.405337  -0.016386  -0.098192  -0.032912   2.019122  -0.514755
     9  C   -1.200965  -0.806101   0.291629  -0.172068  -0.297391   0.290896
    10  C   -1.240609   0.217456  -0.331419  -2.626793  -2.515934  -0.379675
    11  C    0.286574  -0.893300   0.981472  -0.255151  -1.479005  -0.159445
    12  C   -1.905559   1.237764  -1.366186  -1.553239  -0.294787  -0.223257
    13  C    0.183704  -0.230524  -0.191702  -1.527985  -0.260434   1.046432
    14  C   -1.092495  -0.228962  -0.177055  -0.365181  -1.557223  -1.411185
    15  H    0.366088  -0.104702  -0.002192   0.026371   0.006067   0.001139
    16  H   -0.019732   0.379668  -0.017752   0.014658  -0.001594  -0.000337
    17  H   -0.022465  -0.018511   0.376487  -0.067888   0.000261   0.000401
    18  H    0.048736   0.003116  -0.084748   0.458116   0.006774  -0.005002
    19  H   -0.045987  -0.007736   0.050898  -0.072996  -0.067671   0.051035
    20  H    0.007277   0.002002  -0.005077   0.006726   0.454896  -0.084845
    21  H   -0.001296  -0.000405   0.000393   0.000371  -0.066984   0.372861
    22  H    0.000612   0.000351  -0.000320  -0.001503   0.012645  -0.015009
    23  H    0.006077  -0.002605   0.001065   0.005583   0.027756  -0.000988
    24  H    0.033878   0.014828  -0.001448  -0.012035  -0.012552  -0.001587
    25  H    0.033878   0.014828  -0.001448  -0.012035  -0.012552  -0.001587
               7          8          9         10         11         12
     1  C   -0.025096   0.405337  -1.200965  -1.240609   0.286574  -1.905559
     2  C    0.002188  -0.016386  -0.806101   0.217456  -0.893300   1.237764
     3  C   -0.014364  -0.098192   0.291629  -0.331419   0.981472  -1.366186
     4  C   -0.014055  -0.032912  -0.172068  -2.626793  -0.255151  -1.553239
     5  C   -1.087955   2.019122  -0.297391  -2.515934  -1.479005  -0.294787
     6  C    0.335911  -0.514755   0.290896  -0.379675  -0.159445  -0.223257
     7  C    7.116794   0.272473  -0.782328   0.270878  -0.254697  -0.169520
     8  C    0.272473   8.651499  -1.191605  -1.295873   0.201365  -1.058969
     9  C   -0.782328  -1.191605   9.618485   0.256675   1.682769  -2.012102
    10  C    0.270878  -1.295873   0.256675   9.195127  -0.460031   2.417901
    11  C   -0.254697   0.201365   1.682769  -0.460031  14.569431  -3.888778
    12  C   -0.169520  -1.058969  -2.012102   2.417901  -3.888778  16.111025
    13  C   -0.949879   0.281157   1.638764  -0.511045   1.089590  -4.809818
    14  C    1.428459  -2.120947  -1.906370   2.444022  -4.836735   3.042412
    15  H   -0.002761   0.005570   0.090480  -0.009117  -0.029650  -0.021156
    16  H    0.000374   0.000793   0.003518  -0.009894   0.027479  -0.033584
    17  H   -0.000392  -0.001342  -0.005571   0.020469  -0.027405   0.089830
    18  H    0.002015   0.007330  -0.024588   0.012989  -0.008752  -0.050896
    19  H   -0.007470  -0.047493   0.075918   0.422092   0.077043  -0.071153
    20  H    0.002763   0.050604  -0.025542   0.014893  -0.011871  -0.011695
    21  H   -0.014507  -0.026002  -0.006060   0.020696  -0.006326   0.005338
    22  H    0.377183  -0.018867   0.004104  -0.009246   0.002968  -0.008737
    23  H   -0.105327   0.366932   0.092738  -0.010114   0.002963   0.006255
    24  H    0.013981   0.031003   0.356914   0.005462   0.016692  -0.059822
    25  H    0.013981   0.031003   0.356914   0.005462   0.016692  -0.059822
              13         14         15         16         17         18
     1  C    0.183704  -1.092495   0.366088  -0.019732  -0.022465   0.048736
     2  C   -0.230524  -0.228962  -0.104702   0.379668  -0.018511   0.003116
     3  C   -0.191702  -0.177055  -0.002192  -0.017752   0.376487  -0.084748
     4  C   -1.527985  -0.365181   0.026371   0.014658  -0.067888   0.458116
     5  C   -0.260434  -1.557223   0.006067  -0.001594   0.000261   0.006774
     6  C    1.046432  -1.411185   0.001139  -0.000337   0.000401  -0.005002
     7  C   -0.949879   1.428459  -0.002761   0.000374  -0.000392   0.002015
     8  C    0.281157  -2.120947   0.005570   0.000793  -0.001342   0.007330
     9  C    1.638764  -1.906370   0.090480   0.003518  -0.005571  -0.024588
    10  C   -0.511045   2.444022  -0.009117  -0.009894   0.020469   0.012989
    11  C    1.089590  -4.836735  -0.029650   0.027479  -0.027405  -0.008752
    12  C   -4.809818   3.042412  -0.021156  -0.033584   0.089830  -0.050896
    13  C   14.518740  -3.690859   0.000061   0.003203  -0.006324  -0.011940
    14  C   -3.690859  16.016066   0.006948  -0.009487   0.005267  -0.015304
    15  H    0.000061   0.006948   0.437374  -0.008972   0.001524   0.000210
    16  H    0.003203  -0.009487  -0.008972   0.418448  -0.006783   0.001928
    17  H   -0.006324   0.005267   0.001524  -0.006783   0.421707  -0.010166
    18  H   -0.011940  -0.015304   0.000210   0.001928  -0.010166   0.451867
    19  H    0.078872  -0.059590   0.000329  -0.000553   0.001492  -0.006011
    20  H   -0.006970  -0.055979  -0.000115   0.000016  -0.000149   0.001273
    21  H   -0.028159   0.093340   0.000014  -0.000007   0.000010  -0.000136
    22  H    0.027838  -0.034548  -0.000126   0.000007  -0.000007   0.000013
    23  H   -0.030886  -0.027713   0.000588  -0.000128   0.000012  -0.000108
    24  H    0.010230  -0.060135  -0.000908   0.000629  -0.000140   0.000167
    25  H    0.010230  -0.060135  -0.000908   0.000629  -0.000140   0.000167
              19         20         21         22         23         24
     1  C   -0.045987   0.007277  -0.001296   0.000612   0.006077   0.033878
     2  C   -0.007736   0.002002  -0.000405   0.000351  -0.002605   0.014828
     3  C    0.050898  -0.005077   0.000393  -0.000320   0.001065  -0.001448
     4  C   -0.072996   0.006726   0.000371  -0.001503   0.005583  -0.012035
     5  C   -0.067671   0.454896  -0.066984   0.012645   0.027756  -0.012552
     6  C    0.051035  -0.084845   0.372861  -0.015009  -0.000988  -0.001587
     7  C   -0.007470   0.002763  -0.014507   0.377183  -0.105327   0.013981
     8  C   -0.047493   0.050604  -0.026002  -0.018867   0.366932   0.031003
     9  C    0.075918  -0.025542  -0.006060   0.004104   0.092738   0.356914
    10  C    0.422092   0.014893   0.020696  -0.009246  -0.010114   0.005462
    11  C    0.077043  -0.011871  -0.006326   0.002968   0.002963   0.016692
    12  C   -0.071153  -0.011695   0.005338  -0.008737   0.006255  -0.059822
    13  C    0.078872  -0.006970  -0.028159   0.027838  -0.030886   0.010230
    14  C   -0.059590  -0.055979   0.093340  -0.034548  -0.027713  -0.060135
    15  H    0.000329  -0.000115   0.000014  -0.000126   0.000588  -0.000908
    16  H   -0.000553   0.000016  -0.000007   0.000007  -0.000128   0.000629
    17  H    0.001492  -0.000149   0.000010  -0.000007   0.000012  -0.000140
    18  H   -0.006011   0.001273  -0.000136   0.000013  -0.000108   0.000167
    19  H    0.442727  -0.006312   0.001325  -0.000518   0.000274   0.000606
    20  H   -0.006312   0.454866  -0.010275   0.001905   0.000160   0.000190
    21  H    0.001325  -0.010275   0.423146  -0.006477   0.001403  -0.000144
    22  H   -0.000518   0.001905  -0.006477   0.420236  -0.008981   0.000631
    23  H    0.000274   0.000160   0.001403  -0.008981   0.440283  -0.000894
    24  H    0.000606   0.000190  -0.000144   0.000631  -0.000894   0.494192
    25  H    0.000606   0.000190  -0.000144   0.000631  -0.000894  -0.080022
              25
     1  C    0.033878
     2  C    0.014828
     3  C   -0.001448
     4  C   -0.012035
     5  C   -0.012552
     6  C   -0.001587
     7  C    0.013981
     8  C    0.031003
     9  C    0.356914
    10  C    0.005462
    11  C    0.016692
    12  C   -0.059822
    13  C    0.010230
    14  C   -0.060135
    15  H   -0.000908
    16  H    0.000629
    17  H   -0.000140
    18  H    0.000167
    19  H    0.000606
    20  H    0.000190
    21  H   -0.000144
    22  H    0.000631
    23  H   -0.000894
    24  H   -0.080022
    25  H    0.494192
 Mulliken charges:
               1
     1  C    0.087076
     2  C   -0.405410
     3  C   -0.438555
     4  C    0.022724
     5  C    0.012952
     6  C   -0.441339
     7  C   -0.408648
     8  C    0.099154
     9  C   -0.329113
    10  C    0.095628
    11  C   -0.643890
    12  C    0.688553
    13  C   -0.632297
    14  C    0.673387
    15  H    0.237840
    16  H    0.257472
    17  H    0.249822
    18  H    0.222950
    19  H    0.190274
    20  H    0.221070
    21  H    0.248024
    22  H    0.255214
    23  H    0.236546
    24  H    0.250284
    25  H    0.250284
 Sum of Mulliken charges =   1.00000
 Mulliken charges with hydrogens summed into heavy atoms:
               1
     1  C    0.324917
     2  C   -0.147938
     3  C   -0.188734
     4  C    0.245674
     5  C    0.234022
     6  C   -0.193315
     7  C   -0.153434
     8  C    0.335700
     9  C    0.171454
    10  C    0.285902
    11  C   -0.643890
    12  C    0.688553
    13  C   -0.632297
    14  C    0.673387
 Electronic spatial extent (au):  <R**2>=           2855.2577
 Charge=              1.0000 electrons
 Dipole moment (field-independent basis, Debye):
    X=              0.0309    Y=             -0.3341    Z=             -0.0000  Tot=              0.3355
 Quadrupole moment (field-independent basis, Debye-Ang):
   XX=            -50.7902   YY=            -36.5907   ZZ=            -84.1406
   XY=             10.3744   XZ=              0.0000   YZ=             -0.0000
 Traceless Quadrupole moment (field-independent basis, Debye-Ang):
   XX=              6.3837   YY=             20.5831   ZZ=            -26.9668
   XY=             10.3744   XZ=              0.0000   YZ=             -0.0000
 Octapole moment (field-independent basis, Debye-Ang**2):
  XXX=             -0.5601  YYY=              2.7488  ZZZ=             -0.0000  XYY=             -1.1284
  XXY=             -5.9341  XXZ=             -0.0000  XZZ=             -2.9078  YZZ=              1.0929
  YYZ=             -0.0000  XYZ=              0.0000
 Hexadecapole moment (field-independent basis, Debye-Ang**3):
 XXXX=           -996.5714 YYYY=          -1842.4297 ZZZZ=            -99.3225 XXXY=           -350.1016
 XXXZ=              0.0000 YYYX=           -277.2011 YYYZ=             -0.0000 ZZZX=              0.0000
 ZZZY=              0.0000 XXYY=           -453.6504 XXZZ=           -243.7330 YYZZ=           -492.5464
 XXYZ=             -0.0000 YYXZ=              0.0000 ZZXY=           -184.4213
 N-N= 7.812994074352D+02 E-N=-2.798944907740D+03  KE= 5.375126621287D+02
 Symmetry A'   KE= 5.228650266984D+02
 Symmetry A"   KE= 1.464763543030D+01
 Unable to Open any file for archive entry.
 1\1\GINC-GADI-CPU-CLX-1762\SP\RM062X TD-FC\6-311++G(d,p)\C14H11(1+)\TS
 1578\02-Aug-2022\0\\#n M062X/6-311++G(d,p) TD(NStates=1) EmpiricalDisp
 ersion=GD3 SP\\SP_0\\1,1\C,0,2.484855,1.361031,0.\C,0,3.692808,0.66863
 9,0.\C,0,3.681261,-0.71953,0.\C,0,2.470906,-1.411988,0.\C,0,-2.455306,
 -1.402888,0.\C,0,-3.685861,-0.70713,0.\C,0,-3.709258,0.675689,0.\C,0,-
 2.498555,1.360431,0.\C,0,-0.00435,1.451169,0.\C,0,0.0122,-1.429089,0.\
 C,0,1.263805,0.680865,0.\C,0,1.242671,-0.731554,0.\C,0,-1.260155,0.673
 215,0.\C,0,-1.232671,-0.730354,0.\H,0,2.484871,2.444197,0.\H,0,4.62785
 3,1.209189,0.\H,0,4.610562,-1.271499,0.\H,0,2.47135,-2.494409,0.\H,0,0
 .01125,-2.510216,0.\H,0,-2.46405,-2.485559,0.\H,0,-4.607662,-1.271949,
 0.\H,0,-4.644503,1.214939,0.\H,0,-2.489071,2.443747,0.\H,0,-0.016,2.14
 5287,-0.859035\H,0,-0.016,2.145287,0.859035\\Version=ES64L-G16RevC.01\
 State=1-A'\HF=-539.7597463\RMSD=5.850e-09\PG=CS [SG(C14H9),X(H2)]\\@
 The archive entry for this job was punched.


 THE ONLY EXISTING THINGS ARE ATOMS AND EMPTY SPACE;
 ALL ELSE IS MERE OPINION. -- DEMOCRITUS OF ABDERA D. 370 B.C.
 EXPERIMENTS ARE THE ONLY MEANS OF KNOWLEDGE AT OUR DISPOSAL
 THE REST IS POETRY, IMAGINATION. -- MAX PLANCK
 Job cpu time:       0 days  0 hours 51 minutes 43.7 seconds.
 Elapsed time:       0 days  0 hours  1 minutes  4.8 seconds.
 File lengths (MBytes):  RWF=    460 Int=      0 D2E=      0 Chk=     15 Scr=      1
 Normal termination of Gaussian 16 at Tue Aug  2 12:04:39 2022.
