 Entering Gaussian System, Link 0=g16
 Initial command:
 /apps/gaussian/g16c01/g16/l1.exe "/jobfs/53796104.gadi-pbs/Gau-3668583.inp" -scrdir="/jobfs/53796104.gadi-pbs/"
 Entering Link 1 = /apps/gaussian/g16c01/g16/l1.exe PID=   3668584.
  
 Copyright (c) 1988-2019, Gaussian, Inc.  All Rights Reserved.
  
 This is part of the Gaussian(R) 16 program.  It is based on
 the Gaussian(R) 09 system (copyright 2009, Gaussian, Inc.),
 the Gaussian(R) 03 system (copyright 2003, Gaussian, Inc.),
 the Gaussian(R) 98 system (copyright 1998, Gaussian, Inc.),
 the Gaussian(R) 94 system (copyright 1995, Gaussian, Inc.),
 the Gaussian 92(TM) system (copyright 1992, Gaussian, Inc.),
 the Gaussian 90(TM) system (copyright 1990, Gaussian, Inc.),
 the Gaussian 88(TM) system (copyright 1988, Gaussian, Inc.),
 the Gaussian 86(TM) system (copyright 1986, Carnegie Mellon
 University), and the Gaussian 82(TM) system (copyright 1983,
 Carnegie Mellon University). Gaussian is a federally registered
 trademark of Gaussian, Inc.
  
 This software contains proprietary and confidential information,
 including trade secrets, belonging to Gaussian, Inc.
  
 This software is provided under written license and may be
 used, copied, transmitted, or stored only in accord with that
 written license.
  
 The following legend is applicable only to US Government
 contracts under FAR:
  
                    RESTRICTED RIGHTS LEGEND
  
 Use, reproduction and disclosure by the US Government is
 subject to restrictions as set forth in subparagraphs (a)
 and (c) of the Commercial Computer Software - Restricted
 Rights clause in FAR 52.227-19.
  
 Gaussian, Inc.
 340 Quinnipiac St., Bldg. 40, Wallingford CT 06492
  
  
 ---------------------------------------------------------------
 Warning -- This program may not be used in any manner that
 competes with the business of Gaussian, Inc. or will provide
 assistance to any competitor of Gaussian, Inc.  The licensee
 of this program is prohibited from giving any competitor of
 Gaussian, Inc. access to this program.  By using this program,
 the user acknowledges that Gaussian, Inc. is engaged in the
 business of creating and licensing software in the field of
 computational chemistry and represents and warrants to the
 licensee that it is not a competitor of Gaussian, Inc. and that
 it will not use this program in any manner prohibited above.
 ---------------------------------------------------------------
  

 Cite this work as:
 Gaussian 16, Revision C.01,
 M. J. Frisch, G. W. Trucks, H. B. Schlegel, G. E. Scuseria, 
 M. A. Robb, J. R. Cheeseman, G. Scalmani, V. Barone, 
 G. A. Petersson, H. Nakatsuji, X. Li, M. Caricato, A. V. Marenich, 
 J. Bloino, B. G. Janesko, R. Gomperts, B. Mennucci, H. P. Hratchian, 
 J. V. Ortiz, A. F. Izmaylov, J. L. Sonnenberg, D. Williams-Young, 
 F. Ding, F. Lipparini, F. Egidi, J. Goings, B. Peng, A. Petrone, 
 T. Henderson, D. Ranasinghe, V. G. Zakrzewski, J. Gao, N. Rega, 
 G. Zheng, W. Liang, M. Hada, M. Ehara, K. Toyota, R. Fukuda, 
 J. Hasegawa, M. Ishida, T. Nakajima, Y. Honda, O. Kitao, H. Nakai, 
 T. Vreven, K. Throssell, J. A. Montgomery, Jr., J. E. Peralta, 
 F. Ogliaro, M. J. Bearpark, J. J. Heyd, E. N. Brothers, K. N. Kudin, 
 V. N. Staroverov, T. A. Keith, R. Kobayashi, J. Normand, 
 K. Raghavachari, A. P. Rendell, J. C. Burant, S. S. Iyengar, 
 J. Tomasi, M. Cossi, J. M. Millam, M. Klene, C. Adamo, R. Cammi, 
 J. W. Ochterski, R. L. Martin, K. Morokuma, O. Farkas, 
 J. B. Foresman, and D. J. Fox, Gaussian, Inc., Wallingford CT, 2019.
 
 ******************************************
 Gaussian 16:  ES64L-G16RevC.01  3-Jul-2019
                 2-Aug-2022 
 ******************************************
 %NProcShared=48
 Will use up to   48 processors via shared memory.
 %mem = 190GB
 ---------------------------------------------------------------
 #n M062X/6-311++G(d,p) TD(NStates=1) EmpiricalDispersion=GD3 SP
 ---------------------------------------------------------------
 1/38=1,172=1/1;
 2/12=2,17=6,18=5,40=1/2;
 3/5=4,6=6,7=1111,11=9,25=1,30=1,74=-55,124=31/1,2,3,8;
 4//1;
 5/5=2,38=5/2;
 8/6=1,10=2,108=1/1;
 9/41=1,42=1,70=2/14;
 6/7=2,8=2,9=2,10=2/1;
 99/5=1,9=1/99;
 ------
 SP_100
 ------
 Symbolic Z-matrix:
 Charge =  1 Multiplicity = 1
 C                     2.50036   1.35893   0. 
 C                     3.70776   0.67296   0. 
 C                     3.68636  -0.71298   0. 
 C                     2.45948  -1.40571   0. 
 C                    -2.46728  -1.41026   0. 
 C                    -3.68406  -0.71918   0. 
 C                    -3.69953   0.66944   0. 
 C                    -2.49351   1.35923   0. 
 C                     0.00208   1.46327   0. 
 C                    -0.0061   -1.42964   0. 
 C                     1.26148   0.67527   0. 
 C                     1.23407  -0.72983   0. 
 C                    -1.26331   0.67909   0. 
 C                    -1.23907  -0.73043   0. 
 H                     2.49407   2.44207   0. 
 H                     4.6435    1.21144   0. 
 H                     4.60921  -1.27527   0. 
 H                     2.46505  -2.48818   0. 
 H                    -0.00563  -2.51049   0. 
 H                    -2.4687   -2.49261   0. 
 H                    -4.61066  -1.27505   0. 
 H                    -4.63518   1.20856   0. 
 H                    -2.49197   2.4423    0. 
 H                     0.008     2.14804  -0.86206 
 H                     0.008     2.14804   0.86206 
 
                          Input orientation:                          
 ---------------------------------------------------------------------
 Center     Atomic      Atomic             Coordinates (Angstroms)
 Number     Number       Type             X           Y           Z
 ---------------------------------------------------------------------
      1          6           0        2.500355    1.358931    0.000000
      2          6           0        3.707758    0.672964    0.000000
      3          6           0        3.686361   -0.712980    0.000000
      4          6           0        2.459481   -1.405713    0.000000
      5          6           0       -2.467281   -1.410263    0.000000
      6          6           0       -3.684061   -0.719180    0.000000
      7          6           0       -3.699533    0.669439    0.000000
      8          6           0       -2.493505    1.359231    0.000000
      9          6           0        0.002075    1.463269    0.000000
     10          6           0       -0.006100   -1.429639    0.000000
     11          6           0        1.261480    0.675265    0.000000
     12          6           0        1.234071   -0.729829    0.000000
     13          6           0       -1.263305    0.679090    0.000000
     14          6           0       -1.239071   -0.730429    0.000000
     15          1           0        2.494071    2.442072    0.000000
     16          1           0        4.643503    1.211439    0.000000
     17          1           0        4.609212   -1.275274    0.000000
     18          1           0        2.465050   -2.488184    0.000000
     19          1           0       -0.005625   -2.510491    0.000000
     20          1           0       -2.468700   -2.492609    0.000000
     21          1           0       -4.610662   -1.275049    0.000000
     22          1           0       -4.635178    1.208564    0.000000
     23          1           0       -2.491971    2.442297    0.000000
     24          1           0        0.008000    2.148037   -0.862060
     25          1           0        0.008000    2.148037    0.862060
 ---------------------------------------------------------------------
                    Distance matrix (angstroms):
                    1          2          3          4          5
     1  C    0.000000
     2  C    1.388659   0.000000
     3  C    2.387347   1.386109   0.000000
     4  C    2.764946   2.424684   1.408941   0.000000
     5  C    5.687341   6.516973   6.193021   4.926764   0.000000
     6  C    6.524228   7.521772   7.370425   6.181783   1.399339
     7  C    6.238110   7.407292   7.514154   6.499208   2.417355
     8  C    4.993860   6.239121   6.518037   5.672476   2.769618
     9  C    2.500458   3.789019   4.279021   3.777552   3.788787
    10  C    3.749459   4.267749   3.761365   2.465697   2.461257
    11  C    1.414995   2.446279   2.794150   2.401182   4.272363
    12  C    2.442620   2.843757   2.452348   1.399446   3.763376
    13  C    3.824568   4.971067   5.141697   4.266795   2.411422
    14  C    4.283542   5.142045   4.925463   3.759694   1.403807
    15  H    1.083159   2.145409   3.372819   3.847940   6.281361
    16  H    2.148217   1.079618   2.149304   3.408729   7.578692
    17  H    3.374361   2.146684   1.080661   2.153685   7.077780
    18  H    3.847277   3.396642   2.154751   1.082485   5.048743
    19  H    4.610028   4.891176   4.106313   2.701348   2.696340
    20  H    6.286960   6.940424   6.407172   5.046614   1.082347
    21  H    7.583166   8.543469   8.316039   7.071350   2.147642
    22  H    7.137117   8.360111   8.540512   7.560994   3.399711
    23  H    5.108522   6.447261   6.937403   6.270890   3.852639
    24  H    2.752757   4.075193   4.739083   4.402504   4.419464
    25  H    2.752757   4.075193   4.739083   4.402504   4.419464
                    6          7          8          9         10
     6  C    0.000000
     7  C    1.388705   0.000000
     8  C    2.395249   1.389358   0.000000
     9  C    4.283770   3.785772   2.497748   0.000000
    10  C    3.745951   4.248244   3.736975   2.892920   0.000000
    11  C    5.138371   4.961016   3.816769   1.485615   2.457108
    12  C    4.918144   5.128197   4.273054   2.515451   1.423994
    13  C    2.795571   2.436247   1.405697   1.488665   2.455056
    14  C    2.445016   2.830813   2.437270   2.520467   1.417432
    15  H    6.939944   6.442279   5.103769   2.677331   4.608796
    16  H    8.548427   8.360623   7.138538   4.648255   5.347345
    17  H    8.311896   8.533297   7.575566   5.359602   4.617893
    18  H    6.398511   6.926230   6.276135   4.656203   2.688327
    19  H    4.091416   4.874106   4.600467   3.973767   1.080852
    20  H    2.149919   3.393154   3.851920   4.664086   2.682220
    21  H    1.080546   2.147368   3.379613   5.364301   4.607156
    22  H    2.149609   1.079855   2.146966   4.644243   5.328084
    23  H    3.378759   2.145048   1.083067   2.679321   4.601244
    24  H    4.753461   4.083528   2.760958   1.100949   3.680097
    25  H    4.753461   4.083528   2.760958   1.100949   3.680097
                   11         12         13         14         15
    11  C    0.000000
    12  C    1.405361   0.000000
    13  C    2.524788   2.867392   0.000000
    14  C    2.868576   2.473142   1.409727   0.000000
    15  H    2.154272   3.412998   4.150419   4.899093   0.000000
    16  H    3.424261   3.923359   5.930748   6.194798   2.476795
    17  H    3.874521   3.418931   6.189184   5.873608   4.276971
    18  H    3.384670   2.146421   4.892060   4.100026   4.930341
    19  H    3.428498   2.169701   3.428584   2.165643   5.547645
    20  H    4.893840   4.100964   3.393030   2.148782   6.998584
    21  H    6.187550   5.870108   3.876011   3.415295   8.018368
    22  H    5.920725   6.181056   3.413191   3.910657   7.235173
    23  H    4.148590   4.893442   2.149074   3.411151   4.986042
    24  H    2.117408   3.244767   2.125363   3.253291   2.647669
    25  H    2.117408   3.244767   2.125363   3.253291   2.647669
                   16         17         18         19         20
    16  H    0.000000
    17  H    2.486949   0.000000
    18  H    4.293352   2.463449   0.000000
    19  H    5.955431   4.777288   2.470776   0.000000
    20  H    8.018940   7.181834   4.933752   2.463140   0.000000
    21  H    9.582390   9.219874   7.178955   4.767880   2.463829
    22  H    9.278681   9.572262   8.004947   5.938361   4.288625
    23  H    7.240856   8.015431   6.991545   5.541843   4.934961
    24  H    4.807104   5.799427   5.317404   4.737638   5.330364
    25  H    4.807104   5.799427   5.317404   4.737638   5.330364
                   21         22         23         24         25
    21  H    0.000000
    22  H    2.483734   0.000000
    23  H    4.278728   2.472940   0.000000
    24  H    5.813149   4.815066   2.660750   0.000000
    25  H    5.813149   4.815066   2.660750   1.724120   0.000000
 Stoichiometry    C14H11(1+)
 Framework group  CS[SG(C14H9),X(H2)]
 Deg. of freedom    46
 Full point group                 CS      NOp   2
 Largest Abelian subgroup         CS      NOp   2
 Largest concise Abelian subgroup CS      NOp   2
                         Standard orientation:                         
 ---------------------------------------------------------------------
 Center     Atomic      Atomic             Coordinates (Angstroms)
 Number     Number       Type             X           Y           Z
 ---------------------------------------------------------------------
      1          6           0        2.494368   -1.369737    0.000000
      2          6           0        3.704727   -0.689000    0.000000
      3          6           0        3.689326    0.697024    0.000000
      4          6           0        2.465454    1.395058    0.000000
      5          6           0       -2.461242    1.420921    0.000000
      6          6           0       -3.681000    0.735109    0.000000
      7          6           0       -3.702479   -0.653430    0.000000
      8          6           0       -2.499447   -1.348433    0.000000
      9          6           0       -0.004340   -1.463266    0.000000
     10          6           0        0.000000    1.429650    0.000000
     11          6           0        1.258462   -0.680718    0.000000
     12          6           0        1.237132    0.724482    0.000000
     13          6           0       -1.266316   -0.673621    0.000000
     14          6           0       -1.235984    0.735780    0.000000
     15          1           0        2.483398   -2.452841    0.000000
     16          1           0        4.638134   -1.231518    0.000000
     17          1           0        4.614601    1.255320    0.000000
     18          1           0        2.475706    2.477495    0.000000
     19          1           0        0.005151    2.510490    0.000000
     20          1           0       -2.457978    2.503263    0.000000
     21          1           0       -4.605188    1.294981    0.000000
     22          1           0       -4.640448   -1.188503    0.000000
     23          1           0       -2.502598   -2.431496    0.000000
     24          1           0       -0.001377   -2.148054    0.862060
     25          1           0       -0.001377   -2.148054   -0.862060
 ---------------------------------------------------------------------
 Rotational constants (GHZ):           2.1329825           0.4441423           0.3684015
 Standard basis: 6-311++G(d,p) (5D, 7F)
 There are   299 symmetry adapted cartesian basis functions of A'  symmetry.
 There are   100 symmetry adapted cartesian basis functions of A"  symmetry.
 There are   285 symmetry adapted basis functions of A'  symmetry.
 There are   100 symmetry adapted basis functions of A"  symmetry.
   385 basis functions,   603 primitive gaussians,   399 cartesian basis functions
    47 alpha electrons       47 beta electrons
       nuclear repulsion energy       780.7507728186 Hartrees.
 NAtoms=   25 NActive=   25 NUniq=   24 SFac= 1.09D+00 NAtFMM=   60 NAOKFM=F Big=F
 Integral buffers will be    131072 words long.
 Regular integral format.
 Two-electron integral symmetry is turned on.
 Nuclear repulsion after empirical dispersion term =      780.7497931896 Hartrees.
 One-electron integrals computed using PRISM.
 NBasis=   385 RedAO= T EigKep=  1.14D-06  NBF=   285   100
 NBsUse=   379 1.00D-06 EigRej=  8.45D-07 NBFU=   279   100
 ExpMin= 3.60D-02 ExpMax= 4.56D+03 ExpMxC= 6.82D+02 IAcc=3 IRadAn=         5 AccDes= 0.00D+00
 Harris functional with IExCor= 1009 and IRadAn=       5 diagonalized for initial guess.
 HarFok:  IExCor= 1009 AccDes= 0.00D+00 IRadAn=         5 IDoV= 1 UseB2=F ITyADJ=14
 ICtDFT=  3500011 ScaDFX=  1.000000  1.000000  1.000000  1.000000
 FoFCou: FMM=F IPFlag=           0 FMFlag=      100000 FMFlg1=           0
         NFxFlg=           0 DoJE=T BraDBF=F KetDBF=T FulRan=T
         wScrn=  0.000000 ICntrl=       500 IOpCl=  0 I1Cent=   200000004 NGrid=           0
         NMat0=    1 NMatS0=      1 NMatT0=    0 NMatD0=    1 NMtDS0=    0 NMtDT0=    0
 Petite list used in FoFCou.
 Initial guess orbital symmetries:
       Occupied  (A') (A') (A') (A') (A') (A') (A') (A') (A') (A')
                 (A') (A') (A') (A') (A') (A') (A') (A') (A') (A')
                 (A') (A') (A') (A') (A') (A') (A') (A') (A') (A')
                 (A') (A') (A") (A') (A') (A') (A') (A') (A') (A")
                 (A") (A') (A') (A") (A") (A") (A")
       Virtual   (A") (A") (A") (A") (A") (A') (A') (A') (A') (A")
                 (A") (A') (A') (A') (A") (A') (A') (A') (A') (A")
                 (A') (A") (A') (A') (A') (A") (A') (A") (A') (A')
                 (A') (A') (A') (A') (A") (A') (A") (A') (A') (A")
                 (A') (A') (A') (A") (A') (A') (A') (A') (A') (A")
                 (A') (A') (A") (A") (A') (A') (A') (A") (A") (A')
                 (A') (A') (A') (A') (A') (A') (A") (A') (A') (A")
                 (A') (A') (A') (A') (A') (A') (A') (A') (A') (A')
                 (A') (A') (A') (A') (A') (A') (A') (A') (A') (A')
                 (A') (A') (A') (A') (A') (A') (A') (A") (A') (A")
                 (A') (A') (A") (A") (A') (A") (A') (A") (A') (A")
                 (A") (A') (A') (A') (A") (A') (A') (A") (A') (A")
                 (A") (A") (A') (A') (A') (A") (A') (A') (A') (A")
                 (A') (A') (A') (A') (A') (A') (A") (A') (A') (A')
                 (A') (A') (A') (A') (A') (A') (A') (A') (A') (A")
                 (A') (A") (A") (A") (A') (A') (A') (A") (A") (A')
                 (A") (A') (A") (A") (A") (A') (A') (A') (A') (A')
                 (A') (A") (A") (A') (A') (A') (A') (A') (A') (A")
                 (A') (A') (A') (A') (A') (A") (A") (A') (A") (A")
                 (A') (A") (A') (A") (A') (A') (A') (A") (A') (A')
                 (A") (A") (A") (A') (A') (A") (A') (A") (A') (A')
                 (A") (A") (A') (A") (A') (A") (A') (A') (A') (A')
                 (A") (A') (A') (A') (A") (A') (A') (A') (A") (A")
                 (A') (A') (A') (A") (A') (A') (A") (A') (A") (A')
                 (A") (A') (A') (A') (A') (A") (A') (A') (A') (A")
                 (A') (A') (A") (A') (A") (A') (A') (A") (A') (A')
                 (A') (A") (A') (A") (A') (A') (A') (A") (A') (A")
                 (A') (A') (A') (A') (A") (A') (A") (A') (A") (A')
                 (A") (A') (A") (A") (A") (A') (A') (A') (A') (A')
                 (A') (A') (A') (A') (A') (A') (A') (A') (A') (A')
                 (A') (A') (A') (A') (A') (A") (A') (A') (A') (A')
                 (A') (A') (A') (A') (A') (A') (A') (A') (A') (A')
                 (A') (A') (A') (A') (A') (A') (A') (A') (A') (A')
                 (A') (A')
 The electronic state of the initial guess is 1-A'.
 Requested convergence on RMS density matrix=1.00D-08 within 128 cycles.
 Requested convergence on MAX density matrix=1.00D-06.
 Requested convergence on             energy=1.00D-06.
 No special actions if energy rises.
 SCF Done:  E(RM062X) =  -539.760157829     A.U. after   15 cycles
            NFock= 15  Conv=0.45D-08     -V/T= 2.0042
 DoSCS=F DFT=T ScalE2(SS,OS)=  1.000000  1.000000
 ExpMin= 3.60D-02 ExpMax= 4.56D+03 ExpMxC= 6.82D+02 IAcc=3 IRadAn=         5 AccDes= 0.00D+00
 HarFok:  IExCor=  205 AccDes= 0.00D+00 IRadAn=         5 IDoV=-2 UseB2=F ITyADJ=14
 ICtDFT= 12500011 ScaDFX=  1.000000  1.000000  1.000000  1.000000
 Range of M.O.s used for correlation:    15   379
 NBasis=   385 NAE=    47 NBE=    47 NFC=    14 NFV=     0
 NROrb=    365 NOA=    33 NOB=    33 NVA=   332 NVB=   332

 **** Warning!!: The largest alpha MO coefficient is  0.14450219D+03

 Orbital symmetries:
       Occupied  (A') (A') (A') (A') (A') (A') (A') (A') (A') (A')
                 (A') (A') (A') (A') (A') (A') (A') (A') (A') (A')
                 (A') (A') (A') (A') (A') (A') (A') (A') (A') (A')
                 (A') (A') (A") (A') (A') (A') (A') (A") (A") (A')
                 (A') (A') (A') (A") (A") (A") (A")
       Virtual   (A") (A") (A") (A") (A') (A') (A') (A') (A") (A')
                 (A') (A") (A') (A') (A") (A') (A") (A') (A') (A')
                 (A") (A") (A') (A') (A') (A") (A') (A") (A') (A')
                 (A") (A') (A") (A') (A') (A') (A') (A') (A") (A')
                 (A") (A') (A') (A") (A") (A') (A") (A') (A") (A')
                 (A') (A') (A') (A') (A') (A") (A') (A') (A') (A')
                 (A') (A") (A') (A') (A') (A') (A") (A') (A') (A')
                 (A') (A') (A') (A') (A') (A') (A') (A') (A') (A')
                 (A') (A') (A') (A') (A') (A') (A') (A') (A') (A')
                 (A') (A') (A') (A') (A") (A') (A") (A") (A') (A")
                 (A') (A') (A') (A') (A") (A") (A') (A") (A") (A')
                 (A') (A') (A") (A') (A') (A") (A') (A") (A') (A")
                 (A") (A') (A") (A') (A') (A') (A") (A') (A') (A')
                 (A') (A') (A') (A') (A') (A') (A') (A') (A') (A')
                 (A') (A') (A') (A") (A') (A') (A') (A') (A') (A')
                 (A') (A') (A") (A') (A") (A') (A") (A") (A') (A")
                 (A") (A') (A') (A") (A") (A") (A') (A") (A') (A')
                 (A') (A') (A') (A") (A") (A') (A') (A') (A') (A")
                 (A') (A') (A') (A") (A') (A") (A') (A') (A") (A")
                 (A") (A') (A') (A") (A") (A') (A') (A') (A') (A')
                 (A") (A") (A") (A') (A') (A") (A') (A") (A') (A')
                 (A') (A") (A') (A") (A") (A') (A") (A') (A') (A")
                 (A') (A') (A') (A') (A") (A') (A') (A') (A") (A")
                 (A') (A') (A') (A") (A') (A') (A') (A") (A") (A')
                 (A") (A') (A') (A") (A') (A') (A') (A') (A') (A')
                 (A') (A") (A') (A') (A') (A") (A") (A") (A') (A')
                 (A') (A') (A') (A') (A') (A') (A") (A') (A') (A')
                 (A') (A") (A') (A") (A") (A") (A') (A") (A') (A")
                 (A') (A") (A") (A') (A") (A") (A') (A') (A') (A')
                 (A') (A') (A') (A') (A') (A') (A') (A') (A') (A')
                 (A') (A') (A') (A') (A") (A') (A') (A') (A') (A')
                 (A') (A') (A') (A') (A') (A') (A') (A') (A') (A')
                 (A') (A') (A') (A') (A') (A') (A') (A') (A') (A')
                 (A') (A')
     4 initial guesses have been made.
 Convergence on wavefunction:    0.001000000000000
 Iteration     1 Dimension     4 NMult     0 NNew      4
 CISAX will form     4 AO SS matrices at one time.
 Iteration     2 Dimension     6 NMult     4 NNew      2
 Iteration     3 Dimension     8 NMult     6 NNew      2
 Iteration     4 Dimension    10 NMult     8 NNew      2
 Iteration     5 Dimension    12 NMult    10 NNew      2
 Iteration     6 Dimension    14 NMult    12 NNew      2
 ***********************************************************************
 Excited states from <AA,BB:AA,BB> singles matrix:
 ***********************************************************************
 
 Ground to excited state transition densities written to RWF  633
 Ground to excited state transition electric dipole moments (Au):
       state          X           Y           Z        Dip. S.      Osc.
         1         0.0030     -0.6355      0.0000      0.4038      0.0279
 Ground to excited state transition velocity dipole moments (Au):
       state          X           Y           Z        Dip. S.      Osc.
         1         0.0005      0.0735     -0.0000      0.0054      0.0348
 Ground to excited state transition magnetic dipole moments (Au):
       state          X           Y           Z
         1         0.0000     -0.0000      0.0490
 Ground to excited state transition velocity quadrupole moments (Au):
       state          XX          YY          ZZ          XY          XZ          YZ
         1         0.2983      0.0353     -0.0098      0.0186      0.0000      0.0000
 <0|del|b> * <b|rxdel|0> + <0|del|b> * <b|delr+rdel|0>
 Rotatory Strengths (R) in cgs (10**-40 erg-esu-cm/Gauss)
       state          XX          YY          ZZ    R(velocity)    E-M Angle
         1        -0.0000     -0.0000      0.0000     -0.0000       90.00
 1/2[<0|r|b>*<b|rxdel|0> + (<0|rxdel|b>*<b|r|0>)*]
 Rotatory Strengths (R) in cgs (10**-40 erg-esu-cm/Gauss)
       state          XX          YY          ZZ     R(length)
         1        -0.0000     -0.0000     -0.0000     -0.0000
  1/2[<0|del|b>*<b|r|0> + (<0|r|b>*<b|del|0>)*] (Au)
       state          X           Y           Z        Dip. S.   Osc.(frdel)
         1         0.0000     -0.0467     -0.0000      0.0467      0.0311

 Excitation energies and oscillator strengths:
 
 Excited State   1:      Singlet-A'     2.8199 eV  439.68 nm  f=0.0279  <S**2>=0.000
      47 -> 48         0.70422
 This state for optimization and/or second-order correction.
 Total Energy, E(TD-HF/TD-DFT) =  -539.656528930    
 Copying the excited state density for this state as the 1-particle RhoCI density.
 SavETr:  write IOETrn=   770 NScale= 10 NData=  16 NLR=1 NState=    1 LETran=      28.

 **********************************************************************

            Population analysis using the SCF Density.

 **********************************************************************

 Orbital symmetries:
       Occupied  (A') (A') (A') (A') (A') (A') (A') (A') (A') (A')
                 (A') (A') (A') (A') (A') (A') (A') (A') (A') (A')
                 (A') (A') (A') (A') (A') (A') (A') (A') (A') (A')
                 (A') (A') (A") (A') (A') (A') (A') (A") (A") (A')
                 (A') (A') (A') (A") (A") (A") (A")
       Virtual   (A") (A") (A") (A") (A') (A') (A') (A') (A") (A')
                 (A') (A") (A') (A') (A") (A') (A") (A') (A') (A')
                 (A") (A") (A') (A') (A') (A") (A') (A") (A') (A')
                 (A") (A') (A") (A') (A') (A') (A') (A') (A") (A')
                 (A") (A') (A') (A") (A") (A') (A") (A') (A") (A')
                 (A') (A') (A') (A') (A') (A") (A') (A') (A') (A')
                 (A') (A") (A') (A') (A') (A') (A") (A') (A') (A')
                 (A') (A') (A') (A') (A') (A') (A') (A') (A') (A')
                 (A') (A') (A') (A') (A') (A') (A') (A') (A') (A')
                 (A') (A') (A') (A') (A") (A') (A") (A") (A') (A")
                 (A') (A') (A') (A') (A") (A") (A') (A") (A") (A')
                 (A') (A') (A") (A') (A') (A") (A') (A") (A') (A")
                 (A") (A') (A") (A') (A') (A') (A") (A') (A') (A')
                 (A') (A') (A') (A') (A') (A') (A') (A') (A') (A')
                 (A') (A') (A') (A") (A') (A') (A') (A') (A') (A')
                 (A') (A') (A") (A') (A") (A') (A") (A") (A') (A")
                 (A") (A') (A') (A") (A") (A") (A') (A") (A') (A')
                 (A') (A') (A') (A") (A") (A') (A') (A') (A') (A")
                 (A') (A') (A') (A") (A') (A") (A') (A') (A") (A")
                 (A") (A') (A') (A") (A") (A') (A') (A') (A') (A')
                 (A") (A") (A") (A') (A') (A") (A') (A") (A') (A')
                 (A') (A") (A') (A") (A") (A') (A") (A') (A') (A")
                 (A') (A') (A') (A') (A") (A') (A') (A') (A") (A")
                 (A') (A') (A') (A") (A') (A') (A') (A") (A") (A')
                 (A") (A') (A') (A") (A') (A') (A') (A') (A') (A')
                 (A') (A") (A') (A') (A') (A") (A") (A") (A') (A')
                 (A') (A') (A') (A') (A') (A') (A") (A') (A') (A')
                 (A') (A") (A') (A") (A") (A") (A') (A") (A') (A")
                 (A') (A") (A") (A') (A") (A") (A') (A') (A') (A')
                 (A') (A') (A') (A') (A') (A') (A') (A') (A') (A')
                 (A') (A') (A') (A') (A") (A') (A') (A') (A') (A')
                 (A') (A') (A') (A') (A') (A') (A') (A') (A') (A')
                 (A') (A') (A') (A') (A') (A') (A') (A') (A') (A')
                 (A') (A')
 The electronic state is 1-A'.
 Alpha  occ. eigenvalues --  -10.77684 -10.73372 -10.73227 -10.72513 -10.72396
 Alpha  occ. eigenvalues --  -10.71442 -10.71305 -10.71124 -10.71012 -10.70867
 Alpha  occ. eigenvalues --  -10.70007 -10.69941 -10.69686 -10.69604  -1.16387
 Alpha  occ. eigenvalues --   -1.12428  -1.06946  -1.05638  -1.01312  -1.00122
 Alpha  occ. eigenvalues --   -0.95786  -0.91033  -0.86411  -0.85880  -0.83798
 Alpha  occ. eigenvalues --   -0.78389  -0.75976  -0.74411  -0.69591  -0.69234
 Alpha  occ. eigenvalues --   -0.68481  -0.68167  -0.68121  -0.64737  -0.64257
 Alpha  occ. eigenvalues --   -0.62973  -0.61856  -0.60082  -0.59640  -0.59106
 Alpha  occ. eigenvalues --   -0.56868  -0.55230  -0.54789  -0.52445  -0.46606
 Alpha  occ. eigenvalues --   -0.46059  -0.44517
 Alpha virt. eigenvalues --   -0.26111  -0.14663  -0.14100  -0.12777  -0.11176
 Alpha virt. eigenvalues --   -0.10079  -0.09231  -0.07982  -0.07981  -0.07474
 Alpha virt. eigenvalues --   -0.07196  -0.07141  -0.05646  -0.05578  -0.05328
 Alpha virt. eigenvalues --   -0.03826  -0.03644  -0.03278  -0.03137  -0.02168
 Alpha virt. eigenvalues --   -0.01364  -0.00929   0.00202   0.00592   0.00629
 Alpha virt. eigenvalues --    0.01054   0.01516   0.01949   0.02209   0.02305
 Alpha virt. eigenvalues --    0.02449   0.02666   0.02740   0.03359   0.03405
 Alpha virt. eigenvalues --    0.04244   0.04496   0.04701   0.05036   0.05367
 Alpha virt. eigenvalues --    0.06039   0.06286   0.06592   0.07024   0.07264
 Alpha virt. eigenvalues --    0.07888   0.08153   0.08349   0.08517   0.08928
 Alpha virt. eigenvalues --    0.09536   0.09558   0.10019   0.10840   0.10971
 Alpha virt. eigenvalues --    0.11126   0.12149   0.12234   0.12898   0.12943
 Alpha virt. eigenvalues --    0.13402   0.13527   0.13999   0.14395   0.16147
 Alpha virt. eigenvalues --    0.16274   0.16434   0.17343   0.17610   0.17793
 Alpha virt. eigenvalues --    0.18105   0.19103   0.19246   0.19610   0.19711
 Alpha virt. eigenvalues --    0.21498   0.21574   0.22709   0.23081   0.23532
 Alpha virt. eigenvalues --    0.23884   0.24620   0.25469   0.26919   0.27586
 Alpha virt. eigenvalues --    0.28812   0.29270   0.29815   0.31333   0.35746
 Alpha virt. eigenvalues --    0.36383   0.38192   0.39268   0.41141   0.41406
 Alpha virt. eigenvalues --    0.41912   0.42240   0.42986   0.43628   0.44289
 Alpha virt. eigenvalues --    0.44960   0.45008   0.46079   0.46157   0.48009
 Alpha virt. eigenvalues --    0.48520   0.48820   0.49048   0.50409   0.51004
 Alpha virt. eigenvalues --    0.51457   0.51645   0.52119   0.52847   0.53965
 Alpha virt. eigenvalues --    0.54094   0.54589   0.55686   0.55756   0.57644
 Alpha virt. eigenvalues --    0.58237   0.58808   0.61421   0.62245   0.62327
 Alpha virt. eigenvalues --    0.63191   0.63483   0.64864   0.65138   0.67119
 Alpha virt. eigenvalues --    0.70453   0.70661   0.70982   0.72382   0.72844
 Alpha virt. eigenvalues --    0.75791   0.76003   0.76249   0.76901   0.77086
 Alpha virt. eigenvalues --    0.77813   0.77830   0.78185   0.79912   0.80378
 Alpha virt. eigenvalues --    0.81197   0.81688   0.82146   0.82997   0.85132
 Alpha virt. eigenvalues --    0.87118   0.88096   0.88542   0.89141   0.90380
 Alpha virt. eigenvalues --    0.90983   0.91276   0.93187   0.94602   0.96405
 Alpha virt. eigenvalues --    0.96653   1.00429   1.01235   1.01705   1.02699
 Alpha virt. eigenvalues --    1.03185   1.03769   1.04728   1.05479   1.08720
 Alpha virt. eigenvalues --    1.19514   1.23294   1.24002   1.25186   1.27837
 Alpha virt. eigenvalues --    1.29776   1.31692   1.34395   1.35726   1.35987
 Alpha virt. eigenvalues --    1.39285   1.40126   1.40908   1.43111   1.43397
 Alpha virt. eigenvalues --    1.43501   1.44998   1.45426   1.46329   1.46661
 Alpha virt. eigenvalues --    1.47637   1.47960   1.51623   1.53592   1.55445
 Alpha virt. eigenvalues --    1.55841   1.56318   1.56611   1.57715   1.61354
 Alpha virt. eigenvalues --    1.63298   1.63532   1.63816   1.66055   1.68191
 Alpha virt. eigenvalues --    1.68359   1.68749   1.69776   1.74304   1.75948
 Alpha virt. eigenvalues --    1.77084   1.78044   1.79813   1.80064   1.80657
 Alpha virt. eigenvalues --    1.83097   1.83224   1.83530   1.83840   1.84210
 Alpha virt. eigenvalues --    1.84240   1.85870   1.86045   1.88194   1.91350
 Alpha virt. eigenvalues --    1.92010   1.94083   1.95135   1.97663   1.98104
 Alpha virt. eigenvalues --    1.99667   2.02094   2.04306   2.07259   2.11779
 Alpha virt. eigenvalues --    2.11978   2.14094   2.15227   2.18979   2.21075
 Alpha virt. eigenvalues --    2.22779   2.28746   2.29839   2.34523   2.34881
 Alpha virt. eigenvalues --    2.36216   2.38681   2.39591   2.42321   2.45119
 Alpha virt. eigenvalues --    2.46100   2.46119   2.49297   2.52839   2.53765
 Alpha virt. eigenvalues --    2.53998   2.56960   2.57821   2.58303   2.59603
 Alpha virt. eigenvalues --    2.59801   2.61559   2.62081   2.63491   2.63713
 Alpha virt. eigenvalues --    2.64763   2.65061   2.65212   2.65287   2.67728
 Alpha virt. eigenvalues --    2.68372   2.70919   2.71412   2.73326   2.74796
 Alpha virt. eigenvalues --    2.76305   2.78455   2.79666   2.82597   2.83021
 Alpha virt. eigenvalues --    2.84825   2.86171   2.92057   2.97046   2.99467
 Alpha virt. eigenvalues --    2.99997   3.04622   3.10769   3.11215   3.12977
 Alpha virt. eigenvalues --    3.20737   3.22845   3.26503   3.28088   3.30707
 Alpha virt. eigenvalues --    3.32793   3.33546   3.43419   3.45873   3.46273
 Alpha virt. eigenvalues --    3.48238   3.49924   3.56257   3.66485   3.66918
 Alpha virt. eigenvalues --    3.67345   3.94185   3.94565   3.95223   3.96152
 Alpha virt. eigenvalues --    4.03975   4.06801   4.07330   4.12568   4.35157
 Alpha virt. eigenvalues --    4.60675   4.69659   4.71530  23.45354  23.60378
 Alpha virt. eigenvalues --   23.82043  23.84937  23.87550  23.89095  23.90615
 Alpha virt. eigenvalues --   23.92344  23.97309  23.99190  23.99872  24.00413
 Alpha virt. eigenvalues --   24.10476  24.10618
          Condensed to atoms (all electrons):
               1          2          3          4          5          6
     1  C    8.748536   0.156293  -0.495219   2.166624  -0.069403  -0.098570
     2  C    0.156293   7.221619   0.319054  -1.167253  -0.002307  -0.013712
     3  C   -0.495219   0.319054   6.594897   0.795773  -0.131058   0.016951
     4  C    2.166624  -1.167253   0.795773  11.191753  -0.439110  -0.126970
     5  C   -0.069403  -0.002307  -0.131058  -0.439110  11.311184   0.779675
     6  C   -0.098570  -0.013712   0.016951  -0.126970   0.779675   6.595515
     7  C   -0.007257  -0.001041  -0.013985  -0.010023  -1.137325   0.344514
     8  C    0.398945  -0.011715  -0.095798  -0.056627   2.095672  -0.533860
     9  C   -1.058543  -0.829321   0.303643  -0.191433  -0.128141   0.303696
    10  C   -1.350121   0.280266  -0.358151  -2.571275  -2.629428  -0.334090
    11  C    0.338277  -0.882414   1.006255  -0.345033  -1.526494  -0.177377
    12  C   -2.423338   1.476397  -1.447671  -1.769467  -0.359390  -0.185662
    13  C    0.283871  -0.251727  -0.161335  -1.501296  -0.348095   0.975564
    14  C   -1.092457  -0.166559  -0.209850  -0.327331  -1.770962  -1.423906
    15  H    0.371226  -0.110193  -0.000261   0.029042   0.005214   0.001088
    16  H   -0.018866   0.380057  -0.017241   0.012893  -0.001492  -0.000325
    17  H   -0.028486  -0.014488   0.374619  -0.069242   0.000342   0.000405
    18  H    0.052896   0.002607  -0.084427   0.462731   0.004791  -0.005253
    19  H   -0.046929  -0.007920   0.052050  -0.067936  -0.070660   0.051977
    20  H    0.006858   0.002174  -0.005220   0.004782   0.464527  -0.084319
    21  H   -0.001318  -0.000399   0.000409   0.000299  -0.069801   0.376541
    22  H    0.000799   0.000379  -0.000333  -0.001546   0.013845  -0.018540
    23  H    0.005252  -0.002612   0.001123   0.005491   0.028393  -0.000911
    24  H    0.033808   0.014561  -0.001684  -0.012205  -0.011933  -0.001614
    25  H    0.033808   0.014561  -0.001684  -0.012205  -0.011933  -0.001614
               7          8          9         10         11         12
     1  C   -0.007257   0.398945  -1.058543  -1.350121   0.338277  -2.423338
     2  C   -0.001041  -0.011715  -0.829321   0.280266  -0.882414   1.476397
     3  C   -0.013985  -0.095798   0.303643  -0.358151   1.006255  -1.447671
     4  C   -0.010023  -0.056627  -0.191433  -2.571275  -0.345033  -1.769467
     5  C   -1.137325   2.095672  -0.128141  -2.629428  -1.526494  -0.359390
     6  C    0.344514  -0.533860   0.303696  -0.334090  -0.177377  -0.185662
     7  C    7.219599   0.232684  -0.841177   0.254107  -0.238253  -0.197578
     8  C    0.232684   8.655578  -1.060272  -1.324947   0.269069  -1.103546
     9  C   -0.841177  -1.060272   9.506762   0.271653   1.416178  -1.813568
    10  C    0.254107  -1.324947   0.271653   9.032266  -0.325151   2.418964
    11  C   -0.238253   0.269069   1.416178  -0.325151  14.255519  -3.623818
    12  C   -0.197578  -1.103546  -1.813568   2.418964  -3.623818  16.030489
    13  C   -0.855214   0.344514   1.435772  -0.303121   1.116564  -4.727406
    14  C    1.376481  -2.309750  -1.866734   2.408177  -4.711584   3.240511
    15  H   -0.002524   0.005506   0.090937  -0.009831  -0.031139  -0.026404
    16  H    0.000367   0.000711   0.002344  -0.008633   0.023664  -0.030299
    17  H   -0.000405  -0.001294  -0.005501   0.020064  -0.025957   0.094204
    18  H    0.002160   0.006860  -0.024276   0.008966  -0.003248  -0.060282
    19  H   -0.008043  -0.046346   0.074519   0.421455   0.077871  -0.063127
    20  H    0.002893   0.051927  -0.023788   0.007893  -0.012083  -0.016810
    21  H   -0.016640  -0.026666  -0.005279   0.020063  -0.006210   0.005332
    22  H    0.381434  -0.019409   0.002008  -0.008978   0.003036  -0.009207
    23  H   -0.109873   0.370682   0.089894  -0.009372   0.000675   0.006477
    24  H    0.014984   0.035150   0.353885   0.004969   0.012459  -0.060849
    25  H    0.014984   0.035150   0.353885   0.004969   0.012459  -0.060849
              13         14         15         16         17         18
     1  C    0.283871  -1.092457   0.371226  -0.018866  -0.028486   0.052896
     2  C   -0.251727  -0.166559  -0.110193   0.380057  -0.014488   0.002607
     3  C   -0.161335  -0.209850  -0.000261  -0.017241   0.374619  -0.084427
     4  C   -1.501296  -0.327331   0.029042   0.012893  -0.069242   0.462731
     5  C   -0.348095  -1.770962   0.005214  -0.001492   0.000342   0.004791
     6  C    0.975564  -1.423906   0.001088  -0.000325   0.000405  -0.005253
     7  C   -0.855214   1.376481  -0.002524   0.000367  -0.000405   0.002160
     8  C    0.344514  -2.309750   0.005506   0.000711  -0.001294   0.006860
     9  C    1.435772  -1.866734   0.090937   0.002344  -0.005501  -0.024276
    10  C   -0.303121   2.408177  -0.009831  -0.008633   0.020064   0.008966
    11  C    1.116564  -4.711584  -0.031139   0.023664  -0.025957  -0.003248
    12  C   -4.727406   3.240511  -0.026404  -0.030299   0.094204  -0.060282
    13  C   14.298138  -3.733993   0.002182   0.002890  -0.006193  -0.012029
    14  C   -3.733993  16.095422   0.006029  -0.008811   0.005332  -0.014984
    15  H    0.002182   0.006029   0.440519  -0.009127   0.001446   0.000123
    16  H    0.002890  -0.008811  -0.009127   0.420286  -0.006537   0.001937
    17  H   -0.006193   0.005332   0.001446  -0.006537   0.422829  -0.010439
    18  H   -0.012029  -0.014984   0.000123   0.001937  -0.010439   0.455305
    19  H    0.077293  -0.068677   0.000318  -0.000547   0.001402  -0.006454
    20  H   -0.004163  -0.057790  -0.000114   0.000015  -0.000142   0.001233
    21  H   -0.025784   0.092631   0.000014  -0.000007   0.000011  -0.000149
    22  H    0.023520  -0.029831  -0.000129   0.000008  -0.000007   0.000017
    23  H   -0.030526  -0.023098   0.000537  -0.000128   0.000015  -0.000117
    24  H    0.015578  -0.060823  -0.000933   0.000637  -0.000145   0.000199
    25  H    0.015578  -0.060823  -0.000933   0.000637  -0.000145   0.000199
              19         20         21         22         23         24
     1  C   -0.046929   0.006858  -0.001318   0.000799   0.005252   0.033808
     2  C   -0.007920   0.002174  -0.000399   0.000379  -0.002612   0.014561
     3  C    0.052050  -0.005220   0.000409  -0.000333   0.001123  -0.001684
     4  C   -0.067936   0.004782   0.000299  -0.001546   0.005491  -0.012205
     5  C   -0.070660   0.464527  -0.069801   0.013845   0.028393  -0.011933
     6  C    0.051977  -0.084319   0.376541  -0.018540  -0.000911  -0.001614
     7  C   -0.008043   0.002893  -0.016640   0.381434  -0.109873   0.014984
     8  C   -0.046346   0.051927  -0.026666  -0.019409   0.370682   0.035150
     9  C    0.074519  -0.023788  -0.005279   0.002008   0.089894   0.353885
    10  C    0.421455   0.007893   0.020063  -0.008978  -0.009372   0.004969
    11  C    0.077871  -0.012083  -0.006210   0.003036   0.000675   0.012459
    12  C   -0.063127  -0.016810   0.005332  -0.009207   0.006477  -0.060849
    13  C    0.077293  -0.004163  -0.025784   0.023520  -0.030526   0.015578
    14  C   -0.068677  -0.057790   0.092631  -0.029831  -0.023098  -0.060823
    15  H    0.000318  -0.000114   0.000014  -0.000129   0.000537  -0.000933
    16  H   -0.000547   0.000015  -0.000007   0.000008  -0.000128   0.000637
    17  H    0.001402  -0.000142   0.000011  -0.000007   0.000015  -0.000145
    18  H   -0.006454   0.001233  -0.000149   0.000017  -0.000117   0.000199
    19  H    0.443014  -0.006297   0.001486  -0.000565   0.000344   0.000555
    20  H   -0.006297   0.453821  -0.010400   0.001948   0.000149   0.000187
    21  H    0.001486  -0.010400   0.422140  -0.006699   0.001509  -0.000143
    22  H   -0.000565   0.001948  -0.006699   0.419402  -0.009127   0.000636
    23  H    0.000344   0.000149   0.001509  -0.009127   0.439057  -0.000942
    24  H    0.000555   0.000187  -0.000143   0.000636  -0.000942   0.492459
    25  H    0.000555   0.000187  -0.000143   0.000636  -0.000942  -0.077818
              25
     1  C    0.033808
     2  C    0.014561
     3  C   -0.001684
     4  C   -0.012205
     5  C   -0.011933
     6  C   -0.001614
     7  C    0.014984
     8  C    0.035150
     9  C    0.353885
    10  C    0.004969
    11  C    0.012459
    12  C   -0.060849
    13  C    0.015578
    14  C   -0.060823
    15  H   -0.000933
    16  H    0.000637
    17  H   -0.000145
    18  H    0.000199
    19  H    0.000555
    20  H    0.000187
    21  H   -0.000143
    22  H    0.000636
    23  H   -0.000942
    24  H   -0.077818
    25  H    0.492459
 Mulliken charges:
               1
     1  C    0.093313
     2  C   -0.406309
     3  C   -0.440858
     4  C   -0.000436
     5  C    0.003890
     6  C   -0.439206
     7  C   -0.404869
     8  C    0.087782
     9  C   -0.357145
    10  C    0.079284
    11  C   -0.623264
    12  C    0.706898
    13  C   -0.630582
    14  C    0.713382
    15  H    0.237406
    16  H    0.255564
    17  H    0.248312
    18  H    0.221638
    19  H    0.190662
    20  H    0.222532
    21  H    0.249204
    22  H    0.256703
    23  H    0.238052
    24  H    0.249023
    25  H    0.249023
 Sum of Mulliken charges =   1.00000
 Mulliken charges with hydrogens summed into heavy atoms:
               1
     1  C    0.330720
     2  C   -0.150745
     3  C   -0.192545
     4  C    0.221202
     5  C    0.226422
     6  C   -0.190001
     7  C   -0.148166
     8  C    0.325834
     9  C    0.140901
    10  C    0.269946
    11  C   -0.623264
    12  C    0.706898
    13  C   -0.630582
    14  C    0.713382
 Electronic spatial extent (au):  <R**2>=           2858.9569
 Charge=              1.0000 electrons
 Dipole moment (field-independent basis, Debye):
    X=             -0.1393    Y=              0.1958    Z=             -0.0000  Tot=              0.2403
 Quadrupole moment (field-independent basis, Debye-Ang):
   XX=            -31.0645   YY=            -56.2764   ZZ=            -84.1437
   XY=             -0.1768   XZ=             -0.0000   YZ=              0.0000
 Traceless Quadrupole moment (field-independent basis, Debye-Ang):
   XX=             26.0970   YY=              0.8851   ZZ=            -26.9822
   XY=             -0.1768   XZ=             -0.0000   YZ=              0.0000
 Octapole moment (field-independent basis, Debye-Ang**2):
  XXX=             -1.5174  YYY=              5.3074  ZZZ=             -0.0000  XYY=             -0.2840
  XXY=             -5.1786  XXZ=              0.0000  XZZ=             -0.2172  YZZ=             -3.1270
  YYZ=             -0.0000  XYZ=             -0.0000
 Hexadecapole moment (field-independent basis, Debye-Ang**3):
 XXXX=          -2123.3593 YYYY=           -610.3368 ZZZZ=            -99.3536 XXXY=              3.1113
 XXXZ=              0.0000 YYYX=              4.8801 YYYZ=              0.0000 ZZZX=             -0.0000
 ZZZY=              0.0000 XXYY=           -508.3343 XXZZ=           -591.4046 YYZZ=           -145.8217
 XXYZ=             -0.0000 YYXZ=              0.0000 ZZXY=              2.3816
 N-N= 7.807497931896D+02 E-N=-2.797826292225D+03  KE= 5.374824613861D+02
 Symmetry A'   KE= 5.228351475440D+02
 Symmetry A"   KE= 1.464731384206D+01
 Unable to Open any file for archive entry.
 1\1\GINC-GADI-CPU-CLX-1762\SP\RM062X TD-FC\6-311++G(d,p)\C14H11(1+)\TS
 1578\02-Aug-2022\0\\#n M062X/6-311++G(d,p) TD(NStates=1) EmpiricalDisp
 ersion=GD3 SP\\SP_100\\1,1\C,0,2.500355,1.358931,0.\C,0,3.707758,0.672
 964,0.\C,0,3.686361,-0.71298,0.\C,0,2.459481,-1.405713,0.\C,0,-2.46728
 1,-1.410263,0.\C,0,-3.684061,-0.71918,0.\C,0,-3.699533,0.669439,0.\C,0
 ,-2.493505,1.359231,0.\C,0,0.002075,1.463269,0.\C,0,-0.0061,-1.429639,
 0.\C,0,1.26148,0.675265,0.\C,0,1.234071,-0.729829,0.\C,0,-1.263305,0.6
 7909,0.\C,0,-1.239071,-0.730429,0.\H,0,2.494071,2.442072,0.\H,0,4.6435
 03,1.211439,0.\H,0,4.609212,-1.275274,0.\H,0,2.46505,-2.488184,0.\H,0,
 -0.005625,-2.510491,0.\H,0,-2.4687,-2.492609,0.\H,0,-4.610662,-1.27504
 9,0.\H,0,-4.635178,1.208564,0.\H,0,-2.491971,2.442297,0.\H,0,0.008,2.1
 48037,-0.86206\H,0,0.008,2.148037,0.86206\\Version=ES64L-G16RevC.01\St
 ate=1-A'\HF=-539.7601578\RMSD=4.510e-09\PG=CS [SG(C14H9),X(H2)]\\@
 The archive entry for this job was punched.


 THERE'S NOTHING SO GREAT AS THE GREAT OUTDOORS.

                                       -- ZIGGY
 Job cpu time:       0 days  0 hours 53 minutes  8.2 seconds.
 Elapsed time:       0 days  0 hours  1 minutes  7.2 seconds.
 File lengths (MBytes):  RWF=    460 Int=      0 D2E=      0 Chk=     15 Scr=      1
 Normal termination of Gaussian 16 at Tue Aug  2 13:09:03 2022.
