 Entering Gaussian System, Link 0=g16
 Initial command:
 /apps/gaussian/g16c01/g16/l1.exe "/jobfs/53796104.gadi-pbs/Gau-3630228.inp" -scrdir="/jobfs/53796104.gadi-pbs/"
 Entering Link 1 = /apps/gaussian/g16c01/g16/l1.exe PID=   3630229.
  
 Copyright (c) 1988-2019, Gaussian, Inc.  All Rights Reserved.
  
 This is part of the Gaussian(R) 16 program.  It is based on
 the Gaussian(R) 09 system (copyright 2009, Gaussian, Inc.),
 the Gaussian(R) 03 system (copyright 2003, Gaussian, Inc.),
 the Gaussian(R) 98 system (copyright 1998, Gaussian, Inc.),
 the Gaussian(R) 94 system (copyright 1995, Gaussian, Inc.),
 the Gaussian 92(TM) system (copyright 1992, Gaussian, Inc.),
 the Gaussian 90(TM) system (copyright 1990, Gaussian, Inc.),
 the Gaussian 88(TM) system (copyright 1988, Gaussian, Inc.),
 the Gaussian 86(TM) system (copyright 1986, Carnegie Mellon
 University), and the Gaussian 82(TM) system (copyright 1983,
 Carnegie Mellon University). Gaussian is a federally registered
 trademark of Gaussian, Inc.
  
 This software contains proprietary and confidential information,
 including trade secrets, belonging to Gaussian, Inc.
  
 This software is provided under written license and may be
 used, copied, transmitted, or stored only in accord with that
 written license.
  
 The following legend is applicable only to US Government
 contracts under FAR:
  
                    RESTRICTED RIGHTS LEGEND
  
 Use, reproduction and disclosure by the US Government is
 subject to restrictions as set forth in subparagraphs (a)
 and (c) of the Commercial Computer Software - Restricted
 Rights clause in FAR 52.227-19.
  
 Gaussian, Inc.
 340 Quinnipiac St., Bldg. 40, Wallingford CT 06492
  
  
 ---------------------------------------------------------------
 Warning -- This program may not be used in any manner that
 competes with the business of Gaussian, Inc. or will provide
 assistance to any competitor of Gaussian, Inc.  The licensee
 of this program is prohibited from giving any competitor of
 Gaussian, Inc. access to this program.  By using this program,
 the user acknowledges that Gaussian, Inc. is engaged in the
 business of creating and licensing software in the field of
 computational chemistry and represents and warrants to the
 licensee that it is not a competitor of Gaussian, Inc. and that
 it will not use this program in any manner prohibited above.
 ---------------------------------------------------------------
  

 Cite this work as:
 Gaussian 16, Revision C.01,
 M. J. Frisch, G. W. Trucks, H. B. Schlegel, G. E. Scuseria, 
 M. A. Robb, J. R. Cheeseman, G. Scalmani, V. Barone, 
 G. A. Petersson, H. Nakatsuji, X. Li, M. Caricato, A. V. Marenich, 
 J. Bloino, B. G. Janesko, R. Gomperts, B. Mennucci, H. P. Hratchian, 
 J. V. Ortiz, A. F. Izmaylov, J. L. Sonnenberg, D. Williams-Young, 
 F. Ding, F. Lipparini, F. Egidi, J. Goings, B. Peng, A. Petrone, 
 T. Henderson, D. Ranasinghe, V. G. Zakrzewski, J. Gao, N. Rega, 
 G. Zheng, W. Liang, M. Hada, M. Ehara, K. Toyota, R. Fukuda, 
 J. Hasegawa, M. Ishida, T. Nakajima, Y. Honda, O. Kitao, H. Nakai, 
 T. Vreven, K. Throssell, J. A. Montgomery, Jr., J. E. Peralta, 
 F. Ogliaro, M. J. Bearpark, J. J. Heyd, E. N. Brothers, K. N. Kudin, 
 V. N. Staroverov, T. A. Keith, R. Kobayashi, J. Normand, 
 K. Raghavachari, A. P. Rendell, J. C. Burant, S. S. Iyengar, 
 J. Tomasi, M. Cossi, J. M. Millam, M. Klene, C. Adamo, R. Cammi, 
 J. W. Ochterski, R. L. Martin, K. Morokuma, O. Farkas, 
 J. B. Foresman, and D. J. Fox, Gaussian, Inc., Wallingford CT, 2019.
 
 ******************************************
 Gaussian 16:  ES64L-G16RevC.01  3-Jul-2019
                 2-Aug-2022 
 ******************************************
 %NProcShared=48
 Will use up to   48 processors via shared memory.
 %mem = 190GB
 ---------------------------------------------------------------
 #n M062X/6-311++G(d,p) TD(NStates=1) EmpiricalDispersion=GD3 SP
 ---------------------------------------------------------------
 1/38=1,172=1/1;
 2/12=2,17=6,18=5,40=1/2;
 3/5=4,6=6,7=1111,11=9,25=1,30=1,74=-55,124=31/1,2,3,8;
 4//1;
 5/5=2,38=5/2;
 8/6=1,10=2,108=1/1;
 9/41=1,42=1,70=2/14;
 6/7=2,8=2,9=2,10=2/1;
 99/5=1,9=1/99;
 ----
 SP_0
 ----
 Symbolic Z-matrix:
 Charge =  1 Multiplicity = 1
 C                     2.47316   1.36193   0. 
 C                     3.67976   0.66361   0. 
 C                     3.67736  -0.72808   0. 
 C                     2.48253  -1.41866   0. 
 C                    -2.44353  -1.39591   0. 
 C                    -3.68886  -0.69708   0. 
 C                    -3.72088   0.68124   0. 
 C                    -2.50741   1.36043   0. 
 C                    -0.01088   1.44787   0. 
 C                     0.0305   -1.42894   0. 
 C                     1.26643   0.68657   0. 
 C                     1.25047  -0.73268   0. 
 C                    -1.25731   0.66744   0. 
 C                    -1.22547  -0.72968   0. 
 H                     2.48007   2.44502   0. 
 H                     4.6145    1.20544   0. 
 H                     4.61251  -1.27022   0. 
 H                     2.47705  -2.50093   0. 
 H                     0.02813  -2.51014   0. 
 H                    -2.4588   -2.47881   0. 
 H                    -4.60526  -1.27135   0. 
 H                    -4.65613   1.21981   0. 
 H                    -2.49057   2.4439    0. 
 H                    -0.04      2.14454  -0.85821 
 H                    -0.04      2.14454   0.85821 
 
                          Input orientation:                          
 ---------------------------------------------------------------------
 Center     Atomic      Atomic             Coordinates (Angstroms)
 Number     Number       Type             X           Y           Z
 ---------------------------------------------------------------------
      1          6           0        2.473155    1.361931    0.000000
      2          6           0        3.679758    0.663614    0.000000
      3          6           0        3.677361   -0.728080    0.000000
      4          6           0        2.482531   -1.418663    0.000000
      5          6           0       -2.443531   -1.395913    0.000000
      6          6           0       -3.688861   -0.697080    0.000000
      7          6           0       -3.720883    0.681239    0.000000
      8          6           0       -2.507405    1.360431    0.000000
      9          6           0       -0.010875    1.447869    0.000000
     10          6           0        0.030500   -1.428939    0.000000
     11          6           0        1.266430    0.686565    0.000000
     12          6           0        1.250471   -0.732679    0.000000
     13          6           0       -1.257305    0.667440    0.000000
     14          6           0       -1.225471   -0.729679    0.000000
     15          1           0        2.480071    2.445022    0.000000
     16          1           0        4.614503    1.205439    0.000000
     17          1           0        4.612512   -1.270224    0.000000
     18          1           0        2.477050   -2.500934    0.000000
     19          1           0        0.028125   -2.510141    0.000000
     20          1           0       -2.458800   -2.478809    0.000000
     21          1           0       -4.605262   -1.271349    0.000000
     22          1           0       -4.656128    1.219814    0.000000
     23          1           0       -2.490571    2.443897    0.000000
     24          1           0       -0.040000    2.144537   -0.858210
     25          1           0       -0.040000    2.144537    0.858210
 ---------------------------------------------------------------------
                    Distance matrix (angstroms):
                    1          2          3          4          5
     1  C    0.000000
     2  C    1.394108   0.000000
     3  C    2.412107   1.391696   0.000000
     4  C    2.780610   2.401922   1.380045   0.000000
     5  C    5.637331   6.460365   6.157217   4.926115   0.000000
     6  C    6.496920   7.493199   7.366287   6.213434   1.428011
     7  C    6.231328   7.400662   7.531281   6.549193   2.438481
     8  C    4.980560   6.226278   6.527879   5.711639   2.757084
     9  C    2.485516   3.773040   4.282270   3.799221   3.742314
    10  C    3.708843   4.206645   3.713596   2.452053   2.474251
    11  C    1.382861   2.413437   2.795319   2.431231   4.254471
    12  C    2.425355   2.801976   2.426894   1.410158   3.753069
    13  C    3.794555   4.937064   5.128197   4.282312   2.380033
    14  C    4.249078   5.099268   4.902832   3.771469   1.388358
    15  H    1.083113   2.147711   3.391472   3.863686   6.244569
    16  H    2.147059   1.080427   2.148658   3.381008   7.522159
    17  H    3.391915   2.147035   1.080938   2.135147   7.057162
    18  H    3.862867   3.385391   2.140971   1.082285   5.043133
    19  H    4.579423   4.838093   4.061116   2.686156   2.711197
    20  H    6.251037   6.896138   6.381028   5.053777   1.083004
    21  H    7.552361   8.507975   8.300421   7.089324   2.165317
    22  H    7.130699   8.354421   8.558115   7.610651   3.426020
    23  H    5.080278   6.422022   6.935764   6.296913   3.840098
    24  H    2.768564   4.094662   4.775691   4.449279   4.364433
    25  H    2.768564   4.094662   4.775691   4.449279   4.364433
                    6          7          8          9         10
     6  C    0.000000
     7  C    1.378691   0.000000
     8  C    2.372591   1.390622   0.000000
     9  C    4.257744   3.788388   2.498061   0.000000
    10  C    3.790681   4.304152   3.771147   2.877106   0.000000
    11  C    5.144840   4.987316   3.833527   1.486974   2.450078
    12  C    4.939460   5.168513   4.301481   2.519084   1.404673
    13  C    2.788257   2.463617   1.429331   1.470598   2.460335
    14  C    2.463606   2.866665   2.451921   2.493383   1.437507
    15  H    6.923043   6.446919   5.104043   2.683119   4.583445
    16  H    8.518535   8.351853   7.123594   4.631727   5.287063
    17  H    8.321135   8.558836   7.590360   5.363183   4.584760
    18  H    6.424356   6.967108   6.305151   4.667206   2.671101
    19  H    4.135599   4.923410   4.627120   3.958202   1.081205
    20  H    2.165089   3.402757   3.839548   4.627217   2.701637
    21  H    1.081469   2.143531   3.365601   5.338777   4.638440
    22  H    2.147112   1.079234   2.153319   4.650848   5.383342
    23  H    3.361791   2.149565   1.083597   2.672258   4.621110
    24  H    4.703775   4.052982   2.727533   1.105766   3.675762
    25  H    4.703775   4.052982   2.727533   1.105766   3.675762
                   11         12         13         14         15
    11  C    0.000000
    12  C    1.419334   0.000000
    13  C    2.523807   2.872155   0.000000
    14  C    2.866238   2.475944   1.397482   0.000000
    15  H    2.136608   3.407301   4.138572   4.879525   0.000000
    16  H    3.388041   3.882398   5.896403   6.152234   2.468272
    17  H    3.876247   3.404743   6.181367   5.862954   4.283732
    18  H    3.409656   2.152027   4.897346   4.104389   4.945957
    19  H    3.428167   2.157197   3.427733   2.177510   5.528624
    20  H    4.888449   4.099715   3.367859   2.140223   6.973992
    21  H    6.189523   5.880457   3.868814   3.422922   8.000835
    22  H    5.946516   6.220944   3.443416   3.945875   7.240613
    23  H    4.147683   4.907752   2.162578   3.416440   4.970642
    24  H    2.137514   3.268059   2.097659   3.225366   2.679099
    25  H    2.137514   3.268059   2.097659   3.225366   2.679099
                   16         17         18         19         20
    16  H    0.000000
    17  H    2.475664   0.000000
    18  H    4.278540   2.464720   0.000000
    19  H    5.902576   4.749105   2.448942   0.000000
    20  H    7.975293   7.173851   4.935900   2.487122   0.000000
    21  H    9.546651   9.217774   7.188256   4.796132   2.462775
    22  H    9.270642   9.597290   8.045259   5.987887   4.302100
    23  H    7.212202   8.015515   7.009181   5.557546   4.922809
    24  H    4.825228   5.834637   5.352800   4.733624   5.287953
    25  H    4.825228   5.834637   5.352800   4.733624   5.287953
                   21         22         23         24         25
    21  H    0.000000
    22  H    2.491682   0.000000
    23  H    4.274923   2.487572   0.000000
    24  H    5.765971   4.785423   2.613702   0.000000
    25  H    5.765971   4.785423   2.613702   1.716420   0.000000
 Stoichiometry    C14H11(1+)
 Framework group  CS[SG(C14H9),X(H2)]
 Deg. of freedom    46
 Full point group                 CS      NOp   2
 Largest Abelian subgroup         CS      NOp   2
 Largest concise Abelian subgroup CS      NOp   2
                         Standard orientation:                         
 ---------------------------------------------------------------------
 Center     Atomic      Atomic             Coordinates (Angstroms)
 Number     Number       Type             X           Y           Z
 ---------------------------------------------------------------------
      1          6           0       -2.362997   -1.545913    0.000000
      2          6           0       -2.312159   -2.939094    0.000000
      3          6           0       -1.081901   -3.589697    0.000000
      4          6           0        0.088405   -2.858324    0.000000
      5          6           0        2.378691    1.503006    0.000000
      6          6           0        2.345560    2.930632    0.000000
      7          6           0        1.143259    3.605361    0.000000
      8          6           0       -0.025733    2.852175    0.000000
      9          6           0       -1.273858    0.688269    0.000000
     10          6           0        1.247511   -0.697529    0.000000
     11          6           0       -1.200551   -0.796897    0.000000
     12          6           0        0.060399   -1.448444    0.000000
     13          6           0        0.000000    1.423076    0.000000
     14          6           0        1.218994    0.739696    0.000000
     15          1           0       -3.322818   -1.044039    0.000000
     16          1           0       -3.229100   -3.510531    0.000000
     17          1           0       -1.041680   -4.669887    0.000000
     18          1           0        1.046829   -3.361080    0.000000
     19          1           0        2.203534   -1.202527    0.000000
     20          1           0        3.342257    1.008601    0.000000
     21          1           0        3.282553    3.470652    0.000000
     22          1           0        1.106234    4.683960    0.000000
     23          1           0       -0.990537    3.345465    0.000000
     24          1           0       -1.875490    1.040737    0.858210
     25          1           0       -1.875490    1.040737   -0.858210
 ---------------------------------------------------------------------
 Rotational constants (GHZ):           2.1381915           0.4448639           0.3690461
 Standard basis: 6-311++G(d,p) (5D, 7F)
 There are   299 symmetry adapted cartesian basis functions of A'  symmetry.
 There are   100 symmetry adapted cartesian basis functions of A"  symmetry.
 There are   285 symmetry adapted basis functions of A'  symmetry.
 There are   100 symmetry adapted basis functions of A"  symmetry.
   385 basis functions,   603 primitive gaussians,   399 cartesian basis functions
    47 alpha electrons       47 beta electrons
       nuclear repulsion energy       781.4674828342 Hartrees.
 NAtoms=   25 NActive=   25 NUniq=   24 SFac= 1.09D+00 NAtFMM=   60 NAOKFM=F Big=F
 Integral buffers will be    131072 words long.
 Regular integral format.
 Two-electron integral symmetry is turned on.
 Nuclear repulsion after empirical dispersion term =      781.4665035945 Hartrees.
 One-electron integrals computed using PRISM.
 NBasis=   385 RedAO= T EigKep=  1.11D-06  NBF=   285   100
 NBsUse=   379 1.00D-06 EigRej=  8.34D-07 NBFU=   279   100
 ExpMin= 3.60D-02 ExpMax= 4.56D+03 ExpMxC= 6.82D+02 IAcc=3 IRadAn=         5 AccDes= 0.00D+00
 Harris functional with IExCor= 1009 and IRadAn=       5 diagonalized for initial guess.
 HarFok:  IExCor= 1009 AccDes= 0.00D+00 IRadAn=         5 IDoV= 1 UseB2=F ITyADJ=14
 ICtDFT=  3500011 ScaDFX=  1.000000  1.000000  1.000000  1.000000
 FoFCou: FMM=F IPFlag=           0 FMFlag=      100000 FMFlg1=           0
         NFxFlg=           0 DoJE=T BraDBF=F KetDBF=T FulRan=T
         wScrn=  0.000000 ICntrl=       500 IOpCl=  0 I1Cent=   200000004 NGrid=           0
         NMat0=    1 NMatS0=      1 NMatT0=    0 NMatD0=    1 NMtDS0=    0 NMtDT0=    0
 Petite list used in FoFCou.
 Initial guess orbital symmetries:
       Occupied  (A') (A') (A') (A') (A') (A') (A') (A') (A') (A')
                 (A') (A') (A') (A') (A') (A') (A') (A') (A') (A')
                 (A') (A') (A') (A') (A') (A') (A') (A') (A') (A')
                 (A') (A') (A") (A') (A') (A') (A') (A') (A") (A')
                 (A") (A') (A') (A") (A") (A") (A")
       Virtual   (A") (A") (A") (A") (A") (A') (A') (A') (A') (A")
                 (A") (A') (A') (A') (A") (A') (A') (A') (A') (A")
                 (A') (A") (A') (A') (A') (A") (A') (A") (A') (A')
                 (A') (A') (A') (A") (A') (A') (A") (A') (A') (A')
                 (A") (A') (A') (A") (A') (A') (A') (A') (A') (A")
                 (A') (A') (A") (A") (A') (A') (A') (A") (A") (A')
                 (A') (A') (A') (A') (A') (A") (A') (A') (A') (A")
                 (A') (A') (A') (A') (A') (A') (A') (A') (A') (A')
                 (A') (A') (A') (A') (A') (A') (A') (A') (A') (A')
                 (A') (A') (A') (A') (A') (A') (A') (A") (A') (A")
                 (A') (A') (A") (A") (A') (A") (A') (A") (A") (A')
                 (A") (A') (A') (A') (A") (A') (A') (A") (A") (A')
                 (A") (A") (A') (A') (A') (A") (A') (A') (A') (A")
                 (A') (A') (A') (A') (A') (A') (A") (A') (A') (A')
                 (A') (A') (A') (A') (A') (A') (A') (A') (A') (A")
                 (A") (A') (A") (A") (A') (A') (A') (A") (A") (A')
                 (A") (A') (A") (A") (A") (A') (A') (A') (A') (A')
                 (A') (A") (A') (A") (A') (A') (A') (A') (A') (A")
                 (A') (A') (A') (A') (A") (A') (A") (A') (A") (A")
                 (A') (A") (A') (A") (A') (A') (A') (A") (A') (A')
                 (A") (A") (A") (A') (A') (A") (A') (A") (A') (A')
                 (A") (A") (A') (A") (A') (A") (A') (A') (A') (A")
                 (A') (A') (A') (A') (A") (A') (A') (A') (A") (A")
                 (A') (A') (A') (A") (A') (A') (A") (A') (A") (A')
                 (A") (A') (A') (A') (A') (A") (A') (A') (A') (A")
                 (A') (A') (A") (A') (A") (A') (A') (A") (A') (A')
                 (A') (A") (A') (A") (A') (A') (A') (A") (A') (A")
                 (A') (A') (A') (A') (A") (A') (A") (A') (A") (A')
                 (A") (A') (A") (A") (A") (A') (A') (A') (A') (A')
                 (A') (A') (A') (A') (A') (A') (A') (A') (A') (A')
                 (A') (A') (A') (A") (A') (A') (A') (A') (A') (A')
                 (A') (A') (A') (A') (A') (A') (A') (A') (A') (A')
                 (A') (A') (A') (A') (A') (A') (A') (A') (A') (A')
                 (A') (A')
 The electronic state of the initial guess is 1-A'.
 Requested convergence on RMS density matrix=1.00D-08 within 128 cycles.
 Requested convergence on MAX density matrix=1.00D-06.
 Requested convergence on             energy=1.00D-06.
 No special actions if energy rises.
 SCF Done:  E(RM062X) =  -539.757398536     A.U. after   15 cycles
            NFock= 15  Conv=0.82D-08     -V/T= 2.0041
 DoSCS=F DFT=T ScalE2(SS,OS)=  1.000000  1.000000
 ExpMin= 3.60D-02 ExpMax= 4.56D+03 ExpMxC= 6.82D+02 IAcc=3 IRadAn=         5 AccDes= 0.00D+00
 HarFok:  IExCor=  205 AccDes= 0.00D+00 IRadAn=         5 IDoV=-2 UseB2=F ITyADJ=14
 ICtDFT= 12500011 ScaDFX=  1.000000  1.000000  1.000000  1.000000
 Range of M.O.s used for correlation:    15   379
 NBasis=   385 NAE=    47 NBE=    47 NFC=    14 NFV=     0
 NROrb=    365 NOA=    33 NOB=    33 NVA=   332 NVB=   332

 **** Warning!!: The largest alpha MO coefficient is  0.13824132D+03

 Orbital symmetries:
       Occupied  (A') (A') (A') (A') (A') (A') (A') (A') (A') (A')
                 (A') (A') (A') (A') (A') (A') (A') (A') (A') (A')
                 (A') (A') (A') (A') (A') (A') (A') (A') (A') (A')
                 (A') (A') (A") (A') (A') (A') (A') (A") (A") (A')
                 (A') (A') (A') (A") (A") (A") (A")
       Virtual   (A") (A") (A") (A") (A') (A') (A') (A') (A") (A')
                 (A') (A") (A') (A') (A") (A') (A") (A') (A') (A')
                 (A") (A") (A') (A') (A') (A") (A') (A") (A') (A')
                 (A") (A') (A") (A') (A') (A') (A') (A') (A") (A')
                 (A") (A') (A') (A") (A") (A') (A") (A') (A") (A')
                 (A') (A') (A') (A') (A') (A") (A') (A') (A') (A')
                 (A') (A") (A') (A') (A') (A") (A') (A') (A') (A')
                 (A') (A') (A') (A') (A') (A') (A') (A') (A') (A')
                 (A') (A') (A') (A') (A') (A') (A') (A') (A') (A')
                 (A') (A') (A') (A') (A") (A') (A") (A") (A') (A")
                 (A') (A') (A') (A') (A") (A") (A') (A") (A") (A')
                 (A') (A') (A") (A') (A') (A") (A') (A") (A') (A")
                 (A") (A') (A") (A') (A') (A') (A") (A') (A') (A')
                 (A') (A') (A') (A') (A') (A') (A') (A') (A') (A')
                 (A') (A') (A') (A") (A') (A') (A') (A') (A') (A')
                 (A') (A') (A") (A') (A") (A') (A") (A") (A') (A")
                 (A") (A') (A') (A") (A") (A") (A') (A") (A') (A')
                 (A') (A') (A') (A") (A") (A') (A') (A') (A') (A")
                 (A') (A') (A') (A") (A") (A') (A') (A") (A') (A")
                 (A") (A') (A') (A") (A') (A") (A') (A') (A') (A')
                 (A") (A") (A") (A') (A") (A') (A') (A") (A') (A')
                 (A') (A") (A') (A") (A") (A') (A") (A') (A') (A")
                 (A') (A') (A') (A') (A") (A') (A') (A') (A") (A")
                 (A') (A') (A') (A") (A') (A') (A') (A") (A") (A')
                 (A") (A') (A') (A") (A') (A') (A') (A') (A') (A')
                 (A") (A') (A') (A') (A') (A") (A") (A") (A') (A')
                 (A') (A') (A') (A') (A') (A') (A') (A") (A') (A')
                 (A') (A") (A') (A") (A") (A") (A') (A") (A') (A")
                 (A') (A") (A") (A') (A") (A") (A') (A') (A') (A')
                 (A') (A') (A') (A') (A') (A') (A') (A') (A') (A')
                 (A') (A') (A') (A") (A') (A') (A') (A') (A') (A')
                 (A') (A') (A') (A') (A') (A') (A') (A') (A') (A')
                 (A') (A') (A') (A') (A') (A') (A') (A') (A') (A')
                 (A') (A')
     4 initial guesses have been made.
 Convergence on wavefunction:    0.001000000000000
 Iteration     1 Dimension     4 NMult     0 NNew      4
 CISAX will form     4 AO SS matrices at one time.
 Iteration     2 Dimension     6 NMult     4 NNew      2
 Iteration     3 Dimension     8 NMult     6 NNew      2
 Iteration     4 Dimension    10 NMult     8 NNew      2
 Iteration     5 Dimension    12 NMult    10 NNew      2
 Iteration     6 Dimension    14 NMult    12 NNew      2
 ***********************************************************************
 Excited states from <AA,BB:AA,BB> singles matrix:
 ***********************************************************************
 
 Ground to excited state transition densities written to RWF  633
 Ground to excited state transition electric dipole moments (Au):
       state          X           Y           Z        Dip. S.      Osc.
         1        -0.5068      0.3071     -0.0000      0.3512      0.0236
 Ground to excited state transition velocity dipole moments (Au):
       state          X           Y           Z        Dip. S.      Osc.
         1         0.0589     -0.0318     -0.0000      0.0045      0.0296
 Ground to excited state transition magnetic dipole moments (Au):
       state          X           Y           Z
         1         0.0000      0.0000     -0.1510
 Ground to excited state transition velocity quadrupole moments (Au):
       state          XX          YY          ZZ          XY          XZ          YZ
         1         0.1380      0.1546     -0.0089      0.1360      0.0000     -0.0000
 <0|del|b> * <b|rxdel|0> + <0|del|b> * <b|delr+rdel|0>
 Rotatory Strengths (R) in cgs (10**-40 erg-esu-cm/Gauss)
       state          XX          YY          ZZ    R(velocity)    E-M Angle
         1         0.0000      0.0000      0.0000      0.0000       90.00
 1/2[<0|r|b>*<b|rxdel|0> + (<0|rxdel|b>*<b|r|0>)*]
 Rotatory Strengths (R) in cgs (10**-40 erg-esu-cm/Gauss)
       state          XX          YY          ZZ     R(length)
         1         0.0000     -0.0000     -0.0000      0.0000
  1/2[<0|del|b>*<b|r|0> + (<0|r|b>*<b|del|0>)*] (Au)
       state          X           Y           Z        Dip. S.   Osc.(frdel)
         1        -0.0299     -0.0098      0.0000      0.0396      0.0264

 Excitation energies and oscillator strengths:
 
 Excited State   1:      Singlet-A'     2.7461 eV  451.49 nm  f=0.0236  <S**2>=0.000
      47 -> 48         0.70368
 This state for optimization and/or second-order correction.
 Total Energy, E(TD-HF/TD-DFT) =  -539.656479886    
 Copying the excited state density for this state as the 1-particle RhoCI density.
 SavETr:  write IOETrn=   770 NScale= 10 NData=  16 NLR=1 NState=    1 LETran=      28.

 **********************************************************************

            Population analysis using the SCF Density.

 **********************************************************************

 Orbital symmetries:
       Occupied  (A') (A') (A') (A') (A') (A') (A') (A') (A') (A')
                 (A') (A') (A') (A') (A') (A') (A') (A') (A') (A')
                 (A') (A') (A') (A') (A') (A') (A') (A') (A') (A')
                 (A') (A') (A") (A') (A') (A') (A') (A") (A") (A')
                 (A') (A') (A') (A") (A") (A") (A")
       Virtual   (A") (A") (A") (A") (A') (A') (A') (A') (A") (A')
                 (A') (A") (A') (A') (A") (A') (A") (A') (A') (A')
                 (A") (A") (A') (A') (A') (A") (A') (A") (A') (A')
                 (A") (A') (A") (A') (A') (A') (A') (A') (A") (A')
                 (A") (A') (A') (A") (A") (A') (A") (A') (A") (A')
                 (A') (A') (A') (A') (A') (A") (A') (A') (A') (A')
                 (A') (A") (A') (A') (A') (A") (A') (A') (A') (A')
                 (A') (A') (A') (A') (A') (A') (A') (A') (A') (A')
                 (A') (A') (A') (A') (A') (A') (A') (A') (A') (A')
                 (A') (A') (A') (A') (A") (A') (A") (A") (A') (A")
                 (A') (A') (A') (A') (A") (A") (A') (A") (A") (A')
                 (A') (A') (A") (A') (A') (A") (A') (A") (A') (A")
                 (A") (A') (A") (A') (A') (A') (A") (A') (A') (A')
                 (A') (A') (A') (A') (A') (A') (A') (A') (A') (A')
                 (A') (A') (A') (A") (A') (A') (A') (A') (A') (A')
                 (A') (A') (A") (A') (A") (A') (A") (A") (A') (A")
                 (A") (A') (A') (A") (A") (A") (A') (A") (A') (A')
                 (A') (A') (A') (A") (A") (A') (A') (A') (A') (A")
                 (A') (A') (A') (A") (A") (A') (A') (A") (A') (A")
                 (A") (A') (A') (A") (A') (A") (A') (A') (A') (A')
                 (A") (A") (A") (A') (A") (A') (A') (A") (A') (A')
                 (A') (A") (A') (A") (A") (A') (A") (A') (A') (A")
                 (A') (A') (A') (A') (A") (A') (A') (A') (A") (A")
                 (A') (A') (A') (A") (A') (A') (A') (A") (A") (A')
                 (A") (A') (A') (A") (A') (A') (A') (A') (A') (A')
                 (A") (A') (A') (A') (A') (A") (A") (A") (A') (A')
                 (A') (A') (A') (A') (A') (A') (A') (A") (A') (A')
                 (A') (A") (A') (A") (A") (A") (A') (A") (A') (A")
                 (A') (A") (A") (A') (A") (A") (A') (A') (A') (A')
                 (A') (A') (A') (A') (A') (A') (A') (A') (A') (A')
                 (A') (A') (A') (A") (A') (A') (A') (A') (A') (A')
                 (A') (A') (A') (A') (A') (A') (A') (A') (A') (A')
                 (A') (A') (A') (A') (A') (A') (A') (A') (A') (A')
                 (A') (A')
 The electronic state is 1-A'.
 Alpha  occ. eigenvalues --  -10.77618 -10.73561 -10.72844 -10.72698 -10.72116
 Alpha  occ. eigenvalues --  -10.71696 -10.71669 -10.71011 -10.70964 -10.70384
 Alpha  occ. eigenvalues --  -10.70134 -10.69825 -10.69810 -10.69415  -1.16518
 Alpha  occ. eigenvalues --   -1.12491  -1.06941  -1.05837  -1.01302  -1.00325
 Alpha  occ. eigenvalues --   -0.95682  -0.91059  -0.86433  -0.85910  -0.83810
 Alpha  occ. eigenvalues --   -0.78377  -0.76108  -0.74399  -0.69652  -0.69287
 Alpha  occ. eigenvalues --   -0.68426  -0.68147  -0.68088  -0.65011  -0.64265
 Alpha  occ. eigenvalues --   -0.62942  -0.61758  -0.60236  -0.59436  -0.59119
 Alpha  occ. eigenvalues --   -0.56934  -0.55245  -0.54720  -0.52435  -0.46960
 Alpha  occ. eigenvalues --   -0.46095  -0.44144
 Alpha virt. eigenvalues --   -0.26082  -0.14671  -0.14088  -0.12765  -0.11186
 Alpha virt. eigenvalues --   -0.10094  -0.09242  -0.07973  -0.07944  -0.07480
 Alpha virt. eigenvalues --   -0.07211  -0.07144  -0.05643  -0.05580  -0.05344
 Alpha virt. eigenvalues --   -0.03837  -0.03656  -0.03278  -0.03130  -0.02160
 Alpha virt. eigenvalues --   -0.01362  -0.00942   0.00184   0.00594   0.00673
 Alpha virt. eigenvalues --    0.01062   0.01507   0.01931   0.02181   0.02293
 Alpha virt. eigenvalues --    0.02450   0.02674   0.02771   0.03237   0.03407
 Alpha virt. eigenvalues --    0.04229   0.04506   0.04704   0.05032   0.05376
 Alpha virt. eigenvalues --    0.06026   0.06299   0.06591   0.07060   0.07256
 Alpha virt. eigenvalues --    0.07900   0.08128   0.08365   0.08600   0.08920
 Alpha virt. eigenvalues --    0.09517   0.09583   0.10018   0.10865   0.11033
 Alpha virt. eigenvalues --    0.11116   0.12150   0.12256   0.12809   0.13029
 Alpha virt. eigenvalues --    0.13446   0.13522   0.14011   0.14349   0.16047
 Alpha virt. eigenvalues --    0.16316   0.16464   0.17338   0.17561   0.17791
 Alpha virt. eigenvalues --    0.18132   0.19041   0.19314   0.19649   0.19832
 Alpha virt. eigenvalues --    0.21537   0.21650   0.22715   0.23131   0.23573
 Alpha virt. eigenvalues --    0.23830   0.24530   0.25298   0.26934   0.27621
 Alpha virt. eigenvalues --    0.28873   0.29290   0.29920   0.31374   0.35839
 Alpha virt. eigenvalues --    0.36475   0.38194   0.39284   0.41121   0.41349
 Alpha virt. eigenvalues --    0.41999   0.42135   0.42982   0.43726   0.44343
 Alpha virt. eigenvalues --    0.44834   0.45113   0.45971   0.46322   0.47884
 Alpha virt. eigenvalues --    0.48474   0.48856   0.49018   0.50481   0.51222
 Alpha virt. eigenvalues --    0.51416   0.51966   0.52126   0.52868   0.54062
 Alpha virt. eigenvalues --    0.54101   0.54658   0.55655   0.55856   0.57417
 Alpha virt. eigenvalues --    0.58234   0.58887   0.61483   0.62191   0.62394
 Alpha virt. eigenvalues --    0.63201   0.63488   0.65015   0.65169   0.67441
 Alpha virt. eigenvalues --    0.70356   0.70500   0.71142   0.72477   0.72903
 Alpha virt. eigenvalues --    0.75656   0.76058   0.76375   0.76819   0.77123
 Alpha virt. eigenvalues --    0.77870   0.77974   0.78290   0.79881   0.80406
 Alpha virt. eigenvalues --    0.81271   0.81563   0.82278   0.83013   0.85244
 Alpha virt. eigenvalues --    0.87128   0.88221   0.88408   0.89205   0.90541
 Alpha virt. eigenvalues --    0.91128   0.91333   0.93246   0.94633   0.96358
 Alpha virt. eigenvalues --    0.96802   1.00292   1.01298   1.01598   1.02782
 Alpha virt. eigenvalues --    1.03239   1.03348   1.04807   1.05972   1.08849
 Alpha virt. eigenvalues --    1.19589   1.23103   1.24145   1.24806   1.28595
 Alpha virt. eigenvalues --    1.29447   1.32060   1.34234   1.35789   1.35994
 Alpha virt. eigenvalues --    1.39380   1.39931   1.40922   1.42927   1.43490
 Alpha virt. eigenvalues --    1.43563   1.44449   1.46386   1.46391   1.46650
 Alpha virt. eigenvalues --    1.47671   1.48134   1.51817   1.53657   1.55783
 Alpha virt. eigenvalues --    1.55973   1.56327   1.56572   1.57835   1.61510
 Alpha virt. eigenvalues --    1.63129   1.63314   1.64020   1.66134   1.68326
 Alpha virt. eigenvalues --    1.68395   1.68677   1.69762   1.74455   1.76031
 Alpha virt. eigenvalues --    1.77226   1.78065   1.80052   1.80110   1.80826
 Alpha virt. eigenvalues --    1.83006   1.83194   1.83667   1.83856   1.84146
 Alpha virt. eigenvalues --    1.84433   1.85602   1.86311   1.88310   1.91425
 Alpha virt. eigenvalues --    1.92147   1.94122   1.95307   1.97756   1.98185
 Alpha virt. eigenvalues --    1.99812   2.02623   2.04534   2.07289   2.11792
 Alpha virt. eigenvalues --    2.12156   2.14193   2.15240   2.19162   2.21335
 Alpha virt. eigenvalues --    2.22773   2.28476   2.30405   2.34640   2.34912
 Alpha virt. eigenvalues --    2.36294   2.38640   2.39646   2.42387   2.44356
 Alpha virt. eigenvalues --    2.46172   2.46763   2.49321   2.52971   2.53819
 Alpha virt. eigenvalues --    2.54403   2.56716   2.57891   2.58359   2.59537
 Alpha virt. eigenvalues --    2.59901   2.61599   2.62167   2.63582   2.63812
 Alpha virt. eigenvalues --    2.64820   2.65120   2.65128   2.65518   2.68088
 Alpha virt. eigenvalues --    2.68568   2.70966   2.71448   2.73370   2.74830
 Alpha virt. eigenvalues --    2.76292   2.78799   2.79720   2.83142   2.83157
 Alpha virt. eigenvalues --    2.84911   2.86356   2.92148   2.97024   2.99488
 Alpha virt. eigenvalues --    3.00141   3.05340   3.10367   3.11455   3.13794
 Alpha virt. eigenvalues --    3.20992   3.23304   3.26685   3.28713   3.30615
 Alpha virt. eigenvalues --    3.32833   3.34255   3.43654   3.46082   3.46894
 Alpha virt. eigenvalues --    3.48582   3.50232   3.56591   3.65204   3.67107
 Alpha virt. eigenvalues --    3.67707   3.93969   3.94218   3.95346   3.96380
 Alpha virt. eigenvalues --    4.03994   4.06744   4.07692   4.12532   4.35625
 Alpha virt. eigenvalues --    4.61569   4.69617   4.71471  23.45278  23.60409
 Alpha virt. eigenvalues --   23.81309  23.84074  23.86570  23.89334  23.91256
 Alpha virt. eigenvalues --   23.94543  23.96262  23.97930  24.02014  24.03842
 Alpha virt. eigenvalues --   24.10940  24.11845
          Condensed to atoms (all electrons):
               1          2          3          4          5          6
     1  C    8.389378   0.538060  -0.637721   1.716338   0.010080  -0.086956
     2  C    0.538060   7.110050   0.418985  -0.967684  -0.041261  -0.015573
     3  C   -0.637721   0.418985   6.599435   0.714518  -0.113058   0.016898
     4  C    1.716338  -0.967684   0.714518  11.168274  -0.322971  -0.130851
     5  C    0.010080  -0.041261  -0.113058  -0.322971  10.627364   0.788185
     6  C   -0.086956  -0.015573   0.016898  -0.130851   0.788185   6.584209
     7  C   -0.034333   0.002623  -0.014023  -0.005978  -1.110313   0.300665
     8  C    0.408096  -0.012590  -0.102381  -0.042194   2.089164  -0.463409
     9  C   -1.242435  -0.818072   0.288372  -0.090605  -0.402599   0.286439
    10  C   -1.180411   0.172240  -0.296499  -2.697411  -2.424975  -0.417515
    11  C    0.275928  -0.859332   0.935740  -0.244730  -1.441782  -0.135132
    12  C   -1.684092   1.085770  -1.329442  -1.496284  -0.238666  -0.258689
    13  C    0.159703  -0.217326  -0.215821  -1.560436  -0.265220   1.098614
    14  C   -1.121704  -0.274447  -0.144379  -0.417297  -1.510294  -1.440429
    15  H    0.364692  -0.103086  -0.003185   0.024839   0.006450   0.001196
    16  H   -0.020124   0.380557  -0.019473   0.016255  -0.001652  -0.000348
    17  H   -0.019371  -0.021174   0.378769  -0.067974   0.000164   0.000403
    18  H    0.046730   0.003285  -0.084632   0.459332   0.007310  -0.004911
    19  H   -0.044534  -0.007905   0.050641  -0.077762  -0.064586   0.050947
    20  H    0.007276   0.001962  -0.005105   0.007151   0.451421  -0.084798
    21  H   -0.001269  -0.000413   0.000385   0.000447  -0.065759   0.369849
    22  H    0.000468   0.000328  -0.000307  -0.001431   0.011187  -0.012534
    23  H    0.006581  -0.002503   0.001007   0.005266   0.028355  -0.000219
    24  H    0.035473   0.015325  -0.001302  -0.011698  -0.013013  -0.001653
    25  H    0.035473   0.015325  -0.001302  -0.011698  -0.013013  -0.001653
               7          8          9         10         11         12
     1  C   -0.034333   0.408096  -1.242435  -1.180411   0.275928  -1.684092
     2  C    0.002623  -0.012590  -0.818072   0.172240  -0.859332   1.085770
     3  C   -0.014023  -0.102381   0.288372  -0.296499   0.935740  -1.329442
     4  C   -0.005978  -0.042194  -0.090605  -2.697411  -0.244730  -1.496284
     5  C   -1.110313   2.089164  -0.402599  -2.424975  -1.441782  -0.238666
     6  C    0.300665  -0.463409   0.286439  -0.417515  -0.135132  -0.258689
     7  C    7.103672   0.189577  -0.759367   0.306130  -0.276159  -0.126898
     8  C    0.189577   8.758825  -1.215897  -1.321652   0.198056  -1.032673
     9  C   -0.759367  -1.215897   9.664149   0.248557   1.761569  -2.114235
    10  C    0.306130  -1.321652   0.248557   9.226142  -0.455957   2.398693
    11  C   -0.276159   0.198056   1.761569  -0.455957  14.662116  -4.043228
    12  C   -0.126898  -1.032673  -2.114235   2.398693  -4.043228  16.179928
    13  C   -1.000815   0.262479   1.648897  -0.586962   1.076624  -4.806025
    14  C    1.557412  -2.216693  -1.852481   2.466298  -4.871935   2.988331
    15  H   -0.002883   0.005319   0.088977  -0.008308  -0.028980  -0.016135
    16  H    0.000386   0.000921   0.003385  -0.010510   0.027936  -0.033416
    17  H   -0.000380  -0.001386  -0.005250   0.020275  -0.026833   0.086351
    18  H    0.001992   0.007442  -0.023988   0.012704  -0.011004  -0.046258
    19  H   -0.007240  -0.048491   0.075993   0.422400   0.076290  -0.080168
    20  H    0.002526   0.051398  -0.026356   0.017365  -0.011898  -0.008522
    21  H   -0.011374  -0.028083  -0.006501   0.020928  -0.006366   0.005376
    22  H    0.374494  -0.018040   0.004794  -0.008914   0.002798  -0.008181
    23  H   -0.104699   0.366663   0.094868  -0.010842   0.005286   0.005714
    24  H    0.013219   0.028168   0.357797   0.005637   0.021402  -0.059221
    25  H    0.013219   0.028168   0.357797   0.005637   0.021402  -0.059221
              13         14         15         16         17         18
     1  C    0.159703  -1.121704   0.364692  -0.020124  -0.019371   0.046730
     2  C   -0.217326  -0.274447  -0.103086   0.380557  -0.021174   0.003285
     3  C   -0.215821  -0.144379  -0.003185  -0.019473   0.378769  -0.084632
     4  C   -1.560436  -0.417297   0.024839   0.016255  -0.067974   0.459332
     5  C   -0.265220  -1.510294   0.006450  -0.001652   0.000164   0.007310
     6  C    1.098614  -1.440429   0.001196  -0.000348   0.000403  -0.004911
     7  C   -1.000815   1.557412  -0.002883   0.000386  -0.000380   0.001992
     8  C    0.262479  -2.216693   0.005319   0.000921  -0.001386   0.007442
     9  C    1.648897  -1.852481   0.088977   0.003385  -0.005250  -0.023988
    10  C   -0.586962   2.466298  -0.008308  -0.010510   0.020275   0.012704
    11  C    1.076624  -4.871935  -0.028980   0.027936  -0.026833  -0.011004
    12  C   -4.806025   2.988331  -0.016135  -0.033416   0.086351  -0.046258
    13  C   14.551154  -3.556800  -0.001934   0.003367  -0.006347  -0.012009
    14  C   -3.556800  15.960412   0.007371  -0.010041   0.005178  -0.017518
    15  H   -0.001934   0.007371   0.435066  -0.008874   0.001599   0.000250
    16  H    0.003367  -0.010041  -0.008874   0.416881  -0.006964   0.001942
    17  H   -0.006347   0.005178   0.001599  -0.006964   0.420540  -0.010011
    18  H   -0.012009  -0.017518   0.000250   0.001942  -0.010011   0.449358
    19  H    0.081127  -0.050930   0.000367  -0.000576   0.001612  -0.005780
    20  H   -0.006594  -0.058966  -0.000120   0.000018  -0.000158   0.001283
    21  H   -0.028903   0.095209   0.000015  -0.000007   0.000010  -0.000125
    22  H    0.028831  -0.035832  -0.000124   0.000007  -0.000007   0.000011
    23  H   -0.032069  -0.032588   0.000599  -0.000129   0.000011  -0.000103
    24  H    0.005099  -0.060117  -0.000905   0.000624  -0.000135   0.000146
    25  H    0.005099  -0.060117  -0.000905   0.000624  -0.000135   0.000146
              19         20         21         22         23         24
     1  C   -0.044534   0.007276  -0.001269   0.000468   0.006581   0.035473
     2  C   -0.007905   0.001962  -0.000413   0.000328  -0.002503   0.015325
     3  C    0.050641  -0.005105   0.000385  -0.000307   0.001007  -0.001302
     4  C   -0.077762   0.007151   0.000447  -0.001431   0.005266  -0.011698
     5  C   -0.064586   0.451421  -0.065759   0.011187   0.028355  -0.013013
     6  C    0.050947  -0.084798   0.369849  -0.012534  -0.000219  -0.001653
     7  C   -0.007240   0.002526  -0.011374   0.374494  -0.104699   0.013219
     8  C   -0.048491   0.051398  -0.028083  -0.018040   0.366663   0.028168
     9  C    0.075993  -0.026356  -0.006501   0.004794   0.094868   0.357797
    10  C    0.422400   0.017365   0.020928  -0.008914  -0.010842   0.005637
    11  C    0.076290  -0.011898  -0.006366   0.002798   0.005286   0.021402
    12  C   -0.080168  -0.008522   0.005376  -0.008181   0.005714  -0.059221
    13  C    0.081127  -0.006594  -0.028903   0.028831  -0.032069   0.005099
    14  C   -0.050930  -0.058966   0.095209  -0.035832  -0.032588  -0.060117
    15  H    0.000367  -0.000120   0.000015  -0.000124   0.000599  -0.000905
    16  H   -0.000576   0.000018  -0.000007   0.000007  -0.000129   0.000624
    17  H    0.001612  -0.000158   0.000010  -0.000007   0.000011  -0.000135
    18  H   -0.005780   0.001283  -0.000125   0.000011  -0.000103   0.000146
    19  H    0.443077  -0.006518   0.001196  -0.000486   0.000228   0.000621
    20  H   -0.006518   0.456838  -0.010293   0.001882   0.000127   0.000204
    21  H    0.001196  -0.010293   0.424153  -0.006212   0.001303  -0.000147
    22  H   -0.000486   0.001882  -0.006212   0.421327  -0.008906   0.000630
    23  H    0.000228   0.000127   0.001303  -0.008906   0.442304  -0.000871
    24  H    0.000621   0.000204  -0.000147   0.000630  -0.000871   0.494512
    25  H    0.000621   0.000204  -0.000147   0.000630  -0.000871  -0.080537
              25
     1  C    0.035473
     2  C    0.015325
     3  C   -0.001302
     4  C   -0.011698
     5  C   -0.013013
     6  C   -0.001653
     7  C    0.013219
     8  C    0.028168
     9  C    0.357797
    10  C    0.005637
    11  C    0.021402
    12  C   -0.059221
    13  C    0.005099
    14  C   -0.060117
    15  H   -0.000905
    16  H    0.000624
    17  H   -0.000135
    18  H    0.000146
    19  H    0.000621
    20  H    0.000204
    21  H   -0.000147
    22  H    0.000630
    23  H   -0.000871
    24  H   -0.080537
    25  H    0.494512
 Mulliken charges:
               1
     1  C    0.078673
     2  C   -0.403144
     3  C   -0.436120
     4  C    0.034584
     5  C    0.009482
     6  C   -0.442738
     7  C   -0.411449
     8  C    0.109214
     9  C   -0.323808
    10  C    0.096948
    11  C   -0.651813
    12  C    0.691192
    13  C   -0.623732
    14  C    0.652359
    15  H    0.238699
    16  H    0.259212
    17  H    0.251211
    18  H    0.224407
    19  H    0.189856
    20  H    0.219676
    21  H    0.246728
    22  H    0.253586
    23  H    0.235489
    24  H    0.250744
    25  H    0.250744
 Sum of Mulliken charges =   1.00000
 Mulliken charges with hydrogens summed into heavy atoms:
               1
     1  C    0.317371
     2  C   -0.143933
     3  C   -0.184909
     4  C    0.258992
     5  C    0.229157
     6  C   -0.196010
     7  C   -0.157863
     8  C    0.344703
     9  C    0.177680
    10  C    0.286804
    11  C   -0.651813
    12  C    0.691192
    13  C   -0.623732
    14  C    0.652359
 Electronic spatial extent (au):  <R**2>=           2854.3228
 Charge=              1.0000 electrons
 Dipole moment (field-independent basis, Debye):
    X=             -0.1722    Y=             -0.6996    Z=             -0.0000  Tot=              0.7205
 Quadrupole moment (field-independent basis, Debye-Ang):
   XX=            -51.0078   YY=            -36.3529   ZZ=            -84.1361
   XY=             10.2338   XZ=              0.0000   YZ=             -0.0000
 Traceless Quadrupole moment (field-independent basis, Debye-Ang):
   XX=              6.1578   YY=             20.8127   ZZ=            -26.9705
   XY=             10.2338   XZ=              0.0000   YZ=             -0.0000
 Octapole moment (field-independent basis, Debye-Ang**2):
  XXX=             -2.1549  YYY=             -0.8192  ZZZ=              0.0000  XYY=             -2.1031
  XXY=             -7.0987  XXZ=             -0.0000  XZZ=             -3.1844  YZZ=              0.5425
  YYZ=             -0.0000  XYZ=              0.0000
 Hexadecapole moment (field-independent basis, Debye-Ang**3):
 XXXX=           -988.3982 YYYY=          -1847.5653 ZZZZ=            -99.3085 XXXY=           -348.0208
 XXXZ=              0.0000 YYYX=           -274.4845 YYYZ=             -0.0000 ZZZX=             -0.0000
 ZZZY=             -0.0000 XXYY=           -454.4213 XXZZ=           -241.5870 YYZZ=           -494.4130
 XXYZ=             -0.0000 YYXZ=              0.0000 ZZXY=           -182.9241
 N-N= 7.814665035945D+02 E-N=-2.799289903010D+03  KE= 5.375300651256D+02
 Symmetry A'   KE= 5.228800312550D+02
 Symmetry A"   KE= 1.465003387066D+01
 Unable to Open any file for archive entry.
 1\1\GINC-GADI-CPU-CLX-1762\SP\RM062X TD-FC\6-311++G(d,p)\C14H11(1+)\TS
 1578\02-Aug-2022\0\\#n M062X/6-311++G(d,p) TD(NStates=1) EmpiricalDisp
 ersion=GD3 SP\\SP_0\\1,1\C,0,2.473155,1.361931,0.\C,0,3.679758,0.66361
 4,0.\C,0,3.677361,-0.72808,0.\C,0,2.482531,-1.418663,0.\C,0,-2.443531,
 -1.395913,0.\C,0,-3.688861,-0.69708,0.\C,0,-3.720883,0.681239,0.\C,0,-
 2.507405,1.360431,0.\C,0,-0.010875,1.447869,0.\C,0,0.0305,-1.428939,0.
 \C,0,1.26643,0.686565,0.\C,0,1.250471,-0.732679,0.\C,0,-1.257305,0.667
 44,0.\C,0,-1.225471,-0.729679,0.\H,0,2.480071,2.445022,0.\H,0,4.614503
 ,1.205439,0.\H,0,4.612512,-1.270224,0.\H,0,2.47705,-2.500934,0.\H,0,0.
 028125,-2.510141,0.\H,0,-2.4588,-2.478809,0.\H,0,-4.605262,-1.271349,0
 .\H,0,-4.656128,1.219814,0.\H,0,-2.490571,2.443897,0.\H,0,-0.04,2.1445
 37,-0.85821\H,0,-0.04,2.144537,0.85821\\Version=ES64L-G16RevC.01\State
 =1-A'\HF=-539.7573985\RMSD=8.198e-09\PG=CS [SG(C14H9),X(H2)]\\@
 The archive entry for this job was punched.


 CHARLIE BROWN.."I CAN'T GET THAT STUPID KITE IN THE
 AIR... I CAN'T... I C A N N O T..."
 LUCY.."OH COME NOW CHARLIE BROWN...THAT'S NO WAY TO TALK...
 THE TROUBLE WITH YOU IS YOU DON'T BELIEVE IN YOURSELF... YOU
 DON'T BELIEVE IN YOUR OWN ABILITIES...  YOU'VE GOT TO SAY TO
 YOURSELF...'I BELIEVE I CAN FLY THIS KITE.'... GO AHEAD SAY
 IT...."
 CHARLIE BROWN.."I BELIEVE THAT I CAN FLY THIS STUPID
 KITE.....I BELIEVE THAT I CAN FLY THIS KITE........
 I  A C T U A L L Y  B E L I E V E  T H A T  I  C A N ******"
 LUCY.."I'LL BET YOU TEN-TO-ONE YOU'RE WRONG......."    SCHULZ
 Job cpu time:       0 days  0 hours 51 minutes 34.7 seconds.
 Elapsed time:       0 days  0 hours  1 minutes  4.6 seconds.
 File lengths (MBytes):  RWF=    460 Int=      0 D2E=      0 Chk=     15 Scr=      1
 Normal termination of Gaussian 16 at Tue Aug  2 12:01:22 2022.
