 Entering Gaussian System, Link 0=g16
 Initial command:
 /apps/gaussian/g16c01/g16/l1.exe "/jobfs/53796104.gadi-pbs/Gau-3672294.inp" -scrdir="/jobfs/53796104.gadi-pbs/"
 Entering Link 1 = /apps/gaussian/g16c01/g16/l1.exe PID=   3672295.
  
 Copyright (c) 1988-2019, Gaussian, Inc.  All Rights Reserved.
  
 This is part of the Gaussian(R) 16 program.  It is based on
 the Gaussian(R) 09 system (copyright 2009, Gaussian, Inc.),
 the Gaussian(R) 03 system (copyright 2003, Gaussian, Inc.),
 the Gaussian(R) 98 system (copyright 1998, Gaussian, Inc.),
 the Gaussian(R) 94 system (copyright 1995, Gaussian, Inc.),
 the Gaussian 92(TM) system (copyright 1992, Gaussian, Inc.),
 the Gaussian 90(TM) system (copyright 1990, Gaussian, Inc.),
 the Gaussian 88(TM) system (copyright 1988, Gaussian, Inc.),
 the Gaussian 86(TM) system (copyright 1986, Carnegie Mellon
 University), and the Gaussian 82(TM) system (copyright 1983,
 Carnegie Mellon University). Gaussian is a federally registered
 trademark of Gaussian, Inc.
  
 This software contains proprietary and confidential information,
 including trade secrets, belonging to Gaussian, Inc.
  
 This software is provided under written license and may be
 used, copied, transmitted, or stored only in accord with that
 written license.
  
 The following legend is applicable only to US Government
 contracts under FAR:
  
                    RESTRICTED RIGHTS LEGEND
  
 Use, reproduction and disclosure by the US Government is
 subject to restrictions as set forth in subparagraphs (a)
 and (c) of the Commercial Computer Software - Restricted
 Rights clause in FAR 52.227-19.
  
 Gaussian, Inc.
 340 Quinnipiac St., Bldg. 40, Wallingford CT 06492
  
  
 ---------------------------------------------------------------
 Warning -- This program may not be used in any manner that
 competes with the business of Gaussian, Inc. or will provide
 assistance to any competitor of Gaussian, Inc.  The licensee
 of this program is prohibited from giving any competitor of
 Gaussian, Inc. access to this program.  By using this program,
 the user acknowledges that Gaussian, Inc. is engaged in the
 business of creating and licensing software in the field of
 computational chemistry and represents and warrants to the
 licensee that it is not a competitor of Gaussian, Inc. and that
 it will not use this program in any manner prohibited above.
 ---------------------------------------------------------------
  

 Cite this work as:
 Gaussian 16, Revision C.01,
 M. J. Frisch, G. W. Trucks, H. B. Schlegel, G. E. Scuseria, 
 M. A. Robb, J. R. Cheeseman, G. Scalmani, V. Barone, 
 G. A. Petersson, H. Nakatsuji, X. Li, M. Caricato, A. V. Marenich, 
 J. Bloino, B. G. Janesko, R. Gomperts, B. Mennucci, H. P. Hratchian, 
 J. V. Ortiz, A. F. Izmaylov, J. L. Sonnenberg, D. Williams-Young, 
 F. Ding, F. Lipparini, F. Egidi, J. Goings, B. Peng, A. Petrone, 
 T. Henderson, D. Ranasinghe, V. G. Zakrzewski, J. Gao, N. Rega, 
 G. Zheng, W. Liang, M. Hada, M. Ehara, K. Toyota, R. Fukuda, 
 J. Hasegawa, M. Ishida, T. Nakajima, Y. Honda, O. Kitao, H. Nakai, 
 T. Vreven, K. Throssell, J. A. Montgomery, Jr., J. E. Peralta, 
 F. Ogliaro, M. J. Bearpark, J. J. Heyd, E. N. Brothers, K. N. Kudin, 
 V. N. Staroverov, T. A. Keith, R. Kobayashi, J. Normand, 
 K. Raghavachari, A. P. Rendell, J. C. Burant, S. S. Iyengar, 
 J. Tomasi, M. Cossi, J. M. Millam, M. Klene, C. Adamo, R. Cammi, 
 J. W. Ochterski, R. L. Martin, K. Morokuma, O. Farkas, 
 J. B. Foresman, and D. J. Fox, Gaussian, Inc., Wallingford CT, 2019.
 
 ******************************************
 Gaussian 16:  ES64L-G16RevC.01  3-Jul-2019
                 2-Aug-2022 
 ******************************************
 %NProcShared=48
 Will use up to   48 processors via shared memory.
 %mem = 190GB
 ---------------------------------------------------------------
 #n M062X/6-311++G(d,p) TD(NStates=1) EmpiricalDispersion=GD3 SP
 ---------------------------------------------------------------
 1/38=1,172=1/1;
 2/12=2,17=6,18=5,40=1/2;
 3/5=4,6=6,7=1111,11=9,25=1,30=1,74=-55,124=31/1,2,3,8;
 4//1;
 5/5=2,38=5/2;
 8/6=1,10=2,108=1/1;
 9/41=1,42=1,70=2/14;
 6/7=2,8=2,9=2,10=2/1;
 99/5=1,9=1/99;
 ------
 SP_125
 ------
 Symbolic Z-matrix:
 Charge =  1 Multiplicity = 1
 C                     2.47011   1.36103   0. 
 C                     3.67343   0.65939   0. 
 C                     3.67626  -0.73628   0. 
 C                     2.49053  -1.42361   0. 
 C                    -2.43593  -1.39176   0. 
 C                    -3.69236  -0.69288   0. 
 C                    -3.73101   0.68406   0. 
 C                    -2.51806   1.35893   0. 
 C                    -0.01535   1.45667   0. 
 C                     0.0427   -1.42934   0. 
 C                     1.26856   0.69049   0. 
 C                     1.25467  -0.73268   0. 
 C                    -1.25578   0.66372   0. 
 C                    -1.21967  -0.72848   0. 
 H                     2.48237   2.44395   0. 
 H                     4.60848   1.20106   0. 
 H                     4.61456  -1.2725    0. 
 H                     2.4801   -2.50566   0. 
 H                     0.03938  -2.51034   0. 
 H                    -2.45455  -2.47468   0. 
 H                    -4.60441  -1.27407   0. 
 H                    -4.66675   1.22119   0. 
 H                    -2.49707   2.44237   0. 
 H                    -0.056     2.14654  -0.86041 
 H                    -0.056     2.14654   0.86041 
 
                          Input orientation:                          
 ---------------------------------------------------------------------
 Center     Atomic      Atomic             Coordinates (Angstroms)
 Number     Number       Type             X           Y           Z
 ---------------------------------------------------------------------
      1          6           0        2.470105    1.361031    0.000000
      2          6           0        3.673433    0.659389    0.000000
      3          6           0        3.676261   -0.736280    0.000000
      4          6           0        2.490531   -1.423613    0.000000
      5          6           0       -2.435931   -1.391763    0.000000
      6          6           0       -3.692361   -0.692880    0.000000
      7          6           0       -3.731008    0.684064    0.000000
      8          6           0       -2.518055    1.358931    0.000000
      9          6           0       -0.015350    1.456669    0.000000
     10          6           0        0.042700   -1.429339    0.000000
     11          6           0        1.268555    0.690490    0.000000
     12          6           0        1.254671   -0.732679    0.000000
     13          6           0       -1.255780    0.663715    0.000000
     14          6           0       -1.219671   -0.728479    0.000000
     15          1           0        2.482371    2.443947    0.000000
     16          1           0        4.608478    1.201064    0.000000
     17          1           0        4.614562   -1.272499    0.000000
     18          1           0        2.480100   -2.505659    0.000000
     19          1           0        0.039375   -2.510341    0.000000
     20          1           0       -2.454550   -2.474684    0.000000
     21          1           0       -4.604412   -1.274074    0.000000
     22          1           0       -4.666753    1.221189    0.000000
     23          1           0       -2.497071    2.442372    0.000000
     24          1           0       -0.056000    2.146537   -0.860410
     25          1           0       -0.056000    2.146537    0.860410
 ---------------------------------------------------------------------
                    Distance matrix (angstroms):
                    1          2          3          4          5
     1  C    0.000000
     2  C    1.392946   0.000000
     3  C    2.419406   1.395672   0.000000
     4  C    2.784719   2.395445   1.370541   0.000000
     5  C    5.625572   6.444498   6.147239   4.926565   0.000000
     6  C    6.495732   7.488895   7.368750   6.225924   1.437725
     7  C    6.237955   7.404482   7.542215   6.568855   2.446688
     8  C    4.988160   6.230881   6.539072   5.729615   2.751920
     9  C    2.487294   3.773960   4.293835   3.817783   3.738018
    10  C    3.698440   4.188676   3.699067   2.447838   2.478916
    11  C    1.375990   2.405079   2.798700   2.441855   4.249588
    12  C    2.420930   2.790746   2.421593   1.415888   3.748991
    13  C    3.790576   4.929215   5.126891   4.288564   2.370179
    14  C    4.240342   5.086123   4.895938   3.774760   1.385364
    15  H    1.082985   2.145525   3.396942   3.867569   6.237176
    16  H    2.144348   1.080611   2.149961   3.372629   7.506427
    17  H    3.396200   2.148933   1.080713   2.129400   7.051502
    18  H    3.866703   3.382539   2.135768   1.082096   5.040647
    19  H    4.571211   4.822195   4.046509   2.681258   2.716313
    20  H    6.242190   6.882920   6.372511   5.055549   1.083081
    21  H    7.549342   8.500647   8.298118   7.096519   2.171672
    22  H    7.138228   8.359086   8.569572   7.630314   3.435707
    23  H    5.083516   6.422939   6.943620   6.310469   3.834622
    24  H    2.781822   4.106164   4.793820   4.468903   4.350166
    25  H    2.781822   4.106164   4.793820   4.468903   4.350166
                    6          7          8          9         10
     6  C    0.000000
     7  C    1.377486   0.000000
     8  C    2.364090   1.388056   0.000000
     9  C    4.259222   3.795133   2.504613   0.000000
    10  C    3.806974   4.325199   3.785752   2.886592   0.000000
    11  C    5.150184   4.999567   3.845157   1.495140   2.448754
    12  C    4.947192   5.183064   4.313733   2.531047   1.397930
    13  C    2.788777   2.475312   1.441063   1.472224   2.463113
    14  C    2.472946   2.881335   2.458268   2.495047   1.443879
    15  H    6.925821   6.457807   5.116788   2.685764   4.577591
    16  H    8.514162   8.355496   7.128281   4.630888   5.269284
    17  H    8.327120   8.571854   7.602542   5.374425   4.574551
    18  H    6.433152   6.982277   6.317959   4.682661   2.664467
    19  H    4.150785   4.941661   4.638072   3.967387   1.081007
    20  H    2.169563   3.406910   3.834141   4.626579   2.707213
    21  H    1.081491   2.144094   3.359405   5.340079   4.649705
    22  H    2.147813   1.078945   2.153108   4.657360   5.404095
    23  H    3.355372   2.148080   1.083644   2.670309   4.630398
    24  H    4.693156   4.047816   2.724398   1.103574   3.679258
    25  H    4.693156   4.047816   2.724398   1.103574   3.679258
                   11         12         13         14         15
    11  C    0.000000
    12  C    1.423237   0.000000
    13  C    2.524477   2.872678   0.000000
    14  C    2.864392   2.474346   1.392662   0.000000
    15  H    2.132595   3.405613   4.140410   4.875387   0.000000
    16  H    3.378723   3.871354   5.888826   6.139255   2.462740
    17  H    3.879315   3.402980   6.181411   5.859542   4.284648
    18  H    3.418071   2.155257   4.899156   4.104470   4.949607
    19  H    3.428732   2.153376   3.428127   2.181795   5.523875
    20  H    4.886700   4.097914   3.359553   2.138728   6.968940
    21  H    6.192839   5.884043   3.868897   3.428432   8.002885
    22  H    5.958987   6.235452   3.456228   3.960250   7.252938
    23  H    4.153195   4.914928   2.168968   3.418486   4.979442
    24  H    2.148214   3.278422   2.092496   3.218719   2.696680
    25  H    2.148214   3.278422   2.092496   3.218719   2.696680
                   16         17         18         19         20
    16  H    0.000000
    17  H    2.473570   0.000000
    18  H    4.274317   2.465078   0.000000
    19  H    5.886529   4.739682   2.440729   0.000000
    20  H    7.962254   7.170606   4.934747   2.494180   0.000000
    21  H    9.539583   9.218974   7.190766   4.805530   2.462391
    22  H    9.275253   9.610478   8.060205   6.005993   4.307356
    23  H    7.213160   8.023440   7.018208   5.564434   4.917240
    24  H    4.836484   5.851860   5.367964   4.736656   5.277218
    25  H    4.836484   5.851860   5.367964   4.736656   5.277218
                   21         22         23         24         25
    21  H    0.000000
    22  H    2.496042   0.000000
    23  H    4.272336   2.489741   0.000000
    24  H    5.755774   4.780755   2.605120   0.000000
    25  H    5.755774   4.780755   2.605120   1.720820   0.000000
 Stoichiometry    C14H11(1+)
 Framework group  CS[SG(C14H9),X(H2)]
 Deg. of freedom    46
 Full point group                 CS      NOp   2
 Largest Abelian subgroup         CS      NOp   2
 Largest concise Abelian subgroup CS      NOp   2
                         Standard orientation:                         
 ---------------------------------------------------------------------
 Center     Atomic      Atomic             Coordinates (Angstroms)
 Number     Number       Type             X           Y           Z
 ---------------------------------------------------------------------
      1          6           0       -2.358158   -1.547936    0.000000
      2          6           0       -2.300413   -2.939685    0.000000
      3          6           0       -1.067948   -3.594612    0.000000
      4          6           0        0.093950   -2.867718    0.000000
      5          6           0        2.368746    1.502219    0.000000
      6          6           0        2.338263    2.939621    0.000000
      7          6           0        1.139095    3.617459    0.000000
      8          6           0       -0.024509    2.860672    0.000000
      9          6           0       -1.280839    0.693942    0.000000
     10          6           0        1.243289   -0.706484    0.000000
     11          6           0       -1.203709   -0.799207    0.000000
     12          6           0        0.060879   -1.452216    0.000000
     13          6           0        0.000000    1.419818    0.000000
     14          6           0        1.213835    0.737094    0.000000
     15          1           0       -3.321202   -1.052553    0.000000
     16          1           0       -3.216361   -3.513061    0.000000
     17          1           0       -1.032548   -4.674744    0.000000
     18          1           0        1.055367   -3.364316    0.000000
     19          1           0        2.200461   -1.208876    0.000000
     20          1           0        3.334764    1.012450    0.000000
     21          1           0        3.278397    3.474196    0.000000
     22          1           0        1.101699    4.695756    0.000000
     23          1           0       -0.992092    3.348594    0.000000
     24          1           0       -1.871687    1.052367    0.860410
     25          1           0       -1.871687    1.052367   -0.860410
 ---------------------------------------------------------------------
 Rotational constants (GHZ):           2.1354683           0.4444038           0.3686525
 Standard basis: 6-311++G(d,p) (5D, 7F)
 There are   299 symmetry adapted cartesian basis functions of A'  symmetry.
 There are   100 symmetry adapted cartesian basis functions of A"  symmetry.
 There are   285 symmetry adapted basis functions of A'  symmetry.
 There are   100 symmetry adapted basis functions of A"  symmetry.
   385 basis functions,   603 primitive gaussians,   399 cartesian basis functions
    47 alpha electrons       47 beta electrons
       nuclear repulsion energy       781.0898900091 Hartrees.
 NAtoms=   25 NActive=   25 NUniq=   24 SFac= 1.09D+00 NAtFMM=   60 NAOKFM=F Big=F
 Integral buffers will be    131072 words long.
 Regular integral format.
 Two-electron integral symmetry is turned on.
 Nuclear repulsion after empirical dispersion term =      781.0889108022 Hartrees.
 One-electron integrals computed using PRISM.
 NBasis=   385 RedAO= T EigKep=  1.13D-06  NBF=   285   100
 NBsUse=   379 1.00D-06 EigRej=  8.39D-07 NBFU=   279   100
 ExpMin= 3.60D-02 ExpMax= 4.56D+03 ExpMxC= 6.82D+02 IAcc=3 IRadAn=         5 AccDes= 0.00D+00
 Harris functional with IExCor= 1009 and IRadAn=       5 diagonalized for initial guess.
 HarFok:  IExCor= 1009 AccDes= 0.00D+00 IRadAn=         5 IDoV= 1 UseB2=F ITyADJ=14
 ICtDFT=  3500011 ScaDFX=  1.000000  1.000000  1.000000  1.000000
 FoFCou: FMM=F IPFlag=           0 FMFlag=      100000 FMFlg1=           0
         NFxFlg=           0 DoJE=T BraDBF=F KetDBF=T FulRan=T
         wScrn=  0.000000 ICntrl=       500 IOpCl=  0 I1Cent=   200000004 NGrid=           0
         NMat0=    1 NMatS0=      1 NMatT0=    0 NMatD0=    1 NMtDS0=    0 NMtDT0=    0
 Petite list used in FoFCou.
 Initial guess orbital symmetries:
       Occupied  (A') (A') (A') (A') (A') (A') (A') (A') (A') (A')
                 (A') (A') (A') (A') (A') (A') (A') (A') (A') (A')
                 (A') (A') (A') (A') (A') (A') (A') (A') (A') (A')
                 (A') (A') (A") (A') (A') (A') (A') (A') (A") (A')
                 (A") (A') (A') (A") (A") (A") (A")
       Virtual   (A") (A") (A") (A") (A") (A') (A') (A') (A') (A")
                 (A") (A') (A') (A') (A") (A') (A') (A') (A') (A")
                 (A') (A") (A') (A') (A') (A") (A') (A") (A') (A')
                 (A') (A') (A') (A') (A") (A') (A") (A') (A') (A')
                 (A") (A') (A') (A") (A') (A') (A') (A') (A") (A')
                 (A') (A') (A") (A") (A') (A') (A') (A") (A") (A')
                 (A') (A') (A') (A') (A') (A') (A") (A') (A') (A")
                 (A') (A') (A') (A') (A') (A') (A') (A') (A') (A')
                 (A') (A') (A') (A') (A') (A') (A') (A') (A') (A')
                 (A') (A') (A') (A') (A') (A') (A') (A") (A') (A")
                 (A') (A') (A") (A") (A') (A") (A') (A") (A") (A')
                 (A") (A') (A') (A') (A") (A') (A') (A") (A") (A')
                 (A") (A") (A') (A') (A') (A") (A') (A') (A') (A")
                 (A') (A') (A') (A') (A') (A') (A") (A') (A') (A')
                 (A') (A') (A') (A') (A') (A') (A') (A') (A') (A")
                 (A") (A') (A") (A") (A') (A') (A') (A") (A") (A')
                 (A") (A') (A") (A") (A") (A') (A') (A') (A') (A')
                 (A') (A") (A') (A') (A") (A') (A') (A') (A') (A")
                 (A') (A') (A') (A') (A") (A') (A") (A') (A") (A")
                 (A') (A") (A') (A") (A') (A') (A') (A") (A') (A')
                 (A") (A") (A") (A') (A') (A") (A') (A") (A') (A')
                 (A") (A") (A') (A") (A') (A") (A') (A') (A') (A")
                 (A') (A') (A') (A') (A") (A') (A') (A') (A") (A")
                 (A') (A') (A') (A") (A') (A') (A") (A') (A") (A')
                 (A") (A') (A') (A') (A') (A") (A') (A') (A') (A")
                 (A') (A') (A') (A") (A") (A') (A') (A") (A') (A')
                 (A') (A") (A') (A") (A') (A') (A') (A") (A') (A")
                 (A') (A') (A') (A') (A") (A') (A") (A') (A") (A')
                 (A") (A') (A") (A") (A") (A') (A') (A') (A') (A')
                 (A') (A') (A') (A') (A') (A') (A') (A') (A') (A')
                 (A') (A') (A') (A') (A') (A") (A') (A') (A') (A')
                 (A') (A') (A') (A') (A') (A') (A') (A') (A') (A')
                 (A') (A') (A') (A') (A') (A') (A') (A') (A') (A')
                 (A') (A')
 The electronic state of the initial guess is 1-A'.
 Requested convergence on RMS density matrix=1.00D-08 within 128 cycles.
 Requested convergence on MAX density matrix=1.00D-06.
 Requested convergence on             energy=1.00D-06.
 No special actions if energy rises.
 SCF Done:  E(RM062X) =  -539.754934764     A.U. after   15 cycles
            NFock= 15  Conv=0.94D-08     -V/T= 2.0042
 DoSCS=F DFT=T ScalE2(SS,OS)=  1.000000  1.000000
 ExpMin= 3.60D-02 ExpMax= 4.56D+03 ExpMxC= 6.82D+02 IAcc=3 IRadAn=         5 AccDes= 0.00D+00
 HarFok:  IExCor=  205 AccDes= 0.00D+00 IRadAn=         5 IDoV=-2 UseB2=F ITyADJ=14
 ICtDFT= 12500011 ScaDFX=  1.000000  1.000000  1.000000  1.000000
 Range of M.O.s used for correlation:    15   379
 NBasis=   385 NAE=    47 NBE=    47 NFC=    14 NFV=     0
 NROrb=    365 NOA=    33 NOB=    33 NVA=   332 NVB=   332

 **** Warning!!: The largest alpha MO coefficient is  0.13818879D+03

 Orbital symmetries:
       Occupied  (A') (A') (A') (A') (A') (A') (A') (A') (A') (A')
                 (A') (A') (A') (A') (A') (A') (A') (A') (A') (A')
                 (A') (A') (A') (A') (A') (A') (A') (A') (A') (A')
                 (A') (A") (A') (A') (A') (A') (A') (A") (A") (A')
                 (A') (A') (A') (A") (A") (A") (A")
       Virtual   (A") (A") (A") (A") (A') (A') (A') (A') (A") (A')
                 (A') (A") (A') (A') (A") (A') (A") (A') (A') (A')
                 (A") (A") (A') (A') (A') (A") (A') (A") (A') (A')
                 (A") (A') (A") (A') (A') (A') (A') (A') (A") (A')
                 (A") (A') (A') (A") (A") (A') (A") (A') (A") (A')
                 (A') (A') (A') (A') (A') (A") (A') (A') (A') (A')
                 (A') (A") (A') (A') (A') (A") (A') (A') (A') (A')
                 (A') (A') (A') (A') (A') (A') (A') (A') (A') (A')
                 (A') (A') (A') (A') (A') (A') (A') (A') (A') (A')
                 (A') (A') (A') (A') (A") (A') (A") (A") (A') (A")
                 (A') (A') (A') (A') (A") (A") (A') (A") (A") (A')
                 (A') (A') (A") (A') (A") (A') (A') (A") (A') (A")
                 (A") (A') (A") (A') (A') (A') (A") (A') (A') (A')
                 (A') (A') (A') (A') (A') (A') (A') (A') (A') (A')
                 (A') (A') (A') (A") (A') (A') (A') (A') (A') (A')
                 (A') (A') (A") (A') (A") (A') (A") (A") (A') (A")
                 (A") (A') (A') (A") (A") (A') (A") (A") (A') (A')
                 (A') (A') (A') (A") (A") (A') (A') (A') (A') (A")
                 (A') (A') (A') (A") (A") (A') (A') (A") (A") (A')
                 (A") (A') (A') (A") (A") (A') (A') (A') (A') (A')
                 (A") (A") (A") (A') (A") (A') (A') (A") (A') (A')
                 (A') (A") (A') (A") (A") (A') (A") (A') (A') (A")
                 (A') (A') (A') (A') (A") (A') (A') (A') (A") (A")
                 (A') (A') (A') (A") (A') (A') (A') (A") (A") (A')
                 (A") (A') (A') (A") (A') (A') (A') (A') (A') (A')
                 (A") (A') (A') (A') (A') (A") (A") (A") (A') (A')
                 (A') (A') (A') (A') (A') (A') (A') (A") (A') (A')
                 (A') (A") (A') (A") (A") (A") (A') (A") (A') (A")
                 (A') (A") (A") (A') (A") (A") (A') (A') (A') (A')
                 (A') (A') (A') (A') (A') (A') (A') (A') (A') (A')
                 (A') (A') (A') (A") (A') (A') (A') (A') (A') (A')
                 (A') (A') (A') (A') (A') (A') (A') (A') (A') (A')
                 (A') (A') (A') (A') (A') (A') (A') (A') (A') (A')
                 (A') (A')
     4 initial guesses have been made.
 Convergence on wavefunction:    0.001000000000000
 Iteration     1 Dimension     4 NMult     0 NNew      4
 CISAX will form     4 AO SS matrices at one time.
 Iteration     2 Dimension     6 NMult     4 NNew      2
 Iteration     3 Dimension     8 NMult     6 NNew      2
 Iteration     4 Dimension    10 NMult     8 NNew      2
 Iteration     5 Dimension    12 NMult    10 NNew      2
 Iteration     6 Dimension    14 NMult    12 NNew      2
 ***********************************************************************
 Excited states from <AA,BB:AA,BB> singles matrix:
 ***********************************************************************
 
 Ground to excited state transition densities written to RWF  633
 Ground to excited state transition electric dipole moments (Au):
       state          X           Y           Z        Dip. S.      Osc.
         1        -0.4677      0.3011      0.0000      0.3094      0.0204
 Ground to excited state transition velocity dipole moments (Au):
       state          X           Y           Z        Dip. S.      Osc.
         1         0.0540     -0.0297      0.0000      0.0038      0.0257
 Ground to excited state transition magnetic dipole moments (Au):
       state          X           Y           Z
         1        -0.0000      0.0000     -0.1762
 Ground to excited state transition velocity quadrupole moments (Au):
       state          XX          YY          ZZ          XY          XZ          YZ
         1         0.1417      0.1298     -0.0084      0.1370     -0.0000      0.0000
 <0|del|b> * <b|rxdel|0> + <0|del|b> * <b|delr+rdel|0>
 Rotatory Strengths (R) in cgs (10**-40 erg-esu-cm/Gauss)
       state          XX          YY          ZZ    R(velocity)    E-M Angle
         1        -0.0000     -0.0000     -0.0000     -0.0000       90.00
 1/2[<0|r|b>*<b|rxdel|0> + (<0|rxdel|b>*<b|r|0>)*]
 Rotatory Strengths (R) in cgs (10**-40 erg-esu-cm/Gauss)
       state          XX          YY          ZZ     R(length)
         1        -0.0000     -0.0000      0.0000     -0.0000
  1/2[<0|del|b>*<b|r|0> + (<0|r|b>*<b|del|0>)*] (Au)
       state          X           Y           Z        Dip. S.   Osc.(frdel)
         1        -0.0252     -0.0090      0.0000      0.0342      0.0228

 Excitation energies and oscillator strengths:
 
 Excited State   1:      Singlet-A'     2.6861 eV  461.57 nm  f=0.0204  <S**2>=0.000
      47 -> 48         0.70355
 This state for optimization and/or second-order correction.
 Total Energy, E(TD-HF/TD-DFT) =  -539.656221617    
 Copying the excited state density for this state as the 1-particle RhoCI density.
 SavETr:  write IOETrn=   770 NScale= 10 NData=  16 NLR=1 NState=    1 LETran=      28.

 **********************************************************************

            Population analysis using the SCF Density.

 **********************************************************************

 Orbital symmetries:
       Occupied  (A') (A') (A') (A') (A') (A') (A') (A') (A') (A')
                 (A') (A') (A') (A') (A') (A') (A') (A') (A') (A')
                 (A') (A') (A') (A') (A') (A') (A') (A') (A') (A')
                 (A') (A") (A') (A') (A') (A') (A') (A") (A") (A')
                 (A') (A') (A') (A") (A") (A") (A")
       Virtual   (A") (A") (A") (A") (A') (A') (A') (A') (A") (A')
                 (A') (A") (A') (A') (A") (A') (A") (A') (A') (A')
                 (A") (A") (A') (A') (A') (A") (A') (A") (A') (A')
                 (A") (A') (A") (A') (A') (A') (A') (A') (A") (A')
                 (A") (A') (A') (A") (A") (A') (A") (A') (A") (A')
                 (A') (A') (A') (A') (A') (A") (A') (A') (A') (A')
                 (A') (A") (A') (A') (A') (A") (A') (A') (A') (A')
                 (A') (A') (A') (A') (A') (A') (A') (A') (A') (A')
                 (A') (A') (A') (A') (A') (A') (A') (A') (A') (A')
                 (A') (A') (A') (A') (A") (A') (A") (A") (A') (A")
                 (A') (A') (A') (A') (A") (A") (A') (A") (A") (A')
                 (A') (A') (A") (A') (A") (A') (A') (A") (A') (A")
                 (A") (A') (A") (A') (A') (A') (A") (A') (A') (A')
                 (A') (A') (A') (A') (A') (A') (A') (A') (A') (A')
                 (A') (A') (A') (A") (A') (A') (A') (A') (A') (A')
                 (A') (A') (A") (A') (A") (A') (A") (A") (A') (A")
                 (A") (A') (A') (A") (A") (A') (A") (A") (A') (A')
                 (A') (A') (A') (A") (A") (A') (A') (A') (A') (A")
                 (A') (A') (A') (A") (A") (A') (A') (A") (A") (A')
                 (A") (A') (A') (A") (A") (A') (A') (A') (A') (A')
                 (A") (A") (A") (A') (A") (A') (A') (A") (A') (A')
                 (A') (A") (A') (A") (A") (A') (A") (A') (A') (A")
                 (A') (A') (A') (A') (A") (A') (A') (A') (A") (A")
                 (A') (A') (A') (A") (A') (A') (A') (A") (A") (A')
                 (A") (A') (A') (A") (A') (A') (A') (A') (A') (A')
                 (A") (A') (A') (A') (A') (A") (A") (A") (A') (A')
                 (A') (A') (A') (A') (A') (A') (A') (A") (A') (A')
                 (A') (A") (A') (A") (A") (A") (A') (A") (A') (A")
                 (A') (A") (A") (A') (A") (A") (A') (A') (A') (A')
                 (A') (A') (A') (A') (A') (A') (A') (A') (A') (A')
                 (A') (A') (A') (A") (A') (A') (A') (A') (A') (A')
                 (A') (A') (A') (A') (A') (A') (A') (A') (A') (A')
                 (A') (A') (A') (A') (A') (A') (A') (A') (A') (A')
                 (A') (A')
 The electronic state is 1-A'.
 Alpha  occ. eigenvalues --  -10.77601 -10.73754 -10.72814 -10.72745 -10.72002
 Alpha  occ. eigenvalues --  -10.71932 -10.71824 -10.70993 -10.70871 -10.70202
 Alpha  occ. eigenvalues --  -10.70136 -10.69917 -10.69746 -10.69348  -1.16509
 Alpha  occ. eigenvalues --   -1.12460  -1.06939  -1.05806  -1.01290  -1.00360
 Alpha  occ. eigenvalues --   -0.95603  -0.91027  -0.86436  -0.85888  -0.83778
 Alpha  occ. eigenvalues --   -0.78342  -0.76107  -0.74373  -0.69755  -0.69306
 Alpha  occ. eigenvalues --   -0.68334  -0.68098  -0.68078  -0.65183  -0.64232
 Alpha  occ. eigenvalues --   -0.62774  -0.61628  -0.60413  -0.59305  -0.59155
 Alpha  occ. eigenvalues --   -0.56928  -0.55263  -0.54582  -0.52442  -0.47192
 Alpha  occ. eigenvalues --   -0.46119  -0.43903
 Alpha virt. eigenvalues --   -0.26108  -0.14665  -0.14081  -0.12764  -0.11188
 Alpha virt. eigenvalues --   -0.10090  -0.09254  -0.07964  -0.07937  -0.07482
 Alpha virt. eigenvalues --   -0.07208  -0.07136  -0.05647  -0.05574  -0.05348
 Alpha virt. eigenvalues --   -0.03846  -0.03661  -0.03273  -0.03134  -0.02159
 Alpha virt. eigenvalues --   -0.01351  -0.00952   0.00191   0.00593   0.00637
 Alpha virt. eigenvalues --    0.01063   0.01506   0.01935   0.02155   0.02305
 Alpha virt. eigenvalues --    0.02449   0.02672   0.02785   0.03260   0.03452
 Alpha virt. eigenvalues --    0.04224   0.04495   0.04721   0.05040   0.05387
 Alpha virt. eigenvalues --    0.06026   0.06288   0.06580   0.07047   0.07271
 Alpha virt. eigenvalues --    0.07902   0.08087   0.08349   0.08621   0.08912
 Alpha virt. eigenvalues --    0.09490   0.09586   0.09974   0.10817   0.10961
 Alpha virt. eigenvalues --    0.11129   0.12103   0.12247   0.12712   0.13025
 Alpha virt. eigenvalues --    0.13460   0.13525   0.13980   0.14334   0.15893
 Alpha virt. eigenvalues --    0.16386   0.16463   0.17329   0.17479   0.17784
 Alpha virt. eigenvalues --    0.18122   0.19070   0.19355   0.19648   0.19889
 Alpha virt. eigenvalues --    0.21477   0.21639   0.22665   0.23174   0.23561
 Alpha virt. eigenvalues --    0.23938   0.24549   0.25447   0.26942   0.27613
 Alpha virt. eigenvalues --    0.28847   0.29253   0.29908   0.31347   0.35762
 Alpha virt. eigenvalues --    0.36451   0.38212   0.39278   0.41061   0.41303
 Alpha virt. eigenvalues --    0.41961   0.42132   0.42983   0.43697   0.44380
 Alpha virt. eigenvalues --    0.44787   0.45119   0.45904   0.46378   0.47913
 Alpha virt. eigenvalues --    0.48413   0.48784   0.49043   0.50510   0.51065
 Alpha virt. eigenvalues --    0.51247   0.52020   0.52140   0.52772   0.54120
 Alpha virt. eigenvalues --    0.54123   0.54592   0.55642   0.55929   0.57595
 Alpha virt. eigenvalues --    0.58223   0.58945   0.61492   0.62263   0.62412
 Alpha virt. eigenvalues --    0.63163   0.63474   0.64908   0.65158   0.67407
 Alpha virt. eigenvalues --    0.70351   0.70491   0.71193   0.72499   0.72900
 Alpha virt. eigenvalues --    0.75589   0.76052   0.76412   0.76757   0.77120
 Alpha virt. eigenvalues --    0.77864   0.77985   0.78272   0.79921   0.80389
 Alpha virt. eigenvalues --    0.81235   0.81546   0.82395   0.82990   0.85225
 Alpha virt. eigenvalues --    0.87046   0.88152   0.88178   0.89300   0.90605
 Alpha virt. eigenvalues --    0.91032   0.91416   0.93290   0.94594   0.96275
 Alpha virt. eigenvalues --    0.96897   1.00197   1.01270   1.01537   1.02827
 Alpha virt. eigenvalues --    1.03022   1.03265   1.04863   1.06356   1.08864
 Alpha virt. eigenvalues --    1.19573   1.22982   1.24152   1.24344   1.28822
 Alpha virt. eigenvalues --    1.29335   1.32207   1.34300   1.35744   1.35964
 Alpha virt. eigenvalues --    1.39310   1.39683   1.40843   1.42964   1.43428
 Alpha virt. eigenvalues --    1.43508   1.44248   1.46357   1.46598   1.46796
 Alpha virt. eigenvalues --    1.47698   1.48173   1.51753   1.53670   1.55683
 Alpha virt. eigenvalues --    1.55774   1.56291   1.56589   1.57807   1.61455
 Alpha virt. eigenvalues --    1.63006   1.63388   1.64182   1.66075   1.68299
 Alpha virt. eigenvalues --    1.68340   1.68728   1.69843   1.74398   1.76017
 Alpha virt. eigenvalues --    1.77155   1.78081   1.79807   1.79997   1.80852
 Alpha virt. eigenvalues --    1.82852   1.83196   1.83596   1.83810   1.84190
 Alpha virt. eigenvalues --    1.84560   1.85474   1.86407   1.88350   1.91415
 Alpha virt. eigenvalues --    1.92135   1.94055   1.95320   1.97778   1.98147
 Alpha virt. eigenvalues --    1.99789   2.02332   2.04510   2.07313   2.11722
 Alpha virt. eigenvalues --    2.12150   2.14248   2.15268   2.19046   2.21176
 Alpha virt. eigenvalues --    2.22741   2.28504   2.30220   2.34462   2.34791
 Alpha virt. eigenvalues --    2.36346   2.38600   2.39681   2.42330   2.44675
 Alpha virt. eigenvalues --    2.46110   2.46403   2.49193   2.52936   2.53777
 Alpha virt. eigenvalues --    2.54218   2.56888   2.57907   2.58415   2.59432
 Alpha virt. eigenvalues --    2.59912   2.61534   2.62128   2.63559   2.63716
 Alpha virt. eigenvalues --    2.64826   2.65061   2.65066   2.65582   2.67893
 Alpha virt. eigenvalues --    2.68375   2.70924   2.71466   2.73369   2.74807
 Alpha virt. eigenvalues --    2.76284   2.78371   2.79640   2.83032   2.83196
 Alpha virt. eigenvalues --    2.84849   2.86247   2.92108   2.97112   2.99414
 Alpha virt. eigenvalues --    3.00131   3.04887   3.09559   3.11190   3.14059
 Alpha virt. eigenvalues --    3.20575   3.22166   3.26241   3.28655   3.30659
 Alpha virt. eigenvalues --    3.32806   3.34648   3.43878   3.46195   3.46709
 Alpha virt. eigenvalues --    3.48270   3.50008   3.56394   3.66065   3.66869
 Alpha virt. eigenvalues --    3.67841   3.93715   3.94059   3.95375   3.96472
 Alpha virt. eigenvalues --    4.03925   4.06493   4.07628   4.12540   4.35228
 Alpha virt. eigenvalues --    4.60808   4.69183   4.71198  23.45240  23.60087
 Alpha virt. eigenvalues --   23.80232  23.82595  23.85355  23.89115  23.91821
 Alpha virt. eigenvalues --   23.95222  23.95823  23.97610  24.03092  24.05500
 Alpha virt. eigenvalues --   24.11259  24.12778
          Condensed to atoms (all electrons):
               1          2          3          4          5          6
     1  C    8.384226   0.492316  -0.643352   1.798527  -0.010086  -0.085917
     2  C    0.492316   7.199213   0.417186  -1.010947  -0.036973  -0.015059
     3  C   -0.643352   0.417186   6.607903   0.723126  -0.113665   0.016884
     4  C    1.798527  -1.010947   0.723126  11.564288  -0.398466  -0.141386
     5  C   -0.010086  -0.036973  -0.113665  -0.398466  10.750172   0.834319
     6  C   -0.085917  -0.015059   0.016884  -0.141386   0.834319   6.600248
     7  C   -0.030619  -0.000345  -0.013049   0.016093  -1.218420   0.241000
     8  C    0.406670   0.000272  -0.106048  -0.093993   2.301585  -0.378404
     9  C   -1.122460  -0.867803   0.296840   0.042664  -0.399816   0.296388
    10  C   -1.217153   0.165516  -0.263793  -2.788839  -2.391832  -0.434264
    11  C    0.342785  -0.786080   0.887069  -0.343319  -1.424711  -0.111826
    12  C   -1.872011   1.065690  -1.351620  -1.683693  -0.225835  -0.284033
    13  C    0.209292  -0.211382  -0.224178  -1.594431  -0.335880   1.103480
    14  C   -1.145613  -0.291211  -0.117421  -0.460364  -1.675206  -1.514755
    15  H    0.367776  -0.106807  -0.003020   0.025515   0.006357   0.001234
    16  H   -0.020115   0.383352  -0.021700   0.016904  -0.001688  -0.000358
    17  H   -0.020441  -0.022290   0.381328  -0.070301   0.000143   0.000414
    18  H    0.047846   0.003621  -0.083571   0.467949   0.005680  -0.005055
    19  H   -0.043859  -0.008299   0.051316  -0.080884  -0.061715   0.051807
    20  H    0.006884   0.002055  -0.005291   0.005697   0.455569  -0.084253
    21  H   -0.001232  -0.000419   0.000386   0.000463  -0.066607   0.368249
    22  H    0.000414   0.000320  -0.000297  -0.001324   0.010076  -0.012423
    23  H    0.006596  -0.002283   0.000981   0.004481   0.030193   0.001466
    24  H    0.038008   0.015958  -0.001333  -0.011238  -0.013174  -0.001825
    25  H    0.038008   0.015958  -0.001333  -0.011238  -0.013174  -0.001825
               7          8          9         10         11         12
     1  C   -0.030619   0.406670  -1.122460  -1.217153   0.342785  -1.872011
     2  C   -0.000345   0.000272  -0.867803   0.165516  -0.786080   1.065690
     3  C   -0.013049  -0.106048   0.296840  -0.263793   0.887069  -1.351620
     4  C    0.016093  -0.093993   0.042664  -2.788839  -0.343319  -1.683693
     5  C   -1.218420   2.301585  -0.399816  -2.391832  -1.424711  -0.225835
     6  C    0.241000  -0.378404   0.296388  -0.434264  -0.111826  -0.284033
     7  C    7.213590  -0.034053  -0.787914   0.351369  -0.303295  -0.076828
     8  C   -0.034053   9.004110  -1.103489  -1.401046   0.300630  -1.057381
     9  C   -0.787914  -1.103489   9.603095   0.254981   1.579437  -2.084273
    10  C    0.351369  -1.401046   0.254981   9.093214  -0.292199   2.380877
    11  C   -0.303295   0.300630   1.579437  -0.292199  14.526204  -4.070308
    12  C   -0.076828  -1.057381  -2.084273   2.380877  -4.070308  16.305464
    13  C   -0.976941   0.305617   1.437825  -0.454584   1.073184  -4.692677
    14  C    1.755082  -2.653650  -1.712660   2.460128  -4.803674   3.145731
    15  H   -0.002888   0.004817   0.087314  -0.007883  -0.029637  -0.013053
    16  H    0.000404   0.001043   0.001576  -0.010246   0.024293  -0.029409
    17  H   -0.000374  -0.001403  -0.004731   0.019988  -0.025234   0.086331
    18  H    0.002144   0.006963  -0.022437   0.006356  -0.008264  -0.048939
    19  H   -0.007473  -0.048355   0.074675   0.422297   0.077066  -0.086182
    20  H    0.001789   0.054581  -0.025844   0.013644  -0.012133  -0.008814
    21  H   -0.007666  -0.033004  -0.006336   0.020226  -0.006220   0.005317
    22  H    0.374161  -0.016704   0.003733  -0.007857   0.002421  -0.007630
    23  H   -0.109316   0.371258   0.095134  -0.011209   0.007161   0.004639
    24  H    0.013054   0.028408   0.355895   0.005371   0.024539  -0.060017
    25  H    0.013054   0.028408   0.355895   0.005371   0.024539  -0.060017
              13         14         15         16         17         18
     1  C    0.209292  -1.145613   0.367776  -0.020115  -0.020441   0.047846
     2  C   -0.211382  -0.291211  -0.106807   0.383352  -0.022290   0.003621
     3  C   -0.224178  -0.117421  -0.003020  -0.021700   0.381328  -0.083571
     4  C   -1.594431  -0.460364   0.025515   0.016904  -0.070301   0.467949
     5  C   -0.335880  -1.675206   0.006357  -0.001688   0.000143   0.005680
     6  C    1.103480  -1.514755   0.001234  -0.000358   0.000414  -0.005055
     7  C   -0.976941   1.755082  -0.002888   0.000404  -0.000374   0.002144
     8  C    0.305617  -2.653650   0.004817   0.001043  -0.001403   0.006963
     9  C    1.437825  -1.712660   0.087314   0.001576  -0.004731  -0.022437
    10  C   -0.454584   2.460128  -0.007883  -0.010246   0.019988   0.006356
    11  C    1.073184  -4.803674  -0.029637   0.024293  -0.025234  -0.008264
    12  C   -4.692677   3.145731  -0.013053  -0.029409   0.086331  -0.048939
    13  C   14.249350  -3.315072  -0.003381   0.003396  -0.006294  -0.012422
    14  C   -3.315072  15.880736   0.007587  -0.010377   0.005255  -0.021612
    15  H   -0.003381   0.007587   0.434449  -0.008930   0.001666   0.000228
    16  H    0.003396  -0.010377  -0.008930   0.416231  -0.007070   0.001973
    17  H   -0.006294   0.005255   0.001666  -0.007070   0.419861  -0.010131
    18  H   -0.012422  -0.021612   0.000228   0.001973  -0.010131   0.448845
    19  H    0.081813  -0.046626   0.000413  -0.000607   0.001725  -0.005810
    20  H   -0.001910  -0.066233  -0.000126   0.000020  -0.000167   0.001249
    21  H   -0.026840   0.097611   0.000017  -0.000007   0.000010  -0.000121
    22  H    0.025229  -0.032439  -0.000125   0.000007  -0.000007   0.000011
    23  H   -0.033920  -0.036353   0.000556  -0.000131   0.000011  -0.000103
    24  H    0.002504  -0.060411  -0.000946   0.000628  -0.000135   0.000146
    25  H    0.002504  -0.060411  -0.000946   0.000628  -0.000135   0.000146
              19         20         21         22         23         24
     1  C   -0.043859   0.006884  -0.001232   0.000414   0.006596   0.038008
     2  C   -0.008299   0.002055  -0.000419   0.000320  -0.002283   0.015958
     3  C    0.051316  -0.005291   0.000386  -0.000297   0.000981  -0.001333
     4  C   -0.080884   0.005697   0.000463  -0.001324   0.004481  -0.011238
     5  C   -0.061715   0.455569  -0.066607   0.010076   0.030193  -0.013174
     6  C    0.051807  -0.084253   0.368249  -0.012423   0.001466  -0.001825
     7  C   -0.007473   0.001789  -0.007666   0.374161  -0.109316   0.013054
     8  C   -0.048355   0.054581  -0.033004  -0.016704   0.371258   0.028408
     9  C    0.074675  -0.025844  -0.006336   0.003733   0.095134   0.355895
    10  C    0.422297   0.013644   0.020226  -0.007857  -0.011209   0.005371
    11  C    0.077066  -0.012133  -0.006220   0.002421   0.007161   0.024539
    12  C   -0.086182  -0.008814   0.005317  -0.007630   0.004639  -0.060017
    13  C    0.081813  -0.001910  -0.026840   0.025229  -0.033920   0.002504
    14  C   -0.046626  -0.066233   0.097611  -0.032439  -0.036353  -0.060411
    15  H    0.000413  -0.000126   0.000017  -0.000125   0.000556  -0.000946
    16  H   -0.000607   0.000020  -0.000007   0.000007  -0.000131   0.000628
    17  H    0.001725  -0.000167   0.000010  -0.000007   0.000011  -0.000135
    18  H   -0.005810   0.001249  -0.000121   0.000011  -0.000103   0.000146
    19  H    0.443756  -0.006867   0.001140  -0.000483   0.000232   0.000585
    20  H   -0.006867   0.459214  -0.010431   0.001889   0.000050   0.000226
    21  H    0.001140  -0.010431   0.424767  -0.005968   0.001233  -0.000150
    22  H   -0.000483   0.001889  -0.005968   0.422372  -0.008944   0.000635
    23  H    0.000232   0.000050   0.001233  -0.008944   0.444659  -0.000882
    24  H    0.000585   0.000226  -0.000150   0.000635  -0.000882   0.493066
    25  H    0.000585   0.000226  -0.000150   0.000635  -0.000882  -0.078811
              25
     1  C    0.038008
     2  C    0.015958
     3  C   -0.001333
     4  C   -0.011238
     5  C   -0.013174
     6  C   -0.001825
     7  C    0.013054
     8  C    0.028408
     9  C    0.355895
    10  C    0.005371
    11  C    0.024539
    12  C   -0.060017
    13  C    0.002504
    14  C   -0.060411
    15  H   -0.000946
    16  H    0.000628
    17  H   -0.000135
    18  H    0.000146
    19  H    0.000585
    20  H    0.000226
    21  H   -0.000150
    22  H    0.000635
    23  H   -0.000882
    24  H   -0.078811
    25  H    0.493066
 Mulliken charges:
               1
     1  C    0.073511
     2  C   -0.401557
     3  C   -0.433348
     4  C    0.024718
     5  C   -0.006845
     6  C   -0.444105
     7  C   -0.412558
     8  C    0.113167
     9  C   -0.347691
    10  C    0.081568
    11  C   -0.652428
    12  C    0.718673
    13  C   -0.604279
    14  C    0.671960
    15  H    0.239815
    16  H    0.260184
    17  H    0.251979
    18  H    0.225306
    19  H    0.189752
    20  H    0.218976
    21  H    0.245733
    22  H    0.252297
    23  H    0.235373
    24  H    0.249900
    25  H    0.249900
 Sum of Mulliken charges =   1.00000
 Mulliken charges with hydrogens summed into heavy atoms:
               1
     1  C    0.313325
     2  C   -0.141373
     3  C   -0.181369
     4  C    0.250025
     5  C    0.212131
     6  C   -0.198372
     7  C   -0.160260
     8  C    0.348540
     9  C    0.152109
    10  C    0.271320
    11  C   -0.652428
    12  C    0.718673
    13  C   -0.604279
    14  C    0.671960
 Electronic spatial extent (au):  <R**2>=           2857.1020
 Charge=              1.0000 electrons
 Dipole moment (field-independent basis, Debye):
    X=             -0.3007    Y=             -0.9461    Z=              0.0000  Tot=              0.9927
 Quadrupole moment (field-independent basis, Debye-Ang):
   XX=            -51.1507   YY=            -36.1392   ZZ=            -84.1337
   XY=             10.1784   XZ=              0.0000   YZ=              0.0000
 Traceless Quadrupole moment (field-independent basis, Debye-Ang):
   XX=              5.9905   YY=             21.0020   ZZ=            -26.9925
   XY=             10.1784   XZ=              0.0000   YZ=              0.0000
 Octapole moment (field-independent basis, Debye-Ang**2):
  XXX=             -3.1433  YYY=             -3.1788  ZZZ=              0.0000  XYY=             -2.7348
  XXY=             -7.9260  XXZ=              0.0000  XZZ=             -3.4058  YZZ=              0.1951
  YYZ=             -0.0000  XYZ=             -0.0000
 Hexadecapole moment (field-independent basis, Debye-Ang**3):
 XXXX=           -984.3524 YYYY=          -1852.3039 ZZZZ=            -99.3236 XXXY=           -346.7594
 XXXZ=             -0.0000 YYYX=           -272.3365 YYYZ=             -0.0000 ZZZX=             -0.0000
 ZZZY=             -0.0000 XXYY=           -455.2790 XXZZ=           -240.4004 YYZZ=           -496.2585
 XXYZ=              0.0000 YYXZ=              0.0000 ZZXY=           -182.1550
 N-N= 7.810889108022D+02 E-N=-2.798527713116D+03  KE= 5.375195990694D+02
 Symmetry A'   KE= 5.228669029709D+02
 Symmetry A"   KE= 1.465269609848D+01
 Unable to Open any file for archive entry.
 1\1\GINC-GADI-CPU-CLX-1762\SP\RM062X TD-FC\6-311++G(d,p)\C14H11(1+)\TS
 1578\02-Aug-2022\0\\#n M062X/6-311++G(d,p) TD(NStates=1) EmpiricalDisp
 ersion=GD3 SP\\SP_125\\1,1\C,0,2.470105,1.361031,0.\C,0,3.673433,0.659
 389,0.\C,0,3.676261,-0.73628,0.\C,0,2.490531,-1.423613,0.\C,0,-2.43593
 1,-1.391763,0.\C,0,-3.692361,-0.69288,0.\C,0,-3.731008,0.684064,0.\C,0
 ,-2.518055,1.358931,0.\C,0,-0.01535,1.456669,0.\C,0,0.0427,-1.429339,0
 .\C,0,1.268555,0.69049,0.\C,0,1.254671,-0.732679,0.\C,0,-1.25578,0.663
 715,0.\C,0,-1.219671,-0.728479,0.\H,0,2.482371,2.443947,0.\H,0,4.60847
 8,1.201064,0.\H,0,4.614562,-1.272499,0.\H,0,2.4801,-2.505659,0.\H,0,0.
 039375,-2.510341,0.\H,0,-2.45455,-2.474684,0.\H,0,-4.604412,-1.274074,
 0.\H,0,-4.666753,1.221189,0.\H,0,-2.497071,2.442372,0.\H,0,-0.056,2.14
 6537,-0.86041\H,0,-0.056,2.146537,0.86041\\Version=ES64L-G16RevC.01\St
 ate=1-A'\HF=-539.7549348\RMSD=9.443e-09\PG=CS [SG(C14H9),X(H2)]\\@
 The archive entry for this job was punched.


 IT PROBABLY IS NOT POSSIBLE FOR A SCIENTIST TO INTERROGATE NATURE 
 FROM A WHOLLY DISINTERESTED VIEWPOINT.
 EVEN IF HE HAS NO PARTICULAR AXE TO GRIND, HE IS LIKELY TO HAVE 
 A DISTINCTIVE WAY OF VIEWING NATURE.

                                                   -- JOHN LOSEE
 Job cpu time:       0 days  0 hours 51 minutes 58.6 seconds.
 Elapsed time:       0 days  0 hours  1 minutes  5.1 seconds.
 File lengths (MBytes):  RWF=    460 Int=      0 D2E=      0 Chk=     15 Scr=      1
 Normal termination of Gaussian 16 at Tue Aug  2 13:15:47 2022.
