                   25
 energy=  -539.66372689577724     
C           3.688988   -0.715250   -0.000010
C           2.466479   -1.408959    0.000000
C           1.239069   -0.731810    0.000010
C           1.264439    0.677450    0.000010
C           2.496369    1.361859    0.000000
C           3.707148    0.672890   -0.000010
C           0.000000   -1.430269    0.000010
C           0.000000    1.456189    0.000020
C          -1.264439    0.677450    0.000000
C          -1.239069   -0.731810    0.000010
C          -2.466479   -1.408959    0.000000
H          -2.469789   -2.494389    0.000010
C          -3.688988   -0.715250   -0.000010
C          -3.707148    0.672890   -0.000020
C          -2.496369    1.361859   -0.000010
H           0.000000   -2.514059    0.000020
H           4.616298   -1.275849   -0.000020
H           2.469789   -2.494389   -0.000010
H           2.490989    2.447849    0.000010
H           4.644568    1.213939   -0.000010
H           0.000000    2.150679    0.861660
H          -4.616298   -1.275849   -0.000010
H          -4.644568    1.213939   -0.000030
H          -2.490989    2.447849   -0.000020
H           0.000000    2.150729   -0.861580
                   25
 energy=  -539.43139748265810     
C           3.300674   -0.715249   -0.000010
C           2.206849   -1.408960   -0.000000
C           1.064650   -0.737459    0.000017
C           1.131339    0.677449    0.000010
C           2.233593    1.361860   -0.000000
C           3.361397    0.671311   -0.000017
C          -0.043597   -1.437427    0.000013
C          -0.033164    1.480000    0.000025
C          -1.175348    0.677449   -0.000003
C          -1.175792   -0.692299   -0.000038
C          -2.275840   -1.375136   -0.000204
H          -2.209807   -2.494385    0.000010
C          -3.410197   -0.693142   -0.000037
C          -3.402540    0.655149   -0.000067
C          -2.260000    1.343686   -0.000024
H           0.026251   -2.518031    0.000022
H           4.157305   -1.255436   -0.000025
H           2.242014   -2.464803   -0.000043
H           2.228773    2.447849    0.000010
H           4.183331    1.195994   -0.000007
H          -0.000001    2.150681    0.861661
H          -4.112828   -1.266392    0.000153
H          -4.221870    1.209903    0.000005
H          -2.240798    2.447847   -0.000021
H          -0.000001    2.150731   -0.861581
                   25
 energy=  -538.62556375620193     
C           2.912360   -0.715247   -0.000010
C           1.947219   -1.408962   -0.000000
C           0.890230   -0.743106    0.000024
C           0.998239    0.677447    0.000010
C           1.970818    1.361863    0.000000
C           3.015645    0.669732   -0.000024
C          -0.087195   -1.444586    0.000017
C          -0.066327    1.503811    0.000030
C          -1.086255    0.677446   -0.000007
C          -1.112514   -0.652787   -0.000085
C          -2.085201   -1.341314   -0.000409
H          -1.949823   -2.494381    0.000010
C          -3.131404   -0.671031   -0.000063
C          -3.097932    0.637408   -0.000113
C          -2.023632    1.325514   -0.000037
H           0.052501   -2.522003    0.000024
H           3.698313   -1.235026   -0.000030
H           2.014237   -2.435217   -0.000075
H           1.966556    2.447848    0.000010
H           3.722101    1.178059   -0.000003
H          -0.000001    2.150681    0.861661
H          -3.609372   -1.256977    0.000316
H          -3.799174    1.205874    0.000040
H          -1.990606    2.447845   -0.000023
H          -0.000001    2.150731   -0.861581
                   25
 energy=  -536.98917585547349     
C           2.524047   -0.715243   -0.000010
C           1.687587   -1.408965   -0.000000
C           0.715811   -0.748753    0.000030
C           0.865136    0.677444    0.000010
C           1.708044    1.361866    0.000000
C           2.669892    0.668150   -0.000031
C          -0.130794   -1.451745    0.000020
C          -0.099490    1.527623    0.000035
C          -0.997160    0.677441   -0.000010
C          -1.049235   -0.613274   -0.000133
C          -1.894562   -1.307493   -0.000613
H          -1.689838   -2.494379    0.000010
C          -2.852615   -0.648916   -0.000090
C          -2.793323    0.619666   -0.000160
C          -1.787267    1.307344   -0.000051
H           0.078751   -2.525975    0.000026
H           3.239320   -1.214617   -0.000034
H           1.786458   -2.405631   -0.000108
H           1.704335    2.447848    0.000010
H           3.260879    1.160138    0.000000
H          -0.000002    2.150683    0.861663
H          -3.105891   -1.247612    0.000479
H          -3.376475    1.201853    0.000076
H          -1.740412    2.447844   -0.000024
H          -0.000002    2.150733   -0.861583
                   25
 energy=  -534.20800486193878     
C           2.135736   -0.715236   -0.000010
C           1.427955   -1.408972   -0.000000
C           0.541392   -0.754395    0.000037
C           0.732031    0.677436    0.000010
C           1.445271    1.361873    0.000000
C           2.324138    0.666566   -0.000038
C          -0.174395   -1.458910    0.000023
C          -0.132655    1.551437    0.000040
C          -0.908060    0.677428   -0.000013
C          -0.985954   -0.573757   -0.000181
C          -1.703922   -1.273677   -0.000818
H          -1.429854   -2.494381    0.000010
C          -2.573833   -0.626801   -0.000117
C          -2.488716    0.601922   -0.000207
C          -1.550903    1.289183   -0.000065
H           0.105000   -2.529948    0.000028
H           2.780337   -1.194216   -0.000039
H           1.558682   -2.376045   -0.000140
H           1.442119    2.447847    0.000010
H           2.799678    1.142250    0.000004
H          -0.000003    2.150686    0.861665
H          -2.602359   -1.238215    0.000642
H          -2.953780    1.197845    0.000111
H          -1.490221    2.447845   -0.000026
H          -0.000003    2.150736   -0.861585
                   25
 energy=  -530.25200218860584     
C           1.747423   -0.715225   -0.000010
C           1.168322   -1.408984    0.000000
C           0.366972   -0.760034    0.000044
C           0.598925    0.677427    0.000010
C           1.182498    1.361884    0.000000
C           1.978383    0.664975   -0.000045
C          -0.217997   -1.466076    0.000027
C          -0.165818    1.575251    0.000045
C          -0.818955    0.677407   -0.000017
C          -0.922673   -0.534240   -0.000229
C          -1.513275   -1.239863   -0.001022
H          -1.169849   -2.494392    0.000010
C          -2.295050   -0.604696   -0.000144
C          -2.184108    0.584178   -0.000253
C          -1.314546    1.271028   -0.000078
H           0.131248   -2.533929    0.000030
H           2.321336   -1.173823   -0.000044
H           1.330894   -2.346457   -0.000173
H           1.179888    2.447849    0.000010
H           2.338465    1.124415    0.000007
H          -0.000005    2.150690    0.861670
H          -2.200389   -1.233534    0.001622
H          -2.531056    1.193846    0.000146
H          -1.240015    2.447860   -0.000027
H          -0.000005    2.150740   -0.861590
                   25
 energy=  -523.65927319866341     
C           1.359106   -0.715206   -0.000010
C           0.908691   -1.409004    0.000000
C           0.192558   -0.765670    0.000051
C           0.465823    0.677415    0.000010
C           0.919725    1.361902    0.000000
C           1.632630    0.663376   -0.000052
C          -0.261600   -1.473247    0.000030
C          -0.198972    1.599070    0.000050
C          -0.729853    0.677371   -0.000020
C          -0.859393   -0.494716   -0.000276
C          -1.322603   -1.206049   -0.001227
H          -0.909825   -2.494406    0.000010
C          -2.016270   -0.582593   -0.000170
C          -1.879502    0.566433   -0.000300
C          -1.078198    1.252886   -0.000092
H           0.157499   -2.537921    0.000032
H           1.862344   -1.153446   -0.000049
H           1.103111   -2.316871   -0.000205
H           0.917661    2.447851    0.000010
H           1.877243    1.106674    0.000011
H          -0.000005    2.150697    0.861680
H          -1.798830   -1.228931    0.002609
H          -2.108316    1.189852    0.000182
H          -0.989807    2.447860   -0.000028
H          -0.000005    2.150747   -0.861600
                   25
 energy=  -514.37026109392730     
C           0.970792   -0.715184   -0.000010
C           0.649064   -1.409023   -0.000000
C           0.018137   -0.771310    0.000058
C           0.332718    0.677401    0.000010
C           0.656956    1.361916   -0.000000
C           1.286893    0.661784   -0.000058
C          -0.305194   -1.480427    0.000034
C          -0.232115    1.622919    0.000055
C          -0.640752    0.677320   -0.000023
C          -0.796119   -0.455188   -0.000324
C          -1.131982   -1.172219   -0.001433
H          -0.649767   -2.494427    0.000010
C          -1.737489   -0.560491   -0.000197
C          -1.574902    0.548690   -0.000347
C          -0.841865    1.234733   -0.000106
H           0.183760   -2.541927    0.000034
H           1.403323   -1.133070   -0.000053
H           0.875299   -2.287292   -0.000238
H           0.655373    2.447872    0.000010
H           1.424751    1.118295    0.000019
H          -0.000002    2.150700    0.861701
H          -1.564469   -1.371553    0.015188
H          -1.685512    1.185856    0.000217
H          -0.739528    2.447904   -0.000030
H          -0.000002    2.150750   -0.861621
                   25
 energy=  -493.97401303238411     
C           0.582492   -0.715153   -0.000010
C           0.389461   -1.409045    0.000000
C          -0.156282   -0.776973    0.000065
C           0.199613    0.677379    0.000011
C           0.394202    1.361919   -0.000001
C           0.941179    0.660200   -0.000065
C          -0.348747   -1.487622    0.000033
C          -0.265274    1.646855    0.000061
C          -0.551684    0.677258   -0.000026
C          -0.732847   -0.415620   -0.000372
C          -0.941438   -1.138365   -0.001641
H          -0.389643   -2.494438    0.000009
C          -1.458734   -0.538389   -0.000224
C          -1.270327    0.530943   -0.000394
C          -0.605496    1.216518   -0.000120
H           0.210038   -2.545941    0.000036
H           0.944187   -1.112675   -0.000060
H           0.647417   -2.257651   -0.000271
H           0.392965    2.447913    0.000006
H           0.960892    1.136546    0.000034
H           0.000002    2.150711    0.861729
H          -0.809971   -1.593757    0.048089
H          -1.262639    1.181821    0.000255
H          -0.489175    2.447918   -0.000028
H           0.000008    2.150765   -0.861646
                   25
 energy=  -440.91969909920999     
C           0.194326   -0.715087   -0.000010
C           0.130091   -1.409186   -0.000001
C          -0.330669   -0.782655    0.000072
C           0.066560    0.677333    0.000010
C           0.131673    1.361935   -0.000000
C           0.595561    0.658521   -0.000073
C          -0.392476   -1.495007    0.000041
C          -0.298578    1.670883    0.000066
C          -0.462637    0.677292   -0.000096
C          -0.669518   -0.375977   -0.000420
C          -0.751033   -1.104654   -0.001852
H          -0.129851   -2.494423    0.000010
C          -1.180095   -0.516315   -0.000251
C          -0.965832    0.513133   -0.000440
C          -0.369129    1.198207   -0.000133
H           0.236246   -2.550557    0.000038
H           0.485785   -1.092071   -0.000057
H           0.419628   -2.227788   -0.000303
H           0.130965    2.447945    0.000011
H           0.492501    1.053043    0.000029
H           0.000001    2.150699    0.861732
H          -0.084724   -1.189451    0.001469
H          -0.840795    1.177871    0.000598
H          -0.238844    2.447964   -0.000033
H           0.000001    2.150748   -0.861651
                   25
 energy=  -436.78427318457267     
C          -0.193990   -0.715209   -0.000007
C          -0.129650   -1.408971    0.000009
C          -0.561587   -1.096111    0.002863
C          -0.066554    0.677532    0.000196
C          -0.131517    1.361918    0.000009
C          -0.012808    0.150818   -0.002271
C          -0.287282   -1.914376    0.000249
C          -0.241483    1.879635    0.000109
C          -0.066533    0.677453   -0.529415
C          -0.491521   -0.277383   -0.000534
C          -0.819275   -1.549031   -0.089877
H           0.130750   -2.494527    0.000012
C          -0.861166   -0.656278   -0.002592
C          -0.502135    0.353225   -0.000735
C           0.305509    1.054170   -0.001396
H           0.145569   -2.864350    0.000193
H           0.159899   -1.032148    0.004343
H           0.139768   -2.124472   -0.000456
H          -0.132025    2.448169    0.000017
H          -0.428931    0.988472    0.004540
H           0.000008    2.150702    0.861733
H           0.460072   -1.253478    0.000485
H          -0.639555    1.211084    0.208133
H           0.240056    2.447944   -0.000076
H           0.000003    2.150764   -0.861671
                   25
 energy=  -437.90935787155638     
C          -0.582725   -0.715202   -0.000009
C          -0.389656   -1.409074    0.000001
C          -0.112237   -0.957880    0.000505
C          -0.199716    0.677535    0.000009
C          -0.394314    1.361846    0.000002
C          -0.713956    0.552232   -0.000540
C          -0.008498   -1.776569    0.000175
C          -0.127041    1.818929    0.000097
C           0.329758    0.677435   -0.000308
C          -0.191113   -0.359014   -0.000443
C           0.268561   -1.325458   -0.006270
H           0.389692   -2.494455    0.000009
C           0.299240   -0.558755   -0.000768
C           0.068224    0.217072   -0.001132
C           0.204181    1.231086   -0.000110
H           0.029966   -2.581899    0.000053
H          -0.784817   -1.145229   -0.000260
H          -0.166600   -2.267017   -0.000266
H          -0.392813    2.448007    0.000011
H          -0.646247    0.958438    0.000346
H           0.000019    2.150705    0.861748
H           0.854811   -1.207725    0.001171
H           0.648873    1.066745    0.003634
H           0.306664    2.447944   -0.000028
H           0.000017    2.150753   -0.861668
                   25
 energy=  -486.31040313020247     
C          -0.970844   -0.715156   -0.000010
C          -0.649174   -1.409068    0.000000
C          -0.336366   -0.891030    0.000348
C          -0.332721    0.677413    0.000010
C          -0.656995    1.361886   -0.000000
C          -0.994573    0.590127   -0.000373
C          -0.071031   -1.671800    0.000124
C          -0.134411    1.733685    0.000079
C           0.353298    0.677483   -0.000143
C          -0.032421   -0.424012   -0.000362
C           0.465017   -1.302537   -0.004474
H           0.649610   -2.494439    0.000010
C           0.617695   -0.577775   -0.000555
C           0.568577    0.193884   -0.001138
C           0.490612    1.247486   -0.000096
H           0.059213   -2.564720    0.000046
H          -1.212351   -1.158487   -0.000198
H          -0.452633   -2.298547   -0.000225
H          -0.655132    2.447911    0.000010
H          -1.131423    1.046587    0.000267
H           0.000015    2.150701    0.861725
H           1.324798   -1.216168    0.001016
H           1.067653    1.109375    0.002155
H           0.579356    2.447885   -0.000029
H           0.000015    2.150751   -0.861646
                   25
 energy=  -511.63373619837296     
C          -1.359120   -0.715187   -0.000010
C          -0.908749   -1.409053    0.000000
C          -0.560622   -0.824055    0.000194
C          -0.465814    0.677418    0.000010
C          -0.919732    1.361915   -0.000000
C          -1.275224    0.627941   -0.000207
C          -0.133594   -1.567124    0.000074
C          -0.141824    1.648492    0.000061
C           0.377015    0.677434   -0.000079
C           0.126162   -0.489048   -0.000283
C           0.661416   -1.279694   -0.002697
H           0.909727   -2.494418    0.000010
C           0.936132   -0.596734   -0.000343
C           0.969709    0.393472   -0.000684
C           0.777151    1.263790   -0.000084
H           0.088673   -2.548340    0.000037
H          -1.638973   -1.171376   -0.000119
H          -0.738770   -2.329898   -0.000191
H          -0.917549    2.447885    0.000010
H          -1.603573    1.089926    0.000137
H           0.000002    2.150699    0.861691
H           1.795224   -1.224687    0.000869
H           1.484895    1.152575    0.001141
H           0.852598    2.447879   -0.000027
H           0.000002    2.150748   -0.861610
                   25
 energy=  -522.74464946870694     
C          -1.747433   -0.715192   -0.000010
C          -1.168373   -1.409048    0.000000
C          -0.784858   -0.757172    0.000041
C          -0.598916    0.677420    0.000010
C          -1.182497    1.361916   -0.000000
C          -1.555899    0.665734   -0.000041
C          -0.196162   -1.462523    0.000025
C          -0.149217    1.563371    0.000043
C           0.400819    0.677434   -0.000015
C           0.284728   -0.553979   -0.000205
C           0.857874   -1.256810   -0.000920
H           1.169734   -2.494414    0.000010
C           1.254596   -0.615731   -0.000130
C           1.370797    0.592999   -0.000230
C           1.063674    1.280146   -0.000071
H           0.118137   -2.532001    0.000029
H          -2.065477   -1.184274   -0.000041
H          -1.024787   -2.361280   -0.000157
H          -1.179788    2.447881    0.000010
H          -2.075570    1.133339    0.000006
H           0.000002    2.150698    0.861688
H           2.265399   -1.233214    0.000723
H           1.902072    1.195764    0.000129
H           1.125662    2.447875   -0.000026
H           0.000002    2.150748   -0.861607
                   25
 energy=  -530.92166572070482     
C          -2.135729   -0.715227   -0.000010
C          -1.427970   -1.408995   -0.000000
C          -0.875708   -0.752114    0.000035
C          -0.732035    0.677431    0.000010
C          -1.445255    1.361893    0.000000
C          -1.986145    0.667184   -0.000035
C          -0.156944   -1.456052    0.000022
C          -0.119389    1.541920    0.000038
C           0.573599    0.677438   -0.000012
C           0.475598   -0.589558   -0.000162
C           1.179583   -1.287224   -0.000736
H           1.429826   -2.494390    0.000010
C           1.741461   -0.635648   -0.000106
C           1.838036    0.608995   -0.000188
C           1.350191    1.296468   -0.000059
H           0.094505   -2.528369    0.000027
H          -2.575685   -1.202482   -0.000037
H          -1.313880   -2.387878   -0.000127
H          -1.442108    2.447851    0.000010
H          -2.589374    1.149357    0.000003
H           0.000000    2.150691    0.861668
H           2.735737   -1.241733    0.000576
H           2.450590    1.199406    0.000097
H           1.398815    2.447846   -0.000025
H           0.000000    2.150741   -0.861588
                   25
 energy=  -535.50990515038518     
C          -2.524044   -0.715240   -0.000010
C          -1.687596   -1.408973   -0.000000
C          -0.966552   -0.747051    0.000028
C          -0.865139    0.677441    0.000010
C          -1.708035    1.361874   -0.000000
C          -2.416393    0.668618   -0.000029
C          -0.117710   -1.449600    0.000019
C          -0.089541    1.520483    0.000034
C           0.746313    0.677444   -0.000009
C           0.666470   -0.625125   -0.000119
C           1.501310   -1.317648   -0.000552
H           1.689819   -2.494381    0.000010
C           2.228339   -0.655556   -0.000082
C           2.305311    0.624978   -0.000146
C           1.636737    1.312804   -0.000047
H           0.070878   -2.524782    0.000025
H          -3.085828   -1.220782   -0.000033
H          -1.602861   -2.414506   -0.000098
H          -1.704331    2.447848    0.000010
H          -3.103174    1.165492   -0.000001
H          -0.000002    2.150684    0.861663
H           3.205885   -1.250259    0.000430
H           2.999093    1.203035    0.000065
H           1.671863    2.447844   -0.000024
H          -0.000002    2.150734   -0.861583
                   25
 energy=  -538.17182258469882     
C          -2.912358   -0.715246   -0.000010
C          -1.947223   -1.408965   -0.000000
C          -1.057393   -0.741973    0.000022
C          -0.998240    0.677446    0.000010
C          -1.970814    1.361866    0.000000
C          -2.846643    0.670045   -0.000022
C          -0.078474   -1.443155    0.000016
C          -0.059694    1.499051    0.000029
C           0.919023    0.677447   -0.000006
C           0.857337   -0.660688   -0.000076
C           1.823035   -1.348082   -0.000368
H           1.949814   -2.494382    0.000010
C           2.715220   -0.675457   -0.000058
C           2.772588    0.640953   -0.000104
C           1.923283    1.329152   -0.000035
H           0.047252   -2.521208    0.000024
H          -3.595980   -1.239123   -0.000029
H          -1.891842   -2.441134   -0.000069
H          -1.966555    2.447848    0.000010
H          -3.616976    1.181638   -0.000004
H          -0.000001    2.150682    0.861662
H           3.676032   -1.258789    0.000283
H           3.547594    1.206669    0.000033
H           1.944911    2.447845   -0.000022
H          -0.000001    2.150732   -0.861582
                   25
 energy=  -539.33989037950505     
C          -3.300674   -0.715249   -0.000010
C          -2.206850   -1.408961   -0.000000
C          -1.148232   -0.736893    0.000016
C          -1.131340    0.677449    0.000010
C          -2.233592    1.361861   -0.000000
C          -3.276895    0.671469   -0.000016
C          -0.039237   -1.436711    0.000013
C          -0.029847    1.477619    0.000025
C           1.091732    0.677449   -0.000003
C           1.048204   -0.696250   -0.000033
C           2.144757   -1.378519   -0.000184
H           2.209803   -2.494385    0.000010
C           3.202103   -0.695354   -0.000034
C           3.239867    0.656923   -0.000062
C           2.209827    1.345504   -0.000022
H           0.023626   -2.517634    0.000022
H          -4.106137   -1.257481   -0.000024
H          -2.180817   -2.467761   -0.000039
H          -2.228773    2.447849    0.000010
H          -4.130773    1.197787   -0.000007
H          -0.000001    2.150681    0.861661
H           4.146167   -1.267319    0.000137
H           4.096083    1.210303    0.000002
H           2.217951    2.447847   -0.000021
H          -0.000001    2.150731   -0.861581
                   25
 energy=  -539.66372812053828     
C          -3.688988   -0.715250   -0.000010
C          -2.466479   -1.408959    0.000000
C          -1.239069   -0.731810    0.000010
C          -1.264439    0.677450    0.000010
C          -2.496369    1.361859    0.000000
C          -3.707148    0.672890   -0.000010
C           0.000000   -1.430269    0.000010
C           0.000000    1.456189    0.000020
C           1.264439    0.677450    0.000000
C           1.239069   -0.731810    0.000010
C           2.466479   -1.408959    0.000000
H           2.469789   -2.494389    0.000010
C           3.688988   -0.715250   -0.000010
C           3.707148    0.672890   -0.000020
C           2.496369    1.361859   -0.000010
H           0.000000   -2.514059    0.000020
H          -4.616298   -1.275849   -0.000020
H          -2.469789   -2.494389   -0.000010
H          -2.490989    2.447849    0.000010
H          -4.644568    1.213939   -0.000010
H           0.000000    2.150679    0.861660
H           4.616298   -1.275849   -0.000010
H           4.644568    1.213939   -0.000030
H           2.490989    2.447849   -0.000020
H           0.000000    2.150729   -0.861580
