                   25
 energy=  -539.66372689577724     
C           3.688988   -0.715250   -0.000010
C           2.466479   -1.408959    0.000000
C           1.239069   -0.731810    0.000010
C           1.264439    0.677450    0.000010
C           2.496369    1.361859    0.000000
C           3.707148    0.672890   -0.000010
C           0.000000   -1.430269    0.000010
C           0.000000    1.456189    0.000020
C          -1.264439    0.677450    0.000000
C          -1.239069   -0.731810    0.000010
C          -2.466479   -1.408959    0.000000
H          -2.469789   -2.494389    0.000010
C          -3.688988   -0.715250   -0.000010
C          -3.707148    0.672890   -0.000020
C          -2.496369    1.361859   -0.000010
H           0.000000   -2.514059    0.000020
H           4.616298   -1.275849   -0.000020
H           2.469789   -2.494389   -0.000010
H           2.490989    2.447849    0.000010
H           4.644568    1.213939   -0.000010
H           0.000000    2.150679    0.861660
H          -4.616298   -1.275849   -0.000010
H          -4.644568    1.213939   -0.000030
H          -2.490989    2.447849   -0.000020
H           0.000000    2.150729   -0.861580
                   25
 energy=  -539.43138213543864     
C           3.300674   -0.715250   -0.000010
C           2.206849   -1.408959   -0.000000
C           1.064650   -0.737459    0.000017
C           1.131340    0.677450    0.000010
C           2.233593    1.361859   -0.000000
C           3.361398    0.671312   -0.000017
C          -0.043597   -1.437426    0.000013
C          -0.033164    1.479999    0.000025
C          -1.175349    0.677450   -0.000003
C          -1.175793   -0.692299   -0.000038
C          -2.275840   -1.375135   -0.000204
H          -2.209811   -2.494389    0.000010
C          -3.410198   -0.693144   -0.000037
C          -3.402540    0.655149   -0.000067
C          -2.259999    1.343685   -0.000024
H           0.026252   -2.518031    0.000022
H           4.157306   -1.255433   -0.000025
H           2.242019   -2.464800   -0.000043
H           2.228779    2.447849    0.000010
H           4.183326    1.195988   -0.000007
H          -0.000000    2.150679    0.861660
H          -4.112809   -1.266375    0.000153
H          -4.221866    1.209897    0.000005
H          -2.240803    2.447849   -0.000021
H          -0.000000    2.150729   -0.861580
                   25
 energy=  -538.62540538447092     
C           2.912359   -0.715249   -0.000010
C           1.947220   -1.408960   -0.000000
C           0.890230   -0.743109    0.000024
C           0.998241    0.677449    0.000010
C           1.970818    1.361860    0.000000
C           3.015647    0.669734   -0.000024
C          -0.087194   -1.444583    0.000017
C          -0.066328    1.503809    0.000030
C          -1.086259    0.677449   -0.000007
C          -1.112516   -0.652789   -0.000085
C          -2.085201   -1.341310   -0.000409
H          -1.949833   -2.494388    0.000010
C          -3.131409   -0.671038   -0.000063
C          -3.097932    0.637409   -0.000113
C          -2.023629    1.325510   -0.000037
H           0.052503   -2.522004    0.000024
H           3.698314   -1.235016   -0.000030
H           2.014250   -2.435212   -0.000075
H           1.966569    2.447849    0.000010
H           3.722084    1.178037   -0.000003
H          -0.000000    2.150679    0.861660
H          -3.609322   -1.256904    0.000316
H          -3.799165    1.205855    0.000040
H          -1.990617    2.447849   -0.000023
H          -0.000000    2.150729   -0.861580
                   25
 energy=  -536.98850831119341     
C           2.524045   -0.715249   -0.000010
C           1.687591   -1.408960   -0.000000
C           0.715810   -0.748759    0.000030
C           0.865142    0.677449    0.000010
C           1.708042    1.361860    0.000000
C           2.669896    0.668157   -0.000031
C          -0.130791   -1.451740    0.000020
C          -0.099492    1.527620    0.000035
C          -0.997168    0.677449   -0.000010
C          -1.049240   -0.613279   -0.000133
C          -1.894562   -1.307486   -0.000613
H          -1.689854   -2.494388    0.000010
C          -2.852619   -0.648931   -0.000090
C          -2.793325    0.619669   -0.000160
C          -1.787259    1.307335   -0.000051
H           0.078755   -2.525976    0.000026
H           3.239322   -1.214600   -0.000034
H           1.786480   -2.405623   -0.000108
H           1.704359    2.447849    0.000010
H           3.260842    1.160088    0.000000
H          -0.000000    2.150679    0.861660
H          -3.105832   -1.247436    0.000478
H          -3.376463    1.201814    0.000076
H          -1.740431    2.447849   -0.000024
H          -0.000000    2.150729   -0.861580
                   25
 energy=  -534.20636432780907     
C           2.135730   -0.715249   -0.000010
C           1.427961   -1.408960   -0.000000
C           0.541390   -0.754408    0.000037
C           0.732043    0.677449    0.000010
C           1.445266    1.361860    0.000000
C           2.324146    0.666579   -0.000038
C          -0.174389   -1.458897    0.000023
C          -0.132655    1.551430    0.000040
C          -0.908077    0.677448   -0.000013
C          -0.985963   -0.573768   -0.000181
C          -1.703924   -1.273662   -0.000818
H          -1.429876   -2.494388    0.000010
C          -2.573830   -0.626825   -0.000117
C          -2.488717    0.601928   -0.000207
C          -1.550890    1.289161   -0.000065
H           0.105006   -2.529948    0.000028
H           2.780331   -1.194184   -0.000039
H           1.558711   -2.376035   -0.000140
H           1.442149    2.447849    0.000010
H           2.799603    1.142140    0.000004
H          -0.000000    2.150679    0.861660
H          -2.602339   -1.237966    0.000641
H          -2.953762    1.197773    0.000111
H          -1.490245    2.447849   -0.000026
H          -0.000000    2.150729   -0.861580
                   25
 energy=  -530.24883968855272     
C           1.747416   -0.715248   -0.000010
C           1.168331   -1.408961    0.000000
C           0.366970   -0.760057    0.000044
C           0.598944    0.677448    0.000010
C           1.182491    1.361861    0.000000
C           1.978395    0.665000   -0.000045
C          -0.217986   -1.466055    0.000027
C          -0.165819    1.575240    0.000045
C          -0.818986    0.677447   -0.000017
C          -0.922686   -0.534257   -0.000229
C          -1.513284   -1.239838   -0.001022
H          -1.169897   -2.494389    0.000010
C          -2.295040   -0.604720   -0.000143
C          -2.184109    0.584188   -0.000253
C          -1.314521    1.270988   -0.000078
H           0.131258   -2.533922    0.000030
H           2.321339   -1.173768   -0.000044
H           1.330941   -2.346446   -0.000173
H           1.179938    2.447849    0.000010
H           2.338362    1.124196    0.000007
H          -0.000000    2.150680    0.861660
H          -2.200348   -1.233320    0.001620
H          -2.531059    1.193733    0.000146
H          -1.240058    2.447850   -0.000027
H          -0.000000    2.150730   -0.861580
                   25
 energy=  -523.64879701839948     
C           1.359101   -0.715247   -0.000010
C           0.908702   -1.408962    0.000000
C           0.192551   -0.765706    0.000051
C           0.465845    0.677447    0.000010
C           0.919716    1.361862    0.000000
C           1.632644    0.663421   -0.000052
C          -0.261583   -1.473212    0.000030
C          -0.198982    1.599051    0.000050
C          -0.729895    0.677444   -0.000020
C          -0.859410   -0.494746   -0.000276
C          -1.322643   -1.206014   -0.001227
H          -0.909916   -2.494390    0.000010
C          -2.016251   -0.582614   -0.000170
C          -1.879501    0.566447   -0.000300
C          -1.078152    1.252815   -0.000092
H           0.157510   -2.537895    0.000032
H           1.862347   -1.153354   -0.000049
H           1.103171   -2.316858   -0.000205
H           0.917728    2.447849    0.000010
H           1.877121    1.106258    0.000011
H          -0.000000    2.150680    0.861661
H          -1.798383   -1.228680    0.002600
H          -2.108355    1.189694    0.000181
H          -0.989871    2.447850   -0.000028
H          -0.000000    2.150730   -0.861581
                   25
 energy=  -514.35557901254469     
C           0.970787   -0.715245   -0.000010
C           0.649073   -1.408964   -0.000000
C           0.018131   -0.771355    0.000058
C           0.332745    0.677446    0.000010
C           0.656940    1.361863   -0.000000
C           1.286895    0.661843   -0.000058
C          -0.305180   -1.480371    0.000034
C          -0.232145    1.622863    0.000055
C          -0.640804    0.677441   -0.000023
C          -0.796133   -0.455235   -0.000324
C          -1.132006   -1.172189   -0.001431
H          -0.649933   -2.494391    0.000010
C          -1.737462   -0.560509   -0.000197
C          -1.574894    0.548707   -0.000347
C          -0.841785    1.234641   -0.000106
H           0.183762   -2.541870    0.000034
H           1.403353   -1.132940   -0.000054
H           0.875399   -2.287270   -0.000238
H           0.655513    2.447850    0.000010
H           1.424771    1.117751    0.000019
H          -0.000000    2.150680    0.861662
H          -1.564440   -1.371096    0.015148
H          -1.685646    1.185654    0.000217
H          -0.739679    2.447853   -0.000030
H          -0.000000    2.150730   -0.861582
                   25
 energy=  -493.95530522929204     
C           0.582473   -0.715243   -0.000010
C           0.389445   -1.408965    0.000000
C          -0.156289   -0.777005    0.000065
C           0.199646    0.677445    0.000010
C           0.394166    1.361863   -0.000000
C           0.941147    0.660265   -0.000065
C          -0.348774   -1.487530    0.000037
C          -0.265309    1.646682    0.000060
C          -0.551716    0.677437   -0.000026
C          -0.732857   -0.415721   -0.000372
C          -0.941373   -1.138363   -0.001636
H          -0.389945   -2.494392    0.000010
C          -1.458675   -0.538403   -0.000224
C          -1.270288    0.530966   -0.000393
C          -0.605415    1.216464   -0.000119
H           0.210015   -2.545845    0.000036
H           0.944352   -1.112524   -0.000058
H           0.647623   -2.257677   -0.000271
H           0.393291    2.447853    0.000010
H           0.961211    1.136135    0.000031
H           0.000000    2.150681    0.861664
H          -0.810541   -1.593620    0.048037
H          -1.262933    1.181612    0.000252
H          -0.489483    2.447853   -0.000031
H           0.000001    2.150731   -0.861584
                   25
 energy=  -440.78329778305903     
C           0.194169   -0.715239   -0.000010
C           0.129833   -1.408974   -0.000000
C          -0.330706   -0.782657    0.000071
C           0.066550    0.677442    0.000010
C           0.131407    1.361864   -0.000000
C           0.595405    0.658681   -0.000072
C          -0.392380   -1.494702    0.000040
C          -0.298482    1.670506    0.000065
C          -0.462628    0.677439   -0.000034
C          -0.669577   -0.376202   -0.000419
C          -0.750750   -1.104546   -0.001841
H          -0.129980   -2.494391    0.000010
C          -1.179895   -0.516300   -0.000250
C          -0.965688    0.513221   -0.000440
C          -0.369045    1.198280   -0.000133
H           0.236264   -2.549860    0.000038
H           0.485399   -1.092095   -0.000063
H           0.419852   -2.228070   -0.000303
H           0.131095    2.447855    0.000010
H           0.493325    1.052418    0.000022
H           0.000000    2.150680    0.861664
H          -0.084877   -1.190496    0.001456
H          -0.840289    1.177575    0.000308
H          -0.239288    2.447857   -0.000032
H           0.000000    2.150730   -0.861584
                   25
 energy=  -436.70211879804981     
C          -0.194146   -0.715247   -0.000010
C          -0.129804   -1.408960    0.000001
C          -0.561563   -1.096085    0.002840
C          -0.066550    0.677455    0.000022
C          -0.131396    1.361863    0.000001
C          -0.012905    0.150991   -0.002297
C          -0.287320   -1.914167    0.000238
C          -0.241457    1.879475    0.000110
C          -0.066631    0.677450   -0.529184
C          -0.491543   -0.277531   -0.000538
C          -0.819228   -1.548916   -0.089838
H           0.130040   -2.494398    0.000010
C          -0.861075   -0.656321   -0.002594
C          -0.501937    0.353228   -0.000762
C           0.305181    1.054098   -0.001426
H           0.145814   -2.864466    0.000198
H           0.161274   -1.032114    0.004316
H           0.140050   -2.124127   -0.000460
H          -0.131166    2.447870    0.000010
H          -0.427238    0.988561    0.004506
H           0.000001    2.150681    0.861664
H           0.458484   -1.253453    0.000477
H          -0.641773    1.211249    0.208158
H           0.239368    2.447855   -0.000082
H           0.000000    2.150731   -0.861586
                   25
 energy=  -437.85720082334899     
C          -0.582489   -0.715246   -0.000010
C          -0.389458   -1.408967    0.000000
C          -0.112201   -0.957882    0.000502
C          -0.199653    0.677455    0.000010
C          -0.394174    1.361858    0.000000
C          -0.713851    0.552411   -0.000538
C          -0.008497   -1.776278    0.000173
C          -0.127068    1.818701    0.000097
C           0.329544    0.677449   -0.000214
C          -0.190973   -0.359216   -0.000440
C           0.268482   -1.325404   -0.006250
H           0.389948   -2.494393    0.000010
C           0.299153   -0.558779   -0.000768
C           0.068268    0.217250   -0.001132
C           0.204052    1.231006   -0.000109
H           0.029800   -2.580974    0.000054
H          -0.785946   -1.145244   -0.000274
H          -0.166982   -2.267081   -0.000259
H          -0.393281    2.447859    0.000010
H          -0.646174    0.957782    0.000335
H           0.000001    2.150681    0.861666
H           0.855313   -1.207633    0.001163
H           0.650749    1.066273    0.003195
H           0.306737    2.447855   -0.000030
H           0.000001    2.150731   -0.861585
                   25
 energy=  -486.29092048440651     
C          -0.970790   -0.715243   -0.000010
C          -0.649080   -1.408967    0.000000
C          -0.336424   -0.891001    0.000348
C          -0.332745    0.677447    0.000010
C          -0.656943    1.361861   -0.000000
C          -0.994525    0.590207   -0.000373
C          -0.071058   -1.671672    0.000123
C          -0.134456    1.733576    0.000079
C           0.353319    0.677452   -0.000143
C          -0.032396   -0.424149   -0.000362
C           0.464948   -1.302518   -0.004472
H           0.649922   -2.494392    0.000010
C           0.617621   -0.577778   -0.000555
C           0.568544    0.194008   -0.001137
C           0.490585    1.247366   -0.000096
H           0.059235   -2.564592    0.000046
H          -1.212495   -1.158176   -0.000197
H          -0.452969   -2.298475   -0.000225
H          -0.655497    2.447853    0.000010
H          -1.131673    1.046311    0.000267
H           0.000001    2.150680    0.861664
H           1.325423   -1.216155    0.001016
H           1.067953    1.109406    0.002152
H           0.579745    2.447851   -0.000029
H           0.000001    2.150730   -0.861584
                   25
 energy=  -511.62388355291921     
C          -1.359102   -0.715246   -0.000010
C          -0.908706   -1.408966    0.000000
C          -0.560656   -0.824112    0.000194
C          -0.465844    0.677448    0.000010
C          -0.919716    1.361863   -0.000000
C          -1.275201    0.627998   -0.000207
C          -0.133621   -1.567073    0.000074
C          -0.141847    1.648454    0.000061
C           0.377107    0.677449   -0.000079
C           0.126174   -0.489083   -0.000283
C           0.661409   -1.279637   -0.002696
H           0.909909   -2.494391    0.000010
C           0.936088   -0.596773   -0.000343
C           0.969643    0.393533   -0.000684
C           0.777126    1.263720   -0.000084
H           0.088684   -2.548264    0.000037
H          -1.638983   -1.171084   -0.000119
H          -0.738963   -2.329858   -0.000191
H          -0.917720    2.447851    0.000010
H          -1.603637    1.089737    0.000136
H           0.000000    2.150680    0.861662
H           1.795562   -1.224683    0.000869
H           1.485055    1.152577    0.001140
H           0.852790    2.447851   -0.000027
H           0.000000    2.150730   -0.861582
                   25
 energy=   1.9762625833649862E-323
C          -1.747417   -0.715246   -0.000010
C          -1.168335   -1.408966    0.000000
C          -0.784887   -0.757229    0.000041
C          -0.598943    0.677448    0.000010
C          -1.182492    1.361863   -0.000000
C          -1.555879    0.665787   -0.000041
C          -0.196185   -1.462478    0.000025
C          -0.149236    1.563337    0.000043
C           0.400899    0.677449   -0.000015
C           0.284743   -0.554011   -0.000205
C           0.857875   -1.256753   -0.000920
H           1.169887   -2.494391    0.000010
C           1.254556   -0.615771   -0.000130
C           1.370740    0.593055   -0.000230
C           1.063667    1.280077   -0.000071
H           0.118133   -2.531940    0.000029
H          -2.065460   -1.183994   -0.000042
H          -1.024947   -2.361243   -0.000157
H          -1.179930    2.447851    0.000010
H          -2.075586    1.133170    0.000006
H           0.000000    2.150680    0.861662
H           2.265681   -1.233210    0.000722
H           1.902143    1.195748    0.000129
H           1.125821    2.447851   -0.000026
H           0.000000    2.150730   -0.861582
                   25
 energy=  -530.91992257383288     
C          -2.135730   -0.715248   -0.000010
C          -1.427962   -1.408962   -0.000000
C          -0.875724   -0.752146    0.000035
C          -0.732043    0.677448    0.000010
C          -1.445265    1.361862    0.000000
C          -1.986132    0.667209   -0.000035
C          -0.156949   -1.456035    0.000022
C          -0.119390    1.541906    0.000038
C           0.573612    0.677449   -0.000012
C           0.475608   -0.589572   -0.000162
C           1.179595   -1.287193   -0.000736
H           1.429874   -2.494389    0.000010
C           1.741442   -0.635668   -0.000106
C           1.838019    0.609023   -0.000188
C           1.350205    1.296432   -0.000059
H           0.094506   -2.528360    0.000027
H          -2.575634   -1.202357   -0.000037
H          -1.313923   -2.387870   -0.000127
H          -1.442149    2.447849    0.000010
H          -2.589386    1.149316    0.000003
H           0.000000    2.150680    0.861660
H           2.735818   -1.241738    0.000576
H           2.450636    1.199387    0.000097
H           1.398862    2.447849   -0.000025
H           0.000000    2.150730   -0.861580
                   25
 energy=  -535.50953954173451     
C          -2.524045   -0.715249   -0.000010
C          -1.687591   -1.408960   -0.000000
C          -0.966561   -0.747063    0.000028
C          -0.865143    0.677449    0.000010
C          -1.708041    1.361860   -0.000000
C          -2.416386    0.668630   -0.000029
C          -0.117712   -1.449593    0.000019
C          -0.089542    1.520477    0.000034
C           0.746319    0.677449   -0.000009
C           0.666474   -0.625132   -0.000119
C           1.501316   -1.317634   -0.000552
H           1.689853   -2.494388    0.000010
C           2.228328   -0.655564   -0.000082
C           2.305301    0.624990   -0.000146
C           1.636746    1.312788   -0.000047
H           0.070880   -2.524784    0.000025
H          -3.085799   -1.220727   -0.000033
H          -1.602890   -2.414500   -0.000098
H          -1.704359    2.447849    0.000010
H          -3.103182    1.165471   -0.000001
H          -0.000000    2.150679    0.861660
H           3.205938   -1.250265    0.000429
H           2.999120    1.203025    0.000065
H           1.671894    2.447849   -0.000024
H          -0.000000    2.150729   -0.861580
                   25
 energy=  -538.17175071944769     
C          -2.912359   -0.715249   -0.000010
C          -1.947220   -1.408960   -0.000000
C          -1.057397   -0.741979    0.000022
C          -0.998242    0.677449    0.000010
C          -1.970817    1.361860    0.000000
C          -2.846640    0.670050   -0.000022
C          -0.078475   -1.443152    0.000016
C          -0.059695    1.499048    0.000029
C           0.919026    0.677449   -0.000006
C           0.857339   -0.660691   -0.000076
C           1.823037   -1.348076   -0.000368
H           1.949832   -2.494388    0.000010
C           2.715215   -0.675459   -0.000058
C           2.772583    0.640957   -0.000104
C           1.923287    1.329145   -0.000035
H           0.047253   -2.521209    0.000024
H          -3.595965   -1.239100   -0.000029
H          -1.891856   -2.441129   -0.000069
H          -1.966569    2.447849    0.000010
H          -3.616977    1.181627   -0.000004
H          -0.000000    2.150679    0.861660
H           3.676059   -1.258793    0.000283
H           3.547603    1.206663    0.000033
H           1.944926    2.447849   -0.000022
H          -0.000000    2.150729   -0.861580
                   25
 energy=  -539.33988364457184     
C          -3.300674   -0.715250   -0.000010
C          -2.206850   -1.408959   -0.000000
C          -1.148233   -0.736894    0.000016
C          -1.131340    0.677450    0.000010
C          -2.233593    1.361859   -0.000000
C          -3.276894    0.671470   -0.000016
C          -0.039237   -1.436710    0.000013
C          -0.029847    1.477618    0.000025
C           1.091733    0.677450   -0.000003
C           1.048204   -0.696250   -0.000033
C           2.144758   -1.378517   -0.000184
H           2.209811   -2.494389    0.000010
C           3.202101   -0.695355   -0.000034
C           3.239866    0.656923   -0.000062
C           2.209828    1.345502   -0.000022
H           0.023627   -2.517634    0.000022
H          -4.106131   -1.257475   -0.000024
H          -2.180823   -2.467759   -0.000039
H          -2.228779    2.447849    0.000010
H          -4.130773    1.197783   -0.000007
H          -0.000000    2.150679    0.861660
H           4.146178   -1.267321    0.000136
H           4.096086    1.210301    0.000002
H           2.217958    2.447849   -0.000021
H          -0.000000    2.150729   -0.861580
                   25
 energy=  -539.66372812053828     
C          -3.688988   -0.715250   -0.000010
C          -2.466479   -1.408959    0.000000
C          -1.239069   -0.731810    0.000010
C          -1.264439    0.677450    0.000010
C          -2.496369    1.361859    0.000000
C          -3.707148    0.672890   -0.000010
C           0.000000   -1.430269    0.000010
C           0.000000    1.456189    0.000020
C           1.264439    0.677450    0.000000
C           1.239069   -0.731810    0.000010
C           2.466479   -1.408959    0.000000
H           2.469789   -2.494389    0.000010
C           3.688988   -0.715250   -0.000010
C           3.707148    0.672890   -0.000020
C           2.496369    1.361859   -0.000010
H           0.000000   -2.514059    0.000020
H          -4.616298   -1.275849   -0.000020
H          -2.469789   -2.494389   -0.000010
H          -2.490989    2.447849    0.000010
H          -4.644568    1.213939   -0.000010
H           0.000000    2.150679    0.861660
H           4.616298   -1.275849   -0.000010
H           4.644568    1.213939   -0.000030
H           2.490989    2.447849   -0.000020
H           0.000000    2.150729   -0.861580
