                   25
 energy=   0.0000000000000000     
C           3.688988   -0.715250   -0.000010
C           2.466479   -1.408959    0.000000
C           1.239069   -0.731810    0.000010
C           1.264439    0.677450    0.000010
C           2.496369    1.361859    0.000000
C           3.707148    0.672890   -0.000010
C           0.000000   -1.430269    0.000010
C           0.000000    1.456189    0.000020
C          -1.264439    0.677450    0.000000
C          -1.239069   -0.731810    0.000010
C          -2.466479   -1.408959    0.000000
H          -2.469789   -2.494389    0.000010
C          -3.688988   -0.715250   -0.000010
C          -3.707148    0.672890   -0.000020
C          -2.496369    1.361859   -0.000010
H           0.000000   -2.514059    0.000020
H           4.616298   -1.275849   -0.000020
H           2.469789   -2.494389   -0.000010
H           2.490989    2.447849    0.000010
H           4.644568    1.213939   -0.000010
H           0.000000    2.150679    0.861660
H          -4.616298   -1.275849   -0.000010
H          -4.644568    1.213939   -0.000030
H          -2.490989    2.447849   -0.000020
H           0.000000    2.150729   -0.861580
                   25
 energy=   0.0000000000000000     
C           3.300674   -0.715250   -0.000010
C           2.206849   -1.408959    0.000000
C           1.064650   -0.737459    0.000017
C           1.131341    0.677450    0.000010
C           2.233593    1.361859    0.000000
C           3.361398    0.671312   -0.000017
C          -0.043597   -1.437426    0.000013
C          -0.033164    1.479999    0.000025
C          -1.175349    0.677450   -0.000003
C          -1.175793   -0.692299   -0.000038
C          -2.275840   -1.375135   -0.000204
H          -2.209811   -2.494389    0.000010
C          -3.410199   -0.693144   -0.000037
C          -3.402540    0.655149   -0.000067
C          -2.259999    1.343684   -0.000024
H           0.026252   -2.518031    0.000022
H           4.157306   -1.255432   -0.000025
H           2.242020   -2.464800   -0.000043
H           2.228779    2.447849    0.000010
H           4.183325    1.195988   -0.000007
H           0.000000    2.150679    0.861660
H          -4.112808   -1.266374    0.000153
H          -4.221866    1.209897    0.000005
H          -2.240803    2.447849   -0.000021
H           0.000000    2.150729   -0.861580
                   25
 energy=   0.0000000000000000     
C           2.912359   -0.715250   -0.000010
C           1.947220   -1.408959    0.000000
C           0.890230   -0.743109    0.000024
C           0.998242    0.677450    0.000010
C           1.970817    1.361859    0.000000
C           3.015647    0.669735   -0.000024
C          -0.087194   -1.444583    0.000017
C          -0.066328    1.503809    0.000030
C          -1.086259    0.677450   -0.000007
C          -1.112517   -0.652789   -0.000085
C          -2.085201   -1.341310   -0.000409
H          -1.949833   -2.494389    0.000010
C          -3.131409   -0.671038   -0.000063
C          -3.097933    0.637409   -0.000113
C          -2.023629    1.325510   -0.000037
H           0.052503   -2.522004    0.000024
H           3.698314   -1.235015   -0.000030
H           2.014251   -2.435211   -0.000075
H           1.966570    2.447849    0.000010
H           3.722083    1.178036   -0.000003
H           0.000000    2.150679    0.861660
H          -3.609318   -1.256899    0.000316
H          -3.799164    1.205854    0.000040
H          -1.990618    2.447849   -0.000023
H           0.000000    2.150729   -0.861580
                   25
 energy=   0.0000000000000000     
C           2.524045   -0.715250   -0.000010
C           1.687591   -1.408959    0.000000
C           0.715810   -0.748759    0.000030
C           0.865143    0.677450    0.000010
C           1.708042    1.361859    0.000000
C           2.669897    0.668157   -0.000031
C          -0.130791   -1.451740    0.000020
C          -0.099492    1.527619    0.000035
C          -0.997169    0.677450   -0.000010
C          -1.049240   -0.613279   -0.000133
C          -1.894562   -1.307486   -0.000613
H          -1.689856   -2.494389    0.000010
C          -2.852619   -0.648933   -0.000090
C          -2.793325    0.619669   -0.000160
C          -1.787259    1.307335   -0.000051
H           0.078755   -2.525976    0.000026
H           3.239322   -1.214598   -0.000034
H           1.786482   -2.405623   -0.000108
H           1.704361    2.447849    0.000010
H           3.260840    1.160084    0.000000
H           0.000000    2.150679    0.861660
H          -3.105828   -1.247423    0.000478
H          -3.376463    1.201811    0.000076
H          -1.740432    2.447849   -0.000024
H           0.000000    2.150729   -0.861580
                   25
 energy=   0.0000000000000000     
C           2.135730   -0.715250   -0.000010
C           1.427961   -1.408959    0.000000
C           0.541390   -0.754409    0.000037
C           0.732044    0.677450    0.000010
C           1.445266    1.361859    0.000000
C           2.324146    0.666580   -0.000038
C          -0.174388   -1.458896    0.000023
C          -0.132655    1.551429    0.000040
C          -0.908079    0.677450   -0.000013
C          -0.985964   -0.573769   -0.000181
C          -1.703924   -1.273661   -0.000818
H          -1.429878   -2.494389    0.000010
C          -2.573829   -0.626827   -0.000117
C          -2.488717    0.601929   -0.000207
C          -1.550889    1.289160   -0.000065
H           0.105007   -2.529949    0.000028
H           2.780331   -1.194181   -0.000039
H           1.558713   -2.376034   -0.000140
H           1.442151    2.447849    0.000010
H           2.799597    1.142132    0.000004
H           0.000000    2.150679    0.861660
H          -2.602338   -1.237948    0.000641
H          -2.953761    1.197768    0.000111
H          -1.490247    2.447849   -0.000026
H           0.000000    2.150729   -0.861580
                   25
 energy=   0.0000000000000000     
C           1.747415   -0.715250   -0.000010
C           1.168332   -1.408959    0.000000
C           0.366970   -0.760058    0.000044
C           0.598945    0.677450    0.000010
C           1.182490    1.361859    0.000000
C           1.978396    0.665002   -0.000045
C          -0.217985   -1.466053    0.000027
C          -0.165819    1.575239    0.000045
C          -0.818988    0.677450   -0.000017
C          -0.922687   -0.534259   -0.000229
C          -1.513285   -1.239836   -0.001022
H          -1.169900   -2.494389    0.000010
C          -2.295040   -0.604721   -0.000143
C          -2.184109    0.584188   -0.000253
C          -1.314519    1.270985   -0.000078
H           0.131259   -2.533921    0.000030
H           2.321339   -1.173764   -0.000044
H           1.330944   -2.346445   -0.000173
H           1.179942    2.447849    0.000010
H           2.338355    1.124180    0.000007
H           0.000000    2.150679    0.861660
H          -2.200345   -1.233305    0.001620
H          -2.531059    1.193725    0.000146
H          -1.240061    2.447849   -0.000027
H           0.000000    2.150729   -0.861580
                   25
 energy=   0.0000000000000000     
C           1.359101   -0.715250   -0.000010
C           0.908703   -1.408959    0.000000
C           0.192551   -0.765708    0.000051
C           0.465846    0.677450    0.000010
C           0.919715    1.361859    0.000000
C           1.632645    0.663425   -0.000052
C          -0.261582   -1.473210    0.000030
C          -0.198983    1.599049    0.000050
C          -0.729898    0.677450   -0.000020
C          -0.859411   -0.494748   -0.000276
C          -1.322646   -1.206012   -0.001227
H          -0.909922   -2.494389    0.000010
C          -2.016250   -0.582616   -0.000170
C          -1.879501    0.566448   -0.000300
C          -1.078149    1.252810   -0.000092
H           0.157510   -2.537893    0.000032
H           1.862347   -1.153347   -0.000049
H           1.103175   -2.316857   -0.000205
H           0.917733    2.447849    0.000010
H           1.877112    1.106229    0.000011
H           0.000000    2.150679    0.861660
H          -1.798351   -1.228662    0.002599
H          -2.108357    1.189682    0.000181
H          -0.989876    2.447849   -0.000028
H           0.000000    2.150729   -0.861580
                   25
 energy=   0.0000000000000000     
C           0.970786   -0.715250   -0.000010
C           0.649073   -1.408959    0.000000
C           0.018131   -0.771358    0.000058
C           0.332747    0.677450    0.000010
C           0.656939    1.361859    0.000000
C           1.286895    0.661847   -0.000058
C          -0.305179   -1.480367    0.000034
C          -0.232147    1.622859    0.000055
C          -0.640808    0.677450   -0.000023
C          -0.796134   -0.455238   -0.000324
C          -1.132007   -1.172187   -0.001431
H          -0.649944   -2.494389    0.000010
C          -1.737460   -0.560510   -0.000197
C          -1.574893    0.548708   -0.000347
C          -0.841779    1.234635   -0.000106
H           0.183762   -2.541866    0.000034
H           1.403355   -1.132930   -0.000054
H           0.875406   -2.287268   -0.000238
H           0.655523    2.447849    0.000010
H           1.424772    1.117712    0.000019
H           0.000000    2.150679    0.861660
H          -1.564438   -1.371064    0.015145
H          -1.685656    1.185639    0.000217
H          -0.739690    2.447849   -0.000030
H           0.000000    2.150729   -0.861580
                   25
 energy=   0.0000000000000000     
C           0.582472   -0.715250   -0.000010
C           0.389444   -1.408959    0.000000
C          -0.156289   -0.777008    0.000065
C           0.199648    0.677450    0.000010
C           0.394163    1.361859    0.000000
C           0.941144    0.660270   -0.000065
C          -0.348776   -1.487523    0.000037
C          -0.265311    1.646669    0.000060
C          -0.551718    0.677450   -0.000026
C          -0.732858   -0.415728   -0.000372
C          -0.941369   -1.138363   -0.001635
H          -0.389967   -2.494389    0.000010
C          -1.458671   -0.538404   -0.000224
C          -1.270285    0.530968   -0.000393
C          -0.605409    1.216460   -0.000119
H           0.210014   -2.545838    0.000036
H           0.944363   -1.112513   -0.000058
H           0.647637   -2.257679   -0.000271
H           0.393314    2.447849    0.000010
H           0.961234    1.136105    0.000031
H           0.000000    2.150679    0.861660
H          -0.810582   -1.593611    0.048033
H          -1.262954    1.181597    0.000252
H          -0.489505    2.447849   -0.000031
H           0.000000    2.150729   -0.861580
                   25
 energy=   0.0000000000000000     
C           0.194157   -0.715250   -0.000010
C           0.129815   -1.408959    0.000000
C          -0.330709   -0.782658    0.000071
C           0.066549    0.677450    0.000010
C           0.131388    1.361859    0.000000
C           0.595394    0.658692   -0.000072
C          -0.392373   -1.494680    0.000040
C          -0.298475    1.670479    0.000065
C          -0.462628    0.677450   -0.000030
C          -0.669581   -0.376218   -0.000419
C          -0.750730   -1.104538   -0.001840
H          -0.129989   -2.494389    0.000010
C          -1.179881   -0.516299   -0.000250
C          -0.965677    0.513227   -0.000440
C          -0.369039    1.198285   -0.000133
H           0.236266   -2.549811    0.000038
H           0.485372   -1.092096   -0.000063
H           0.419868   -2.228091   -0.000303
H           0.131105    2.447849    0.000010
H           0.493384    1.052373    0.000021
H           0.000000    2.150679    0.861660
H          -0.084888   -1.190571    0.001455
H          -0.840252    1.177554    0.000287
H          -0.239319    2.447849   -0.000032
H           0.000000    2.150729   -0.861580
                   25
 energy=   0.0000000000000000     
C          -0.194157   -0.715250   -0.000010
C          -0.129815   -1.408959    0.000000
C          -0.561562   -1.096083    0.002838
C          -0.066549    0.677450    0.000010
C          -0.131388    1.361859    0.000000
C          -0.012912    0.151003   -0.002299
C          -0.287322   -1.914152    0.000237
C          -0.241455    1.879463    0.000110
C          -0.066638    0.677450   -0.529167
C          -0.491545   -0.277541   -0.000539
C          -0.819224   -1.548907   -0.089836
H           0.129989   -2.494389    0.000010
C          -0.861068   -0.656324   -0.002594
C          -0.501922    0.353228   -0.000764
C           0.305157    1.054093   -0.001428
H           0.145831   -2.864474    0.000198
H           0.161372   -1.032111    0.004314
H           0.140070   -2.124102   -0.000461
H          -0.131105    2.447849    0.000010
H          -0.427117    0.988567    0.004504
H           0.000000    2.150679    0.861660
H           0.458370   -1.253452    0.000477
H          -0.641931    1.211261    0.208160
H           0.239319    2.447849   -0.000082
H           0.000000    2.150729   -0.861580
                   25
 energy=   0.0000000000000000     
C          -0.582472   -0.715250   -0.000010
C          -0.389444   -1.408959    0.000000
C          -0.112198   -0.957882    0.000501
C          -0.199648    0.677450    0.000010
C          -0.394163    1.361859    0.000000
C          -0.713843    0.552424   -0.000538
C          -0.008497   -1.776257    0.000172
C          -0.127070    1.818685    0.000097
C           0.329529    0.677450   -0.000207
C          -0.190963   -0.359231   -0.000440
C           0.268477   -1.325400   -0.006248
H           0.389967   -2.494389    0.000010
C           0.299147   -0.558780   -0.000768
C           0.068271    0.217263   -0.001133
C           0.204043    1.231000   -0.000108
H           0.029788   -2.580908    0.000054
H          -0.786026   -1.145245   -0.000275
H          -0.167009   -2.267085   -0.000259
H          -0.393314    2.447849    0.000010
H          -0.646169    0.957736    0.000334
H           0.000000    2.150679    0.861660
H           0.855349   -1.207627    0.001162
H           0.650883    1.066239    0.003164
H           0.306742    2.447849   -0.000030
H           0.000000    2.150729   -0.861580
                   25
 energy=   0.0000000000000000     
C          -0.970786   -0.715250   -0.000010
C          -0.649073   -1.408959    0.000000
C          -0.336428   -0.890999    0.000348
C          -0.332747    0.677450    0.000010
C          -0.656939    1.361859    0.000000
C          -0.994521    0.590213   -0.000373
C          -0.071060   -1.671663    0.000123
C          -0.134459    1.733568    0.000079
C           0.353321    0.677450   -0.000143
C          -0.032394   -0.424158   -0.000362
C           0.464943   -1.302516   -0.004472
H           0.649944   -2.494389    0.000010
C           0.617616   -0.577778   -0.000555
C           0.568542    0.194017   -0.001137
C           0.490583    1.247357   -0.000096
H           0.059237   -2.564583    0.000046
H          -1.212505   -1.158154   -0.000197
H          -0.452993   -2.298470   -0.000225
H          -0.655523    2.447849    0.000010
H          -1.131691    1.046291    0.000267
H           0.000000    2.150679    0.861660
H           1.325468   -1.216154    0.001015
H           1.067974    1.109408    0.002152
H           0.579773    2.447849   -0.000029
H           0.000000    2.150729   -0.861580
                   25
 energy=   0.0000000000000000     
C          -1.359101   -0.715250   -0.000010
C          -0.908703   -1.408959    0.000000
C          -0.560659   -0.824116    0.000194
C          -0.465846    0.677450    0.000010
C          -0.919715    1.361859    0.000000
C          -1.275199    0.628002   -0.000207
C          -0.133623   -1.567069    0.000074
C          -0.141848    1.648451    0.000061
C           0.377113    0.677450   -0.000079
C           0.126175   -0.489086   -0.000283
C           0.661409   -1.279633   -0.002696
H           0.909922   -2.494389    0.000010
C           0.936085   -0.596776   -0.000343
C           0.969639    0.393538   -0.000684
C           0.777124    1.263715   -0.000084
H           0.088685   -2.548259    0.000037
H          -1.638984   -1.171064   -0.000119
H          -0.738976   -2.329855   -0.000191
H          -0.917733    2.447849    0.000010
H          -1.603641    1.089724    0.000136
H           0.000000    2.150679    0.861660
H           1.795586   -1.224682    0.000869
H           1.485066    1.152578    0.001140
H           0.852804    2.447849   -0.000027
H           0.000000    2.150729   -0.861580
                   25
 energy=   0.0000000000000000     
C          -1.747415   -0.715250   -0.000010
C          -1.168332   -1.408959    0.000000
C          -0.784889   -0.757234    0.000041
C          -0.598945    0.677450    0.000010
C          -1.182490    1.361859    0.000000
C          -1.555877    0.665791   -0.000041
C          -0.196187   -1.462475    0.000025
C          -0.149237    1.563334    0.000043
C           0.400906    0.677450   -0.000015
C           0.284744   -0.554014   -0.000205
C           0.857875   -1.256749   -0.000920
H           1.169900   -2.494389    0.000010
C           1.254554   -0.615774   -0.000130
C           1.370735    0.593059   -0.000230
C           1.063665    1.280072   -0.000071
H           0.118133   -2.531935    0.000029
H          -2.065463   -1.183973   -0.000042
H          -1.024960   -2.361240   -0.000157
H          -1.179942    2.447849    0.000010
H          -2.075592    1.133156    0.000006
H           0.000000    2.150679    0.861660
H           2.265705   -1.233210    0.000722
H           1.902158    1.195747    0.000129
H           1.125835    2.447849   -0.000026
H           0.000000    2.150729   -0.861580
                   25
 energy=   0.0000000000000000     
C          -2.135730   -0.715250   -0.000010
C          -1.427961   -1.408959    0.000000
C          -0.875725   -0.752149    0.000035
C          -0.732044    0.677450    0.000010
C          -1.445266    1.361859    0.000000
C          -1.986131    0.667211   -0.000035
C          -0.156949   -1.456034    0.000022
C          -0.119390    1.541905    0.000038
C           0.573613    0.677450   -0.000012
C           0.475609   -0.589573   -0.000162
C           1.179595   -1.287191   -0.000736
H           1.429878   -2.494389    0.000010
C           1.741441   -0.635669   -0.000106
C           1.838018    0.609025   -0.000188
C           1.350206    1.296430   -0.000059
H           0.094506   -2.528360    0.000027
H          -2.575630   -1.202348   -0.000037
H          -1.313926   -2.387870   -0.000127
H          -1.442151    2.447849    0.000010
H          -2.589387    1.149313    0.000003
H           0.000000    2.150679    0.861660
H           2.735823   -1.241738    0.000576
H           2.450640    1.199385    0.000097
H           1.398866    2.447849   -0.000025
H           0.000000    2.150729   -0.861580
                   25
 energy=   0.0000000000000000     
C          -2.524045   -0.715250   -0.000010
C          -1.687591   -1.408959    0.000000
C          -0.966561   -0.747064    0.000028
C          -0.865143    0.677450    0.000010
C          -1.708042    1.361859    0.000000
C          -2.416386    0.668630   -0.000029
C          -0.117712   -1.449593    0.000019
C          -0.089542    1.520476    0.000034
C           0.746319    0.677450   -0.000009
C           0.666474   -0.625132   -0.000119
C           1.501316   -1.317633   -0.000552
H           1.689856   -2.494389    0.000010
C           2.228327   -0.655564   -0.000082
C           2.305301    0.624991   -0.000146
C           1.636746    1.312787   -0.000047
H           0.070880   -2.524784    0.000025
H          -3.085797   -1.220723   -0.000033
H          -1.602892   -2.414499   -0.000098
H          -1.704361    2.447849    0.000010
H          -3.103182    1.165470   -0.000001
H           0.000000    2.150679    0.861660
H           3.205942   -1.250266    0.000429
H           2.999122    1.203024    0.000065
H           1.671896    2.447849   -0.000024
H           0.000000    2.150729   -0.861580
                   25
 energy=   0.0000000000000000     
C          -2.912359   -0.715250   -0.000010
C          -1.947220   -1.408959    0.000000
C          -1.057397   -0.741979    0.000022
C          -0.998242    0.677450    0.000010
C          -1.970817    1.361859    0.000000
C          -2.846640    0.670050   -0.000022
C          -0.078475   -1.443151    0.000016
C          -0.059695    1.499047    0.000029
C           0.919026    0.677450   -0.000006
C           0.857339   -0.660691   -0.000076
C           1.823037   -1.348075   -0.000368
H           1.949833   -2.494389    0.000010
C           2.715214   -0.675459   -0.000058
C           2.772583    0.640957   -0.000104
C           1.923287    1.329144   -0.000035
H           0.047253   -2.521209    0.000024
H          -3.595964   -1.239099   -0.000029
H          -1.891857   -2.441129   -0.000069
H          -1.966570    2.447849    0.000010
H          -3.616977    1.181626   -0.000004
H           0.000000    2.150679    0.861660
H           3.676061   -1.258794    0.000283
H           3.547604    1.206662    0.000033
H           1.944927    2.447849   -0.000022
H           0.000000    2.150729   -0.861580
                   25
 energy=   0.0000000000000000     
C          -3.300674   -0.715250   -0.000010
C          -2.206849   -1.408959    0.000000
C          -1.148233   -0.736894    0.000016
C          -1.131341    0.677450    0.000010
C          -2.233593    1.361859    0.000000
C          -3.276894    0.671470   -0.000016
C          -0.039237   -1.436710    0.000013
C          -0.029847    1.477618    0.000025
C           1.091733    0.677450   -0.000003
C           1.048204   -0.696250   -0.000033
C           2.144758   -1.378517   -0.000184
H           2.209811   -2.494389    0.000010
C           3.202101   -0.695355   -0.000034
C           3.239866    0.656923   -0.000062
C           2.209828    1.345502   -0.000022
H           0.023627   -2.517634    0.000022
H          -4.106131   -1.257474   -0.000024
H          -2.180823   -2.467759   -0.000039
H          -2.228779    2.447849    0.000010
H          -4.130773    1.197783   -0.000007
H           0.000000    2.150679    0.861660
H           4.146179   -1.267322    0.000136
H           4.096086    1.210301    0.000002
H           2.217958    2.447849   -0.000021
H           0.000000    2.150729   -0.861580
                   25
 energy=   0.0000000000000000     
C          -3.688988   -0.715250   -0.000010
C          -2.466479   -1.408959    0.000000
C          -1.239069   -0.731810    0.000010
C          -1.264439    0.677450    0.000010
C          -2.496369    1.361859    0.000000
C          -3.707148    0.672890   -0.000010
C           0.000000   -1.430269    0.000010
C           0.000000    1.456189    0.000020
C           1.264439    0.677450    0.000000
C           1.239069   -0.731810    0.000010
C           2.466479   -1.408959    0.000000
H           2.469789   -2.494389    0.000010
C           3.688988   -0.715250   -0.000010
C           3.707148    0.672890   -0.000020
C           2.496369    1.361859   -0.000010
H           0.000000   -2.514059    0.000020
H          -4.616298   -1.275849   -0.000020
H          -2.469789   -2.494389   -0.000010
H          -2.490989    2.447849    0.000010
H          -4.644568    1.213939   -0.000010
H           0.000000    2.150679    0.861660
H           4.616298   -1.275849   -0.000010
H           4.644568    1.213939   -0.000030
H           2.490989    2.447849   -0.000020
H           0.000000    2.150729   -0.861580
