                   25
 energy=  -539.66372689577724     
C           3.688988   -0.715250   -0.000010
C           2.466479   -1.408959    0.000000
C           1.239069   -0.731810    0.000010
C           1.264439    0.677450    0.000010
C           2.496369    1.361859    0.000000
C           3.707148    0.672890   -0.000010
C           0.000000   -1.430269    0.000010
C           0.000000    1.456189    0.000020
C          -1.264439    0.677450    0.000000
C          -1.239069   -0.731810    0.000010
C          -2.466479   -1.408959    0.000000
H          -2.469789   -2.494389    0.000010
C          -3.688988   -0.715250   -0.000010
C          -3.707148    0.672890   -0.000020
C          -2.496369    1.361859   -0.000010
H           0.000000   -2.514059    0.000020
H           4.616298   -1.275849   -0.000020
H           2.469789   -2.494389   -0.000010
H           2.490989    2.447849    0.000010
H           4.644568    1.213939   -0.000010
H           0.000000    2.150679    0.861660
H          -4.616298   -1.275849   -0.000010
H          -4.644568    1.213939   -0.000030
H          -2.490989    2.447849   -0.000020
H           0.000000    2.150729   -0.861580
                   25
 energy=  -539.43138432413411     
C           3.300674   -0.715250   -0.000010
C           2.206849   -1.408960   -0.000000
C           1.064650   -0.737459    0.000017
C           1.131340    0.677450    0.000010
C           2.233593    1.361860   -0.000000
C           3.361398    0.671312   -0.000017
C          -0.043597   -1.437426    0.000013
C          -0.033164    1.479999    0.000025
C          -1.175349    0.677450   -0.000003
C          -1.175793   -0.692299   -0.000038
C          -2.275840   -1.375135   -0.000204
H          -2.209810   -2.494388    0.000010
C          -3.410198   -0.693144   -0.000037
C          -3.402540    0.655149   -0.000067
C          -2.259999    1.343685   -0.000024
H           0.026251   -2.518031    0.000022
H           4.157306   -1.255433   -0.000025
H           2.242019   -2.464801   -0.000043
H           2.228778    2.447849    0.000010
H           4.183326    1.195989   -0.000007
H          -0.000000    2.150679    0.861660
H          -4.112812   -1.266378    0.000153
H          -4.221867    1.209898    0.000005
H          -2.240802    2.447848   -0.000021
H          -0.000000    2.150729   -0.861580
                   25
 energy=  -538.62542819593637     
C           2.912359   -0.715249   -0.000010
C           1.947220   -1.408960   -0.000000
C           0.890230   -0.743109    0.000024
C           0.998241    0.677449    0.000010
C           1.970818    1.361860    0.000000
C           3.015647    0.669734   -0.000024
C          -0.087194   -1.444583    0.000017
C          -0.066328    1.503810    0.000030
C          -1.086258    0.677449   -0.000007
C          -1.112516   -0.652789   -0.000085
C          -2.085201   -1.341311   -0.000409
H          -1.949831   -2.494387    0.000010
C          -3.131408   -0.671037   -0.000063
C          -3.097932    0.637409   -0.000113
C          -2.023629    1.325510   -0.000037
H           0.052503   -2.522003    0.000024
H           3.698314   -1.235017   -0.000030
H           2.014248   -2.435213   -0.000075
H           1.966567    2.447849    0.000010
H           3.722086    1.178040   -0.000003
H          -0.000000    2.150679    0.861660
H          -3.609329   -1.256914    0.000316
H          -3.799166    1.205858    0.000040
H          -1.990616    2.447848   -0.000023
H          -0.000000    2.150729   -0.861580
                   25
 energy=  -536.98860366427425     
C           2.524045   -0.715248   -0.000010
C           1.687590   -1.408961   -0.000000
C           0.715810   -0.748758    0.000030
C           0.865141    0.677448    0.000010
C           1.708042    1.361861    0.000000
C           2.669896    0.668156   -0.000031
C          -0.130792   -1.451741    0.000020
C          -0.099491    1.527620    0.000035
C          -0.997167    0.677448   -0.000010
C          -1.049239   -0.613278   -0.000133
C          -1.894562   -1.307487   -0.000613
H          -1.689852   -2.494387    0.000010
C          -2.852618   -0.648929   -0.000090
C          -2.793324    0.619668   -0.000160
C          -1.787260    1.307337   -0.000051
H           0.078754   -2.525976    0.000026
H           3.239322   -1.214602   -0.000034
H           1.786477   -2.405624   -0.000108
H           1.704356    2.447849    0.000010
H           3.260848    1.160095    0.000000
H          -0.000000    2.150680    0.861660
H          -3.105841   -1.247461    0.000478
H          -3.376465    1.201819    0.000076
H          -1.740428    2.447848   -0.000024
H          -0.000000    2.150730   -0.861580
                   25
 energy=  -534.20659906653214     
C           2.135731   -0.715247   -0.000010
C           1.427960   -1.408962   -0.000000
C           0.541391   -0.754406    0.000037
C           0.732041    0.677447    0.000010
C           1.445267    1.361862    0.000000
C           2.324145    0.666577   -0.000038
C          -0.174390   -1.458899    0.000023
C          -0.132655    1.551431    0.000040
C          -0.908075    0.677445   -0.000013
C          -0.985962   -0.573766   -0.000181
C          -1.703923   -1.273664   -0.000818
H          -1.429873   -2.494387    0.000010
C          -2.573830   -0.626822   -0.000117
C          -2.488717    0.601927   -0.000207
C          -1.550892    1.289164   -0.000065
H           0.105005   -2.529948    0.000028
H           2.780332   -1.194188   -0.000039
H           1.558707   -2.376036   -0.000140
H           1.442145    2.447849    0.000010
H           2.799613    1.142156    0.000004
H          -0.000001    2.150680    0.861661
H          -2.602342   -1.238001    0.000641
H          -2.953765    1.197783    0.000111
H          -1.490242    2.447848   -0.000026
H          -0.000001    2.150730   -0.861581
                   25
 energy=  -530.24929174127737     
C           1.747417   -0.715245   -0.000010
C           1.168330   -1.408964    0.000000
C           0.366971   -0.760054    0.000044
C           0.598941    0.677445    0.000010
C           1.182492    1.361864    0.000000
C           1.978393    0.664997   -0.000045
C          -0.217987   -1.466058    0.000027
C          -0.165819    1.575242    0.000045
C          -0.818982    0.677441   -0.000017
C          -0.922684   -0.534255   -0.000229
C          -1.513283   -1.239842   -0.001022
H          -1.169890   -2.494389    0.000010
C          -2.295042   -0.604716   -0.000143
C          -2.184109    0.584186   -0.000253
C          -1.314524    1.270993   -0.000078
H           0.131257   -2.533923    0.000030
H           2.321338   -1.173776   -0.000044
H           1.330934   -2.346448   -0.000173
H           1.179931    2.447849    0.000010
H           2.338377    1.124227    0.000007
H          -0.000001    2.150681    0.861662
H          -2.200353   -1.233351    0.001620
H          -2.531059    1.193749    0.000146
H          -1.240052    2.447851   -0.000027
H          -0.000001    2.150731   -0.861582
                   25
 energy=  -523.65029543184983     
C           1.359102   -0.715241   -0.000010
C           0.908700   -1.408968    0.000000
C           0.192552   -0.765701    0.000051
C           0.465842    0.677443    0.000010
C           0.919717    1.361868    0.000000
C           1.632642    0.663415   -0.000052
C          -0.261586   -1.473217    0.000030
C          -0.198981    1.599054    0.000050
C          -0.729889    0.677434   -0.000020
C          -0.859407   -0.494742   -0.000276
C          -1.322638   -1.206019   -0.001227
H          -0.909903   -2.494392    0.000010
C          -2.016254   -0.582611   -0.000170
C          -1.879501    0.566445   -0.000300
C          -1.078159    1.252825   -0.000092
H           0.157508   -2.537899    0.000032
H           1.862346   -1.153367   -0.000049
H           1.103162   -2.316860   -0.000205
H           0.917718    2.447849    0.000010
H           1.877138    1.106318    0.000011
H          -0.000001    2.150683    0.861664
H          -1.798447   -1.228716    0.002601
H          -2.108349    1.189716    0.000181
H          -0.989862    2.447851   -0.000028
H          -0.000001    2.150733   -0.861584
                   25
 energy=  -514.35767848552337     
C           0.970787   -0.715236   -0.000010
C           0.649071   -1.408972   -0.000000
C           0.018132   -0.771348    0.000058
C           0.332741    0.677440    0.000010
C           0.656943    1.361871   -0.000000
C           1.286894    0.661834   -0.000058
C          -0.305182   -1.480379    0.000034
C          -0.232141    1.622871    0.000055
C          -0.640797    0.677424   -0.000023
C          -0.796131   -0.455228   -0.000324
C          -1.132002   -1.172194   -0.001431
H          -0.649909   -2.494396    0.000010
C          -1.737466   -0.560506   -0.000197
C          -1.574895    0.548704   -0.000347
C          -0.841796    1.234654   -0.000106
H           0.183762   -2.541878    0.000034
H           1.403349   -1.132958   -0.000053
H           0.875385   -2.287273   -0.000238
H           0.655493    2.447854    0.000010
H           1.424768    1.117829    0.000019
H          -0.000000    2.150683    0.861668
H          -1.564444   -1.371162    0.015154
H          -1.685627    1.185683    0.000217
H          -0.739658    2.447860   -0.000030
H          -0.000000    2.150733   -0.861588
                   25
 energy=  -493.95798256545470     
C           0.582476   -0.715230   -0.000010
C           0.389447   -1.408976    0.000000
C          -0.156288   -0.777001    0.000065
C           0.199641    0.677436    0.000010
C           0.394171    1.361871   -0.000000
C           0.941151    0.660256   -0.000065
C          -0.348770   -1.487543    0.000036
C          -0.265304    1.646707    0.000061
C          -0.551711    0.677411   -0.000026
C          -0.732856   -0.415706   -0.000372
C          -0.941382   -1.138363   -0.001637
H          -0.389902   -2.494399    0.000010
C          -1.458683   -0.538401   -0.000224
C          -1.270294    0.530963   -0.000393
C          -0.605426    1.216472   -0.000120
H           0.210019   -2.545859    0.000036
H           0.944328   -1.112546   -0.000059
H           0.647593   -2.257674   -0.000271
H           0.393244    2.447862    0.000009
H           0.961165    1.136193    0.000031
H           0.000000    2.150685    0.861673
H          -0.810460   -1.593640    0.048044
H          -1.262891    1.181641    0.000252
H          -0.489439    2.447863   -0.000030
H           0.000002    2.150736   -0.861593
                   25
 energy=  -440.80283166281799     
C           0.194191   -0.715217   -0.000010
C           0.129870   -1.409005   -0.000000
C          -0.330701   -0.782657    0.000072
C           0.066552    0.677426    0.000010
C           0.131445    1.361874   -0.000000
C           0.595427    0.658658   -0.000072
C          -0.392394   -1.494745    0.000040
C          -0.298495    1.670560    0.000065
C          -0.462630    0.677418   -0.000043
C          -0.669569   -0.376169   -0.000419
C          -0.750790   -1.104561   -0.001842
H          -0.129961   -2.494396    0.000010
C          -1.179924   -0.516302   -0.000250
C          -0.965708    0.513209   -0.000440
C          -0.369057    1.198269   -0.000133
H           0.236262   -2.549960    0.000038
H           0.485454   -1.092091   -0.000062
H           0.419820   -2.228030   -0.000303
H           0.131077    2.447868    0.000010
H           0.493207    1.052507    0.000023
H           0.000000    2.150683    0.861674
H          -0.084856   -1.190346    0.001458
H          -0.840361    1.177617    0.000349
H          -0.239224    2.447872   -0.000032
H           0.000000    2.150733   -0.861594
                   25
 energy=  -436.71391249664305     
C          -0.194124   -0.715242   -0.000009
C          -0.129782   -1.408962    0.000002
C          -0.561567   -1.096089    0.002843
C          -0.066550    0.677466    0.000047
C          -0.131414    1.361871    0.000002
C          -0.012891    0.150966   -0.002293
C          -0.287314   -1.914197    0.000239
C          -0.241460    1.879497    0.000110
C          -0.066617    0.677450   -0.529217
C          -0.491540   -0.277510   -0.000538
C          -0.819235   -1.548932   -0.089844
H           0.130141   -2.494416    0.000010
C          -0.861088   -0.656315   -0.002593
C          -0.501965    0.353228   -0.000758
C           0.305228    1.054109   -0.001421
H           0.145779   -2.864449    0.000197
H           0.161078   -1.032118    0.004320
H           0.140009   -2.124176   -0.000460
H          -0.131289    2.447913    0.000011
H          -0.427480    0.988548    0.004511
H           0.000002    2.150684    0.861674
H           0.458711   -1.253457    0.000479
H          -0.641456    1.211226    0.208155
H           0.239467    2.447868   -0.000081
H           0.000001    2.150736   -0.861598
                   25
 energy=  -437.86468219954884     
C          -0.582522   -0.715240   -0.000010
C          -0.389486   -1.408982    0.000000
C          -0.112206   -0.957882    0.000502
C          -0.199662    0.677467    0.000010
C          -0.394194    1.361857    0.000000
C          -0.713866    0.552386   -0.000539
C          -0.008497   -1.776320    0.000173
C          -0.127065    1.818734    0.000097
C           0.329575    0.677447   -0.000227
C          -0.190993   -0.359188   -0.000441
C           0.268494   -1.325412   -0.006253
H           0.389912   -2.494402    0.000010
C           0.299166   -0.558775   -0.000768
C           0.068262    0.217225   -0.001132
C           0.204070    1.231017   -0.000109
H           0.029824   -2.581106    0.000054
H          -0.785784   -1.145242   -0.000272
H          -0.166927   -2.267071   -0.000260
H          -0.393214    2.447880    0.000010
H          -0.646184    0.957876    0.000336
H           0.000004    2.150684    0.861677
H           0.855241   -1.207646    0.001164
H           0.650480    1.066341    0.003258
H           0.306727    2.447868   -0.000029
H           0.000003    2.150734   -0.861597
                   25
 energy=  -486.29370576941727     
C          -0.970798   -0.715231   -0.000010
C          -0.649094   -1.408981    0.000000
C          -0.336416   -0.891006    0.000348
C          -0.332742    0.677442    0.000010
C          -0.656950    1.361865   -0.000000
C          -0.994532    0.590196   -0.000373
C          -0.071054   -1.671690    0.000123
C          -0.134450    1.733592    0.000079
C           0.353316    0.677456   -0.000143
C          -0.032400   -0.424129   -0.000362
C           0.464958   -1.302521   -0.004473
H           0.649878   -2.494399    0.000010
C           0.617632   -0.577778   -0.000555
C           0.568549    0.193990   -0.001137
C           0.490589    1.247383   -0.000096
H           0.059232   -2.564611    0.000046
H          -1.212474   -1.158221   -0.000197
H          -0.452921   -2.298485   -0.000225
H          -0.655445    2.447861    0.000010
H          -1.131637    1.046350    0.000267
H           0.000003    2.150683    0.861673
H           1.325334   -1.216157    0.001016
H           1.067910    1.109402    0.002153
H           0.579690    2.447856   -0.000029
H           0.000003    2.150733   -0.861593
                   25
 energy=  -511.62529301064416     
C          -1.359105   -0.715237   -0.000010
C          -0.908712   -1.408978    0.000000
C          -0.560651   -0.824104    0.000194
C          -0.465840    0.677443    0.000010
C          -0.919718    1.361871   -0.000000
C          -1.275204    0.627990   -0.000207
C          -0.133617   -1.567080    0.000074
C          -0.141844    1.648459    0.000061
C           0.377094    0.677447   -0.000079
C           0.126172   -0.489078   -0.000283
C           0.661410   -1.279645   -0.002696
H           0.909883   -2.494395    0.000010
C           0.936094   -0.596768   -0.000343
C           0.969653    0.393525   -0.000684
C           0.777129    1.263730   -0.000084
H           0.088682   -2.548275    0.000037
H          -1.638982   -1.171126   -0.000119
H          -0.738935   -2.329863   -0.000191
H          -0.917696    2.447856    0.000010
H          -1.603628    1.089764    0.000136
H           0.000000    2.150683    0.861666
H           1.795514   -1.224683    0.000869
H           1.485032    1.152577    0.001141
H           0.852763    2.447855   -0.000027
H           0.000000    2.150733   -0.861586
                   25
 energy=   1.9762625833649862E-323
C          -1.747419   -0.715237   -0.000010
C          -1.168341   -1.408978    0.000000
C          -0.784883   -0.757221    0.000041
C          -0.598939    0.677443    0.000010
C          -1.182494    1.361871   -0.000000
C          -1.555881    0.665779   -0.000041
C          -0.196181   -1.462485    0.000025
C          -0.149233    1.563342    0.000043
C           0.400885    0.677447   -0.000015
C           0.284741   -0.554006   -0.000205
C           0.857875   -1.256761   -0.000920
H           1.169861   -2.494395    0.000010
C           1.254562   -0.615766   -0.000130
C           1.370749    0.593047   -0.000230
C           1.063670    1.280087   -0.000071
H           0.118135   -2.531950    0.000029
H          -2.065455   -1.184035   -0.000041
H          -1.024919   -2.361249   -0.000157
H          -1.179906    2.447856    0.000010
H          -2.075575    1.133199    0.000006
H           0.000000    2.150683    0.861666
H           2.265633   -1.233211    0.000722
H           1.902113    1.195749    0.000129
H           1.125794    2.447855   -0.000026
H           0.000000    2.150733   -0.861586
                   25
 energy=  -530.92017108210689     
C          -2.135730   -0.715245   -0.000010
C          -1.427963   -1.408967   -0.000000
C          -0.875722   -0.752142    0.000035
C          -0.732042    0.677446    0.000010
C          -1.445264    1.361866    0.000000
C          -1.986134    0.667205   -0.000035
C          -0.156948   -1.456037    0.000022
C          -0.119390    1.541908    0.000038
C           0.573610    0.677447   -0.000012
C           0.475607   -0.589570   -0.000162
C           1.179593   -1.287198   -0.000736
H           1.429867   -2.494389    0.000010
C           1.741445   -0.635665   -0.000106
C           1.838022    0.609019   -0.000188
C           1.350203    1.296437   -0.000059
H           0.094506   -2.528362    0.000027
H          -2.575641   -1.202375   -0.000037
H          -1.313917   -2.387871   -0.000127
H          -1.442143    2.447849    0.000010
H          -2.589384    1.149322    0.000003
H           0.000000    2.150681    0.861661
H           2.735806   -1.241737    0.000576
H           2.450630    1.199389    0.000097
H           1.398855    2.447848   -0.000025
H           0.000000    2.150731   -0.861581
                   25
 energy=  -535.50959141055091     
C          -2.524044   -0.715248   -0.000010
C          -1.687592   -1.408962   -0.000000
C          -0.966559   -0.747061    0.000028
C          -0.865142    0.677448    0.000010
C          -1.708041    1.361862   -0.000000
C          -2.416387    0.668628   -0.000029
C          -0.117712   -1.449594    0.000019
C          -0.089542    1.520478    0.000034
C           0.746318    0.677448   -0.000009
C           0.666473   -0.625131   -0.000119
C           1.501315   -1.317636   -0.000552
H           1.689848   -2.494387    0.000010
C           2.228330   -0.655563   -0.000082
C           2.305303    0.624988   -0.000146
C           1.636745    1.312791   -0.000047
H           0.070879   -2.524784    0.000025
H          -3.085803   -1.220735   -0.000033
H          -1.602886   -2.414501   -0.000098
H          -1.704355    2.447849    0.000010
H          -3.103181    1.165474   -0.000001
H          -0.000000    2.150680    0.861660
H           3.205931   -1.250264    0.000430
H           2.999116    1.203026    0.000065
H           1.671890    2.447848   -0.000024
H          -0.000000    2.150730   -0.861580
                   25
 energy=  -538.17176092226953     
C          -2.912359   -0.715249   -0.000010
C          -1.947221   -1.408960   -0.000000
C          -1.057396   -0.741978    0.000022
C          -0.998241    0.677449    0.000010
C          -1.970817    1.361861    0.000000
C          -2.846641    0.670049   -0.000022
C          -0.078475   -1.443152    0.000016
C          -0.059695    1.499048    0.000029
C           0.919025    0.677449   -0.000006
C           0.857339   -0.660691   -0.000076
C           1.823037   -1.348076   -0.000368
H           1.949829   -2.494387    0.000010
C           2.715215   -0.675459   -0.000058
C           2.772584    0.640956   -0.000104
C           1.923286    1.329146   -0.000035
H           0.047253   -2.521209    0.000024
H          -3.595967   -1.239104   -0.000029
H          -1.891854   -2.441130   -0.000069
H          -1.966567    2.447849    0.000010
H          -3.616977    1.181628   -0.000004
H          -0.000000    2.150680    0.861660
H           3.676055   -1.258793    0.000283
H           3.547602    1.206664    0.000033
H           1.944924    2.447848   -0.000022
H          -0.000000    2.150730   -0.861580
                   25
 energy=  -539.33988459914440     
C          -3.300674   -0.715249   -0.000010
C          -2.206850   -1.408960   -0.000000
C          -1.148233   -0.736894    0.000016
C          -1.131340    0.677450    0.000010
C          -2.233593    1.361860   -0.000000
C          -3.276894    0.671470   -0.000016
C          -0.039237   -1.436711    0.000013
C          -0.029847    1.477618    0.000025
C           1.091733    0.677450   -0.000003
C           1.048204   -0.696250   -0.000033
C           2.144758   -1.378518   -0.000184
H           2.209809   -2.494388    0.000010
C           3.202102   -0.695355   -0.000034
C           3.239866    0.656923   -0.000062
C           2.209828    1.345502   -0.000022
H           0.023626   -2.517634    0.000022
H          -4.106132   -1.257475   -0.000024
H          -2.180822   -2.467759   -0.000039
H          -2.228778    2.447849    0.000010
H          -4.130773    1.197784   -0.000007
H          -0.000000    2.150679    0.861660
H           4.146177   -1.267321    0.000136
H           4.096085    1.210301    0.000002
H           2.217957    2.447848   -0.000021
H          -0.000000    2.150729   -0.861580
                   25
 energy=  -539.66372812053828     
C          -3.688988   -0.715250   -0.000010
C          -2.466479   -1.408959    0.000000
C          -1.239069   -0.731810    0.000010
C          -1.264439    0.677450    0.000010
C          -2.496369    1.361859    0.000000
C          -3.707148    0.672890   -0.000010
C           0.000000   -1.430269    0.000010
C           0.000000    1.456189    0.000020
C           1.264439    0.677450    0.000000
C           1.239069   -0.731810    0.000010
C           2.466479   -1.408959    0.000000
H           2.469789   -2.494389    0.000010
C           3.688988   -0.715250   -0.000010
C           3.707148    0.672890   -0.000020
C           2.496369    1.361859   -0.000010
H           0.000000   -2.514059    0.000020
H          -4.616298   -1.275849   -0.000020
H          -2.469789   -2.494389   -0.000010
H          -2.490989    2.447849    0.000010
H          -4.644568    1.213939   -0.000010
H           0.000000    2.150679    0.861660
H           4.616298   -1.275849   -0.000010
H           4.644568    1.213939   -0.000030
H           2.490989    2.447849   -0.000020
H           0.000000    2.150729   -0.861580
