 Entering Gaussian System, Link 0=g16
 Initial command:
 /apps/gaussian/g16c01/g16/l1.exe "/jobfs/52804872.gadi-pbs/Gau-1114551.inp" -scrdir="/jobfs/52804872.gadi-pbs/"
 Entering Link 1 = /apps/gaussian/g16c01/g16/l1.exe PID=   1114552.
  
 Copyright (c) 1988-2019, Gaussian, Inc.  All Rights Reserved.
  
 This is part of the Gaussian(R) 16 program.  It is based on
 the Gaussian(R) 09 system (copyright 2009, Gaussian, Inc.),
 the Gaussian(R) 03 system (copyright 2003, Gaussian, Inc.),
 the Gaussian(R) 98 system (copyright 1998, Gaussian, Inc.),
 the Gaussian(R) 94 system (copyright 1995, Gaussian, Inc.),
 the Gaussian 92(TM) system (copyright 1992, Gaussian, Inc.),
 the Gaussian 90(TM) system (copyright 1990, Gaussian, Inc.),
 the Gaussian 88(TM) system (copyright 1988, Gaussian, Inc.),
 the Gaussian 86(TM) system (copyright 1986, Carnegie Mellon
 University), and the Gaussian 82(TM) system (copyright 1983,
 Carnegie Mellon University). Gaussian is a federally registered
 trademark of Gaussian, Inc.
  
 This software contains proprietary and confidential information,
 including trade secrets, belonging to Gaussian, Inc.
  
 This software is provided under written license and may be
 used, copied, transmitted, or stored only in accord with that
 written license.
  
 The following legend is applicable only to US Government
 contracts under FAR:
  
                    RESTRICTED RIGHTS LEGEND
  
 Use, reproduction and disclosure by the US Government is
 subject to restrictions as set forth in subparagraphs (a)
 and (c) of the Commercial Computer Software - Restricted
 Rights clause in FAR 52.227-19.
  
 Gaussian, Inc.
 340 Quinnipiac St., Bldg. 40, Wallingford CT 06492
  
  
 ---------------------------------------------------------------
 Warning -- This program may not be used in any manner that
 competes with the business of Gaussian, Inc. or will provide
 assistance to any competitor of Gaussian, Inc.  The licensee
 of this program is prohibited from giving any competitor of
 Gaussian, Inc. access to this program.  By using this program,
 the user acknowledges that Gaussian, Inc. is engaged in the
 business of creating and licensing software in the field of
 computational chemistry and represents and warrants to the
 licensee that it is not a competitor of Gaussian, Inc. and that
 it will not use this program in any manner prohibited above.
 ---------------------------------------------------------------
  

 Cite this work as:
 Gaussian 16, Revision C.01,
 M. J. Frisch, G. W. Trucks, H. B. Schlegel, G. E. Scuseria, 
 M. A. Robb, J. R. Cheeseman, G. Scalmani, V. Barone, 
 G. A. Petersson, H. Nakatsuji, X. Li, M. Caricato, A. V. Marenich, 
 J. Bloino, B. G. Janesko, R. Gomperts, B. Mennucci, H. P. Hratchian, 
 J. V. Ortiz, A. F. Izmaylov, J. L. Sonnenberg, D. Williams-Young, 
 F. Ding, F. Lipparini, F. Egidi, J. Goings, B. Peng, A. Petrone, 
 T. Henderson, D. Ranasinghe, V. G. Zakrzewski, J. Gao, N. Rega, 
 G. Zheng, W. Liang, M. Hada, M. Ehara, K. Toyota, R. Fukuda, 
 J. Hasegawa, M. Ishida, T. Nakajima, Y. Honda, O. Kitao, H. Nakai, 
 T. Vreven, K. Throssell, J. A. Montgomery, Jr., J. E. Peralta, 
 F. Ogliaro, M. J. Bearpark, J. J. Heyd, E. N. Brothers, K. N. Kudin, 
 V. N. Staroverov, T. A. Keith, R. Kobayashi, J. Normand, 
 K. Raghavachari, A. P. Rendell, J. C. Burant, S. S. Iyengar, 
 J. Tomasi, M. Cossi, J. M. Millam, M. Klene, C. Adamo, R. Cammi, 
 J. W. Ochterski, R. L. Martin, K. Morokuma, O. Farkas, 
 J. B. Foresman, and D. J. Fox, Gaussian, Inc., Wallingford CT, 2019.
 
 ******************************************
 Gaussian 16:  ES64L-G16RevC.01  3-Jul-2019
                27-Jul-2022 
 ******************************************
 %NProcShared=32
 Will use up to   32 processors via shared memory.
 %mem = 128GB
 ---------------------------------------------------------------
 #n M062X/6-311++G(d,p) TD(NStates=1) EmpiricalDispersion=GD3 SP
 ---------------------------------------------------------------
 1/38=1,172=1/1;
 2/12=2,17=6,18=5,40=1/2;
 3/5=4,6=6,7=1111,11=9,25=1,30=1,74=-55,124=31/1,2,3,8;
 4//1;
 5/5=2,38=5/2;
 8/6=1,10=2,108=1/1;
 9/41=1,42=1,70=2/14;
 6/7=2,8=2,9=2,10=2/1;
 99/5=1,9=1/99;
 -------
 SP_-125
 -------
 Symbolic Z-matrix:
 Charge =  1 Multiplicity = 1
 C                     2.4732    1.3706    0. 
 C                     3.67975   0.67233   0. 
 C                     3.6774   -0.71935   0. 
 C                     2.48258  -1.41003   0. 
 C                    -2.44358  -1.38728   0. 
 C                    -3.6889   -0.68835   0. 
 C                    -3.72088   0.68995   0. 
 C                    -2.50745   1.3691    0. 
 C                    -0.01088   1.4566    0. 
 C                     0.0305   -1.42025   0. 
 C                     1.26648   0.6952    0. 
 C                     1.2505   -0.72398   0. 
 C                    -1.25735   0.67608   0. 
 C                    -1.2255   -0.72098   0. 
 H                     2.4801    2.45368   0. 
 H                     4.61455   1.21415   0. 
 H                     4.61255  -1.26158   0. 
 H                     2.477    -2.49227   0. 
 H                     0.02813  -2.50148   0. 
 H                    -2.45875  -2.47015   0. 
 H                    -4.6053   -1.2627    0. 
 H                    -4.65618   1.22853   0. 
 H                    -2.4906    2.45255   0. 
 H                    -0.04      2.15325  -0.85823 
 H                    -0.04      2.15325   0.85823 
 
                          Input orientation:                          
 ---------------------------------------------------------------------
 Center     Atomic      Atomic             Coordinates (Angstroms)
 Number     Number       Type             X           Y           Z
 ---------------------------------------------------------------------
      1          6           0        2.473200    1.370600    0.000000
      2          6           0        3.679750    0.672325    0.000000
      3          6           0        3.677400   -0.719350    0.000000
      4          6           0        2.482575   -1.410025    0.000000
      5          6           0       -2.443575   -1.387275    0.000000
      6          6           0       -3.688900   -0.688350    0.000000
      7          6           0       -3.720875    0.689950    0.000000
      8          6           0       -2.507450    1.369100    0.000000
      9          6           0       -0.010875    1.456600    0.000000
     10          6           0        0.030500   -1.420250    0.000000
     11          6           0        1.266475    0.695200    0.000000
     12          6           0        1.250500   -0.723975    0.000000
     13          6           0       -1.257350    0.676075    0.000000
     14          6           0       -1.225500   -0.720975    0.000000
     15          1           0        2.480100    2.453675    0.000000
     16          1           0        4.614550    1.214150    0.000000
     17          1           0        4.612550   -1.261575    0.000000
     18          1           0        2.477000   -2.492275    0.000000
     19          1           0        0.028125   -2.501475    0.000000
     20          1           0       -2.458750   -2.470150    0.000000
     21          1           0       -4.605300   -1.262700    0.000000
     22          1           0       -4.656175    1.228525    0.000000
     23          1           0       -2.490600    2.452550    0.000000
     24          1           0       -0.040000    2.153250   -0.858225
     25          1           0       -0.040000    2.153250    0.858225
 ---------------------------------------------------------------------
                    Distance matrix (angstroms):
                    1          2          3          4          5
     1  C    0.000000
     2  C    1.394041   0.000000
     3  C    2.412051   1.391677   0.000000
     4  C    2.780641   2.401960   1.380086   0.000000
     5  C    5.637424   6.460423   6.157309   4.926203   0.000000
     6  C    6.496980   7.493226   7.366365   6.213527   1.428051
     7  C    6.231360   7.400646   7.531308   6.549251   2.438516
     8  C    4.980650   6.226310   6.527939   5.711732   2.757115
     9  C    2.485563   3.773036   4.282304   3.799320   3.742413
    10  C    3.708858   4.206649   3.713642   2.452096   2.474295
    11  C    1.382878   2.413383   2.795266   2.431228   4.254547
    12  C    2.425333   2.801947   2.426904   1.410203   3.753153
    13  C    3.794650   4.937101   5.128252   4.282389   2.380030
    14  C    4.249126   5.099290   4.902900   3.771553   1.388403
    15  H    1.083097   2.147642   3.391403   3.863701   6.244635
    16  H    2.147058   1.080475   2.148644   3.381067   7.522270
    17  H    3.391926   2.147111   1.080978   2.135142   7.057245
    18  H    3.862877   3.385454   2.141080   1.082264   5.043122
    19  H    4.579449   4.838117   4.061179   2.686185   2.711225
    20  H    6.251039   6.896110   6.381037   5.053767   1.082981
    21  H    7.552445   8.508018   8.300503   7.089406   2.165312
    22  H    7.130791   8.354460   8.558194   7.610762   3.426078
    23  H    5.080347   6.422026   6.935789   6.296980   3.840113
    24  H    2.768622   4.094659   4.775714   4.449367   4.364521
    25  H    2.768622   4.094659   4.775714   4.449367   4.364521
                    6          7          8          9         10
     6  C    0.000000
     7  C    1.378671   0.000000
     8  C    2.372535   1.390556   0.000000
     9  C    4.257779   3.788384   2.498108   0.000000
    10  C    3.790727   4.304156   3.771162   2.877148   0.000000
    11  C    5.144896   4.987353   3.833621   1.487062   2.450054
    12  C    4.939528   5.168535   4.301529   2.519122   1.404706
    13  C    2.788206   2.463564   1.429347   1.470687   2.460312
    14  C    2.463616   2.866637   2.451899   2.493421   1.437540
    15  H    6.923069   6.446923   5.104112   2.683117   4.583430
    16  H    8.518614   8.351892   7.123685   4.631775   5.287114
    17  H    8.321217   8.558880   7.590445   5.363258   4.584797
    18  H    6.424365   6.967080   6.305153   4.667241   2.671067
    19  H    4.135662   4.923433   4.627147   3.958267   1.081228
    20  H    2.165198   3.402821   3.839559   4.627252   2.701602
    21  H    1.081511   2.143607   3.365612   5.338851   4.638476
    22  H    2.147098   1.079282   2.153318   4.650896   5.383394
    23  H    3.361722   2.149497   1.083581   2.672256   4.621096
    24  H    4.703798   4.052979   2.727591   1.105767   3.675789
    25  H    4.703798   4.052979   2.727591   1.105767   3.675789
                   11         12         13         14         15
    11  C    0.000000
    12  C    1.419265   0.000000
    13  C    2.523897   2.872186   0.000000
    14  C    2.866268   2.476002   1.397413   0.000000
    15  H    2.136614   3.407253   4.138646   4.879536   0.000000
    16  H    3.388055   3.882417   5.896502   6.152308   2.468258
    17  H    3.876234   3.404760   6.181441   5.863026   4.283740
    18  H    3.409599   2.152019   4.897327   4.104389   4.945951
    19  H    3.428154   2.157245   3.427721   2.177557   5.528625
    20  H    4.888429   4.099715   3.367803   2.140215   6.973972
    21  H    6.189597   5.880529   3.868801   3.422939   8.000896
    22  H    5.946614   6.221018   3.443430   3.945894   7.240678
    23  H    4.147757   4.907763   2.162584   3.416393   4.970700
    24  H    2.137601   3.268083   2.097746   3.225388   2.679125
    25  H    2.137601   3.268083   2.097746   3.225388   2.679125
                   16         17         18         19         20
    16  H    0.000000
    17  H    2.475726   0.000000
    18  H    4.278634   2.464791   0.000000
    19  H    5.902640   4.749137   2.448892   0.000000
    20  H    7.975314   7.173837   4.935800   2.487072   0.000000
    21  H    9.546749   9.217850   7.188242   4.796164   2.462846
    22  H    9.270736   9.597388   8.045280   5.987952   4.302194
    23  H    7.212267   8.015576   7.009161   5.557548   4.922803
    24  H    4.825277   5.834707   5.352826   4.733673   5.287980
    25  H    4.825277   5.834707   5.352826   4.733673   5.287980
                   21         22         23         24         25
    21  H    0.000000
    22  H    2.491744   0.000000
    23  H    4.274931   2.487560   0.000000
    24  H    5.766041   4.785472   2.613727   0.000000
    25  H    5.766041   4.785472   2.613727   1.716450   0.000000
 Stoichiometry    C14H11(1+)
 Framework group  CS[SG(C14H9),X(H2)]
 Deg. of freedom    46
 Full point group                 CS      NOp   2
 Largest Abelian subgroup         CS      NOp   2
 Largest concise Abelian subgroup CS      NOp   2
                         Standard orientation:                         
 ---------------------------------------------------------------------
 Center     Atomic      Atomic             Coordinates (Angstroms)
 Number     Number       Type             X           Y           Z
 ---------------------------------------------------------------------
      1          6           0        0.019706   -2.823720    0.000000
      2          6           0        1.218315   -3.535539    0.000000
      3          6           0        2.431569   -2.853792    0.000000
      4          6           0        2.450710   -1.473838    0.000000
      5          6           0        0.024917    2.813702    0.000000
      6          6           0       -1.193197    3.559040    0.000000
      7          6           0       -2.411544    2.913777    0.000000
      8          6           0       -2.411544    1.523222    0.000000
      9          6           0       -1.268566   -0.698072    0.000000
     10          6           0        1.262035    0.670883    0.000000
     11          6           0        0.019706   -1.440842    0.000000
     12          6           0        1.250302   -0.733774    0.000000
     13          6           0       -1.196246    0.770836    0.000000
     14          6           0        0.038401    1.425365    0.000000
     15          1           0       -0.922036   -3.358717    0.000000
     16          1           0        1.202066   -4.615892    0.000000
     17          1           0        3.361454   -3.404998    0.000000
     18          1           0        3.392379   -0.940400    0.000000
     19          1           0        2.204372    1.201027    0.000000
     20          1           0        0.962443    3.355822    0.000000
     21          1           0       -1.139580    4.639221    0.000000
     22          1           0       -3.338317    3.466897    0.000000
     23          1           0       -3.348754    0.979359    0.000000
     24          1           0       -1.890701   -1.012902    0.858225
     25          1           0       -1.890701   -1.012902   -0.858225
 ---------------------------------------------------------------------
 Rotational constants (GHZ):           2.1381803           0.4448553           0.3690399
 Standard basis: 6-311++G(d,p) (5D, 7F)
 There are   299 symmetry adapted cartesian basis functions of A'  symmetry.
 There are   100 symmetry adapted cartesian basis functions of A"  symmetry.
 There are   285 symmetry adapted basis functions of A'  symmetry.
 There are   100 symmetry adapted basis functions of A"  symmetry.
   385 basis functions,   603 primitive gaussians,   399 cartesian basis functions
    47 alpha electrons       47 beta electrons
       nuclear repulsion energy       781.4624899969 Hartrees.
 NAtoms=   25 NActive=   25 NUniq=   24 SFac= 1.09D+00 NAtFMM=   60 NAOKFM=F Big=F
 Integral buffers will be    131072 words long.
 Regular integral format.
 Two-electron integral symmetry is turned on.
 Nuclear repulsion after empirical dispersion term =      781.4615107553 Hartrees.
 One-electron integrals computed using PRISM.
 NBasis=   385 RedAO= T EigKep=  1.11D-06  NBF=   285   100
 NBsUse=   379 1.00D-06 EigRej=  8.34D-07 NBFU=   279   100
 ExpMin= 3.60D-02 ExpMax= 4.56D+03 ExpMxC= 6.82D+02 IAcc=3 IRadAn=         5 AccDes= 0.00D+00
 Harris functional with IExCor= 1009 and IRadAn=       5 diagonalized for initial guess.
 HarFok:  IExCor= 1009 AccDes= 0.00D+00 IRadAn=         5 IDoV= 1 UseB2=F ITyADJ=14
 ICtDFT=  3500011 ScaDFX=  1.000000  1.000000  1.000000  1.000000
 FoFCou: FMM=F IPFlag=           0 FMFlag=      100000 FMFlg1=           0
         NFxFlg=           0 DoJE=T BraDBF=F KetDBF=T FulRan=T
         wScrn=  0.000000 ICntrl=       500 IOpCl=  0 I1Cent=   200000004 NGrid=           0
         NMat0=    1 NMatS0=      1 NMatT0=    0 NMatD0=    1 NMtDS0=    0 NMtDT0=    0
 Petite list used in FoFCou.
 Initial guess orbital symmetries:
       Occupied  (A') (A') (A') (A') (A') (A') (A') (A') (A') (A')
                 (A') (A') (A') (A') (A') (A') (A') (A') (A') (A')
                 (A') (A') (A') (A') (A') (A') (A') (A') (A') (A')
                 (A') (A') (A") (A') (A') (A') (A') (A') (A") (A')
                 (A") (A') (A') (A") (A") (A") (A")
       Virtual   (A") (A") (A") (A") (A") (A') (A') (A') (A') (A")
                 (A") (A') (A') (A') (A") (A') (A') (A') (A') (A")
                 (A') (A") (A') (A') (A') (A") (A') (A") (A') (A')
                 (A') (A') (A') (A") (A') (A') (A") (A') (A') (A')
                 (A") (A') (A') (A") (A') (A') (A') (A') (A') (A")
                 (A') (A') (A") (A") (A') (A') (A') (A") (A") (A')
                 (A') (A') (A') (A') (A') (A") (A') (A') (A') (A")
                 (A') (A') (A') (A') (A') (A') (A') (A') (A') (A')
                 (A') (A') (A') (A') (A') (A') (A') (A') (A') (A')
                 (A') (A') (A') (A') (A') (A') (A') (A") (A') (A")
                 (A') (A') (A") (A") (A') (A") (A') (A") (A") (A')
                 (A") (A') (A') (A') (A") (A') (A') (A") (A") (A')
                 (A") (A") (A') (A') (A') (A") (A') (A') (A') (A")
                 (A') (A') (A') (A') (A') (A') (A") (A') (A') (A')
                 (A') (A') (A') (A') (A') (A') (A') (A') (A') (A")
                 (A") (A') (A") (A") (A') (A') (A') (A") (A") (A')
                 (A") (A') (A") (A") (A") (A') (A') (A') (A') (A')
                 (A') (A") (A') (A") (A') (A') (A') (A') (A') (A")
                 (A') (A') (A') (A') (A") (A') (A") (A') (A") (A")
                 (A') (A") (A') (A") (A') (A') (A') (A") (A') (A')
                 (A") (A") (A") (A') (A') (A") (A') (A") (A') (A')
                 (A") (A") (A') (A") (A') (A") (A') (A') (A') (A")
                 (A') (A') (A') (A') (A") (A') (A') (A') (A") (A")
                 (A') (A') (A') (A") (A') (A') (A") (A') (A") (A')
                 (A") (A') (A') (A') (A') (A") (A') (A') (A') (A")
                 (A') (A') (A") (A') (A") (A') (A') (A") (A') (A')
                 (A') (A") (A') (A") (A') (A') (A') (A") (A') (A")
                 (A') (A') (A') (A') (A") (A') (A") (A') (A") (A')
                 (A") (A') (A") (A") (A") (A') (A') (A') (A') (A')
                 (A') (A') (A') (A') (A') (A') (A') (A') (A') (A')
                 (A') (A') (A') (A") (A') (A') (A') (A') (A') (A')
                 (A') (A') (A') (A') (A') (A') (A') (A') (A') (A')
                 (A') (A') (A') (A') (A') (A') (A') (A') (A') (A')
                 (A') (A')
 The electronic state of the initial guess is 1-A'.
 Requested convergence on RMS density matrix=1.00D-08 within 128 cycles.
 Requested convergence on MAX density matrix=1.00D-06.
 Requested convergence on             energy=1.00D-06.
 No special actions if energy rises.
 SCF Done:  E(RM062X) =  -539.757399542     A.U. after   15 cycles
            NFock= 15  Conv=0.82D-08     -V/T= 2.0041
 DoSCS=F DFT=T ScalE2(SS,OS)=  1.000000  1.000000
 ExpMin= 3.60D-02 ExpMax= 4.56D+03 ExpMxC= 6.82D+02 IAcc=3 IRadAn=         5 AccDes= 0.00D+00
 HarFok:  IExCor=  205 AccDes= 0.00D+00 IRadAn=         5 IDoV=-2 UseB2=F ITyADJ=14
 ICtDFT= 12500011 ScaDFX=  1.000000  1.000000  1.000000  1.000000
 Range of M.O.s used for correlation:    15   379
 NBasis=   385 NAE=    47 NBE=    47 NFC=    14 NFV=     0
 NROrb=    365 NOA=    33 NOB=    33 NVA=   332 NVB=   332

 **** Warning!!: The largest alpha MO coefficient is  0.13822136D+03

 Orbital symmetries:
       Occupied  (A') (A') (A') (A') (A') (A') (A') (A') (A') (A')
                 (A') (A') (A') (A') (A') (A') (A') (A') (A') (A')
                 (A') (A') (A') (A') (A') (A') (A') (A') (A') (A')
                 (A') (A') (A") (A') (A') (A') (A') (A") (A") (A')
                 (A') (A') (A') (A") (A") (A") (A")
       Virtual   (A") (A") (A") (A") (A') (A') (A') (A') (A") (A')
                 (A') (A") (A') (A') (A") (A') (A") (A') (A') (A')
                 (A") (A") (A') (A') (A') (A") (A') (A") (A') (A')
                 (A") (A') (A") (A') (A') (A') (A') (A') (A") (A')
                 (A") (A') (A') (A") (A") (A') (A") (A') (A") (A')
                 (A') (A') (A') (A') (A') (A") (A') (A') (A') (A')
                 (A') (A") (A') (A') (A') (A") (A') (A') (A') (A')
                 (A') (A') (A') (A') (A') (A') (A') (A') (A') (A')
                 (A') (A') (A') (A') (A') (A') (A') (A') (A') (A')
                 (A') (A') (A') (A') (A") (A') (A") (A") (A') (A")
                 (A') (A') (A') (A') (A") (A") (A') (A") (A") (A')
                 (A') (A') (A") (A') (A') (A") (A') (A") (A') (A")
                 (A") (A') (A") (A') (A') (A') (A") (A') (A') (A')
                 (A') (A') (A') (A') (A') (A') (A') (A') (A') (A')
                 (A') (A') (A') (A") (A') (A') (A') (A') (A') (A')
                 (A') (A') (A") (A') (A") (A') (A") (A") (A') (A")
                 (A") (A') (A') (A") (A") (A") (A') (A") (A') (A')
                 (A') (A') (A') (A") (A") (A') (A') (A') (A') (A")
                 (A') (A') (A') (A") (A") (A') (A') (A") (A') (A")
                 (A") (A') (A') (A") (A') (A") (A') (A') (A') (A')
                 (A") (A") (A") (A') (A") (A') (A') (A") (A') (A')
                 (A') (A") (A') (A") (A") (A') (A") (A') (A') (A")
                 (A') (A') (A') (A') (A") (A') (A') (A') (A") (A")
                 (A') (A') (A') (A") (A') (A') (A') (A") (A") (A')
                 (A") (A') (A') (A") (A') (A') (A') (A') (A') (A')
                 (A") (A') (A') (A') (A') (A") (A") (A") (A') (A')
                 (A') (A') (A') (A') (A') (A') (A') (A") (A') (A')
                 (A') (A") (A') (A") (A") (A") (A') (A") (A') (A")
                 (A') (A") (A") (A') (A") (A") (A') (A') (A') (A')
                 (A') (A') (A') (A') (A') (A') (A') (A') (A') (A')
                 (A') (A') (A') (A") (A') (A') (A') (A') (A') (A')
                 (A') (A') (A') (A') (A') (A') (A') (A') (A') (A')
                 (A') (A') (A') (A') (A') (A') (A') (A') (A') (A')
                 (A') (A')
     4 initial guesses have been made.
 Convergence on wavefunction:    0.001000000000000
 Iteration     1 Dimension     4 NMult     0 NNew      4
 CISAX will form     4 AO SS matrices at one time.
 Iteration     2 Dimension     6 NMult     4 NNew      2
 Iteration     3 Dimension     8 NMult     6 NNew      2
 Iteration     4 Dimension    10 NMult     8 NNew      2
 Iteration     5 Dimension    12 NMult    10 NNew      2
 Iteration     6 Dimension    14 NMult    12 NNew      2
 ***********************************************************************
 Excited states from <AA,BB:AA,BB> singles matrix:
 ***********************************************************************
 
 Ground to excited state transition densities written to RWF  633
 Ground to excited state transition electric dipole moments (Au):
       state          X           Y           Z        Dip. S.      Osc.
         1        -0.5325     -0.2599      0.0000      0.3510      0.0236
 Ground to excited state transition velocity dipole moments (Au):
       state          X           Y           Z        Dip. S.      Osc.
         1         0.0586      0.0323      0.0000      0.0045      0.0296
 Ground to excited state transition magnetic dipole moments (Au):
       state          X           Y           Z
         1        -0.0000     -0.0000     -0.1510
 Ground to excited state transition velocity quadrupole moments (Au):
       state          XX          YY          ZZ          XY          XZ          YZ
         1         0.0259      0.2667     -0.0089     -0.0638     -0.0000      0.0000
 <0|del|b> * <b|rxdel|0> + <0|del|b> * <b|delr+rdel|0>
 Rotatory Strengths (R) in cgs (10**-40 erg-esu-cm/Gauss)
       state          XX          YY          ZZ    R(velocity)    E-M Angle
         1         0.0000      0.0000     -0.0000     -0.0000       90.00
 1/2[<0|r|b>*<b|rxdel|0> + (<0|rxdel|b>*<b|r|0>)*]
 Rotatory Strengths (R) in cgs (10**-40 erg-esu-cm/Gauss)
       state          XX          YY          ZZ     R(length)
         1        -0.0000     -0.0000      0.0000      0.0000
  1/2[<0|del|b>*<b|r|0> + (<0|r|b>*<b|del|0>)*] (Au)
       state          X           Y           Z        Dip. S.   Osc.(frdel)
         1        -0.0312     -0.0084      0.0000      0.0396      0.0264

 Excitation energies and oscillator strengths:
 
 Excited State   1:      Singlet-A'     2.7460 eV  451.51 nm  f=0.0236  <S**2>=0.000
      47 -> 48         0.70368
 This state for optimization and/or second-order correction.
 Total Energy, E(TD-HF/TD-DFT) =  -539.656485658    
 Copying the excited state density for this state as the 1-particle RhoCI density.
 SavETr:  write IOETrn=   770 NScale= 10 NData=  16 NLR=1 NState=    1 LETran=      28.

 **********************************************************************

            Population analysis using the SCF Density.

 **********************************************************************

 Orbital symmetries:
       Occupied  (A') (A') (A') (A') (A') (A') (A') (A') (A') (A')
                 (A') (A') (A') (A') (A') (A') (A') (A') (A') (A')
                 (A') (A') (A') (A') (A') (A') (A') (A') (A') (A')
                 (A') (A') (A") (A') (A') (A') (A') (A") (A") (A')
                 (A') (A') (A') (A") (A") (A") (A")
       Virtual   (A") (A") (A") (A") (A') (A') (A') (A') (A") (A')
                 (A') (A") (A') (A') (A") (A') (A") (A') (A') (A')
                 (A") (A") (A') (A') (A') (A") (A') (A") (A') (A')
                 (A") (A') (A") (A') (A') (A') (A') (A') (A") (A')
                 (A") (A') (A') (A") (A") (A') (A") (A') (A") (A')
                 (A') (A') (A') (A') (A') (A") (A') (A') (A') (A')
                 (A') (A") (A') (A') (A') (A") (A') (A') (A') (A')
                 (A') (A') (A') (A') (A') (A') (A') (A') (A') (A')
                 (A') (A') (A') (A') (A') (A') (A') (A') (A') (A')
                 (A') (A') (A') (A') (A") (A') (A") (A") (A') (A")
                 (A') (A') (A') (A') (A") (A") (A') (A") (A") (A')
                 (A') (A') (A") (A') (A') (A") (A') (A") (A') (A")
                 (A") (A') (A") (A') (A') (A') (A") (A') (A') (A')
                 (A') (A') (A') (A') (A') (A') (A') (A') (A') (A')
                 (A') (A') (A') (A") (A') (A') (A') (A') (A') (A')
                 (A') (A') (A") (A') (A") (A') (A") (A") (A') (A")
                 (A") (A') (A') (A") (A") (A") (A') (A") (A') (A')
                 (A') (A') (A') (A") (A") (A') (A') (A') (A') (A")
                 (A') (A') (A') (A") (A") (A') (A') (A") (A') (A")
                 (A") (A') (A') (A") (A') (A") (A') (A') (A') (A')
                 (A") (A") (A") (A') (A") (A') (A') (A") (A') (A')
                 (A') (A") (A') (A") (A") (A') (A") (A') (A') (A")
                 (A') (A') (A') (A') (A") (A') (A') (A') (A") (A")
                 (A') (A') (A') (A") (A') (A') (A') (A") (A") (A')
                 (A") (A') (A') (A") (A') (A') (A') (A') (A') (A')
                 (A") (A') (A') (A') (A') (A") (A") (A") (A') (A')
                 (A') (A') (A') (A') (A') (A') (A') (A") (A') (A')
                 (A') (A") (A') (A") (A") (A") (A') (A") (A') (A")
                 (A') (A") (A") (A') (A") (A") (A') (A') (A') (A')
                 (A') (A') (A') (A') (A') (A') (A') (A') (A') (A')
                 (A') (A') (A') (A") (A') (A') (A') (A') (A') (A')
                 (A') (A') (A') (A') (A') (A') (A') (A') (A') (A')
                 (A') (A') (A') (A') (A') (A') (A') (A') (A') (A')
                 (A') (A')
 The electronic state is 1-A'.
 Alpha  occ. eigenvalues --  -10.77620 -10.73561 -10.72844 -10.72698 -10.72116
 Alpha  occ. eigenvalues --  -10.71697 -10.71668 -10.71011 -10.70964 -10.70383
 Alpha  occ. eigenvalues --  -10.70133 -10.69826 -10.69809 -10.69415  -1.16518
 Alpha  occ. eigenvalues --   -1.12491  -1.06941  -1.05835  -1.01303  -1.00325
 Alpha  occ. eigenvalues --   -0.95682  -0.91058  -0.86433  -0.85909  -0.83811
 Alpha  occ. eigenvalues --   -0.78376  -0.76107  -0.74399  -0.69651  -0.69286
 Alpha  occ. eigenvalues --   -0.68425  -0.68148  -0.68087  -0.65012  -0.64265
 Alpha  occ. eigenvalues --   -0.62941  -0.61758  -0.60236  -0.59436  -0.59117
 Alpha  occ. eigenvalues --   -0.56935  -0.55246  -0.54719  -0.52435  -0.46959
 Alpha  occ. eigenvalues --   -0.46096  -0.44144
 Alpha virt. eigenvalues --   -0.26083  -0.14672  -0.14087  -0.12766  -0.11185
 Alpha virt. eigenvalues --   -0.10094  -0.09242  -0.07973  -0.07944  -0.07480
 Alpha virt. eigenvalues --   -0.07211  -0.07143  -0.05643  -0.05580  -0.05343
 Alpha virt. eigenvalues --   -0.03837  -0.03655  -0.03278  -0.03130  -0.02160
 Alpha virt. eigenvalues --   -0.01362  -0.00942   0.00184   0.00594   0.00672
 Alpha virt. eigenvalues --    0.01062   0.01507   0.01931   0.02181   0.02293
 Alpha virt. eigenvalues --    0.02450   0.02674   0.02772   0.03237   0.03407
 Alpha virt. eigenvalues --    0.04229   0.04506   0.04704   0.05032   0.05375
 Alpha virt. eigenvalues --    0.06026   0.06298   0.06591   0.07060   0.07256
 Alpha virt. eigenvalues --    0.07900   0.08129   0.08365   0.08600   0.08920
 Alpha virt. eigenvalues --    0.09517   0.09583   0.10018   0.10864   0.11033
 Alpha virt. eigenvalues --    0.11116   0.12150   0.12256   0.12808   0.13029
 Alpha virt. eigenvalues --    0.13446   0.13522   0.14011   0.14348   0.16046
 Alpha virt. eigenvalues --    0.16315   0.16463   0.17339   0.17560   0.17791
 Alpha virt. eigenvalues --    0.18132   0.19041   0.19313   0.19649   0.19832
 Alpha virt. eigenvalues --    0.21536   0.21649   0.22714   0.23131   0.23573
 Alpha virt. eigenvalues --    0.23831   0.24530   0.25299   0.26933   0.27621
 Alpha virt. eigenvalues --    0.28873   0.29290   0.29919   0.31373   0.35838
 Alpha virt. eigenvalues --    0.36475   0.38194   0.39285   0.41121   0.41349
 Alpha virt. eigenvalues --    0.41998   0.42135   0.42982   0.43724   0.44343
 Alpha virt. eigenvalues --    0.44835   0.45114   0.45971   0.46322   0.47884
 Alpha virt. eigenvalues --    0.48474   0.48855   0.49018   0.50481   0.51219
 Alpha virt. eigenvalues --    0.51415   0.51965   0.52126   0.52867   0.54062
 Alpha virt. eigenvalues --    0.54101   0.54659   0.55655   0.55856   0.57417
 Alpha virt. eigenvalues --    0.58234   0.58886   0.61483   0.62192   0.62394
 Alpha virt. eigenvalues --    0.63200   0.63489   0.65014   0.65168   0.67438
 Alpha virt. eigenvalues --    0.70356   0.70499   0.71141   0.72475   0.72904
 Alpha virt. eigenvalues --    0.75656   0.76058   0.76375   0.76819   0.77122
 Alpha virt. eigenvalues --    0.77870   0.77975   0.78289   0.79881   0.80405
 Alpha virt. eigenvalues --    0.81270   0.81563   0.82278   0.83012   0.85244
 Alpha virt. eigenvalues --    0.87128   0.88221   0.88408   0.89205   0.90541
 Alpha virt. eigenvalues --    0.91127   0.91332   0.93246   0.94631   0.96358
 Alpha virt. eigenvalues --    0.96802   1.00291   1.01298   1.01598   1.02782
 Alpha virt. eigenvalues --    1.03238   1.03346   1.04807   1.05971   1.08850
 Alpha virt. eigenvalues --    1.19590   1.23103   1.24142   1.24804   1.28593
 Alpha virt. eigenvalues --    1.29445   1.32057   1.34238   1.35788   1.35993
 Alpha virt. eigenvalues --    1.39379   1.39930   1.40922   1.42928   1.43490
 Alpha virt. eigenvalues --    1.43563   1.44447   1.46385   1.46389   1.46649
 Alpha virt. eigenvalues --    1.47671   1.48134   1.51816   1.53655   1.55782
 Alpha virt. eigenvalues --    1.55971   1.56326   1.56571   1.57834   1.61509
 Alpha virt. eigenvalues --    1.63127   1.63315   1.64019   1.66133   1.68326
 Alpha virt. eigenvalues --    1.68394   1.68676   1.69760   1.74454   1.76028
 Alpha virt. eigenvalues --    1.77227   1.78066   1.80050   1.80109   1.80824
 Alpha virt. eigenvalues --    1.83006   1.83194   1.83666   1.83856   1.84146
 Alpha virt. eigenvalues --    1.84432   1.85602   1.86311   1.88310   1.91425
 Alpha virt. eigenvalues --    1.92147   1.94123   1.95306   1.97754   1.98184
 Alpha virt. eigenvalues --    1.99810   2.02620   2.04533   2.07287   2.11788
 Alpha virt. eigenvalues --    2.12155   2.14192   2.15240   2.19162   2.21334
 Alpha virt. eigenvalues --    2.22772   2.28475   2.30403   2.34637   2.34911
 Alpha virt. eigenvalues --    2.36293   2.38636   2.39642   2.42382   2.44355
 Alpha virt. eigenvalues --    2.46170   2.46757   2.49323   2.52971   2.53816
 Alpha virt. eigenvalues --    2.54402   2.56716   2.57890   2.58358   2.59536
 Alpha virt. eigenvalues --    2.59901   2.61597   2.62170   2.63581   2.63811
 Alpha virt. eigenvalues --    2.64819   2.65120   2.65127   2.65519   2.68084
 Alpha virt. eigenvalues --    2.68568   2.70966   2.71445   2.73369   2.74829
 Alpha virt. eigenvalues --    2.76292   2.78794   2.79720   2.83140   2.83157
 Alpha virt. eigenvalues --    2.84908   2.86354   2.92147   2.97026   2.99489
 Alpha virt. eigenvalues --    3.00141   3.05334   3.10363   3.11453   3.13794
 Alpha virt. eigenvalues --    3.20986   3.23296   3.26684   3.28712   3.30615
 Alpha virt. eigenvalues --    3.32831   3.34251   3.43654   3.46083   3.46891
 Alpha virt. eigenvalues --    3.48582   3.50229   3.56586   3.65202   3.67105
 Alpha virt. eigenvalues --    3.67711   3.93963   3.94216   3.95340   3.96377
 Alpha virt. eigenvalues --    4.03991   4.06744   4.07694   4.12529   4.35619
 Alpha virt. eigenvalues --    4.61560   4.69619   4.71473  23.45277  23.60403
 Alpha virt. eigenvalues --   23.81305  23.84071  23.86566  23.89328  23.91266
 Alpha virt. eigenvalues --   23.94536  23.96266  23.97929  24.02012  24.03842
 Alpha virt. eigenvalues --   24.10948  24.11845
          Condensed to atoms (all electrons):
               1          2          3          4          5          6
     1  C    8.388185   0.536383  -0.637474   1.716720   0.009762  -0.086966
     2  C    0.536383   7.111719   0.418421  -0.969701  -0.041024  -0.015569
     3  C   -0.637474   0.418421   6.599283   0.714562  -0.113106   0.016916
     4  C    1.716720  -0.969701   0.714562  11.171495  -0.324531  -0.130869
     5  C    0.009762  -0.041024  -0.113106  -0.324531  10.630923   0.788311
     6  C   -0.086966  -0.015569   0.016916  -0.130869   0.788311   6.584141
     7  C   -0.034120   0.002601  -0.014030  -0.005680  -1.111526   0.299798
     8  C    0.408455  -0.012377  -0.102437  -0.042570   2.090487  -0.463233
     9  C   -1.239992  -0.818874   0.288381  -0.088057  -0.400992   0.286629
    10  C   -1.180718   0.172713  -0.295850  -2.697322  -2.425213  -0.416854
    11  C    0.278576  -0.859612   0.935747  -0.242757  -1.440816  -0.134750
    12  C   -1.689113   1.087962  -1.329630  -1.502322  -0.239514  -0.258684
    13  C    0.161814  -0.217269  -0.215685  -1.558719  -0.264216   1.098686
    14  C   -1.121925  -0.273971  -0.144470  -0.417514  -1.514703  -1.441149
    15  H    0.364750  -0.103200  -0.003164   0.024851   0.006442   0.001197
    16  H   -0.020144   0.380573  -0.019483   0.016245  -0.001651  -0.000348
    17  H   -0.019366  -0.021189   0.378764  -0.067992   0.000164   0.000403
    18  H    0.046703   0.003287  -0.084621   0.459355   0.007285  -0.004914
    19  H   -0.044542  -0.007939   0.050701  -0.077675  -0.064560   0.050996
    20  H    0.007274   0.001967  -0.005112   0.007122   0.451489  -0.084794
    21  H   -0.001268  -0.000413   0.000385   0.000447  -0.065772   0.369856
    22  H    0.000471   0.000329  -0.000307  -0.001429   0.011200  -0.012551
    23  H    0.006573  -0.002500   0.001006   0.005256   0.028352  -0.000208
    24  H    0.035476   0.015319  -0.001299  -0.011679  -0.013003  -0.001651
    25  H    0.035476   0.015319  -0.001299  -0.011679  -0.013003  -0.001651
               7          8          9         10         11         12
     1  C   -0.034120   0.408455  -1.239992  -1.180718   0.278576  -1.689113
     2  C    0.002601  -0.012377  -0.818874   0.172713  -0.859612   1.087962
     3  C   -0.014030  -0.102437   0.288381  -0.295850   0.935747  -1.329630
     4  C   -0.005680  -0.042570  -0.088057  -2.697322  -0.242757  -1.502322
     5  C   -1.111526   2.090487  -0.400992  -2.425213  -1.440816  -0.239514
     6  C    0.299798  -0.463233   0.286629  -0.416854  -0.134750  -0.258684
     7  C    7.105728   0.188550  -0.760590   0.306291  -0.276456  -0.126386
     8  C    0.188550   8.759982  -1.214583  -1.322289   0.199728  -1.033532
     9  C   -0.760590  -1.214583   9.663521   0.248027   1.758563  -2.113153
    10  C    0.306291  -1.322289   0.248027   9.223322  -0.456015   2.400306
    11  C   -0.276456   0.199728   1.758563  -0.456015  14.661234  -4.046728
    12  C   -0.126386  -1.033532  -2.113153   2.400306  -4.046728  16.184261
    13  C   -1.001724   0.263701   1.645975  -0.586553   1.078268  -4.805355
    14  C    1.559765  -2.221262  -1.851985   2.467151  -4.872877   2.993911
    15  H   -0.002881   0.005310   0.089009  -0.008300  -0.028963  -0.016207
    16  H    0.000386   0.000925   0.003369  -0.010493   0.027888  -0.033392
    17  H   -0.000380  -0.001386  -0.005240   0.020257  -0.026792   0.086342
    18  H    0.001998   0.007444  -0.023956   0.012669  -0.010925  -0.046369
    19  H   -0.007269  -0.048509   0.075992   0.422415   0.076239  -0.080121
    20  H    0.002566   0.051404  -0.026348   0.017318  -0.011894  -0.008529
    21  H   -0.011381  -0.028083  -0.006496   0.020905  -0.006360   0.005373
    22  H    0.374516  -0.018018   0.004764  -0.008902   0.002799  -0.008175
    23  H   -0.104807   0.366675   0.094962  -0.010830   0.005327   0.005706
    24  H    0.013218   0.028183   0.357748   0.005622   0.021395  -0.059204
    25  H    0.013218   0.028183   0.357748   0.005622   0.021395  -0.059204
              13         14         15         16         17         18
     1  C    0.161814  -1.121925   0.364750  -0.020144  -0.019366   0.046703
     2  C   -0.217269  -0.273971  -0.103200   0.380573  -0.021189   0.003287
     3  C   -0.215685  -0.144470  -0.003164  -0.019483   0.378764  -0.084621
     4  C   -1.558719  -0.417514   0.024851   0.016245  -0.067992   0.459355
     5  C   -0.264216  -1.514703   0.006442  -0.001651   0.000164   0.007285
     6  C    1.098686  -1.441149   0.001197  -0.000348   0.000403  -0.004914
     7  C   -1.001724   1.559765  -0.002881   0.000386  -0.000380   0.001998
     8  C    0.263701  -2.221262   0.005310   0.000925  -0.001386   0.007444
     9  C    1.645975  -1.851985   0.089009   0.003369  -0.005240  -0.023956
    10  C   -0.586553   2.467151  -0.008300  -0.010493   0.020257   0.012669
    11  C    1.078268  -4.872877  -0.028963   0.027888  -0.026792  -0.010925
    12  C   -4.805355   2.993911  -0.016207  -0.033392   0.086342  -0.046369
    13  C   14.548294  -3.559281  -0.001904   0.003379  -0.006346  -0.011966
    14  C   -3.559281  15.963976   0.007368  -0.010036   0.005171  -0.017503
    15  H   -0.001904   0.007368   0.435095  -0.008874   0.001601   0.000248
    16  H    0.003379  -0.010036  -0.008874   0.416891  -0.006962   0.001942
    17  H   -0.006346   0.005171   0.001601  -0.006962   0.420546  -0.010014
    18  H   -0.011966  -0.017503   0.000248   0.001942  -0.010014   0.449376
    19  H    0.081007  -0.050960   0.000368  -0.000576   0.001615  -0.005791
    20  H   -0.006581  -0.059008  -0.000120   0.000018  -0.000159   0.001284
    21  H   -0.028875   0.095201   0.000015  -0.000007   0.000010  -0.000125
    22  H    0.028749  -0.035789  -0.000124   0.000007  -0.000007   0.000012
    23  H   -0.032044  -0.032653   0.000598  -0.000129   0.000011  -0.000103
    24  H    0.005091  -0.060084  -0.000905   0.000624  -0.000135   0.000146
    25  H    0.005091  -0.060084  -0.000905   0.000624  -0.000135   0.000146
              19         20         21         22         23         24
     1  C   -0.044542   0.007274  -0.001268   0.000471   0.006573   0.035476
     2  C   -0.007939   0.001967  -0.000413   0.000329  -0.002500   0.015319
     3  C    0.050701  -0.005112   0.000385  -0.000307   0.001006  -0.001299
     4  C   -0.077675   0.007122   0.000447  -0.001429   0.005256  -0.011679
     5  C   -0.064560   0.451489  -0.065772   0.011200   0.028352  -0.013003
     6  C    0.050996  -0.084794   0.369856  -0.012551  -0.000208  -0.001651
     7  C   -0.007269   0.002566  -0.011381   0.374516  -0.104807   0.013218
     8  C   -0.048509   0.051404  -0.028083  -0.018018   0.366675   0.028183
     9  C    0.075992  -0.026348  -0.006496   0.004764   0.094962   0.357748
    10  C    0.422415   0.017318   0.020905  -0.008902  -0.010830   0.005622
    11  C    0.076239  -0.011894  -0.006360   0.002799   0.005327   0.021395
    12  C   -0.080121  -0.008529   0.005373  -0.008175   0.005706  -0.059204
    13  C    0.081007  -0.006581  -0.028875   0.028749  -0.032044   0.005091
    14  C   -0.050960  -0.059008   0.095201  -0.035789  -0.032653  -0.060084
    15  H    0.000368  -0.000120   0.000015  -0.000124   0.000598  -0.000905
    16  H   -0.000576   0.000018  -0.000007   0.000007  -0.000129   0.000624
    17  H    0.001615  -0.000159   0.000010  -0.000007   0.000011  -0.000135
    18  H   -0.005791   0.001284  -0.000125   0.000012  -0.000103   0.000146
    19  H    0.443096  -0.006531   0.001198  -0.000487   0.000229   0.000620
    20  H   -0.006531   0.456848  -0.010296   0.001883   0.000125   0.000204
    21  H    0.001198  -0.010296   0.424145  -0.006212   0.001304  -0.000147
    22  H   -0.000487   0.001883  -0.006212   0.421325  -0.008907   0.000630
    23  H    0.000229   0.000125   0.001304  -0.008907   0.442304  -0.000872
    24  H    0.000620   0.000204  -0.000147   0.000630  -0.000872   0.494506
    25  H    0.000620   0.000204  -0.000147   0.000630  -0.000872  -0.080543
              25
     1  C    0.035476
     2  C    0.015319
     3  C   -0.001299
     4  C   -0.011679
     5  C   -0.013003
     6  C   -0.001651
     7  C    0.013218
     8  C    0.028183
     9  C    0.357748
    10  C    0.005622
    11  C    0.021395
    12  C   -0.059204
    13  C    0.005091
    14  C   -0.060084
    15  H   -0.000905
    16  H    0.000624
    17  H   -0.000135
    18  H    0.000146
    19  H    0.000620
    20  H    0.000204
    21  H   -0.000147
    22  H    0.000630
    23  H   -0.000872
    24  H   -0.080543
    25  H    0.494506
 Mulliken charges:
               1
     1  C    0.079011
     2  C   -0.402957
     3  C   -0.436199
     4  C    0.034441
     5  C    0.009214
     6  C   -0.442742
     7  C   -0.411404
     8  C    0.109251
     9  C   -0.324423
    10  C    0.096724
    11  C   -0.652215
    12  C    0.691757
    13  C   -0.623539
    14  C    0.652711
    15  H    0.238695
    16  H    0.259223
    17  H    0.251218
    18  H    0.224390
    19  H    0.189864
    20  H    0.219667
    21  H    0.246742
    22  H    0.253594
    23  H    0.235496
    24  H    0.250740
    25  H    0.250740
 Sum of Mulliken charges =   1.00000
 Mulliken charges with hydrogens summed into heavy atoms:
               1
     1  C    0.317707
     2  C   -0.143734
     3  C   -0.184980
     4  C    0.258831
     5  C    0.228882
     6  C   -0.196000
     7  C   -0.157810
     8  C    0.344747
     9  C    0.177057
    10  C    0.286588
    11  C   -0.652215
    12  C    0.691757
    13  C   -0.623539
    14  C    0.652711
 Electronic spatial extent (au):  <R**2>=           2854.3683
 Charge=              1.0000 electrons
 Dipole moment (field-independent basis, Debye):
    X=              0.4951    Y=             -0.5234    Z=              0.0000  Tot=              0.7204
 Quadrupole moment (field-independent basis, Debye-Ang):
   XX=            -49.9703   YY=            -37.3910   ZZ=            -84.1364
   XY=            -10.9011   XZ=             -0.0000   YZ=             -0.0000
 Traceless Quadrupole moment (field-independent basis, Debye-Ang):
   XX=              7.1956   YY=             19.7749   ZZ=            -26.9705
   XY=            -10.9011   XZ=             -0.0000   YZ=             -0.0000
 Octapole moment (field-independent basis, Debye-Ang**2):
  XXX=              2.9811  YYY=            -11.1165  ZZZ=              0.0000  XYY=              1.3683
  XXY=              3.2518  XXZ=              0.0000  XZZ=             -2.1813  YZZ=             -2.3832
  YYZ=              0.0000  XYZ=              0.0000
 Hexadecapole moment (field-independent basis, Debye-Ang**3):
 XXXX=          -1033.6645 YYYY=          -1812.3510 ZZZZ=            -99.3093 XXXY=            358.7439
 XXXZ=             -0.0000 YYYX=            289.7473 YYYZ=             -0.0000 ZZZX=             -0.0000
 ZZZY=             -0.0000 XXYY=           -449.4470 XXZZ=           -253.6776 YYZZ=           -482.3373
 XXYZ=             -0.0000 YYXZ=             -0.0000 ZZXY=            190.7172
 N-N= 7.814615107553D+02 E-N=-2.799279875365D+03  KE= 5.375298367311D+02
 Symmetry A'   KE= 5.228798488931D+02
 Symmetry A"   KE= 1.464998783802D+01
 Unable to Open any file for archive entry.
 1\1\GINC-GADI-CPU-CLX-0648\SP\RM062X TD-FC\6-311++G(d,p)\C14H11(1+)\TS
 1578\27-Jul-2022\0\\#n M062X/6-311++G(d,p) TD(NStates=1) EmpiricalDisp
 ersion=GD3 SP\\SP_-125\\1,1\C,0,2.4732,1.3706,0.\C,0,3.67975,0.672325,
 0.\C,0,3.6774,-0.71935,0.\C,0,2.482575,-1.410025,0.\C,0,-2.443575,-1.3
 87275,0.\C,0,-3.6889,-0.68835,0.\C,0,-3.720875,0.68995,0.\C,0,-2.50745
 ,1.3691,0.\C,0,-0.010875,1.4566,0.\C,0,0.0305,-1.42025,0.\C,0,1.266475
 ,0.6952,0.\C,0,1.2505,-0.723975,0.\C,0,-1.25735,0.676075,0.\C,0,-1.225
 5,-0.720975,0.\H,0,2.4801,2.453675,0.\H,0,4.61455,1.21415,0.\H,0,4.612
 55,-1.261575,0.\H,0,2.477,-2.492275,0.\H,0,0.028125,-2.501475,0.\H,0,-
 2.45875,-2.47015,0.\H,0,-4.6053,-1.2627,0.\H,0,-4.656175,1.228525,0.\H
 ,0,-2.4906,2.45255,0.\H,0,-0.04,2.15325,-0.858225\H,0,-0.04,2.15325,0.
 858225\\Version=ES64L-G16RevC.01\State=1-A'\HF=-539.7573995\RMSD=8.192
 e-09\PG=CS [SG(C14H9),X(H2)]\\@
 The archive entry for this job was punched.


 NOBODY LOSES ALL THE TIME
 I HAD AN UNCLE NAMED
 SOL WHO WAS A BORN FAILURE AND
 NEARLY EVERYBODY SAID HE SHOULD HAVE GONE
 INTO VAUDEVILLE PERHAPS BECAUSE MY UNCLE SOL COULD
 SING MCCANN HE WAS A DIVER ON XMAS EVE LIKE HELL ITSELF WHICH
 MAY OR MAY NOT ACCOUNT FOR THE FACT THAT MY UNCLE
 SOL INDULGED IN THAT POSSIBLY MOST INEXCUSABLE
 OF ALL TO USE A HIGHFALOOTIN PHRASE
 LUXURIES THAT IS OR TO
 WIT FARMING AND BE
 IT NEEDLESSLY
 ADDED
 MY UNCLE SOL'S FARM     
 FAILED BECAUSE THE CHICKENS
 ATE THE VEGETABLES SO
 MY UNCLE SOL HAD A
 CHICKEN FARM TILL THE
 SKUNKS ATE THE CHICKENS WHEN 
 MY UNCLE SOL
 HAD A SKUNK FARM BUT
 THE SKUNKS CAUGHT COLD AND
 DIED AND SO
 MY UNCLE SOL IMITATED THE
 SKUNKS IN A SUBTLE MANNER
 OR BY DROWNING HIMSELF IN THE WATERTANK
 BUT SOMEBODY WHO'D GIVEN MY UNCLE SOL A VICTOR     
 VICTROLA AND RECORDS WHILE HE LIVED PRESENTED TO
 HIM UPON THE AUSPICIOUS OCCASION OF HIS DECEASE A
 SCRUMPTIOUS NOT TO MENTION SPLENDIFEROUS FUNERAL WITH
 TALL BOYS IN BLACK GLOVES AND FLOWERS AND EVERYTHING AND
 I REMEMBER WE ALL CRIED LIKE THE MISSOURI
 WHEN MY UNCLE SOL'S COFFIN LURCHED BECAUSE     
 SOMEBODY PRESSED A BUTTON
 (AND DOWN WENT
 MY UNCLE
 SOL
 AND STARTED A WORM FARM)
           E. E. CUMMINGS
 Job cpu time:       0 days  0 hours 50 minutes 35.4 seconds.
 Elapsed time:       0 days  0 hours  1 minutes 37.3 seconds.
 File lengths (MBytes):  RWF=    460 Int=      0 D2E=      0 Chk=     15 Scr=      1
 Normal termination of Gaussian 16 at Wed Jul 27 09:56:23 2022.
