 Entering Gaussian System, Link 0=g16
 Initial command:
 /apps/gaussian/g16c01/g16/l1.exe "/jobfs/52826432.gadi-pbs/Gau-2806513.inp" -scrdir="/jobfs/52826432.gadi-pbs/"
 Entering Link 1 = /apps/gaussian/g16c01/g16/l1.exe PID=   2806514.
  
 Copyright (c) 1988-2019, Gaussian, Inc.  All Rights Reserved.
  
 This is part of the Gaussian(R) 16 program.  It is based on
 the Gaussian(R) 09 system (copyright 2009, Gaussian, Inc.),
 the Gaussian(R) 03 system (copyright 2003, Gaussian, Inc.),
 the Gaussian(R) 98 system (copyright 1998, Gaussian, Inc.),
 the Gaussian(R) 94 system (copyright 1995, Gaussian, Inc.),
 the Gaussian 92(TM) system (copyright 1992, Gaussian, Inc.),
 the Gaussian 90(TM) system (copyright 1990, Gaussian, Inc.),
 the Gaussian 88(TM) system (copyright 1988, Gaussian, Inc.),
 the Gaussian 86(TM) system (copyright 1986, Carnegie Mellon
 University), and the Gaussian 82(TM) system (copyright 1983,
 Carnegie Mellon University). Gaussian is a federally registered
 trademark of Gaussian, Inc.
  
 This software contains proprietary and confidential information,
 including trade secrets, belonging to Gaussian, Inc.
  
 This software is provided under written license and may be
 used, copied, transmitted, or stored only in accord with that
 written license.
  
 The following legend is applicable only to US Government
 contracts under FAR:
  
                    RESTRICTED RIGHTS LEGEND
  
 Use, reproduction and disclosure by the US Government is
 subject to restrictions as set forth in subparagraphs (a)
 and (c) of the Commercial Computer Software - Restricted
 Rights clause in FAR 52.227-19.
  
 Gaussian, Inc.
 340 Quinnipiac St., Bldg. 40, Wallingford CT 06492
  
  
 ---------------------------------------------------------------
 Warning -- This program may not be used in any manner that
 competes with the business of Gaussian, Inc. or will provide
 assistance to any competitor of Gaussian, Inc.  The licensee
 of this program is prohibited from giving any competitor of
 Gaussian, Inc. access to this program.  By using this program,
 the user acknowledges that Gaussian, Inc. is engaged in the
 business of creating and licensing software in the field of
 computational chemistry and represents and warrants to the
 licensee that it is not a competitor of Gaussian, Inc. and that
 it will not use this program in any manner prohibited above.
 ---------------------------------------------------------------
  

 Cite this work as:
 Gaussian 16, Revision C.01,
 M. J. Frisch, G. W. Trucks, H. B. Schlegel, G. E. Scuseria, 
 M. A. Robb, J. R. Cheeseman, G. Scalmani, V. Barone, 
 G. A. Petersson, H. Nakatsuji, X. Li, M. Caricato, A. V. Marenich, 
 J. Bloino, B. G. Janesko, R. Gomperts, B. Mennucci, H. P. Hratchian, 
 J. V. Ortiz, A. F. Izmaylov, J. L. Sonnenberg, D. Williams-Young, 
 F. Ding, F. Lipparini, F. Egidi, J. Goings, B. Peng, A. Petrone, 
 T. Henderson, D. Ranasinghe, V. G. Zakrzewski, J. Gao, N. Rega, 
 G. Zheng, W. Liang, M. Hada, M. Ehara, K. Toyota, R. Fukuda, 
 J. Hasegawa, M. Ishida, T. Nakajima, Y. Honda, O. Kitao, H. Nakai, 
 T. Vreven, K. Throssell, J. A. Montgomery, Jr., J. E. Peralta, 
 F. Ogliaro, M. J. Bearpark, J. J. Heyd, E. N. Brothers, K. N. Kudin, 
 V. N. Staroverov, T. A. Keith, R. Kobayashi, J. Normand, 
 K. Raghavachari, A. P. Rendell, J. C. Burant, S. S. Iyengar, 
 J. Tomasi, M. Cossi, J. M. Millam, M. Klene, C. Adamo, R. Cammi, 
 J. W. Ochterski, R. L. Martin, K. Morokuma, O. Farkas, 
 J. B. Foresman, and D. J. Fox, Gaussian, Inc., Wallingford CT, 2019.
 
 ******************************************
 Gaussian 16:  ES64L-G16RevC.01  3-Jul-2019
                27-Jul-2022 
 ******************************************
 %NProcShared=32
 Will use up to   32 processors via shared memory.
 %mem = 128GB
 ---------------------------------------------------------------
 #n M062X/6-311++G(d,p) TD(NStates=1) EmpiricalDispersion=GD3 SP
 ---------------------------------------------------------------
 1/38=1,172=1/1;
 2/12=2,17=6,18=5,40=1/2;
 3/5=4,6=6,7=1111,11=9,25=1,30=1,74=-55,124=31/1,2,3,8;
 4//1;
 5/5=2,38=5/2;
 8/6=1,10=2,108=1/1;
 9/41=1,42=1,70=2/14;
 6/7=2,8=2,9=2,10=2/1;
 99/5=1,9=1/99;
 ------
 SP_100
 ------
 Symbolic Z-matrix:
 Charge =  1 Multiplicity = 1
 C                     0.01265   2.49146   1.36043 
 C                     0.01353   3.70636   0.67199 
 C                     0.0042    3.69191  -0.71383 
 C                    -0.01157   2.46973  -1.40754 
 C                    -0.01182  -2.47023  -1.40754 
 C                     0.0027   -3.69441  -0.71383 
 C                     0.01115  -3.70723   0.67199 
 C                     0.0079   -2.49296   1.36043 
 C                     0.0065    0.0055    1.45337 
 C                    -0.0183   -0.00025  -1.42919 
 C                    -0.00255   1.25638   0.67707 
 C                    -0.008     1.23875  -0.7308 
 C                    -0.00293  -1.25626   0.67707 
 C                    -0.007    -1.238    -0.7308 
 H                     0.0059    2.48692   2.44365 
 H                     0.01393   4.64013   1.21169 
 H                    -0.0018    4.60736  -1.27235 
 H                    -0.00585   2.474    -2.49006 
 H                    -0.01688  -0.00013  -2.51027 
 H                    -0.0051   -2.47438  -2.49006 
 H                    -0.00255  -4.61049  -1.27235 
 H                     0.01105  -4.642     1.21169 
 H                     0.0004   -2.48855   2.44365 
 H                    -0.83559   0.00125   2.14441 
 H                     0.88359   0.00125   2.14716 
 
                          Input orientation:                          
 ---------------------------------------------------------------------
 Center     Atomic      Atomic             Coordinates (Angstroms)
 Number     Number       Type             X           Y           Z
 ---------------------------------------------------------------------
      1          6           0        0.012650    2.491455    1.360431
      2          6           0        0.013525    3.706358    0.671989
      3          6           0        0.004200    3.691911   -0.713830
      4          6           0       -0.011575    2.469731   -1.407538
      5          6           0       -0.011825   -2.470231   -1.407538
      6          6           0        0.002700   -3.694411   -0.713830
      7          6           0        0.011150   -3.707233    0.671989
      8          6           0        0.007900   -2.492955    1.360431
      9          6           0        0.006500    0.005500    1.453369
     10          6           0       -0.018300   -0.000250   -1.429189
     11          6           0       -0.002550    1.256380    0.677065
     12          6           0       -0.008000    1.238746   -0.730804
     13          6           0       -0.002925   -1.256255    0.677065
     14          6           0       -0.007000   -1.237996   -0.730804
     15          1           0        0.005900    2.486921    2.443647
     16          1           0        0.013925    4.640128    1.211689
     17          1           0       -0.001800    4.607362   -1.272349
     18          1           0       -0.005850    2.474000   -2.490059
     19          1           0       -0.016875   -0.000125   -2.510266
     20          1           0       -0.005100   -2.474375   -2.490059
     21          1           0       -0.002550   -4.610487   -1.272349
     22          1           0        0.011050   -4.642003    1.211689
     23          1           0        0.000400   -2.488546    2.443647
     24          1           0       -0.835585    0.001250    2.144412
     25          1           0        0.883585    0.001250    2.147162
 ---------------------------------------------------------------------
                    Distance matrix (angstroms):
                    1          2          3          4          5
     1  C    0.000000
     2  C    1.396403   0.000000
     3  C    2.396607   1.385926   0.000000
     4  C    2.768160   2.419568   1.405419   0.000000
     5  C    5.681600   6.517310   6.201087   4.939962   0.000000
     6  C    6.524385   7.529409   7.386322   6.203070   1.407145
     7  C    6.236801   7.413591   7.527807   6.517656   2.419738
     8  C    4.984412   6.237425   6.523430   5.682454   2.768133
     9  C    2.487699   3.782453   4.276258   3.775917   3.783433
    10  C    3.740526   4.260857   3.760891   2.470085   2.470084
    11  C    1.411606   2.450036   2.804718   2.412026   4.270045
    12  C    2.437821   2.838556   2.453254   1.404744   3.770211
    13  C    3.809536   4.962643   5.139940   4.269498   2.412340
    14  C    4.275799   5.139541   4.929949   3.768983   1.405843
    15  H    1.083247   2.150781   3.379595   3.851263   6.277364
    16  H    2.153816   1.078519   2.146354   3.401709   7.577481
    17  H    3.377692   2.143010   1.072395   2.141924   7.078891
    18  H    3.850574   3.393763   2.153694   1.082545   5.061354
    19  H    4.603383   4.885252   4.105942   2.704852   2.705080
    20  H    6.283793   6.942648   6.417021   5.061233   1.082550
    21  H    7.574255   8.541113   8.321166   7.081514   2.144541
    22  H    7.135009   8.365788   8.553467   7.578761   3.402568
    23  H    5.096461   6.443274   6.940297   6.278239   3.851248
    24  H    2.745041   4.076376   4.742970   4.403265   4.404900
    25  H    2.752925   4.081785   4.751797   4.419344   4.421071
                    6          7          8          9         10
     6  C    0.000000
     7  C    1.385904   0.000000
     8  C    2.397099   1.395863   0.000000
     9  C    4.287902   3.794069   2.500183   0.000000
    10  C    3.762845   4.261166   3.741155   2.882670   0.000000
    11  C    5.142465   4.963635   3.811117   1.472220   2.452687
    12  C    4.933198   5.141099   4.277746   2.508330   1.422308
    13  C    2.806996   2.451024   1.412987   1.481473   2.452364
    14  C    2.456493   2.839945   2.438936   2.513379   1.421226
    15  H    6.941076   6.442542   5.096325   2.671722   4.602767
    16  H    8.554080   8.364790   7.134636   4.640931   5.339324
    17  H    8.320541   8.538917   7.572723   5.348527   4.610310
    18  H    6.419062   6.943089   6.284672   4.652340   2.692121
    19  H    4.107957   4.885712   4.604032   3.963708   1.081078
    20  H    2.154887   3.393928   3.850557   4.658384   2.692009
    21  H    1.072924   2.143946   3.378695   5.360686   4.612931
    22  H    2.146072   1.079385   2.154192   4.653785   5.340503
    23  H    3.379908   2.150369   1.083251   2.683459   4.603349
    24  H    4.746597   4.078950   2.747208   1.089342   3.665867
    25  H    4.755959   4.085355   2.758048   1.118322   3.688317
                   11         12         13         14         15
    11  C    0.000000
    12  C    1.407990   0.000000
    13  C    2.512635   2.864813   0.000000
    14  C    2.864267   2.476742   1.407993   0.000000
    15  H    2.152932   3.411052   4.139113   4.894110   0.000000
    16  H    3.425762   3.917034   5.920594   6.190804   2.480743
    17  H    3.876764   3.411874   6.179176   5.870393   4.278429
    18  H    3.393123   2.149613   4.893412   4.107785   4.933737
    19  H    3.426089   2.168263   3.425950   2.167696   5.543209
    20  H    4.893793   4.108802   3.393302   2.150259   6.996859
    21  H    6.182260   5.874251   3.879573   3.415697   8.011361
    22  H    5.922578   6.193291   3.427726   3.919294   7.234591
    23  H    4.140687   4.895908   2.153918   3.411901   4.975470
    24  H    2.102952   3.237771   2.104222   3.238696   2.641249
    25  H    2.126446   3.257147   2.128005   3.257539   2.652696
                   16         17         18         19         20
    16  H    0.000000
    17  H    2.484304   0.000000
    18  H    4.288991   2.456434   0.000000
    19  H    5.948600   4.770912   2.474232   0.000000
    20  H    8.019941   7.185668   4.948375   2.474361   0.000000
    21  H    9.578340   9.217849   7.188378   4.773686   2.458821
    22  H    9.282131   9.577127   8.021267   5.949854   4.289733
    23  H    7.234355   8.010028   6.997739   5.543807   4.933729
    24  H    4.807372   5.795319   5.318014   4.726131   5.319469
    25  H    4.811508   5.804587   5.330047   4.743676   5.331257
                   21         22         23         24         25
    21  H    0.000000
    22  H    2.484275   0.000000
    23  H    4.279167   2.480970   0.000000
    24  H    5.799683   4.811087   2.643387   0.000000
    25  H    5.809166   4.816246   2.658384   1.719172   0.000000
 Stoichiometry    C14H11(1+)
 Framework group  C1[X(C14H11)]
 Deg. of freedom    69
 Full point group                 C1      NOp   1
 Largest Abelian subgroup         C1      NOp   1
 Largest concise Abelian subgroup C1      NOp   1
                         Standard orientation:                         
 ---------------------------------------------------------------------
 Center     Atomic      Atomic             Coordinates (Angstroms)
 Number     Number       Type             X           Y           Z
 ---------------------------------------------------------------------
      1          6           0       -2.491604   -1.360215    0.002643
      2          6           0       -3.706434   -0.671663    0.007710
      3          6           0       -3.691838    0.714186    0.007554
      4          6           0       -2.469580    1.407851   -0.003270
      5          6           0        2.470382    1.407321   -0.002056
      6          6           0        3.694484    0.713401    0.008245
      7          6           0        3.707157   -0.672445    0.007534
      8          6           0        2.492807   -1.360720   -0.000629
      9          6           0       -0.005657   -1.453378   -0.003385
     10          6           0        0.000405    1.429281   -0.009120
     11          6           0       -1.256452   -0.676896   -0.007672
     12          6           0       -1.238668    0.730976   -0.003806
     13          6           0        1.256183   -0.677164   -0.007301
     14          6           0        1.238074    0.730703   -0.002071
     15          1           0       -2.487182   -2.443363   -0.011269
     16          1           0       -4.640261   -1.211253    0.004264
     17          1           0       -4.607228    1.272831    0.004976
     18          1           0       -2.473736    2.490311    0.009612
     19          1           0        0.000394    2.510324   -0.000545
     20          1           0        2.474638    2.489774    0.011829
     21          1           0        4.610621    1.271843    0.006960
     22          1           0        4.641870   -1.212234    0.004142
     23          1           0        2.488286   -2.443862   -0.015294
     24          1           0       -0.001230   -2.138837   -0.850020
     25          1           0       -0.001741   -2.152956    0.869094
 ---------------------------------------------------------------------
 Rotational constants (GHZ):           2.1360665           0.4433817           0.3679686
 Standard basis: 6-311++G(d,p) (5D, 7F)
 There are   399 symmetry adapted cartesian basis functions of A   symmetry.
 There are   385 symmetry adapted basis functions of A   symmetry.
   385 basis functions,   603 primitive gaussians,   399 cartesian basis functions
    47 alpha electrons       47 beta electrons
       nuclear repulsion energy       780.4979458759 Hartrees.
 NAtoms=   25 NActive=   25 NUniq=   25 SFac= 1.00D+00 NAtFMM=   60 NAOKFM=F Big=F
 Integral buffers will be    131072 words long.
 Regular integral format.
 Two-electron integral symmetry is turned on.
 Nuclear repulsion after empirical dispersion term =      780.4969661405 Hartrees.
 One-electron integrals computed using PRISM.
 NBasis=   385 RedAO= T EigKep=  1.17D-06  NBF=   385
 NBsUse=   379 1.00D-06 EigRej=  8.59D-07 NBFU=   379
 ExpMin= 3.60D-02 ExpMax= 4.56D+03 ExpMxC= 6.82D+02 IAcc=3 IRadAn=         5 AccDes= 0.00D+00
 Harris functional with IExCor= 1009 and IRadAn=       5 diagonalized for initial guess.
 HarFok:  IExCor= 1009 AccDes= 0.00D+00 IRadAn=         5 IDoV= 1 UseB2=F ITyADJ=14
 ICtDFT=  3500011 ScaDFX=  1.000000  1.000000  1.000000  1.000000
 FoFCou: FMM=F IPFlag=           0 FMFlag=      100000 FMFlg1=           0
         NFxFlg=           0 DoJE=T BraDBF=F KetDBF=T FulRan=T
         wScrn=  0.000000 ICntrl=       500 IOpCl=  0 I1Cent=   200000004 NGrid=           0
         NMat0=    1 NMatS0=      1 NMatT0=    0 NMatD0=    1 NMtDS0=    0 NMtDT0=    0
 Petite list used in FoFCou.
 Requested convergence on RMS density matrix=1.00D-08 within 128 cycles.
 Requested convergence on MAX density matrix=1.00D-06.
 Requested convergence on             energy=1.00D-06.
 No special actions if energy rises.
 SCF Done:  E(RM062X) =  -539.759240027     A.U. after   15 cycles
            NFock= 15  Conv=0.46D-08     -V/T= 2.0043
 DoSCS=F DFT=T ScalE2(SS,OS)=  1.000000  1.000000
 ExpMin= 3.60D-02 ExpMax= 4.56D+03 ExpMxC= 6.82D+02 IAcc=3 IRadAn=         5 AccDes= 0.00D+00
 HarFok:  IExCor=  205 AccDes= 0.00D+00 IRadAn=         5 IDoV=-2 UseB2=F ITyADJ=14
 ICtDFT= 12500011 ScaDFX=  1.000000  1.000000  1.000000  1.000000
 Range of M.O.s used for correlation:    15   379
 NBasis=   385 NAE=    47 NBE=    47 NFC=    14 NFV=     0
 NROrb=    365 NOA=    33 NOB=    33 NVA=   332 NVB=   332

 **** Warning!!: The largest alpha MO coefficient is  0.14933572D+03

 Orbital symmetries:
       Occupied  (A) (A) (A) (A) (A) (A) (A) (A) (A) (A) (A) (A)
                 (A) (A) (A) (A) (A) (A) (A) (A) (A) (A) (A) (A)
                 (A) (A) (A) (A) (A) (A) (A) (A) (A) (A) (A) (A)
                 (A) (A) (A) (A) (A) (A) (A) (A) (A) (A) (A)
       Virtual   (A) (A) (A) (A) (A) (A) (A) (A) (A) (A) (A) (A)
                 (A) (A) (A) (A) (A) (A) (A) (A) (A) (A) (A) (A)
                 (A) (A) (A) (A) (A) (A) (A) (A) (A) (A) (A) (A)
                 (A) (A) (A) (A) (A) (A) (A) (A) (A) (A) (A) (A)
                 (A) (A) (A) (A) (A) (A) (A) (A) (A) (A) (A) (A)
                 (A) (A) (A) (A) (A) (A) (A) (A) (A) (A) (A) (A)
                 (A) (A) (A) (A) (A) (A) (A) (A) (A) (A) (A) (A)
                 (A) (A) (A) (A) (A) (A) (A) (A) (A) (A) (A) (A)
                 (A) (A) (A) (A) (A) (A) (A) (A) (A) (A) (A) (A)
                 (A) (A) (A) (A) (A) (A) (A) (A) (A) (A) (A) (A)
                 (A) (A) (A) (A) (A) (A) (A) (A) (A) (A) (A) (A)
                 (A) (A) (A) (A) (A) (A) (A) (A) (A) (A) (A) (A)
                 (A) (A) (A) (A) (A) (A) (A) (A) (A) (A) (A) (A)
                 (A) (A) (A) (A) (A) (A) (A) (A) (A) (A) (A) (A)
                 (A) (A) (A) (A) (A) (A) (A) (A) (A) (A) (A) (A)
                 (A) (A) (A) (A) (A) (A) (A) (A) (A) (A) (A) (A)
                 (A) (A) (A) (A) (A) (A) (A) (A) (A) (A) (A) (A)
                 (A) (A) (A) (A) (A) (A) (A) (A) (A) (A) (A) (A)
                 (A) (A) (A) (A) (A) (A) (A) (A) (A) (A) (A) (A)
                 (A) (A) (A) (A) (A) (A) (A) (A) (A) (A) (A) (A)
                 (A) (A) (A) (A) (A) (A) (A) (A) (A) (A) (A) (A)
                 (A) (A) (A) (A) (A) (A) (A) (A) (A) (A) (A) (A)
                 (A) (A) (A) (A) (A) (A) (A) (A) (A) (A) (A) (A)
                 (A) (A) (A) (A) (A) (A) (A) (A) (A) (A) (A) (A)
                 (A) (A) (A) (A) (A) (A) (A) (A) (A) (A) (A) (A)
                 (A) (A) (A) (A) (A) (A) (A) (A) (A) (A) (A) (A)
                 (A) (A) (A) (A) (A) (A) (A) (A) (A) (A) (A) (A)
                 (A) (A) (A) (A) (A) (A) (A) (A)
     4 initial guesses have been made.
 Convergence on wavefunction:    0.001000000000000
 Iteration     1 Dimension     4 NMult     0 NNew      4
 CISAX will form     4 AO SS matrices at one time.
 Iteration     2 Dimension     6 NMult     4 NNew      2
 Iteration     3 Dimension     8 NMult     6 NNew      2
 Iteration     4 Dimension    10 NMult     8 NNew      2
 Iteration     5 Dimension    12 NMult    10 NNew      2
 Iteration     6 Dimension    14 NMult    12 NNew      2
 ***********************************************************************
 Excited states from <AA,BB:AA,BB> singles matrix:
 ***********************************************************************
 
 Ground to excited state transition densities written to RWF  633
 Ground to excited state transition electric dipole moments (Au):
       state          X           Y           Z        Dip. S.      Osc.
         1        -0.0073     -0.6392      0.0031      0.4086      0.0281
 Ground to excited state transition velocity dipole moments (Au):
       state          X           Y           Z        Dip. S.      Osc.
         1         0.0008      0.0737     -0.0004      0.0054      0.0351
 Ground to excited state transition magnetic dipole moments (Au):
       state          X           Y           Z
         1        -0.0039     -0.0005      0.0001
 Ground to excited state transition velocity quadrupole moments (Au):
       state          XX          YY          ZZ          XY          XZ          YZ
         1         0.3057      0.0332     -0.0097      0.0010      0.0001      0.0007
 <0|del|b> * <b|rxdel|0> + <0|del|b> * <b|delr+rdel|0>
 Rotatory Strengths (R) in cgs (10**-40 erg-esu-cm/Gauss)
       state          XX          YY          ZZ    R(velocity)    E-M Angle
         1        -0.1459     -0.0073     -0.1249     -0.0927       90.00
 1/2[<0|r|b>*<b|rxdel|0> + (<0|rxdel|b>*<b|r|0>)*]
 Rotatory Strengths (R) in cgs (10**-40 erg-esu-cm/Gauss)
       state          XX          YY          ZZ     R(length)
         1        -0.0201     -0.2301     -0.0003     -0.0835
  1/2[<0|del|b>*<b|r|0> + (<0|r|b>*<b|del|0>)*] (Au)
       state          X           Y           Z        Dip. S.   Osc.(frdel)
         1        -0.0000     -0.0471     -0.0000      0.0471      0.0314

 Excitation energies and oscillator strengths:
 
 Excited State   1:      Singlet-A      2.8099 eV  441.25 nm  f=0.0281  <S**2>=0.000
      47 -> 48         0.70427
 This state for optimization and/or second-order correction.
 Total Energy, E(TD-HF/TD-DFT) =  -539.655979385    
 Copying the excited state density for this state as the 1-particle RhoCI density.
 SavETr:  write IOETrn=   770 NScale= 10 NData=  16 NLR=1 NState=    1 LETran=      28.

 **********************************************************************

            Population analysis using the SCF Density.

 **********************************************************************

 Orbital symmetries:
       Occupied  (A) (A) (A) (A) (A) (A) (A) (A) (A) (A) (A) (A)
                 (A) (A) (A) (A) (A) (A) (A) (A) (A) (A) (A) (A)
                 (A) (A) (A) (A) (A) (A) (A) (A) (A) (A) (A) (A)
                 (A) (A) (A) (A) (A) (A) (A) (A) (A) (A) (A)
       Virtual   (A) (A) (A) (A) (A) (A) (A) (A) (A) (A) (A) (A)
                 (A) (A) (A) (A) (A) (A) (A) (A) (A) (A) (A) (A)
                 (A) (A) (A) (A) (A) (A) (A) (A) (A) (A) (A) (A)
                 (A) (A) (A) (A) (A) (A) (A) (A) (A) (A) (A) (A)
                 (A) (A) (A) (A) (A) (A) (A) (A) (A) (A) (A) (A)
                 (A) (A) (A) (A) (A) (A) (A) (A) (A) (A) (A) (A)
                 (A) (A) (A) (A) (A) (A) (A) (A) (A) (A) (A) (A)
                 (A) (A) (A) (A) (A) (A) (A) (A) (A) (A) (A) (A)
                 (A) (A) (A) (A) (A) (A) (A) (A) (A) (A) (A) (A)
                 (A) (A) (A) (A) (A) (A) (A) (A) (A) (A) (A) (A)
                 (A) (A) (A) (A) (A) (A) (A) (A) (A) (A) (A) (A)
                 (A) (A) (A) (A) (A) (A) (A) (A) (A) (A) (A) (A)
                 (A) (A) (A) (A) (A) (A) (A) (A) (A) (A) (A) (A)
                 (A) (A) (A) (A) (A) (A) (A) (A) (A) (A) (A) (A)
                 (A) (A) (A) (A) (A) (A) (A) (A) (A) (A) (A) (A)
                 (A) (A) (A) (A) (A) (A) (A) (A) (A) (A) (A) (A)
                 (A) (A) (A) (A) (A) (A) (A) (A) (A) (A) (A) (A)
                 (A) (A) (A) (A) (A) (A) (A) (A) (A) (A) (A) (A)
                 (A) (A) (A) (A) (A) (A) (A) (A) (A) (A) (A) (A)
                 (A) (A) (A) (A) (A) (A) (A) (A) (A) (A) (A) (A)
                 (A) (A) (A) (A) (A) (A) (A) (A) (A) (A) (A) (A)
                 (A) (A) (A) (A) (A) (A) (A) (A) (A) (A) (A) (A)
                 (A) (A) (A) (A) (A) (A) (A) (A) (A) (A) (A) (A)
                 (A) (A) (A) (A) (A) (A) (A) (A) (A) (A) (A) (A)
                 (A) (A) (A) (A) (A) (A) (A) (A) (A) (A) (A) (A)
                 (A) (A) (A) (A) (A) (A) (A) (A) (A) (A) (A) (A)
                 (A) (A) (A) (A) (A) (A) (A) (A) (A) (A) (A) (A)
                 (A) (A) (A) (A) (A) (A) (A) (A)
 The electronic state is 1-A.
 Alpha  occ. eigenvalues --  -10.77660 -10.73299 -10.73230 -10.72501 -10.72497
 Alpha  occ. eigenvalues --  -10.71466 -10.71429 -10.71058 -10.71046 -10.70981
 Alpha  occ. eigenvalues --  -10.70070 -10.70043 -10.69622 -10.69588  -1.16394
 Alpha  occ. eigenvalues --   -1.12307  -1.06863  -1.05782  -1.01166  -1.00197
 Alpha  occ. eigenvalues --   -0.95724  -0.91070  -0.86412  -0.85874  -0.83809
 Alpha  occ. eigenvalues --   -0.78392  -0.76015  -0.74386  -0.69572  -0.69288
 Alpha  occ. eigenvalues --   -0.68565  -0.68235  -0.68134  -0.64622  -0.64184
 Alpha  occ. eigenvalues --   -0.63147  -0.61966  -0.59943  -0.59561  -0.59132
 Alpha  occ. eigenvalues --   -0.56917  -0.55254  -0.54883  -0.52376  -0.46522
 Alpha  occ. eigenvalues --   -0.46052  -0.44431
 Alpha virt. eigenvalues --   -0.26075  -0.14757  -0.14119  -0.12869  -0.11178
 Alpha virt. eigenvalues --   -0.10082  -0.09218  -0.07997  -0.07942  -0.07471
 Alpha virt. eigenvalues --   -0.07211  -0.07149  -0.05645  -0.05582  -0.05348
 Alpha virt. eigenvalues --   -0.03802  -0.03640  -0.03282  -0.03134  -0.02161
 Alpha virt. eigenvalues --   -0.01361  -0.00916   0.00191   0.00627   0.00687
 Alpha virt. eigenvalues --    0.01047   0.01513   0.01912   0.02209   0.02291
 Alpha virt. eigenvalues --    0.02434   0.02657   0.02705   0.03307   0.03387
 Alpha virt. eigenvalues --    0.04247   0.04502   0.04690   0.04987   0.05358
 Alpha virt. eigenvalues --    0.06030   0.06289   0.06596   0.07039   0.07233
 Alpha virt. eigenvalues --    0.07872   0.08091   0.08361   0.08500   0.08933
 Alpha virt. eigenvalues --    0.09557   0.09569   0.10032   0.10815   0.11024
 Alpha virt. eigenvalues --    0.11117   0.12199   0.12266   0.12892   0.13014
 Alpha virt. eigenvalues --    0.13404   0.13534   0.14024   0.14302   0.16119
 Alpha virt. eigenvalues --    0.16303   0.16513   0.17376   0.17591   0.17726
 Alpha virt. eigenvalues --    0.18105   0.18993   0.19191   0.19606   0.19715
 Alpha virt. eigenvalues --    0.21493   0.21530   0.22724   0.23125   0.23565
 Alpha virt. eigenvalues --    0.23648   0.24559   0.25131   0.26880   0.27527
 Alpha virt. eigenvalues --    0.28838   0.29289   0.29842   0.31272   0.35809
 Alpha virt. eigenvalues --    0.36307   0.38077   0.39199   0.41162   0.41454
 Alpha virt. eigenvalues --    0.41950   0.42295   0.43013   0.43600   0.44288
 Alpha virt. eigenvalues --    0.44803   0.44902   0.45813   0.46078   0.47937
 Alpha virt. eigenvalues --    0.48575   0.48890   0.49059   0.50448   0.51153
 Alpha virt. eigenvalues --    0.51483   0.51521   0.52120   0.52696   0.53994
 Alpha virt. eigenvalues --    0.54112   0.54556   0.55712   0.55759   0.57456
 Alpha virt. eigenvalues --    0.58209   0.58791   0.61408   0.62120   0.62332
 Alpha virt. eigenvalues --    0.63074   0.63564   0.64782   0.65140   0.67175
 Alpha virt. eigenvalues --    0.70412   0.70615   0.70985   0.72298   0.72802
 Alpha virt. eigenvalues --    0.75741   0.75829   0.76208   0.76786   0.77025
 Alpha virt. eigenvalues --    0.77661   0.77767   0.78171   0.80186   0.80406
 Alpha virt. eigenvalues --    0.81189   0.81594   0.82086   0.82926   0.85044
 Alpha virt. eigenvalues --    0.87000   0.87916   0.88125   0.89425   0.90427
 Alpha virt. eigenvalues --    0.90858   0.91374   0.93092   0.94658   0.96433
 Alpha virt. eigenvalues --    0.96657   1.00463   1.01279   1.01594   1.02622
 Alpha virt. eigenvalues --    1.03099   1.03854   1.04599   1.05632   1.08747
 Alpha virt. eigenvalues --    1.19717   1.23323   1.24066   1.25300   1.27967
 Alpha virt. eigenvalues --    1.29438   1.31968   1.33983   1.35568   1.35942
 Alpha virt. eigenvalues --    1.39198   1.40195   1.40728   1.42872   1.43269
 Alpha virt. eigenvalues --    1.43435   1.45075   1.45183   1.46423   1.46734
 Alpha virt. eigenvalues --    1.47583   1.47755   1.51652   1.53597   1.55645
 Alpha virt. eigenvalues --    1.55939   1.56127   1.56470   1.57669   1.61313
 Alpha virt. eigenvalues --    1.63368   1.63797   1.63947   1.66026   1.68122
 Alpha virt. eigenvalues --    1.68455   1.68630   1.69710   1.74146   1.75954
 Alpha virt. eigenvalues --    1.77089   1.77958   1.79800   1.79994   1.80385
 Alpha virt. eigenvalues --    1.83117   1.83177   1.83509   1.83657   1.84124
 Alpha virt. eigenvalues --    1.84272   1.85802   1.85897   1.88142   1.91456
 Alpha virt. eigenvalues --    1.91886   1.94134   1.95228   1.97519   1.97863
 Alpha virt. eigenvalues --    1.99471   2.02416   2.04195   2.07464   2.11687
 Alpha virt. eigenvalues --    2.11977   2.13867   2.15150   2.18734   2.21122
 Alpha virt. eigenvalues --    2.22433   2.28473   2.29869   2.34515   2.35122
 Alpha virt. eigenvalues --    2.36096   2.39001   2.40050   2.42140   2.43351
 Alpha virt. eigenvalues --    2.46221   2.47485   2.48989   2.52710   2.53775
 Alpha virt. eigenvalues --    2.54189   2.56862   2.57787   2.58270   2.59632
 Alpha virt. eigenvalues --    2.59703   2.61658   2.61886   2.63395   2.63773
 Alpha virt. eigenvalues --    2.64606   2.64850   2.65089   2.65210   2.67863
 Alpha virt. eigenvalues --    2.68712   2.70888   2.71380   2.73342   2.74813
 Alpha virt. eigenvalues --    2.76256   2.78491   2.79607   2.82539   2.82959
 Alpha virt. eigenvalues --    2.84528   2.86268   2.92065   2.96822   2.99388
 Alpha virt. eigenvalues --    2.99820   3.05457   3.10552   3.10977   3.12323
 Alpha virt. eigenvalues --    3.20956   3.23729   3.26278   3.27933   3.30470
 Alpha virt. eigenvalues --    3.32085   3.33244   3.43351   3.45483   3.45938
 Alpha virt. eigenvalues --    3.47940   3.49674   3.56331   3.65570   3.67153
 Alpha virt. eigenvalues --    3.67442   3.94489   3.95008   3.95701   3.96499
 Alpha virt. eigenvalues --    4.04363   4.06971   4.07195   4.12498   4.35617
 Alpha virt. eigenvalues --    4.61491   4.69321   4.71072  23.45487  23.61075
 Alpha virt. eigenvalues --   23.81860  23.85835  23.87589  23.89119  23.90472
 Alpha virt. eigenvalues --   23.92221  23.97200  23.98377  23.98647  23.99567
 Alpha virt. eigenvalues --   24.09817  24.10008
          Condensed to atoms (all electrons):
               1          2          3          4          5          6
     1  C    8.490076   0.381701  -0.551144   1.862386  -0.009201  -0.091607
     2  C    0.381701   7.067330   0.357992  -1.006857  -0.023763  -0.014040
     3  C   -0.551144   0.357992   6.575923   0.711497  -0.120900   0.016541
     4  C    1.862386  -1.006857   0.711497  10.802856  -0.264006  -0.119396
     5  C   -0.009201  -0.023763  -0.120900  -0.264006  10.804273   0.696141
     6  C   -0.091607  -0.014040   0.016541  -0.119396   0.696141   6.572078
     7  C   -0.024332   0.002879  -0.014152  -0.024815  -0.991098   0.354129
     8  C    0.396671  -0.021938  -0.091784  -0.017682   1.882034  -0.559816
     9  C   -1.223947  -0.764971   0.291144  -0.272214  -0.260181   0.293443
    10  C   -1.227914   0.231645  -0.348732  -2.504749  -2.503855  -0.341065
    11  C    0.279287  -0.925966   1.043619  -0.406709  -1.535523  -0.156758
    12  C   -1.856071   1.275615  -1.380635  -1.321450  -0.273893  -0.205758
    13  C    0.153933  -0.237118  -0.159985  -1.537647  -0.418043   1.045670
    14  C   -1.061553  -0.200165  -0.205621  -0.270149  -1.350607  -1.365341
    15  H    0.363931  -0.105201  -0.000751   0.026850   0.005634   0.001096
    16  H   -0.020711   0.379692  -0.017516   0.013377  -0.001493  -0.000318
    17  H   -0.023412  -0.018137   0.378134  -0.065741   0.000149   0.000388
    18  H    0.048085   0.004437  -0.087408   0.453211   0.008140  -0.004928
    19  H   -0.046481  -0.008002   0.051801  -0.073501  -0.074319   0.051784
    20  H    0.007312   0.001918  -0.004958   0.008013   0.452242  -0.088133
    21  H   -0.001307  -0.000388   0.000391   0.000164  -0.065680   0.378007
    22  H    0.000713   0.000359  -0.000320  -0.001511   0.013701  -0.017869
    23  H    0.005712  -0.002686   0.001101   0.005640   0.026710  -0.000839
    24  H    0.024004   0.014432  -0.001914  -0.012095  -0.013225  -0.001565
    25  H    0.040882   0.014337  -0.000853  -0.012999  -0.012001  -0.001306
               7          8          9         10         11         12
     1  C   -0.024332   0.396671  -1.223947  -1.227914   0.279287  -1.856071
     2  C    0.002879  -0.021938  -0.764971   0.231645  -0.925966   1.275615
     3  C   -0.014152  -0.091784   0.291144  -0.348732   1.043619  -1.380635
     4  C   -0.024815  -0.017682  -0.272214  -2.504749  -0.406709  -1.321450
     5  C   -0.991098   1.882034  -0.260181  -2.503855  -1.535523  -0.273893
     6  C    0.354129  -0.559816   0.293443  -0.341065  -0.156758  -0.205758
     7  C    7.038662   0.385180  -0.754673   0.226117  -0.226438  -0.197315
     8  C    0.385180   8.482129  -1.203300  -1.227773   0.165136  -1.044101
     9  C   -0.754673  -1.203300   9.427588   0.270207   1.647360  -1.838477
    10  C    0.226117  -1.227773   0.270207   9.119246  -0.419815   2.289925
    11  C   -0.226438   0.165136   1.647360  -0.419815  14.443833  -3.711324
    12  C   -0.197315  -1.044101  -1.838477   2.289925  -3.711324  15.707636
    13  C   -0.918385   0.244161   1.633884  -0.424429   1.175955  -4.814542
    14  C    1.262175  -1.874340  -1.849310   2.297625  -4.789483   2.911177
    15  H   -0.002610   0.005644   0.090309  -0.009684  -0.027291  -0.023733
    16  H    0.000352   0.000639   0.003332  -0.009427   0.025991  -0.031034
    17  H   -0.000385  -0.001286  -0.005204   0.020099  -0.026517   0.087841
    18  H    0.001916   0.007179  -0.025402   0.016885  -0.013181  -0.047577
    19  H   -0.008089  -0.046430   0.074673   0.422523   0.082966  -0.067407
    20  H    0.005070   0.048101  -0.025293   0.017445  -0.012218  -0.011198
    21  H   -0.018517  -0.022978  -0.005184   0.020045  -0.006015   0.004987
    22  H    0.379190  -0.019591   0.003800  -0.009634   0.002904  -0.008913
    23  H   -0.104296   0.364869   0.090592  -0.009638   0.001099   0.006396
    24  H    0.015515   0.026555   0.363671   0.005842   0.009244  -0.051460
    25  H    0.012973   0.037399   0.351075   0.005491   0.018159  -0.068457
              13         14         15         16         17         18
     1  C    0.153933  -1.061553   0.363931  -0.020711  -0.023412   0.048085
     2  C   -0.237118  -0.200165  -0.105201   0.379692  -0.018137   0.004437
     3  C   -0.159985  -0.205621  -0.000751  -0.017516   0.378134  -0.087408
     4  C   -1.537647  -0.270149   0.026850   0.013377  -0.065741   0.453211
     5  C   -0.418043  -1.350607   0.005634  -0.001493   0.000149   0.008140
     6  C    1.045670  -1.365341   0.001096  -0.000318   0.000388  -0.004928
     7  C   -0.918385   1.262175  -0.002610   0.000352  -0.000385   0.001916
     8  C    0.244161  -1.874340   0.005644   0.000639  -0.001286   0.007179
     9  C    1.633884  -1.849310   0.090309   0.003332  -0.005204  -0.025402
    10  C   -0.424429   2.297625  -0.009684  -0.009427   0.020099   0.016885
    11  C    1.175955  -4.789483  -0.027291   0.025991  -0.026517  -0.013181
    12  C   -4.814542   2.911177  -0.023733  -0.031034   0.087841  -0.047577
    13  C   14.532653  -3.695390   0.001275   0.002851  -0.006118  -0.012499
    14  C   -3.695390  15.738553   0.006503  -0.008803   0.005012  -0.011666
    15  H    0.001275   0.006503   0.439697  -0.009005   0.001523   0.000152
    16  H    0.002851  -0.008803  -0.009005   0.419775  -0.006805   0.001933
    17  H   -0.006118   0.005012   0.001523  -0.006805   0.423811  -0.010446
    18  H   -0.012499  -0.011666   0.000152   0.001933  -0.010446   0.453664
    19  H    0.082574  -0.066847   0.000312  -0.000559   0.001462  -0.006364
    20  H   -0.013434  -0.047851  -0.000119   0.000016  -0.000146   0.001295
    21  H   -0.026049   0.087142   0.000015  -0.000007   0.000011  -0.000145
    22  H    0.026564  -0.032615  -0.000127   0.000007  -0.000007   0.000015
    23  H   -0.028051  -0.024289   0.000575  -0.000127   0.000015  -0.000117
    24  H    0.008521  -0.049885  -0.001284   0.000725  -0.000179   0.000182
    25  H    0.018041  -0.070168  -0.000552   0.000523  -0.000109   0.000178
              19         20         21         22         23         24
     1  C   -0.046481   0.007312  -0.001307   0.000713   0.005712   0.024004
     2  C   -0.008002   0.001918  -0.000388   0.000359  -0.002686   0.014432
     3  C    0.051801  -0.004958   0.000391  -0.000320   0.001101  -0.001914
     4  C   -0.073501   0.008013   0.000164  -0.001511   0.005640  -0.012095
     5  C   -0.074319   0.452242  -0.065680   0.013701   0.026710  -0.013225
     6  C    0.051784  -0.088133   0.378007  -0.017869  -0.000839  -0.001565
     7  C   -0.008089   0.005070  -0.018517   0.379190  -0.104296   0.015515
     8  C   -0.046430   0.048101  -0.022978  -0.019591   0.364869   0.026555
     9  C    0.074673  -0.025293  -0.005184   0.003800   0.090592   0.363671
    10  C    0.422523   0.017445   0.020045  -0.009634  -0.009638   0.005842
    11  C    0.082966  -0.012218  -0.006015   0.002904   0.001099   0.009244
    12  C   -0.067407  -0.011198   0.004987  -0.008913   0.006396  -0.051460
    13  C    0.082574  -0.013434  -0.026049   0.026564  -0.028051   0.008521
    14  C   -0.066847  -0.047851   0.087142  -0.032615  -0.024289  -0.049885
    15  H    0.000312  -0.000119   0.000015  -0.000127   0.000575  -0.001284
    16  H   -0.000559   0.000016  -0.000007   0.000007  -0.000127   0.000725
    17  H    0.001462  -0.000146   0.000011  -0.000007   0.000015  -0.000179
    18  H   -0.006364   0.001295  -0.000145   0.000015  -0.000117   0.000182
    19  H    0.444578  -0.006394   0.001453  -0.000556   0.000320   0.000609
    20  H   -0.006394   0.453745  -0.010355   0.001955   0.000140   0.000158
    21  H    0.001453  -0.010355   0.423501  -0.006777   0.001519  -0.000169
    22  H   -0.000556   0.001955  -0.006777   0.419758  -0.009024   0.000683
    23  H    0.000320   0.000140   0.001519  -0.009024   0.439421  -0.001150
    24  H    0.000609   0.000158  -0.000169   0.000683  -0.001150   0.492727
    25  H    0.000609   0.000206  -0.000120   0.000562  -0.000694  -0.079172
              25
     1  C    0.040882
     2  C    0.014337
     3  C   -0.000853
     4  C   -0.012999
     5  C   -0.012001
     6  C   -0.001306
     7  C    0.012973
     8  C    0.037399
     9  C    0.351075
    10  C    0.005491
    11  C    0.018159
    12  C   -0.068457
    13  C    0.018041
    14  C   -0.070168
    15  H   -0.000552
    16  H    0.000523
    17  H   -0.000109
    18  H    0.000178
    19  H    0.000609
    20  H    0.000206
    21  H   -0.000120
    22  H    0.000562
    23  H   -0.000694
    24  H   -0.079172
    25  H    0.493012
 Mulliken charges:
               1
     1  C    0.082987
     2  C   -0.403105
     3  C   -0.441471
     4  C    0.027525
     5  C    0.028765
     6  C   -0.440539
     7  C   -0.399049
     8  C    0.085319
     9  C   -0.312921
    10  C    0.093621
    11  C   -0.638315
    12  C    0.669766
    13  C   -0.634391
    14  C    0.665894
    15  H    0.236842
    16  H    0.256593
    17  H    0.246046
    18  H    0.222463
    19  H    0.189284
    20  H    0.222485
    21  H    0.246456
    22  H    0.256734
    23  H    0.236800
    24  H    0.249229
    25  H    0.252984
 Sum of Mulliken charges =   1.00000
 Mulliken charges with hydrogens summed into heavy atoms:
               1
     1  C    0.319829
     2  C   -0.146512
     3  C   -0.195425
     4  C    0.249987
     5  C    0.251249
     6  C   -0.194083
     7  C   -0.142315
     8  C    0.322119
     9  C    0.189291
    10  C    0.282905
    11  C   -0.638315
    12  C    0.669766
    13  C   -0.634391
    14  C    0.665894
 Electronic spatial extent (au):  <R**2>=           2861.8183
 Charge=              1.0000 electrons
 Dipole moment (field-independent basis, Debye):
    X=              0.0067    Y=              0.1902    Z=              0.0002  Tot=              0.1903
 Quadrupole moment (field-independent basis, Debye-Ang):
   XX=            -30.9855   YY=            -56.2612   ZZ=            -84.1904
   XY=              0.0038   XZ=              0.0061   YZ=              0.0713
 Traceless Quadrupole moment (field-independent basis, Debye-Ang):
   XX=             26.1602   YY=              0.8845   ZZ=            -27.0447
   XY=              0.0038   XZ=              0.0061   YZ=              0.0713
 Octapole moment (field-independent basis, Debye-Ang**2):
  XXX=              0.2757  YYY=              5.2075  ZZZ=             -0.0226  XYY=             -0.0030
  XXY=             -4.6937  XXZ=              0.1314  XZZ=             -0.0327  YZZ=             -3.0867
  YYZ=              0.0935  XYZ=              0.0309
 Hexadecapole moment (field-independent basis, Debye-Ang**3):
 XXXX=          -2124.8185 YYYY=           -609.2963 ZZZZ=            -99.5044 XXXY=              0.1554
 XXXZ=              0.1751 YYYX=             -0.0641 YYYZ=              0.7721 ZZZX=              0.0083
 ZZZY=              0.0352 XXYY=           -508.7483 XXZZ=           -592.3988 YYZZ=           -145.7673
 XXYZ=              0.7873 YYXZ=              0.0002 ZZXY=              0.0032
 N-N= 7.804969661405D+02 E-N=-2.797296093139D+03  KE= 5.374623429823D+02
 Unable to Open any file for archive entry.
 1\1\GINC-GADI-CPU-CLX-2542\SP\RM062X TD-FC\6-311++G(d,p)\C14H11(1+)\TS
 1578\27-Jul-2022\0\\#n M062X/6-311++G(d,p) TD(NStates=1) EmpiricalDisp
 ersion=GD3 SP\\SP_100\\1,1\C,0,0.01265,2.491455,1.360431\C,0,0.013525,
 3.706358,0.671989\C,0,0.0042,3.691911,-0.71383\C,0,-0.011575,2.469731,
 -1.407538\C,0,-0.011825,-2.470231,-1.407538\C,0,0.0027,-3.694411,-0.71
 383\C,0,0.01115,-3.707233,0.671989\C,0,0.0079,-2.492955,1.360431\C,0,0
 .0065,0.0055,1.453369\C,0,-0.0183,-0.00025,-1.429189\C,0,-0.00255,1.25
 638,0.677065\C,0,-0.008,1.238746,-0.730804\C,0,-0.002925,-1.256255,0.6
 77065\C,0,-0.007,-1.237996,-0.730804\H,0,0.0059,2.486921,2.443647\H,0,
 0.013925,4.640128,1.211689\H,0,-0.0018,4.607362,-1.272349\H,0,-0.00585
 ,2.474,-2.490059\H,0,-0.016875,-0.000125,-2.510266\H,0,-0.0051,-2.4743
 75,-2.490059\H,0,-0.00255,-4.610487,-1.272349\H,0,0.01105,-4.642003,1.
 211689\H,0,0.0004,-2.488546,2.443647\H,0,-0.835585,0.00125,2.144412\H,
 0,0.883585,0.00125,2.147162\\Version=ES64L-G16RevC.01\State=1-A\HF=-53
 9.75924\RMSD=4.603e-09\PG=C01 [X(C14H11)]\\@
 The archive entry for this job was punched.


 NO SCIENCE HAS EVER MADE MORE RAPID PROGRESS IN A
 SHORTER TIME THAN CHEMISTRY.
   -- MARTIN HEINRICH KLOPROTH, 1791
 (FIRST PROFESSOR OF CHEMISTRY AT THE UNIVERSITY OF BERLIN)
 Job cpu time:       0 days  1 hours 11 minutes  4.5 seconds.
 Elapsed time:       0 days  0 hours  2 minutes 13.6 seconds.
 File lengths (MBytes):  RWF=    460 Int=      0 D2E=      0 Chk=     15 Scr=      1
 Normal termination of Gaussian 16 at Wed Jul 27 13:18:26 2022.
