 Entering Gaussian System, Link 0=g16
 Initial command:
 /apps/gaussian/g16c01/g16/l1.exe "/jobfs/52804872.gadi-pbs/Gau-1121785.inp" -scrdir="/jobfs/52804872.gadi-pbs/"
 Entering Link 1 = /apps/gaussian/g16c01/g16/l1.exe PID=   1121786.
  
 Copyright (c) 1988-2019, Gaussian, Inc.  All Rights Reserved.
  
 This is part of the Gaussian(R) 16 program.  It is based on
 the Gaussian(R) 09 system (copyright 2009, Gaussian, Inc.),
 the Gaussian(R) 03 system (copyright 2003, Gaussian, Inc.),
 the Gaussian(R) 98 system (copyright 1998, Gaussian, Inc.),
 the Gaussian(R) 94 system (copyright 1995, Gaussian, Inc.),
 the Gaussian 92(TM) system (copyright 1992, Gaussian, Inc.),
 the Gaussian 90(TM) system (copyright 1990, Gaussian, Inc.),
 the Gaussian 88(TM) system (copyright 1988, Gaussian, Inc.),
 the Gaussian 86(TM) system (copyright 1986, Carnegie Mellon
 University), and the Gaussian 82(TM) system (copyright 1983,
 Carnegie Mellon University). Gaussian is a federally registered
 trademark of Gaussian, Inc.
  
 This software contains proprietary and confidential information,
 including trade secrets, belonging to Gaussian, Inc.
  
 This software is provided under written license and may be
 used, copied, transmitted, or stored only in accord with that
 written license.
  
 The following legend is applicable only to US Government
 contracts under FAR:
  
                    RESTRICTED RIGHTS LEGEND
  
 Use, reproduction and disclosure by the US Government is
 subject to restrictions as set forth in subparagraphs (a)
 and (c) of the Commercial Computer Software - Restricted
 Rights clause in FAR 52.227-19.
  
 Gaussian, Inc.
 340 Quinnipiac St., Bldg. 40, Wallingford CT 06492
  
  
 ---------------------------------------------------------------
 Warning -- This program may not be used in any manner that
 competes with the business of Gaussian, Inc. or will provide
 assistance to any competitor of Gaussian, Inc.  The licensee
 of this program is prohibited from giving any competitor of
 Gaussian, Inc. access to this program.  By using this program,
 the user acknowledges that Gaussian, Inc. is engaged in the
 business of creating and licensing software in the field of
 computational chemistry and represents and warrants to the
 licensee that it is not a competitor of Gaussian, Inc. and that
 it will not use this program in any manner prohibited above.
 ---------------------------------------------------------------
  

 Cite this work as:
 Gaussian 16, Revision C.01,
 M. J. Frisch, G. W. Trucks, H. B. Schlegel, G. E. Scuseria, 
 M. A. Robb, J. R. Cheeseman, G. Scalmani, V. Barone, 
 G. A. Petersson, H. Nakatsuji, X. Li, M. Caricato, A. V. Marenich, 
 J. Bloino, B. G. Janesko, R. Gomperts, B. Mennucci, H. P. Hratchian, 
 J. V. Ortiz, A. F. Izmaylov, J. L. Sonnenberg, D. Williams-Young, 
 F. Ding, F. Lipparini, F. Egidi, J. Goings, B. Peng, A. Petrone, 
 T. Henderson, D. Ranasinghe, V. G. Zakrzewski, J. Gao, N. Rega, 
 G. Zheng, W. Liang, M. Hada, M. Ehara, K. Toyota, R. Fukuda, 
 J. Hasegawa, M. Ishida, T. Nakajima, Y. Honda, O. Kitao, H. Nakai, 
 T. Vreven, K. Throssell, J. A. Montgomery, Jr., J. E. Peralta, 
 F. Ogliaro, M. J. Bearpark, J. J. Heyd, E. N. Brothers, K. N. Kudin, 
 V. N. Staroverov, T. A. Keith, R. Kobayashi, J. Normand, 
 K. Raghavachari, A. P. Rendell, J. C. Burant, S. S. Iyengar, 
 J. Tomasi, M. Cossi, J. M. Millam, M. Klene, C. Adamo, R. Cammi, 
 J. W. Ochterski, R. L. Martin, K. Morokuma, O. Farkas, 
 J. B. Foresman, and D. J. Fox, Gaussian, Inc., Wallingford CT, 2019.
 
 ******************************************
 Gaussian 16:  ES64L-G16RevC.01  3-Jul-2019
                27-Jul-2022 
 ******************************************
 %NProcShared=32
 Will use up to   32 processors via shared memory.
 %mem = 128GB
 ---------------------------------------------------------------
 #n M062X/6-311++G(d,p) TD(NStates=1) EmpiricalDispersion=GD3 SP
 ---------------------------------------------------------------
 1/38=1,172=1/1;
 2/12=2,17=6,18=5,40=1/2;
 3/5=4,6=6,7=1111,11=9,25=1,30=1,74=-55,124=31/1,2,3,8;
 4//1;
 5/5=2,38=5/2;
 8/6=1,10=2,108=1/1;
 9/41=1,42=1,70=2/14;
 6/7=2,8=2,9=2,10=2/1;
 99/5=1,9=1/99;
 -------
 SP_-125
 -------
 Symbolic Z-matrix:
 Charge =  1 Multiplicity = 1
 C                     2.46435   1.3706    0. 
 C                     3.66812   0.66678   0. 
 C                     3.6744   -0.7294    0. 
 C                     2.49435  -1.417     0. 
 C                    -2.43195  -1.3806    0. 
 C                    -3.6928   -0.6798    0. 
 C                    -3.73393   0.69498   0. 
 C                    -2.51915   1.3682    0. 
 C                    -0.01748   1.4599    0. 
 C                     0.0488   -1.4204    0. 
 C                     1.26933   0.70098   0. 
 C                     1.2577   -0.72465   0. 
 C                    -1.25473   0.67038   0. 
 C                    -1.2177   -0.71985   0. 
 H                     2.4786    2.45353   0. 
 H                     4.60292   1.20928   0. 
 H                     4.61495  -1.26218   0. 
 H                     2.48225  -2.49903   0. 
 H                     0.045    -2.50155   0. 
 H                    -2.45305  -2.46362   0. 
 H                    -4.60335  -1.26398   0. 
 H                    -4.66953   1.23228   0. 
 H                    -2.4954    2.45173   0. 
 H                    -0.064     2.154    -0.85905 
 H                    -0.064     2.154     0.85905 
 
                          Input orientation:                          
 ---------------------------------------------------------------------
 Center     Atomic      Atomic             Coordinates (Angstroms)
 Number     Number       Type             X           Y           Z
 ---------------------------------------------------------------------
      1          6           0        2.464350    1.370600    0.000000
      2          6           0        3.668125    0.666775    0.000000
      3          6           0        3.674400   -0.729400    0.000000
      4          6           0        2.494350   -1.417000    0.000000
      5          6           0       -2.431950   -1.380600    0.000000
      6          6           0       -3.692800   -0.679800    0.000000
      7          6           0       -3.733925    0.694975    0.000000
      8          6           0       -2.519150    1.368200    0.000000
      9          6           0       -0.017475    1.459900    0.000000
     10          6           0        0.048800   -1.420400    0.000000
     11          6           0        1.269325    0.700975    0.000000
     12          6           0        1.257700   -0.724650    0.000000
     13          6           0       -1.254725    0.670375    0.000000
     14          6           0       -1.217700   -0.719850    0.000000
     15          1           0        2.478600    2.453525    0.000000
     16          1           0        4.602925    1.209275    0.000000
     17          1           0        4.614950   -1.262175    0.000000
     18          1           0        2.482250   -2.499025    0.000000
     19          1           0        0.045000   -2.501550    0.000000
     20          1           0       -2.453050   -2.463625    0.000000
     21          1           0       -4.603350   -1.263975    0.000000
     22          1           0       -4.669525    1.232275    0.000000
     23          1           0       -2.495400    2.451725    0.000000
     24          1           0       -0.064000    2.154000   -0.859050
     25          1           0       -0.064000    2.154000    0.859050
 ---------------------------------------------------------------------
                    Distance matrix (angstroms):
                    1          2          3          4          5
     1  C    0.000000
     2  C    1.394433   0.000000
     3  C    2.423679   1.396189   0.000000
     4  C    2.787761   2.391624   1.365764   0.000000
     5  C    5.616303   6.434490   6.140975   4.926434   0.000000
     6  C    6.489579   7.483080   7.367367   6.230914   1.442520
     7  C    6.234989   7.402104   7.544012   6.576614   2.450133
     8  C    4.983501   6.226907   6.539112   5.735200   2.750183
     9  C    2.483431   3.769973   4.292199   3.819138   3.728020
    10  C    3.691147   4.178015   3.690861   2.445552   2.481069
    11  C    1.369848   2.399044   2.798278   2.446733   4.246456
    12  C    2.417866   2.783202   2.416705   1.417269   3.747504
    13  C    3.784420   4.922851   5.124026   4.291002   2.364817
    14  C    4.234085   5.078781   4.892109   3.776948   1.382387
    15  H    1.083019   2.146496   3.400140   3.870557   6.230090
    16  H    2.144651   1.080813   2.149563   3.367998   7.496460
    17  H    3.399498   2.148796   1.080964   2.126244   7.047895
    18  H    3.869666   3.380620   2.133728   1.082093   5.039865
    19  H    4.565830   4.813036   4.038943   2.678724   2.718788
    20  H    6.235552   6.875186   6.368138   5.056895   1.083231
    21  H    7.542769   8.493827   8.294993   7.099349   2.174530
    22  H    7.135216   8.356805   8.571421   7.638047   3.440037
    23  H    5.076214   6.416782   6.941613   6.313845   3.832850
    24  H    2.782847   4.108353   4.798708   4.476066   4.340340
    25  H    2.782847   4.108353   4.798708   4.476066   4.340340
                    6          7          8          9         10
     6  C    0.000000
     7  C    1.375390   0.000000
     8  C    2.360457   1.388852   0.000000
     9  C    4.252803   3.794352   2.503355   0.000000
    10  C    3.814192   4.334030   3.790865   2.881062   0.000000
    11  C    5.150653   5.003254   3.846782   1.493928   2.447430
    12  C    4.950703   5.189572   4.317941   2.529492   1.394814
    13  C    2.786966   2.479322   1.444206   1.467698   2.463842
    14  C    2.475424   2.886714   2.460432   2.488343   1.447340
    15  H    6.921265   6.456622   5.114238   2.686574   4.572879
    16  H    8.508094   8.352699   7.123848   4.627192   5.258825
    17  H    8.328137   8.575206   7.603569   5.372993   4.568891
    18  H    6.437455   6.988739   6.322138   4.682063   2.661787
    19  H    4.158115   4.949550   4.642179   3.961943   1.081157
    20  H    2.172329   3.408430   3.832395   4.618016   2.710640
    21  H    1.081833   2.143218   3.357415   5.333830   4.654779
    22  H    2.147096   1.078906   2.154667   4.657616   5.412881
    23  H    3.352643   2.149445   1.083785   2.669050   4.633174
    24  H    4.683650   4.041667   2.717206   1.105399   3.677911
    25  H    4.683650   4.041667   2.717206   1.105399   3.677911
                   11         12         13         14         15
    11  C    0.000000
    12  C    1.425672   0.000000
    13  C    2.524235   2.873739   0.000000
    14  C    2.864269   2.475405   1.390718   0.000000
    15  H    2.129267   3.404614   4.137311   4.871647   0.000000
    16  H    3.372130   3.864013   5.882387   6.131982   2.461893
    17  H    3.879067   3.400009   6.179631   5.857809   4.286073
    18  H    3.422161   2.155906   4.900008   4.105496   4.952551
    19  H    3.428577   2.151282   3.427885   2.183773   5.520433
    20  H    4.885772   4.098012   3.355285   2.137017   6.964161
    21  H    6.192684   5.885812   3.867169   3.429096   7.998364
    22  H    5.962568   6.241919   3.460721   3.965588   7.251699
    23  H    4.151901   4.916820   2.170825   3.419270   4.974000
    24  H    2.151047   3.281994   2.087327   3.213721   2.700462
    25  H    2.151047   3.281994   2.087327   3.213721   2.700462
                   16         17         18         19         20
    16  H    0.000000
    17  H    2.471479   0.000000
    18  H    4.271856   2.465402   0.000000
    19  H    5.877491   4.735028   2.437251   0.000000
    20  H    7.954683   7.169387   4.935427   2.498338   0.000000
    21  H    9.532705   9.218300   7.192432   4.810275   2.462306
    22  H    9.272479   9.613728   8.066628   6.014000   4.309575
    23  H    7.206240   8.021853   7.020465   5.566737   4.915532
    24  H    4.838456   5.856688   5.373267   4.735398   5.269534
    25  H    4.838456   5.856688   5.373267   4.735398   5.269534
                   21         22         23         24         25
    21  H    0.000000
    22  H    2.497127   0.000000
    23  H    4.271988   2.492765   0.000000
    24  H    5.746844   4.774767   2.595826   0.000000
    25  H    5.746844   4.774767   2.595826   1.718100   0.000000
 Stoichiometry    C14H11(1+)
 Framework group  CS[SG(C14H9),X(H2)]
 Deg. of freedom    46
 Full point group                 CS      NOp   2
 Largest Abelian subgroup         CS      NOp   2
 Largest concise Abelian subgroup CS      NOp   2
                         Standard orientation:                         
 ---------------------------------------------------------------------
 Center     Atomic      Atomic             Coordinates (Angstroms)
 Number     Number       Type             X           Y           Z
 ---------------------------------------------------------------------
      1          6           0       -2.354922   -1.544600    0.000000
      2          6           0       -2.294222   -2.937711    0.000000
      3          6           0       -1.062338   -3.594831    0.000000
      4          6           0        0.096501   -2.872056    0.000000
      5          6           0        2.363324    1.501875    0.000000
      6          6           0        2.331935    2.944053    0.000000
      7          6           0        1.135241    3.622008    0.000000
      8          6           0       -0.027090    2.861813    0.000000
      9          6           0       -1.275678    0.692063    0.000000
     10          6           0        1.240802   -0.710737    0.000000
     11          6           0       -1.204992   -0.800192    0.000000
     12          6           0        0.061291   -1.455224    0.000000
     13          6           0       -0.000000    1.417861    0.000000
     14          6           0        1.212271    0.736322    0.000000
     15          1           0       -3.319339   -1.051821    0.000000
     16          1           0       -3.210277   -3.511297    0.000000
     17          1           0       -1.030076   -4.675314    0.000000
     18          1           0        1.059118   -3.366316    0.000000
     19          1           0        2.198772   -1.211929    0.000000
     20          1           0        3.331025    1.015108    0.000000
     21          1           0        3.273531    3.476743    0.000000
     22          1           0        1.096667    4.700225    0.000000
     23          1           0       -0.996470    3.346469    0.000000
     24          1           0       -1.867845    1.057135    0.859050
     25          1           0       -1.867845    1.057135   -0.859050
 ---------------------------------------------------------------------
 Rotational constants (GHZ):           2.1373588           0.4446448           0.3688721
 Standard basis: 6-311++G(d,p) (5D, 7F)
 There are   299 symmetry adapted cartesian basis functions of A'  symmetry.
 There are   100 symmetry adapted cartesian basis functions of A"  symmetry.
 There are   285 symmetry adapted basis functions of A'  symmetry.
 There are   100 symmetry adapted basis functions of A"  symmetry.
   385 basis functions,   603 primitive gaussians,   399 cartesian basis functions
    47 alpha electrons       47 beta electrons
       nuclear repulsion energy       781.3464160595 Hartrees.
 NAtoms=   25 NActive=   25 NUniq=   24 SFac= 1.09D+00 NAtFMM=   60 NAOKFM=F Big=F
 Integral buffers will be    131072 words long.
 Regular integral format.
 Two-electron integral symmetry is turned on.
 Nuclear repulsion after empirical dispersion term =      781.3454370356 Hartrees.
 One-electron integrals computed using PRISM.
 NBasis=   385 RedAO= T EigKep=  1.11D-06  NBF=   285   100
 NBsUse=   379 1.00D-06 EigRej=  8.35D-07 NBFU=   279   100
 ExpMin= 3.60D-02 ExpMax= 4.56D+03 ExpMxC= 6.82D+02 IAcc=3 IRadAn=         5 AccDes= 0.00D+00
 Harris functional with IExCor= 1009 and IRadAn=       5 diagonalized for initial guess.
 HarFok:  IExCor= 1009 AccDes= 0.00D+00 IRadAn=         5 IDoV= 1 UseB2=F ITyADJ=14
 ICtDFT=  3500011 ScaDFX=  1.000000  1.000000  1.000000  1.000000
 FoFCou: FMM=F IPFlag=           0 FMFlag=      100000 FMFlg1=           0
         NFxFlg=           0 DoJE=T BraDBF=F KetDBF=T FulRan=T
         wScrn=  0.000000 ICntrl=       500 IOpCl=  0 I1Cent=   200000004 NGrid=           0
         NMat0=    1 NMatS0=      1 NMatT0=    0 NMatD0=    1 NMtDS0=    0 NMtDT0=    0
 Petite list used in FoFCou.
 Initial guess orbital symmetries:
       Occupied  (A') (A') (A') (A') (A') (A') (A') (A') (A') (A')
                 (A') (A') (A') (A') (A') (A') (A') (A') (A') (A')
                 (A') (A') (A') (A') (A') (A') (A') (A') (A') (A')
                 (A') (A') (A") (A') (A') (A') (A') (A') (A") (A')
                 (A") (A') (A') (A") (A") (A") (A")
       Virtual   (A") (A") (A") (A") (A") (A') (A') (A') (A') (A")
                 (A") (A') (A') (A') (A") (A') (A') (A') (A') (A")
                 (A') (A") (A') (A') (A') (A") (A') (A") (A') (A')
                 (A') (A') (A') (A') (A") (A') (A") (A') (A') (A')
                 (A") (A') (A") (A') (A') (A') (A') (A') (A") (A')
                 (A') (A') (A") (A") (A') (A') (A') (A") (A") (A')
                 (A') (A') (A') (A') (A') (A') (A") (A') (A') (A")
                 (A') (A') (A') (A') (A') (A') (A') (A') (A') (A')
                 (A') (A') (A') (A') (A') (A') (A') (A') (A') (A')
                 (A') (A') (A') (A') (A') (A') (A') (A") (A') (A")
                 (A') (A') (A") (A") (A') (A") (A') (A") (A") (A')
                 (A") (A') (A') (A') (A") (A') (A') (A") (A") (A')
                 (A") (A") (A') (A') (A') (A") (A') (A') (A') (A")
                 (A') (A') (A') (A') (A') (A') (A") (A') (A') (A')
                 (A') (A') (A') (A') (A') (A') (A') (A') (A') (A")
                 (A") (A') (A") (A") (A') (A') (A') (A") (A") (A')
                 (A") (A') (A") (A") (A") (A') (A') (A') (A') (A')
                 (A') (A") (A') (A') (A") (A') (A') (A') (A') (A")
                 (A') (A') (A') (A') (A") (A") (A') (A') (A") (A")
                 (A") (A') (A') (A") (A') (A') (A') (A") (A') (A')
                 (A") (A") (A") (A') (A') (A") (A') (A") (A') (A')
                 (A") (A") (A') (A") (A') (A") (A') (A') (A') (A")
                 (A') (A') (A') (A') (A") (A') (A') (A') (A") (A")
                 (A') (A') (A') (A") (A') (A') (A") (A') (A") (A')
                 (A") (A') (A') (A') (A') (A") (A') (A') (A') (A")
                 (A') (A') (A') (A") (A") (A') (A') (A") (A') (A')
                 (A') (A") (A') (A") (A') (A') (A') (A") (A') (A")
                 (A') (A') (A') (A') (A") (A') (A") (A') (A") (A')
                 (A") (A') (A") (A") (A") (A') (A') (A') (A') (A')
                 (A') (A') (A') (A') (A') (A') (A') (A') (A') (A')
                 (A') (A') (A') (A") (A') (A') (A') (A') (A') (A')
                 (A') (A') (A') (A') (A') (A') (A') (A') (A') (A')
                 (A') (A') (A') (A') (A') (A') (A') (A') (A') (A')
                 (A') (A')
 The electronic state of the initial guess is 1-A'.
 Requested convergence on RMS density matrix=1.00D-08 within 128 cycles.
 Requested convergence on MAX density matrix=1.00D-06.
 Requested convergence on             energy=1.00D-06.
 No special actions if energy rises.
 SCF Done:  E(RM062X) =  -539.753214252     A.U. after   16 cycles
            NFock= 16  Conv=0.33D-08     -V/T= 2.0041
 DoSCS=F DFT=T ScalE2(SS,OS)=  1.000000  1.000000
 ExpMin= 3.60D-02 ExpMax= 4.56D+03 ExpMxC= 6.82D+02 IAcc=3 IRadAn=         5 AccDes= 0.00D+00
 HarFok:  IExCor=  205 AccDes= 0.00D+00 IRadAn=         5 IDoV=-2 UseB2=F ITyADJ=14
 ICtDFT= 12500011 ScaDFX=  1.000000  1.000000  1.000000  1.000000
 Range of M.O.s used for correlation:    15   379
 NBasis=   385 NAE=    47 NBE=    47 NFC=    14 NFV=     0
 NROrb=    365 NOA=    33 NOB=    33 NVA=   332 NVB=   332

 **** Warning!!: The largest alpha MO coefficient is  0.14059278D+03

 Orbital symmetries:
       Occupied  (A') (A') (A') (A') (A') (A') (A') (A') (A') (A')
                 (A') (A') (A') (A') (A') (A') (A') (A') (A') (A')
                 (A') (A') (A') (A') (A') (A') (A') (A') (A') (A')
                 (A') (A") (A') (A') (A') (A') (A') (A") (A") (A')
                 (A') (A') (A') (A") (A") (A") (A")
       Virtual   (A") (A") (A") (A") (A') (A') (A') (A') (A") (A')
                 (A') (A") (A') (A') (A") (A') (A") (A') (A') (A')
                 (A") (A") (A') (A') (A') (A") (A') (A") (A') (A')
                 (A") (A') (A") (A') (A') (A') (A') (A') (A") (A')
                 (A") (A') (A') (A") (A") (A') (A") (A') (A") (A')
                 (A') (A') (A') (A') (A') (A") (A') (A') (A') (A')
                 (A') (A") (A') (A') (A') (A") (A') (A') (A') (A')
                 (A') (A') (A') (A') (A') (A') (A') (A') (A') (A')
                 (A') (A') (A') (A') (A') (A') (A') (A') (A') (A')
                 (A') (A') (A') (A') (A") (A') (A") (A") (A') (A")
                 (A') (A') (A') (A') (A") (A") (A') (A") (A") (A')
                 (A') (A') (A") (A') (A") (A') (A') (A") (A') (A")
                 (A") (A') (A") (A') (A') (A') (A") (A') (A') (A')
                 (A') (A') (A') (A') (A') (A') (A') (A') (A') (A')
                 (A') (A') (A') (A") (A') (A') (A') (A') (A') (A')
                 (A') (A") (A') (A') (A") (A') (A") (A") (A') (A")
                 (A") (A') (A') (A") (A") (A') (A") (A") (A') (A')
                 (A') (A') (A') (A") (A") (A') (A') (A') (A') (A")
                 (A') (A') (A') (A") (A") (A') (A') (A") (A") (A')
                 (A") (A') (A') (A") (A') (A") (A') (A') (A') (A')
                 (A") (A") (A") (A') (A") (A') (A') (A") (A') (A')
                 (A') (A") (A') (A") (A") (A') (A") (A') (A') (A")
                 (A') (A') (A') (A') (A") (A') (A') (A') (A") (A")
                 (A') (A') (A') (A") (A') (A') (A') (A") (A") (A')
                 (A") (A') (A') (A") (A') (A') (A') (A') (A') (A')
                 (A") (A') (A') (A') (A') (A") (A") (A") (A') (A')
                 (A') (A') (A') (A') (A') (A') (A') (A") (A') (A')
                 (A') (A") (A') (A") (A") (A") (A') (A") (A') (A")
                 (A') (A") (A") (A') (A") (A") (A') (A') (A') (A')
                 (A') (A') (A') (A') (A') (A') (A') (A') (A') (A')
                 (A') (A') (A') (A") (A') (A') (A') (A') (A') (A')
                 (A') (A') (A') (A') (A') (A') (A') (A') (A') (A')
                 (A') (A') (A') (A') (A') (A') (A') (A') (A') (A')
                 (A') (A')
     4 initial guesses have been made.
 Convergence on wavefunction:    0.001000000000000
 Iteration     1 Dimension     4 NMult     0 NNew      4
 CISAX will form     4 AO SS matrices at one time.
 Iteration     2 Dimension     6 NMult     4 NNew      2
 Iteration     3 Dimension     8 NMult     6 NNew      2
 Iteration     4 Dimension    10 NMult     8 NNew      2
 Iteration     5 Dimension    12 NMult    10 NNew      2
 Iteration     6 Dimension    14 NMult    12 NNew      2
 ***********************************************************************
 Excited states from <AA,BB:AA,BB> singles matrix:
 ***********************************************************************
 
 Ground to excited state transition densities written to RWF  633
 Ground to excited state transition electric dipole moments (Au):
       state          X           Y           Z        Dip. S.      Osc.
         1        -0.4546      0.3055      0.0000      0.3000      0.0195
 Ground to excited state transition velocity dipole moments (Au):
       state          X           Y           Z        Dip. S.      Osc.
         1         0.0522     -0.0296     -0.0000      0.0036      0.0246
 Ground to excited state transition magnetic dipole moments (Au):
       state          X           Y           Z
         1         0.0000     -0.0000     -0.1695
 Ground to excited state transition velocity quadrupole moments (Au):
       state          XX          YY          ZZ          XY          XZ          YZ
         1         0.1396      0.1207     -0.0082      0.1351      0.0000     -0.0000
 <0|del|b> * <b|rxdel|0> + <0|del|b> * <b|delr+rdel|0>
 Rotatory Strengths (R) in cgs (10**-40 erg-esu-cm/Gauss)
       state          XX          YY          ZZ    R(velocity)    E-M Angle
         1         0.0000      0.0000      0.0000      0.0000       90.00
 1/2[<0|r|b>*<b|rxdel|0> + (<0|rxdel|b>*<b|r|0>)*]
 Rotatory Strengths (R) in cgs (10**-40 erg-esu-cm/Gauss)
       state          XX          YY          ZZ     R(length)
         1         0.0000      0.0000      0.0000      0.0000
  1/2[<0|del|b>*<b|r|0> + (<0|r|b>*<b|del|0>)*] (Au)
       state          X           Y           Z        Dip. S.   Osc.(frdel)
         1        -0.0237     -0.0090     -0.0000      0.0328      0.0219

 Excitation energies and oscillator strengths:
 
 Excited State   1:      Singlet-A'     2.6555 eV  466.90 nm  f=0.0195  <S**2>=0.000
      47 -> 48         0.70347
 This state for optimization and/or second-order correction.
 Total Energy, E(TD-HF/TD-DFT) =  -539.655626896    
 Copying the excited state density for this state as the 1-particle RhoCI density.
 SavETr:  write IOETrn=   770 NScale= 10 NData=  16 NLR=1 NState=    1 LETran=      28.

 **********************************************************************

            Population analysis using the SCF Density.

 **********************************************************************

 Orbital symmetries:
       Occupied  (A') (A') (A') (A') (A') (A') (A') (A') (A') (A')
                 (A') (A') (A') (A') (A') (A') (A') (A') (A') (A')
                 (A') (A') (A') (A') (A') (A') (A') (A') (A') (A')
                 (A') (A") (A') (A') (A') (A') (A') (A") (A") (A')
                 (A') (A') (A') (A") (A") (A") (A")
       Virtual   (A") (A") (A") (A") (A') (A') (A') (A') (A") (A')
                 (A') (A") (A') (A') (A") (A') (A") (A') (A') (A')
                 (A") (A") (A') (A') (A') (A") (A') (A") (A') (A')
                 (A") (A') (A") (A') (A') (A') (A') (A') (A") (A')
                 (A") (A') (A') (A") (A") (A') (A") (A') (A") (A')
                 (A') (A') (A') (A') (A') (A") (A') (A') (A') (A')
                 (A') (A") (A') (A') (A') (A") (A') (A') (A') (A')
                 (A') (A') (A') (A') (A') (A') (A') (A') (A') (A')
                 (A') (A') (A') (A') (A') (A') (A') (A') (A') (A')
                 (A') (A') (A') (A') (A") (A') (A") (A") (A') (A")
                 (A') (A') (A') (A') (A") (A") (A') (A") (A") (A')
                 (A') (A') (A") (A') (A") (A') (A') (A") (A') (A")
                 (A") (A') (A") (A') (A') (A') (A") (A') (A') (A')
                 (A') (A') (A') (A') (A') (A') (A') (A') (A') (A')
                 (A') (A') (A') (A") (A') (A') (A') (A') (A') (A')
                 (A') (A") (A') (A') (A") (A') (A") (A") (A') (A")
                 (A") (A') (A') (A") (A") (A') (A") (A") (A') (A')
                 (A') (A') (A') (A") (A") (A') (A') (A') (A') (A")
                 (A') (A') (A') (A") (A") (A') (A') (A") (A") (A')
                 (A") (A') (A') (A") (A') (A") (A') (A') (A') (A')
                 (A") (A") (A") (A') (A") (A') (A') (A") (A') (A')
                 (A') (A") (A') (A") (A") (A') (A") (A') (A') (A")
                 (A') (A') (A') (A') (A") (A') (A') (A') (A") (A")
                 (A') (A') (A') (A") (A') (A') (A') (A") (A") (A')
                 (A") (A') (A') (A") (A') (A') (A') (A') (A') (A')
                 (A") (A') (A') (A') (A') (A") (A") (A") (A') (A')
                 (A') (A') (A') (A') (A') (A') (A') (A") (A') (A')
                 (A') (A") (A') (A") (A") (A") (A') (A") (A') (A")
                 (A') (A") (A") (A') (A") (A") (A') (A') (A') (A')
                 (A') (A') (A') (A') (A') (A') (A') (A') (A') (A')
                 (A') (A') (A') (A") (A') (A') (A') (A') (A') (A')
                 (A') (A') (A') (A') (A') (A') (A') (A') (A') (A')
                 (A') (A') (A') (A') (A') (A') (A') (A') (A') (A')
                 (A') (A')
 The electronic state is 1-A'.
 Alpha  occ. eigenvalues --  -10.77570 -10.73786 -10.72850 -10.72641 -10.72073
 Alpha  occ. eigenvalues --  -10.71923 -10.71882 -10.70978 -10.70793 -10.70231
 Alpha  occ. eigenvalues --  -10.70025 -10.69949 -10.69713 -10.69298  -1.16566
 Alpha  occ. eigenvalues --   -1.12484  -1.06937  -1.05888  -1.01285  -1.00450
 Alpha  occ. eigenvalues --   -0.95550  -0.91032  -0.86446  -0.85896  -0.83780
 Alpha  occ. eigenvalues --   -0.78330  -0.76162  -0.74366  -0.69793  -0.69328
 Alpha  occ. eigenvalues --   -0.68301  -0.68084  -0.68064  -0.65299  -0.64239
 Alpha  occ. eigenvalues --   -0.62746  -0.61575  -0.60469  -0.59233  -0.59164
 Alpha  occ. eigenvalues --   -0.56953  -0.55266  -0.54535  -0.52438  -0.47349
 Alpha  occ. eigenvalues --   -0.46125  -0.43751
 Alpha virt. eigenvalues --   -0.26101  -0.14668  -0.14074  -0.12759  -0.11193
 Alpha virt. eigenvalues --   -0.10097  -0.09261  -0.07959  -0.07920  -0.07485
 Alpha virt. eigenvalues --   -0.07215  -0.07136  -0.05646  -0.05575  -0.05355
 Alpha virt. eigenvalues --   -0.03853  -0.03667  -0.03273  -0.03131  -0.02155
 Alpha virt. eigenvalues --   -0.01348  -0.00959   0.00184   0.00594   0.00650
 Alpha virt. eigenvalues --    0.01066   0.01502   0.01928   0.02137   0.02303
 Alpha virt. eigenvalues --    0.02448   0.02675   0.02802   0.03222   0.03448
 Alpha virt. eigenvalues --    0.04217   0.04499   0.04723   0.05039   0.05392
 Alpha virt. eigenvalues --    0.06020   0.06291   0.06577   0.07061   0.07270
 Alpha virt. eigenvalues --    0.07907   0.08075   0.08354   0.08657   0.08907
 Alpha virt. eigenvalues --    0.09481   0.09591   0.09966   0.10821   0.10976
 Alpha virt. eigenvalues --    0.11126   0.12096   0.12252   0.12682   0.13042
 Alpha virt. eigenvalues --    0.13477   0.13523   0.13980   0.14312   0.15861
 Alpha virt. eigenvalues --    0.16345   0.16516   0.17326   0.17448   0.17773
 Alpha virt. eigenvalues --    0.18131   0.19053   0.19365   0.19688   0.19941
 Alpha virt. eigenvalues --    0.21485   0.21670   0.22670   0.23178   0.23578
 Alpha virt. eigenvalues --    0.23943   0.24514   0.25396   0.26949   0.27624
 Alpha virt. eigenvalues --    0.28875   0.29258   0.29951   0.31362   0.35788
 Alpha virt. eigenvalues --    0.36490   0.38217   0.39285   0.41044   0.41269
 Alpha virt. eigenvalues --    0.41992   0.42085   0.42983   0.43725   0.44407
 Alpha virt. eigenvalues --    0.44761   0.45148   0.45872   0.46427   0.47863
 Alpha virt. eigenvalues --    0.48385   0.48786   0.49032   0.50544   0.51137
 Alpha virt. eigenvalues --    0.51248   0.52121   0.52146   0.52771   0.54125
 Alpha virt. eigenvalues --    0.54172   0.54612   0.55620   0.55986   0.57530
 Alpha virt. eigenvalues --    0.58221   0.58990   0.61520   0.62251   0.62446
 Alpha virt. eigenvalues --    0.63160   0.63475   0.64963   0.65172   0.67537
 Alpha virt. eigenvalues --    0.70294   0.70448   0.71258   0.72540   0.72927
 Alpha virt. eigenvalues --    0.75540   0.76070   0.76451   0.76732   0.77128
 Alpha virt. eigenvalues --    0.77885   0.78047   0.78316   0.79915   0.80397
 Alpha virt. eigenvalues --    0.81245   0.81527   0.82453   0.82994   0.85272
 Alpha virt. eigenvalues --    0.87037   0.88102   0.88199   0.89342   0.90652
 Alpha virt. eigenvalues --    0.91079   0.91467   0.93326   0.94602   0.96264
 Alpha virt. eigenvalues --    0.96956   1.00114   1.01289   1.01491   1.02864
 Alpha virt. eigenvalues --    1.02902   1.03292   1.04906   1.06519   1.08933
 Alpha virt. eigenvalues --    1.19602   1.22903   1.24181   1.24183   1.29111
 Alpha virt. eigenvalues --    1.29215   1.32354   1.34242   1.35764   1.35962
 Alpha virt. eigenvalues --    1.39337   1.39593   1.40800   1.42894   1.43404
 Alpha virt. eigenvalues --    1.43486   1.44302   1.46378   1.46587   1.47035
 Alpha virt. eigenvalues --    1.47716   1.48270   1.51831   1.53694   1.55746
 Alpha virt. eigenvalues --    1.55873   1.56278   1.56588   1.57852   1.61513
 Alpha virt. eigenvalues --    1.62919   1.63355   1.64238   1.66103   1.68283
 Alpha virt. eigenvalues --    1.68418   1.68708   1.69847   1.74456   1.76048
 Alpha virt. eigenvalues --    1.77208   1.78095   1.79869   1.80003   1.80924
 Alpha virt. eigenvalues --    1.82792   1.83183   1.83648   1.83838   1.84169
 Alpha virt. eigenvalues --    1.84627   1.85411   1.86474   1.88403   1.91447
 Alpha virt. eigenvalues --    1.92192   1.94070   1.95397   1.97823   1.98176
 Alpha virt. eigenvalues --    1.99846   2.02521   2.04608   2.07328   2.11722
 Alpha virt. eigenvalues --    2.12220   2.14301   2.15278   2.19109   2.21266
 Alpha virt. eigenvalues --    2.22730   2.28407   2.30416   2.34484   2.34787
 Alpha virt. eigenvalues --    2.36388   2.38575   2.39703   2.42344   2.44387
 Alpha virt. eigenvalues --    2.46122   2.46639   2.49189   2.52987   2.53793
 Alpha virt. eigenvalues --    2.54370   2.56809   2.57944   2.58448   2.59403
 Alpha virt. eigenvalues --    2.59946   2.61539   2.62163   2.63595   2.63742
 Alpha virt. eigenvalues --    2.64857   2.65054   2.65086   2.65652   2.68022
 Alpha virt. eigenvalues --    2.68428   2.70938   2.71484   2.73388   2.74818
 Alpha virt. eigenvalues --    2.76277   2.78455   2.79653   2.83244   2.83262
 Alpha virt. eigenvalues --    2.84882   2.86311   2.92141   2.97119   2.99419
 Alpha virt. eigenvalues --    3.00189   3.05119   3.09382   3.11247   3.14327
 Alpha virt. eigenvalues --    3.20620   3.22171   3.26191   3.28999   3.30749
 Alpha virt. eigenvalues --    3.32854   3.34841   3.44033   3.46321   3.46922
 Alpha virt. eigenvalues --    3.48405   3.50115   3.56501   3.65423   3.67121
 Alpha virt. eigenvalues --    3.68014   3.93533   3.94009   3.95347   3.96568
 Alpha virt. eigenvalues --    4.03917   4.06461   4.07750   4.12524   4.35360
 Alpha virt. eigenvalues --    4.61065   4.69107   4.71119  23.45197  23.60044
 Alpha virt. eigenvalues --   23.79821  23.82084  23.84949  23.89337  23.92049
 Alpha virt. eigenvalues --   23.95227  23.96022  23.97786  24.03927  24.06680
 Alpha virt. eigenvalues --   24.11530  24.13554
          Condensed to atoms (all electrons):
               1          2          3          4          5          6
     1  C    8.327776   0.575671  -0.667297   1.679279   0.007831  -0.083226
     2  C    0.575671   7.169188   0.434812  -0.961061  -0.045332  -0.015563
     3  C   -0.667297   0.434812   6.612310   0.705111  -0.110183   0.016874
     4  C    1.679279  -0.961061   0.705111  11.495398  -0.360231  -0.140457
     5  C    0.007831  -0.045332  -0.110183  -0.360231  10.594130   0.828875
     6  C   -0.083226  -0.015563   0.016874  -0.140457   0.828875   6.597614
     7  C   -0.037572   0.000804  -0.013163   0.013591  -1.194403   0.237424
     8  C    0.410903  -0.002247  -0.107059  -0.082625   2.265197  -0.374127
     9  C   -1.186313  -0.860121   0.291433   0.046859  -0.455050   0.290500
    10  C   -1.171221   0.142341  -0.254585  -2.799137  -2.354883  -0.449775
    11  C    0.321874  -0.792483   0.878257  -0.305788  -1.410139  -0.105153
    12  C   -1.693212   0.993198  -1.328010  -1.591827  -0.201172  -0.295922
    13  C    0.180928  -0.209566  -0.233770  -1.599585  -0.315847   1.130128
    14  C   -1.156195  -0.310219  -0.108864  -0.477393  -1.595303  -1.510448
    15  H    0.365964  -0.104646  -0.003609   0.024352   0.006587   0.001255
    16  H   -0.020085   0.382611  -0.021834   0.017606  -0.001705  -0.000361
    17  H   -0.018463  -0.023162   0.381600  -0.069548   0.000096   0.000411
    18  H    0.046245   0.003646  -0.083645   0.465986   0.006541  -0.004963
    19  H   -0.043143  -0.008279   0.050947  -0.082957  -0.061282   0.051471
    20  H    0.006992   0.001999  -0.005248   0.006457   0.452361  -0.084262
    21  H   -0.001231  -0.000420   0.000380   0.000496  -0.065613   0.367017
    22  H    0.000349   0.000309  -0.000293  -0.001315   0.009656  -0.011019
    23  H    0.006943  -0.002294   0.000958   0.004546   0.029856   0.001376
    24  H    0.037906   0.015973  -0.001231  -0.011200  -0.013399  -0.001798
    25  H    0.037906   0.015973  -0.001231  -0.011200  -0.013399  -0.001798
               7          8          9         10         11         12
     1  C   -0.037572   0.410903  -1.186313  -1.171221   0.321874  -1.693212
     2  C    0.000804  -0.002247  -0.860121   0.142341  -0.792483   0.993198
     3  C   -0.013163  -0.107059   0.291433  -0.254585   0.878257  -1.328010
     4  C    0.013591  -0.082625   0.046859  -2.799137  -0.305788  -1.591827
     5  C   -1.194403   2.265197  -0.455050  -2.354883  -1.410139  -0.201172
     6  C    0.237424  -0.374127   0.290500  -0.449775  -0.105153  -0.295922
     7  C    7.176552  -0.009606  -0.769199   0.356456  -0.309906  -0.068545
     8  C   -0.009606   8.986926  -1.152694  -1.389669   0.268977  -1.037778
     9  C   -0.769199  -1.152694   9.664992   0.244683   1.683750  -2.157737
    10  C    0.356456  -1.389669   0.244683   9.155970  -0.345790   2.380458
    11  C   -0.309906   0.268977   1.683750  -0.345790  14.632004  -4.149177
    12  C   -0.068545  -1.037778  -2.157737   2.380458  -4.149177  16.319881
    13  C   -1.012893   0.286306   1.513602  -0.541242   1.057855  -4.728222
    14  C    1.767534  -2.571503  -1.737095   2.478734  -4.848766   3.063424
    15  H   -0.002954   0.004896   0.087149  -0.007547  -0.029307  -0.011290
    16  H    0.000403   0.001072   0.002078  -0.010670   0.025636  -0.030544
    17  H   -0.000368  -0.001422  -0.004733   0.019962  -0.025385   0.084336
    18  H    0.002081   0.007163  -0.022548   0.008081  -0.010298  -0.045611
    19  H   -0.007301  -0.048810   0.075085   0.422659   0.076820  -0.089370
    20  H    0.001917   0.053873  -0.026392   0.016050  -0.012140  -0.007007
    21  H   -0.006965  -0.032586  -0.006645   0.020548  -0.006295   0.005342
    22  H    0.372485  -0.016448   0.004430  -0.008000   0.002425  -0.007491
    23  H   -0.107535   0.369646   0.096549  -0.011488   0.008021   0.004629
    24  H    0.012660   0.026601   0.357250   0.005603   0.026051  -0.059348
    25  H    0.012660   0.026601   0.357250   0.005603   0.026051  -0.059348
              13         14         15         16         17         18
     1  C    0.180928  -1.156195   0.365964  -0.020085  -0.018463   0.046245
     2  C   -0.209566  -0.310219  -0.104646   0.382611  -0.023162   0.003646
     3  C   -0.233770  -0.108864  -0.003609  -0.021834   0.381600  -0.083645
     4  C   -1.599585  -0.477393   0.024352   0.017606  -0.069548   0.465986
     5  C   -0.315847  -1.595303   0.006587  -0.001705   0.000096   0.006541
     6  C    1.130128  -1.510448   0.001255  -0.000361   0.000411  -0.004963
     7  C   -1.012893   1.767534  -0.002954   0.000403  -0.000368   0.002081
     8  C    0.286306  -2.571503   0.004896   0.001072  -0.001422   0.007163
     9  C    1.513602  -1.737095   0.087149   0.002078  -0.004733  -0.022548
    10  C   -0.541242   2.478734  -0.007547  -0.010670   0.019962   0.008081
    11  C    1.057855  -4.848766  -0.029307   0.025636  -0.025385  -0.010298
    12  C   -4.728222   3.063424  -0.011290  -0.030544   0.084336  -0.045611
    13  C   14.368752  -3.317003  -0.003900   0.003459  -0.006330  -0.012388
    14  C   -3.317003  15.892471   0.007709  -0.010569   0.005180  -0.021575
    15  H   -0.003900   0.007709   0.433411  -0.008823   0.001679   0.000252
    16  H    0.003459  -0.010569  -0.008823   0.415505  -0.007108   0.001972
    17  H   -0.006330   0.005180   0.001679  -0.007108   0.419401  -0.009996
    18  H   -0.012388  -0.021575   0.000252   0.001972  -0.009996   0.447614
    19  H    0.083192  -0.043376   0.000419  -0.000608   0.001755  -0.005691
    20  H   -0.003115  -0.065534  -0.000127   0.000020  -0.000169   0.001268
    21  H   -0.027819   0.097708   0.000017  -0.000007   0.000010  -0.000117
    22  H    0.026823  -0.034104  -0.000123   0.000007  -0.000007   0.000010
    23  H   -0.034306  -0.038018   0.000577  -0.000131   0.000010  -0.000100
    24  H    0.000427  -0.060190  -0.000928   0.000624  -0.000132   0.000134
    25  H    0.000427  -0.060190  -0.000928   0.000624  -0.000132   0.000134
              19         20         21         22         23         24
     1  C   -0.043143   0.006992  -0.001231   0.000349   0.006943   0.037906
     2  C   -0.008279   0.001999  -0.000420   0.000309  -0.002294   0.015973
     3  C    0.050947  -0.005248   0.000380  -0.000293   0.000958  -0.001231
     4  C   -0.082957   0.006457   0.000496  -0.001315   0.004546  -0.011200
     5  C   -0.061282   0.452361  -0.065613   0.009656   0.029856  -0.013399
     6  C    0.051471  -0.084262   0.367017  -0.011019   0.001376  -0.001798
     7  C   -0.007301   0.001917  -0.006965   0.372485  -0.107535   0.012660
     8  C   -0.048810   0.053873  -0.032586  -0.016448   0.369646   0.026601
     9  C    0.075085  -0.026392  -0.006645   0.004430   0.096549   0.357250
    10  C    0.422659   0.016050   0.020548  -0.008000  -0.011488   0.005603
    11  C    0.076820  -0.012140  -0.006295   0.002425   0.008021   0.026051
    12  C   -0.089370  -0.007007   0.005342  -0.007491   0.004629  -0.059348
    13  C    0.083192  -0.003115  -0.027819   0.026823  -0.034306   0.000427
    14  C   -0.043376  -0.065534   0.097708  -0.034104  -0.038018  -0.060190
    15  H    0.000419  -0.000127   0.000017  -0.000123   0.000577  -0.000928
    16  H   -0.000608   0.000020  -0.000007   0.000007  -0.000131   0.000624
    17  H    0.001755  -0.000169   0.000010  -0.000007   0.000010  -0.000132
    18  H   -0.005691   0.001268  -0.000117   0.000010  -0.000100   0.000134
    19  H    0.443933  -0.006876   0.001089  -0.000467   0.000207   0.000608
    20  H   -0.006876   0.459494  -0.010380   0.001874   0.000052   0.000225
    21  H    0.001089  -0.010380   0.425083  -0.005881   0.001197  -0.000150
    22  H   -0.000467   0.001874  -0.005881   0.422513  -0.008858   0.000632
    23  H    0.000207   0.000052   0.001197  -0.008858   0.445031  -0.000864
    24  H    0.000608   0.000225  -0.000150   0.000632  -0.000864   0.493752
    25  H    0.000608   0.000225  -0.000150   0.000632  -0.000864  -0.079761
              25
     1  C    0.037906
     2  C    0.015973
     3  C   -0.001231
     4  C   -0.011200
     5  C   -0.013399
     6  C   -0.001798
     7  C    0.012660
     8  C    0.026601
     9  C    0.357250
    10  C    0.005603
    11  C    0.026051
    12  C   -0.059348
    13  C    0.000427
    14  C   -0.060190
    15  H   -0.000928
    16  H    0.000624
    17  H   -0.000132
    18  H    0.000134
    19  H    0.000608
    20  H    0.000225
    21  H   -0.000150
    22  H    0.000632
    23  H   -0.000864
    24  H   -0.079761
    25  H    0.493752
 Mulliken charges:
               1
     1  C    0.071390
     2  C   -0.401133
     3  C   -0.432661
     4  C    0.034643
     5  C   -0.003189
     6  C   -0.444075
     7  C   -0.414157
     8  C    0.118413
     9  C   -0.337087
    10  C    0.086859
    11  C   -0.657095
    12  C    0.710345
    13  C   -0.605914
    14  C    0.653588
    15  H    0.239915
    16  H    0.260829
    17  H    0.252513
    18  H    0.225804
    19  H    0.189368
    20  H    0.218443
    21  H    0.245372
    22  H    0.251857
    23  H    0.234860
    24  H    0.250556
    25  H    0.250556
 Sum of Mulliken charges =   1.00000
 Mulliken charges with hydrogens summed into heavy atoms:
               1
     1  C    0.311306
     2  C   -0.140304
     3  C   -0.180148
     4  C    0.260446
     5  C    0.215254
     6  C   -0.198703
     7  C   -0.162300
     8  C    0.353273
     9  C    0.164025
    10  C    0.276228
    11  C   -0.657095
    12  C    0.710345
    13  C   -0.605914
    14  C    0.653588
 Electronic spatial extent (au):  <R**2>=           2855.5163
 Charge=              1.0000 electrons
 Dipole moment (field-independent basis, Debye):
    X=             -0.3715    Y=             -1.0641    Z=             -0.0000  Tot=              1.1271
 Quadrupole moment (field-independent basis, Debye-Ang):
   XX=            -51.2221   YY=            -36.0658   ZZ=            -84.1302
   XY=             10.1238   XZ=              0.0000   YZ=             -0.0000
 Traceless Quadrupole moment (field-independent basis, Debye-Ang):
   XX=              5.9173   YY=             21.0735   ZZ=            -26.9908
   XY=             10.1238   XZ=              0.0000   YZ=             -0.0000
 Octapole moment (field-independent basis, Debye-Ang**2):
  XXX=             -3.6919  YYY=             -4.3394  ZZZ=             -0.0000  XYY=             -3.0612
  XXY=             -8.3017  XXZ=             -0.0000  XZZ=             -3.4808  YZZ=              0.0049
  YYZ=             -0.0000  XYZ=              0.0000
 Hexadecapole moment (field-independent basis, Debye-Ang**3):
 XXXX=           -981.0122 YYYY=          -1853.4013 ZZZZ=            -99.3066 XXXY=           -345.9334
 XXXZ=              0.0000 YYYX=           -271.4873 YYYZ=             -0.0000 ZZZX=              0.0000
 ZZZY=             -0.0000 XXYY=           -455.3996 XXZZ=           -239.5776 YYZZ=           -496.6516
 XXYZ=             -0.0000 YYXZ=              0.0000 ZZXY=           -181.5335
 N-N= 7.813454370356D+02 E-N=-2.799053146321D+03  KE= 5.375392525983D+02
 Symmetry A'   KE= 5.228848606399D+02
 Symmetry A"   KE= 1.465439195845D+01
 Unable to Open any file for archive entry.
 1\1\GINC-GADI-CPU-CLX-0648\SP\RM062X TD-FC\6-311++G(d,p)\C14H11(1+)\TS
 1578\27-Jul-2022\0\\#n M062X/6-311++G(d,p) TD(NStates=1) EmpiricalDisp
 ersion=GD3 SP\\SP_-125\\1,1\C,0,2.46435,1.3706,0.\C,0,3.668125,0.66677
 5,0.\C,0,3.6744,-0.7294,0.\C,0,2.49435,-1.417,0.\C,0,-2.43195,-1.3806,
 0.\C,0,-3.6928,-0.6798,0.\C,0,-3.733925,0.694975,0.\C,0,-2.51915,1.368
 2,0.\C,0,-0.017475,1.4599,0.\C,0,0.0488,-1.4204,0.\C,0,1.269325,0.7009
 75,0.\C,0,1.2577,-0.72465,0.\C,0,-1.254725,0.670375,0.\C,0,-1.2177,-0.
 71985,0.\H,0,2.4786,2.453525,0.\H,0,4.602925,1.209275,0.\H,0,4.61495,-
 1.262175,0.\H,0,2.48225,-2.499025,0.\H,0,0.045,-2.50155,0.\H,0,-2.4530
 5,-2.463625,0.\H,0,-4.60335,-1.263975,0.\H,0,-4.669525,1.232275,0.\H,0
 ,-2.4954,2.451725,0.\H,0,-0.064,2.154,-0.85905\H,0,-0.064,2.154,0.8590
 5\\Version=ES64L-G16RevC.01\State=1-A'\HF=-539.7532143\RMSD=3.331e-09\
 PG=CS [SG(C14H9),X(H2)]\\@
 The archive entry for this job was punched.


  DISAPPOINTMENT IS THE NURSE OF WISDOM.               
                              SIR BOYLE ROCHE                 
 Job cpu time:       0 days  0 hours 49 minutes 14.1 seconds.
 Elapsed time:       0 days  0 hours  1 minutes 33.5 seconds.
 File lengths (MBytes):  RWF=    460 Int=      0 D2E=      0 Chk=     15 Scr=      1
 Normal termination of Gaussian 16 at Wed Jul 27 10:01:09 2022.
