 Entering Gaussian System, Link 0=g16
 Initial command:
 /apps/gaussian/g16c01/g16/l1.exe "/jobfs/52804872.gadi-pbs/Gau-1432898.inp" -scrdir="/jobfs/52804872.gadi-pbs/"
 Entering Link 1 = /apps/gaussian/g16c01/g16/l1.exe PID=   1432899.
  
 Copyright (c) 1988-2019, Gaussian, Inc.  All Rights Reserved.
  
 This is part of the Gaussian(R) 16 program.  It is based on
 the Gaussian(R) 09 system (copyright 2009, Gaussian, Inc.),
 the Gaussian(R) 03 system (copyright 2003, Gaussian, Inc.),
 the Gaussian(R) 98 system (copyright 1998, Gaussian, Inc.),
 the Gaussian(R) 94 system (copyright 1995, Gaussian, Inc.),
 the Gaussian 92(TM) system (copyright 1992, Gaussian, Inc.),
 the Gaussian 90(TM) system (copyright 1990, Gaussian, Inc.),
 the Gaussian 88(TM) system (copyright 1988, Gaussian, Inc.),
 the Gaussian 86(TM) system (copyright 1986, Carnegie Mellon
 University), and the Gaussian 82(TM) system (copyright 1983,
 Carnegie Mellon University). Gaussian is a federally registered
 trademark of Gaussian, Inc.
  
 This software contains proprietary and confidential information,
 including trade secrets, belonging to Gaussian, Inc.
  
 This software is provided under written license and may be
 used, copied, transmitted, or stored only in accord with that
 written license.
  
 The following legend is applicable only to US Government
 contracts under FAR:
  
                    RESTRICTED RIGHTS LEGEND
  
 Use, reproduction and disclosure by the US Government is
 subject to restrictions as set forth in subparagraphs (a)
 and (c) of the Commercial Computer Software - Restricted
 Rights clause in FAR 52.227-19.
  
 Gaussian, Inc.
 340 Quinnipiac St., Bldg. 40, Wallingford CT 06492
  
  
 ---------------------------------------------------------------
 Warning -- This program may not be used in any manner that
 competes with the business of Gaussian, Inc. or will provide
 assistance to any competitor of Gaussian, Inc.  The licensee
 of this program is prohibited from giving any competitor of
 Gaussian, Inc. access to this program.  By using this program,
 the user acknowledges that Gaussian, Inc. is engaged in the
 business of creating and licensing software in the field of
 computational chemistry and represents and warrants to the
 licensee that it is not a competitor of Gaussian, Inc. and that
 it will not use this program in any manner prohibited above.
 ---------------------------------------------------------------
  

 Cite this work as:
 Gaussian 16, Revision C.01,
 M. J. Frisch, G. W. Trucks, H. B. Schlegel, G. E. Scuseria, 
 M. A. Robb, J. R. Cheeseman, G. Scalmani, V. Barone, 
 G. A. Petersson, H. Nakatsuji, X. Li, M. Caricato, A. V. Marenich, 
 J. Bloino, B. G. Janesko, R. Gomperts, B. Mennucci, H. P. Hratchian, 
 J. V. Ortiz, A. F. Izmaylov, J. L. Sonnenberg, D. Williams-Young, 
 F. Ding, F. Lipparini, F. Egidi, J. Goings, B. Peng, A. Petrone, 
 T. Henderson, D. Ranasinghe, V. G. Zakrzewski, J. Gao, N. Rega, 
 G. Zheng, W. Liang, M. Hada, M. Ehara, K. Toyota, R. Fukuda, 
 J. Hasegawa, M. Ishida, T. Nakajima, Y. Honda, O. Kitao, H. Nakai, 
 T. Vreven, K. Throssell, J. A. Montgomery, Jr., J. E. Peralta, 
 F. Ogliaro, M. J. Bearpark, J. J. Heyd, E. N. Brothers, K. N. Kudin, 
 V. N. Staroverov, T. A. Keith, R. Kobayashi, J. Normand, 
 K. Raghavachari, A. P. Rendell, J. C. Burant, S. S. Iyengar, 
 J. Tomasi, M. Cossi, J. M. Millam, M. Klene, C. Adamo, R. Cammi, 
 J. W. Ochterski, R. L. Martin, K. Morokuma, O. Farkas, 
 J. B. Foresman, and D. J. Fox, Gaussian, Inc., Wallingford CT, 2019.
 
 ******************************************
 Gaussian 16:  ES64L-G16RevC.01  3-Jul-2019
                27-Jul-2022 
 ******************************************
 %NProcShared=32
 Will use up to   32 processors via shared memory.
 %mem = 128GB
 ---------------------------------------------------------------
 #n M062X/6-311++G(d,p) TD(NStates=1) EmpiricalDispersion=GD3 SP
 ---------------------------------------------------------------
 1/38=1,172=1/1;
 2/12=2,17=6,18=5,40=1/2;
 3/5=4,6=6,7=1111,11=9,25=1,30=1,74=-55,124=31/1,2,3,8;
 4//1;
 5/5=2,38=5/2;
 8/6=1,10=2,108=1/1;
 9/41=1,42=1,70=2/14;
 6/7=2,8=2,9=2,10=2/1;
 99/5=1,9=1/99;
 ----
 SP_0
 ----
 Symbolic Z-matrix:
 Charge =  1 Multiplicity = 1
 C                     2.50745   1.3691    0. 
 C                     3.72088   0.68995   0. 
 C                     3.6889   -0.68835   0. 
 C                     2.44358  -1.38728   0. 
 C                    -2.48258  -1.41003   0. 
 C                    -3.6774   -0.71935   0. 
 C                    -3.67975   0.67233   0. 
 C                    -2.4732    1.3706    0. 
 C                     0.011     1.4566    0. 
 C                    -0.0305   -1.42025   0. 
 C                     1.25735   0.67608   0. 
 C                     1.2255   -0.72098   0. 
 C                    -1.26648   0.6952    0. 
 C                    -1.2505   -0.72398   0. 
 H                     2.4906    2.45255   0. 
 H                     4.65618   1.22853   0. 
 H                     4.6053   -1.2627    0. 
 H                     2.45875  -2.47015   0. 
 H                    -0.02813  -2.50148   0. 
 H                    -2.477    -2.49227   0. 
 H                    -4.61255  -1.26158   0. 
 H                    -4.61455   1.21415   0. 
 H                    -2.4801    2.45368   0. 
 H                     0.04      2.15325  -0.85823 
 H                     0.04      2.15325   0.85823 
 
                          Input orientation:                          
 ---------------------------------------------------------------------
 Center     Atomic      Atomic             Coordinates (Angstroms)
 Number     Number       Type             X           Y           Z
 ---------------------------------------------------------------------
      1          6           0        2.507450    1.369100    0.000000
      2          6           0        3.720875    0.689950    0.000000
      3          6           0        3.688900   -0.688350    0.000000
      4          6           0        2.443575   -1.387275    0.000000
      5          6           0       -2.482575   -1.410025    0.000000
      6          6           0       -3.677400   -0.719350    0.000000
      7          6           0       -3.679750    0.672325    0.000000
      8          6           0       -2.473200    1.370600    0.000000
      9          6           0        0.011000    1.456600    0.000000
     10          6           0       -0.030500   -1.420250    0.000000
     11          6           0        1.257350    0.676075    0.000000
     12          6           0        1.225500   -0.720975    0.000000
     13          6           0       -1.266475    0.695200    0.000000
     14          6           0       -1.250500   -0.723975    0.000000
     15          1           0        2.490600    2.452550    0.000000
     16          1           0        4.656175    1.228525    0.000000
     17          1           0        4.605300   -1.262700    0.000000
     18          1           0        2.458750   -2.470150    0.000000
     19          1           0       -0.028125   -2.501475    0.000000
     20          1           0       -2.477000   -2.492275    0.000000
     21          1           0       -4.612550   -1.261575    0.000000
     22          1           0       -4.614550    1.214150    0.000000
     23          1           0       -2.480100    2.453675    0.000000
     24          1           0        0.040000    2.153250   -0.858225
     25          1           0        0.040000    2.153250    0.858225
 ---------------------------------------------------------------------
                    Distance matrix (angstroms):
                    1          2          3          4          5
     1  C    0.000000
     2  C    1.390556   0.000000
     3  C    2.372535   1.378671   0.000000
     4  C    2.757115   2.438516   1.428051   0.000000
     5  C    5.711732   6.549251   6.213527   4.926203   0.000000
     6  C    6.527939   7.531308   7.366365   6.157309   1.380086
     7  C    6.226310   7.400646   7.493226   6.460423   2.401960
     8  C    4.980650   6.231360   6.496980   5.637424   2.780641
     9  C    2.497983   3.788261   4.257671   3.742332   3.799402
    10  C    3.771162   4.304156   3.790727   2.474295   2.452096
    11  C    1.429347   2.463564   2.788206   2.380030   4.282389
    12  C    2.451899   2.866637   2.463616   1.388403   3.771553
    13  C    3.833621   4.987353   5.144896   4.254547   2.431228
    14  C    4.301529   5.168535   4.939528   3.753153   1.410203
    15  H    1.083581   2.149497   3.361722   3.840113   6.296980
    16  H    2.153318   1.079282   2.147098   3.426078   7.610762
    17  H    3.365612   2.143607   1.081511   2.165312   7.089406
    18  H    3.839559   3.402821   2.165198   1.082981   5.053767
    19  H    4.627147   4.923433   4.135662   2.711225   2.686185
    20  H    6.305153   6.967080   6.424365   5.043122   1.082264
    21  H    7.590445   8.558880   8.321217   7.057245   2.135142
    22  H    7.123685   8.351892   8.518614   7.522270   3.381067
    23  H    5.104112   6.446923   6.923069   6.244635   3.863701
    24  H    2.727591   4.052979   4.703798   4.364521   4.449367
    25  H    2.727591   4.052979   4.703798   4.364521   4.449367
                    6          7          8          9         10
     6  C    0.000000
     7  C    1.391677   0.000000
     8  C    2.412051   1.394041   0.000000
     9  C    4.282412   3.773158   2.485688   0.000000
    10  C    3.713642   4.206649   3.708858   2.877149   0.000000
    11  C    5.128252   4.937101   3.794650   1.470581   2.460312
    12  C    4.902900   5.099290   4.249126   2.493360   1.437540
    13  C    2.795266   2.413383   1.382878   1.487169   2.450054
    14  C    2.426904   2.801947   2.425333   2.519184   1.404706
    15  H    6.935789   6.422026   5.080347   2.672140   4.621096
    16  H    8.558194   8.354460   7.130791   4.650771   5.383394
    17  H    8.300503   8.508018   7.552445   5.338744   4.638476
    18  H    6.381037   6.896110   6.251039   4.627185   2.701602
    19  H    4.061179   4.838117   4.579449   3.958268   1.081228
    20  H    2.141080   3.385454   3.862877   4.667307   2.671067
    21  H    1.080978   2.147111   3.391926   5.363366   4.584797
    22  H    2.148644   1.080475   2.147058   4.631900   5.287114
    23  H    3.391403   2.147642   1.083097   2.683233   4.583430
    24  H    4.775714   4.094659   2.768622   1.105763   3.675789
    25  H    4.775714   4.094659   2.768622   1.105763   3.675789
                   11         12         13         14         15
    11  C    0.000000
    12  C    1.397413   0.000000
    13  C    2.523897   2.866268   0.000000
    14  C    2.872186   2.476002   1.419265   0.000000
    15  H    2.162584   3.416393   4.147757   4.907763   0.000000
    16  H    3.443430   3.945894   5.946614   6.221018   2.487560
    17  H    3.868801   3.422939   6.189597   5.880529   4.274931
    18  H    3.367803   2.140215   4.888429   4.099715   4.922803
    19  H    3.427721   2.177557   3.428154   2.157245   5.557548
    20  H    4.897327   4.104389   3.409599   2.152019   7.009161
    21  H    6.181441   5.863026   3.876234   3.404760   8.015576
    22  H    5.896502   6.152308   3.388055   3.882417   7.212267
    23  H    4.138646   4.879536   2.136614   3.407253   4.970700
    24  H    2.097746   3.225388   2.137601   3.268083   2.613727
    25  H    2.097746   3.225388   2.137601   3.268083   2.613727
                   16         17         18         19         20
    16  H    0.000000
    17  H    2.491744   0.000000
    18  H    4.302194   2.462846   0.000000
    19  H    5.987952   4.796164   2.487072   0.000000
    20  H    8.045280   7.188242   4.935800   2.448892   0.000000
    21  H    9.597388   9.217850   7.173837   4.749137   2.464791
    22  H    9.270736   9.546749   7.975314   5.902640   4.278634
    23  H    7.240678   8.000896   6.973972   5.528625   4.945951
    24  H    4.785472   5.766041   5.287980   4.733673   5.352826
    25  H    4.785472   5.766041   5.287980   4.733673   5.352826
                   21         22         23         24         25
    21  H    0.000000
    22  H    2.475726   0.000000
    23  H    4.283740   2.468258   0.000000
    24  H    5.834707   4.825277   2.679125   0.000000
    25  H    5.834707   4.825277   2.679125   1.716450   0.000000
 Stoichiometry    C14H11(1+)
 Framework group  CS[SG(C14H9),X(H2)]
 Deg. of freedom    46
 Full point group                 CS      NOp   2
 Largest Abelian subgroup         CS      NOp   2
 Largest concise Abelian subgroup CS      NOp   2
                         Standard orientation:                         
 ---------------------------------------------------------------------
 Center     Atomic      Atomic             Coordinates (Angstroms)
 Number     Number       Type             X           Y           Z
 ---------------------------------------------------------------------
      1          6           0        2.411540    1.523215    0.000000
      2          6           0        2.411540    2.913771    0.000000
      3          6           0        1.193193    3.559033    0.000000
      4          6           0       -0.024921    2.813695    0.000000
      5          6           0       -2.450714   -1.473845    0.000000
      6          6           0       -2.431573   -2.853799    0.000000
      7          6           0       -1.218319   -3.535546    0.000000
      8          6           0       -0.019710   -2.823727    0.000000
      9          6           0        1.268624   -0.697970    0.000000
     10          6           0       -1.262038    0.670876    0.000000
     11          6           0        1.196243    0.770829    0.000000
     12          6           0       -0.038405    1.425358    0.000000
     13          6           0       -0.019710   -1.440849    0.000000
     14          6           0       -1.250306   -0.733781    0.000000
     15          1           0        3.348750    0.979352    0.000000
     16          1           0        3.338313    3.466890    0.000000
     17          1           0        1.139576    4.639214    0.000000
     18          1           0       -0.962447    3.355815    0.000000
     19          1           0       -2.204376    1.201021    0.000000
     20          1           0       -3.392383   -0.940407    0.000000
     21          1           0       -3.361458   -3.405004    0.000000
     22          1           0       -1.202070   -4.615898    0.000000
     23          1           0        0.922032   -3.358724    0.000000
     24          1           0        1.890697   -1.012909    0.858225
     25          1           0        1.890697   -1.012909   -0.858225
 ---------------------------------------------------------------------
 Rotational constants (GHZ):           2.1381805           0.4448552           0.3690399
 Standard basis: 6-311++G(d,p) (5D, 7F)
 There are   299 symmetry adapted cartesian basis functions of A'  symmetry.
 There are   100 symmetry adapted cartesian basis functions of A"  symmetry.
 There are   285 symmetry adapted basis functions of A'  symmetry.
 There are   100 symmetry adapted basis functions of A"  symmetry.
   385 basis functions,   603 primitive gaussians,   399 cartesian basis functions
    47 alpha electrons       47 beta electrons
       nuclear repulsion energy       781.4625089602 Hartrees.
 NAtoms=   25 NActive=   25 NUniq=   24 SFac= 1.09D+00 NAtFMM=   60 NAOKFM=F Big=F
 Integral buffers will be    131072 words long.
 Regular integral format.
 Two-electron integral symmetry is turned on.
 Nuclear repulsion after empirical dispersion term =      781.4615297186 Hartrees.
 One-electron integrals computed using PRISM.
 NBasis=   385 RedAO= T EigKep=  1.11D-06  NBF=   285   100
 NBsUse=   379 1.00D-06 EigRej=  8.34D-07 NBFU=   279   100
 ExpMin= 3.60D-02 ExpMax= 4.56D+03 ExpMxC= 6.82D+02 IAcc=3 IRadAn=         5 AccDes= 0.00D+00
 Harris functional with IExCor= 1009 and IRadAn=       5 diagonalized for initial guess.
 HarFok:  IExCor= 1009 AccDes= 0.00D+00 IRadAn=         5 IDoV= 1 UseB2=F ITyADJ=14
 ICtDFT=  3500011 ScaDFX=  1.000000  1.000000  1.000000  1.000000
 FoFCou: FMM=F IPFlag=           0 FMFlag=      100000 FMFlg1=           0
         NFxFlg=           0 DoJE=T BraDBF=F KetDBF=T FulRan=T
         wScrn=  0.000000 ICntrl=       500 IOpCl=  0 I1Cent=   200000004 NGrid=           0
         NMat0=    1 NMatS0=      1 NMatT0=    0 NMatD0=    1 NMtDS0=    0 NMtDT0=    0
 Petite list used in FoFCou.
 Initial guess orbital symmetries:
       Occupied  (A') (A') (A') (A') (A') (A') (A') (A') (A') (A')
                 (A') (A') (A') (A') (A') (A') (A') (A') (A') (A')
                 (A') (A') (A') (A') (A') (A') (A') (A') (A') (A')
                 (A') (A') (A") (A') (A') (A') (A') (A') (A") (A')
                 (A") (A') (A') (A") (A") (A") (A")
       Virtual   (A") (A") (A") (A") (A") (A') (A') (A') (A') (A")
                 (A") (A') (A') (A') (A") (A') (A') (A') (A') (A")
                 (A') (A") (A') (A') (A') (A") (A') (A") (A') (A')
                 (A') (A') (A') (A") (A') (A') (A") (A') (A') (A')
                 (A") (A') (A') (A") (A') (A') (A') (A') (A') (A")
                 (A') (A') (A") (A") (A') (A') (A') (A") (A") (A')
                 (A') (A') (A') (A') (A') (A") (A') (A') (A') (A")
                 (A') (A') (A') (A') (A') (A') (A') (A') (A') (A')
                 (A') (A') (A') (A') (A') (A') (A') (A') (A') (A')
                 (A') (A') (A') (A') (A') (A') (A') (A") (A') (A")
                 (A') (A') (A") (A") (A') (A") (A') (A") (A") (A')
                 (A") (A') (A') (A') (A") (A') (A') (A") (A") (A')
                 (A") (A") (A') (A') (A') (A") (A') (A') (A') (A")
                 (A') (A') (A') (A') (A') (A') (A") (A') (A') (A')
                 (A') (A') (A') (A') (A') (A') (A') (A') (A') (A")
                 (A") (A') (A") (A") (A') (A') (A') (A") (A") (A')
                 (A") (A') (A") (A") (A") (A') (A') (A') (A') (A')
                 (A') (A") (A') (A") (A') (A') (A') (A') (A') (A")
                 (A') (A') (A') (A') (A") (A') (A") (A') (A") (A")
                 (A') (A") (A') (A") (A') (A') (A') (A") (A') (A')
                 (A") (A") (A") (A') (A') (A") (A') (A") (A') (A')
                 (A") (A") (A') (A") (A') (A") (A') (A') (A') (A")
                 (A') (A') (A') (A') (A") (A') (A') (A') (A") (A")
                 (A') (A') (A') (A") (A') (A') (A") (A') (A") (A')
                 (A") (A') (A') (A') (A') (A") (A') (A') (A') (A")
                 (A') (A') (A") (A') (A") (A') (A') (A") (A') (A')
                 (A') (A") (A') (A") (A') (A') (A') (A") (A') (A")
                 (A') (A') (A') (A') (A") (A') (A") (A') (A") (A')
                 (A") (A') (A") (A") (A") (A') (A') (A') (A') (A')
                 (A') (A') (A') (A') (A') (A') (A') (A') (A') (A')
                 (A') (A') (A') (A") (A') (A') (A') (A') (A') (A')
                 (A') (A') (A') (A') (A') (A') (A') (A') (A') (A')
                 (A') (A') (A') (A') (A') (A') (A') (A') (A') (A')
                 (A') (A')
 The electronic state of the initial guess is 1-A'.
 Requested convergence on RMS density matrix=1.00D-08 within 128 cycles.
 Requested convergence on MAX density matrix=1.00D-06.
 Requested convergence on             energy=1.00D-06.
 No special actions if energy rises.
 SCF Done:  E(RM062X) =  -539.757398691     A.U. after   15 cycles
            NFock= 15  Conv=0.81D-08     -V/T= 2.0041
 DoSCS=F DFT=T ScalE2(SS,OS)=  1.000000  1.000000
 ExpMin= 3.60D-02 ExpMax= 4.56D+03 ExpMxC= 6.82D+02 IAcc=3 IRadAn=         5 AccDes= 0.00D+00
 HarFok:  IExCor=  205 AccDes= 0.00D+00 IRadAn=         5 IDoV=-2 UseB2=F ITyADJ=14
 ICtDFT= 12500011 ScaDFX=  1.000000  1.000000  1.000000  1.000000
 Range of M.O.s used for correlation:    15   379
 NBasis=   385 NAE=    47 NBE=    47 NFC=    14 NFV=     0
 NROrb=    365 NOA=    33 NOB=    33 NVA=   332 NVB=   332

 **** Warning!!: The largest alpha MO coefficient is  0.13825247D+03

 Orbital symmetries:
       Occupied  (A') (A') (A') (A') (A') (A') (A') (A') (A') (A')
                 (A') (A') (A') (A') (A') (A') (A') (A') (A') (A')
                 (A') (A') (A') (A') (A') (A') (A') (A') (A') (A')
                 (A') (A') (A") (A') (A') (A') (A') (A") (A") (A')
                 (A') (A') (A') (A") (A") (A") (A")
       Virtual   (A") (A") (A") (A") (A') (A') (A') (A') (A") (A')
                 (A') (A") (A') (A') (A") (A') (A") (A') (A') (A')
                 (A") (A") (A') (A') (A') (A") (A') (A") (A') (A')
                 (A") (A') (A") (A') (A') (A') (A') (A') (A") (A')
                 (A") (A') (A') (A") (A") (A') (A") (A') (A") (A')
                 (A') (A') (A') (A') (A') (A") (A') (A') (A') (A')
                 (A') (A") (A') (A') (A') (A") (A') (A') (A') (A')
                 (A') (A') (A') (A') (A') (A') (A') (A') (A') (A')
                 (A') (A') (A') (A') (A') (A') (A') (A') (A') (A')
                 (A') (A') (A') (A') (A") (A') (A") (A") (A') (A")
                 (A') (A') (A') (A') (A") (A") (A') (A") (A") (A')
                 (A') (A') (A") (A') (A') (A") (A') (A") (A') (A")
                 (A") (A') (A") (A') (A') (A') (A") (A') (A') (A')
                 (A') (A') (A') (A') (A') (A') (A') (A') (A') (A')
                 (A') (A') (A') (A") (A') (A') (A') (A') (A') (A')
                 (A') (A') (A") (A') (A") (A') (A") (A") (A') (A")
                 (A") (A') (A') (A") (A") (A") (A') (A") (A') (A')
                 (A') (A') (A') (A") (A") (A') (A') (A') (A') (A")
                 (A') (A') (A') (A") (A") (A') (A') (A") (A') (A")
                 (A") (A') (A') (A") (A') (A") (A') (A') (A') (A')
                 (A") (A") (A") (A') (A") (A') (A') (A") (A') (A')
                 (A') (A") (A') (A") (A") (A') (A") (A') (A') (A")
                 (A') (A') (A') (A') (A") (A') (A') (A') (A") (A")
                 (A') (A') (A') (A") (A') (A') (A') (A") (A") (A')
                 (A") (A') (A') (A") (A') (A') (A') (A') (A') (A')
                 (A") (A') (A') (A') (A') (A") (A") (A") (A') (A')
                 (A') (A') (A') (A') (A') (A') (A') (A") (A') (A')
                 (A') (A") (A') (A") (A") (A") (A') (A") (A') (A")
                 (A') (A") (A") (A') (A") (A") (A') (A') (A') (A')
                 (A') (A') (A') (A') (A') (A') (A') (A') (A') (A')
                 (A') (A') (A') (A") (A') (A') (A') (A') (A') (A')
                 (A') (A') (A') (A') (A') (A') (A') (A') (A') (A')
                 (A') (A') (A') (A') (A') (A') (A') (A') (A') (A')
                 (A') (A')
     4 initial guesses have been made.
 Convergence on wavefunction:    0.001000000000000
 Iteration     1 Dimension     4 NMult     0 NNew      4
 CISAX will form     4 AO SS matrices at one time.
 Iteration     2 Dimension     6 NMult     4 NNew      2
 Iteration     3 Dimension     8 NMult     6 NNew      2
 Iteration     4 Dimension    10 NMult     8 NNew      2
 Iteration     5 Dimension    12 NMult    10 NNew      2
 Iteration     6 Dimension    14 NMult    12 NNew      2
 ***********************************************************************
 Excited states from <AA,BB:AA,BB> singles matrix:
 ***********************************************************************
 
 Ground to excited state transition densities written to RWF  633
 Ground to excited state transition electric dipole moments (Au):
       state          X           Y           Z        Dip. S.      Osc.
         1         0.5325     -0.2598     -0.0000      0.3510      0.0236
 Ground to excited state transition velocity dipole moments (Au):
       state          X           Y           Z        Dip. S.      Osc.
         1        -0.0586      0.0323     -0.0000      0.0045      0.0296
 Ground to excited state transition magnetic dipole moments (Au):
       state          X           Y           Z
         1        -0.0000     -0.0000      0.1511
 Ground to excited state transition velocity quadrupole moments (Au):
       state          XX          YY          ZZ          XY          XZ          YZ
         1         0.0259      0.2667     -0.0089      0.0638      0.0000      0.0000
 <0|del|b> * <b|rxdel|0> + <0|del|b> * <b|delr+rdel|0>
 Rotatory Strengths (R) in cgs (10**-40 erg-esu-cm/Gauss)
       state          XX          YY          ZZ    R(velocity)    E-M Angle
         1        -0.0000     -0.0000      0.0000     -0.0000       90.00
 1/2[<0|r|b>*<b|rxdel|0> + (<0|rxdel|b>*<b|r|0>)*]
 Rotatory Strengths (R) in cgs (10**-40 erg-esu-cm/Gauss)
       state          XX          YY          ZZ     R(length)
         1         0.0000     -0.0000      0.0000     -0.0000
  1/2[<0|del|b>*<b|r|0> + (<0|r|b>*<b|del|0>)*] (Au)
       state          X           Y           Z        Dip. S.   Osc.(frdel)
         1        -0.0312     -0.0084      0.0000      0.0396      0.0264

 Excitation energies and oscillator strengths:
 
 Excited State   1:      Singlet-A'     2.7460 eV  451.51 nm  f=0.0236  <S**2>=0.000
      47 -> 48         0.70368
 This state for optimization and/or second-order correction.
 Total Energy, E(TD-HF/TD-DFT) =  -539.656485556    
 Copying the excited state density for this state as the 1-particle RhoCI density.
 SavETr:  write IOETrn=   770 NScale= 10 NData=  16 NLR=1 NState=    1 LETran=      28.

 **********************************************************************

            Population analysis using the SCF Density.

 **********************************************************************

 Orbital symmetries:
       Occupied  (A') (A') (A') (A') (A') (A') (A') (A') (A') (A')
                 (A') (A') (A') (A') (A') (A') (A') (A') (A') (A')
                 (A') (A') (A') (A') (A') (A') (A') (A') (A') (A')
                 (A') (A') (A") (A') (A') (A') (A') (A") (A") (A')
                 (A') (A') (A') (A") (A") (A") (A")
       Virtual   (A") (A") (A") (A") (A') (A') (A') (A') (A") (A')
                 (A') (A") (A') (A') (A") (A') (A") (A') (A') (A')
                 (A") (A") (A') (A') (A') (A") (A') (A") (A') (A')
                 (A") (A') (A") (A') (A') (A') (A') (A') (A") (A')
                 (A") (A') (A') (A") (A") (A') (A") (A') (A") (A')
                 (A') (A') (A') (A') (A') (A") (A') (A') (A') (A')
                 (A') (A") (A') (A') (A') (A") (A') (A') (A') (A')
                 (A') (A') (A') (A') (A') (A') (A') (A') (A') (A')
                 (A') (A') (A') (A') (A') (A') (A') (A') (A') (A')
                 (A') (A') (A') (A') (A") (A') (A") (A") (A') (A")
                 (A') (A') (A') (A') (A") (A") (A') (A") (A") (A')
                 (A') (A') (A") (A') (A') (A") (A') (A") (A') (A")
                 (A") (A') (A") (A') (A') (A') (A") (A') (A') (A')
                 (A') (A') (A') (A') (A') (A') (A') (A') (A') (A')
                 (A') (A') (A') (A") (A') (A') (A') (A') (A') (A')
                 (A') (A') (A") (A') (A") (A') (A") (A") (A') (A")
                 (A") (A') (A') (A") (A") (A") (A') (A") (A') (A')
                 (A') (A') (A') (A") (A") (A') (A') (A') (A') (A")
                 (A') (A') (A') (A") (A") (A') (A') (A") (A') (A")
                 (A") (A') (A') (A") (A') (A") (A') (A') (A') (A')
                 (A") (A") (A") (A') (A") (A') (A') (A") (A') (A')
                 (A') (A") (A') (A") (A") (A') (A") (A') (A') (A")
                 (A') (A') (A') (A') (A") (A') (A') (A') (A") (A")
                 (A') (A') (A') (A") (A') (A') (A') (A") (A") (A')
                 (A") (A') (A') (A") (A') (A') (A') (A') (A') (A')
                 (A") (A') (A') (A') (A') (A") (A") (A") (A') (A')
                 (A') (A') (A') (A') (A') (A') (A') (A") (A') (A')
                 (A') (A") (A') (A") (A") (A") (A') (A") (A') (A")
                 (A') (A") (A") (A') (A") (A") (A') (A') (A') (A')
                 (A') (A') (A') (A') (A') (A') (A') (A') (A') (A')
                 (A') (A') (A') (A") (A') (A') (A') (A') (A') (A')
                 (A') (A') (A') (A') (A') (A') (A') (A') (A') (A')
                 (A') (A') (A') (A') (A') (A') (A') (A') (A') (A')
                 (A') (A')
 The electronic state is 1-A'.
 Alpha  occ. eigenvalues --  -10.77620 -10.73561 -10.72843 -10.72698 -10.72116
 Alpha  occ. eigenvalues --  -10.71697 -10.71668 -10.71011 -10.70964 -10.70383
 Alpha  occ. eigenvalues --  -10.70133 -10.69826 -10.69809 -10.69415  -1.16518
 Alpha  occ. eigenvalues --   -1.12491  -1.06941  -1.05835  -1.01303  -1.00325
 Alpha  occ. eigenvalues --   -0.95682  -0.91058  -0.86433  -0.85909  -0.83811
 Alpha  occ. eigenvalues --   -0.78376  -0.76107  -0.74399  -0.69651  -0.69286
 Alpha  occ. eigenvalues --   -0.68425  -0.68148  -0.68087  -0.65012  -0.64265
 Alpha  occ. eigenvalues --   -0.62941  -0.61758  -0.60236  -0.59436  -0.59117
 Alpha  occ. eigenvalues --   -0.56935  -0.55247  -0.54718  -0.52435  -0.46959
 Alpha  occ. eigenvalues --   -0.46096  -0.44144
 Alpha virt. eigenvalues --   -0.26083  -0.14672  -0.14087  -0.12766  -0.11185
 Alpha virt. eigenvalues --   -0.10094  -0.09242  -0.07973  -0.07944  -0.07480
 Alpha virt. eigenvalues --   -0.07211  -0.07143  -0.05643  -0.05580  -0.05343
 Alpha virt. eigenvalues --   -0.03837  -0.03655  -0.03278  -0.03130  -0.02160
 Alpha virt. eigenvalues --   -0.01362  -0.00942   0.00184   0.00594   0.00673
 Alpha virt. eigenvalues --    0.01062   0.01507   0.01932   0.02181   0.02293
 Alpha virt. eigenvalues --    0.02450   0.02674   0.02772   0.03237   0.03408
 Alpha virt. eigenvalues --    0.04229   0.04506   0.04704   0.05032   0.05375
 Alpha virt. eigenvalues --    0.06026   0.06298   0.06591   0.07060   0.07256
 Alpha virt. eigenvalues --    0.07900   0.08129   0.08365   0.08600   0.08920
 Alpha virt. eigenvalues --    0.09517   0.09583   0.10018   0.10864   0.11033
 Alpha virt. eigenvalues --    0.11116   0.12150   0.12256   0.12808   0.13028
 Alpha virt. eigenvalues --    0.13446   0.13522   0.14011   0.14348   0.16045
 Alpha virt. eigenvalues --    0.16316   0.16463   0.17339   0.17560   0.17791
 Alpha virt. eigenvalues --    0.18132   0.19041   0.19313   0.19649   0.19833
 Alpha virt. eigenvalues --    0.21536   0.21649   0.22714   0.23131   0.23573
 Alpha virt. eigenvalues --    0.23831   0.24530   0.25299   0.26933   0.27620
 Alpha virt. eigenvalues --    0.28873   0.29290   0.29919   0.31373   0.35839
 Alpha virt. eigenvalues --    0.36474   0.38195   0.39285   0.41121   0.41349
 Alpha virt. eigenvalues --    0.41998   0.42135   0.42982   0.43724   0.44343
 Alpha virt. eigenvalues --    0.44835   0.45114   0.45971   0.46322   0.47884
 Alpha virt. eigenvalues --    0.48474   0.48855   0.49018   0.50481   0.51219
 Alpha virt. eigenvalues --    0.51416   0.51965   0.52126   0.52867   0.54062
 Alpha virt. eigenvalues --    0.54101   0.54659   0.55655   0.55856   0.57418
 Alpha virt. eigenvalues --    0.58234   0.58886   0.61483   0.62192   0.62394
 Alpha virt. eigenvalues --    0.63200   0.63489   0.65014   0.65168   0.67439
 Alpha virt. eigenvalues --    0.70356   0.70499   0.71141   0.72475   0.72904
 Alpha virt. eigenvalues --    0.75656   0.76058   0.76375   0.76819   0.77122
 Alpha virt. eigenvalues --    0.77870   0.77975   0.78289   0.79881   0.80405
 Alpha virt. eigenvalues --    0.81270   0.81563   0.82278   0.83012   0.85244
 Alpha virt. eigenvalues --    0.87128   0.88221   0.88408   0.89205   0.90541
 Alpha virt. eigenvalues --    0.91127   0.91332   0.93246   0.94631   0.96358
 Alpha virt. eigenvalues --    0.96802   1.00291   1.01297   1.01598   1.02782
 Alpha virt. eigenvalues --    1.03238   1.03346   1.04807   1.05971   1.08850
 Alpha virt. eigenvalues --    1.19590   1.23102   1.24143   1.24805   1.28592
 Alpha virt. eigenvalues --    1.29444   1.32057   1.34238   1.35788   1.35993
 Alpha virt. eigenvalues --    1.39379   1.39930   1.40922   1.42928   1.43490
 Alpha virt. eigenvalues --    1.43563   1.44447   1.46385   1.46390   1.46649
 Alpha virt. eigenvalues --    1.47671   1.48134   1.51816   1.53655   1.55782
 Alpha virt. eigenvalues --    1.55971   1.56326   1.56571   1.57834   1.61510
 Alpha virt. eigenvalues --    1.63127   1.63315   1.64018   1.66133   1.68326
 Alpha virt. eigenvalues --    1.68394   1.68676   1.69760   1.74454   1.76028
 Alpha virt. eigenvalues --    1.77227   1.78067   1.80051   1.80108   1.80824
 Alpha virt. eigenvalues --    1.83006   1.83194   1.83665   1.83856   1.84146
 Alpha virt. eigenvalues --    1.84433   1.85602   1.86310   1.88310   1.91425
 Alpha virt. eigenvalues --    1.92147   1.94123   1.95306   1.97754   1.98184
 Alpha virt. eigenvalues --    1.99810   2.02620   2.04533   2.07287   2.11789
 Alpha virt. eigenvalues --    2.12155   2.14192   2.15240   2.19162   2.21334
 Alpha virt. eigenvalues --    2.22772   2.28475   2.30403   2.34638   2.34911
 Alpha virt. eigenvalues --    2.36294   2.38636   2.39642   2.42382   2.44355
 Alpha virt. eigenvalues --    2.46171   2.46757   2.49323   2.52971   2.53816
 Alpha virt. eigenvalues --    2.54402   2.56716   2.57890   2.58358   2.59536
 Alpha virt. eigenvalues --    2.59901   2.61597   2.62170   2.63581   2.63810
 Alpha virt. eigenvalues --    2.64819   2.65119   2.65127   2.65519   2.68084
 Alpha virt. eigenvalues --    2.68568   2.70966   2.71446   2.73369   2.74829
 Alpha virt. eigenvalues --    2.76292   2.78795   2.79720   2.83138   2.83156
 Alpha virt. eigenvalues --    2.84908   2.86354   2.92147   2.97025   2.99489
 Alpha virt. eigenvalues --    3.00141   3.05334   3.10363   3.11452   3.13794
 Alpha virt. eigenvalues --    3.20987   3.23295   3.26684   3.28713   3.30616
 Alpha virt. eigenvalues --    3.32831   3.34250   3.43654   3.46083   3.46891
 Alpha virt. eigenvalues --    3.48582   3.50229   3.56586   3.65203   3.67103
 Alpha virt. eigenvalues --    3.67713   3.93963   3.94216   3.95340   3.96377
 Alpha virt. eigenvalues --    4.03991   4.06745   4.07693   4.12529   4.35619
 Alpha virt. eigenvalues --    4.61559   4.69619   4.71474  23.45277  23.60402
 Alpha virt. eigenvalues --   23.81304  23.84070  23.86565  23.89332  23.91265
 Alpha virt. eigenvalues --   23.94538  23.96266  23.97929  24.02013  24.03841
 Alpha virt. eigenvalues --   24.10948  24.11845
          Condensed to atoms (all electrons):
               1          2          3          4          5          6
     1  C    8.760074   0.188581  -0.463229   2.090277  -0.042471  -0.102440
     2  C    0.188581   7.105965   0.299822  -1.111565  -0.005667  -0.014031
     3  C   -0.463229   0.299822   6.584148   0.788325  -0.130885   0.016916
     4  C    2.090277  -1.111565   0.788325  10.630729  -0.324515  -0.113092
     5  C   -0.042471  -0.005667  -0.130885  -0.324515  11.171739   0.714540
     6  C   -0.102440  -0.014031   0.016916  -0.113092   0.714540   6.599293
     7  C   -0.012400   0.002601  -0.015569  -0.041039  -0.969635   0.418363
     8  C    0.408433  -0.034093  -0.086965   0.009678   1.716880  -0.637481
     9  C   -1.214903  -0.760626   0.286621  -0.401248  -0.087774   0.288387
    10  C   -1.322250   0.306349  -0.416932  -2.425197  -2.697326  -0.295778
    11  C    0.263983  -1.001856   1.098786  -0.264257  -1.558812  -0.215695
    12  C   -2.220831   1.559777  -1.441222  -1.514145  -0.417737  -0.144465
    13  C    0.199521  -0.276575  -0.134728  -1.440777  -0.242768   0.935677
    14  C   -1.033648  -0.126430  -0.258691  -0.239319  -1.502850  -1.329553
    15  H    0.366664  -0.104812  -0.000208   0.028352   0.005257   0.001006
    16  H   -0.018030   0.374521  -0.012549   0.011196  -0.001429  -0.000307
    17  H   -0.028087  -0.011378   0.369858  -0.065772   0.000447   0.000385
    18  H    0.051403   0.002564  -0.084793   0.451486   0.007124  -0.005111
    19  H   -0.048510  -0.007269   0.051000  -0.064543  -0.077697   0.050698
    20  H    0.007446   0.001998  -0.004915   0.007283   0.459358  -0.084624
    21  H   -0.001387  -0.000380   0.000403   0.000164  -0.067992   0.378763
    22  H    0.000926   0.000386  -0.000348  -0.001651   0.016250  -0.019489
    23  H    0.005309  -0.002882   0.001197   0.006442   0.024850  -0.003164
    24  H    0.028188   0.013219  -0.001650  -0.013002  -0.011680  -0.001300
    25  H    0.028188   0.013219  -0.001650  -0.013002  -0.011680  -0.001300
               7          8          9         10         11         12
     1  C   -0.012400   0.408433  -1.214903  -1.322250   0.263983  -2.220831
     2  C    0.002601  -0.034093  -0.760626   0.306349  -1.001856   1.559777
     3  C   -0.015569  -0.086965   0.286621  -0.416932   1.098786  -1.441222
     4  C   -0.041039   0.009678  -0.401248  -2.425197  -0.264257  -1.514145
     5  C   -0.969635   1.716880  -0.087774  -2.697326  -1.558812  -0.417737
     6  C    0.418363  -0.637481   0.288387  -0.295778  -0.215695  -0.144465
     7  C    7.111476   0.536385  -0.818800   0.172649  -0.217148  -0.273924
     8  C    0.536385   8.387954  -1.239726  -1.180741   0.162008  -1.121743
     9  C   -0.818800  -1.239726   9.663512   0.248026   1.646138  -1.851686
    10  C    0.172649  -1.180741   0.248026   9.223344  -0.586691   2.466972
    11  C   -0.217148   0.162008   1.646138  -0.586691  14.547750  -3.559426
    12  C   -0.273924  -1.121743  -1.851686   2.466972  -3.559426  15.963252
    13  C   -0.859503   0.278284   1.758287  -0.455935   1.078380  -4.873113
    14  C    1.087906  -1.689347  -2.113333   2.400503  -4.805190   2.993885
    15  H   -0.002500   0.006573   0.094954  -0.010831  -0.032033  -0.032643
    16  H    0.000329   0.000470   0.004758  -0.008901   0.028743  -0.035771
    17  H   -0.000413  -0.001268  -0.006495   0.020906  -0.028877   0.095202
    18  H    0.001967   0.007272  -0.026353   0.017324  -0.006594  -0.058995
    19  H   -0.007940  -0.044540   0.075990   0.422415   0.081027  -0.050952
    20  H    0.003291   0.046704  -0.023951   0.012663  -0.011965  -0.017509
    21  H   -0.021191  -0.019362  -0.005242   0.020257  -0.006346   0.005171
    22  H    0.380571  -0.020134   0.003375  -0.010494   0.003380  -0.010037
    23  H   -0.103195   0.364756   0.089016  -0.008299  -0.001905   0.007369
    24  H    0.015318   0.035470   0.357748   0.005622   0.005102  -0.060084
    25  H    0.015318   0.035470   0.357748   0.005622   0.005102  -0.060084
              13         14         15         16         17         18
     1  C    0.199521  -1.033648   0.366664  -0.018030  -0.028087   0.051403
     2  C   -0.276575  -0.126430  -0.104812   0.374521  -0.011378   0.002564
     3  C   -0.134728  -0.258691  -0.000208  -0.012549   0.369858  -0.084793
     4  C   -1.440777  -0.239319   0.028352   0.011196  -0.065772   0.451486
     5  C   -0.242768  -1.502850   0.005257  -0.001429   0.000447   0.007124
     6  C    0.935677  -1.329553   0.001006  -0.000307   0.000385  -0.005111
     7  C   -0.859503   1.087906  -0.002500   0.000329  -0.000413   0.001967
     8  C    0.278284  -1.689347   0.006573   0.000470  -0.001268   0.007272
     9  C    1.758287  -2.113333   0.094954   0.004758  -0.006495  -0.026353
    10  C   -0.455935   2.400503  -0.010831  -0.008901   0.020906   0.017324
    11  C    1.078380  -4.805190  -0.032033   0.028743  -0.028877  -0.006594
    12  C   -4.873113   2.993885  -0.032643  -0.035771   0.095202  -0.058995
    13  C   14.661965  -4.046671   0.005328   0.002798  -0.006361  -0.011894
    14  C   -4.046671  16.184846   0.005707  -0.008174   0.005373  -0.008524
    15  H    0.005328   0.005707   0.442303  -0.008907   0.001304   0.000125
    16  H    0.002798  -0.008174  -0.008907   0.421325  -0.006212   0.001883
    17  H   -0.006361   0.005373   0.001304  -0.006212   0.424145  -0.010296
    18  H   -0.011894  -0.008524   0.000125   0.001883  -0.010296   0.456846
    19  H    0.076225  -0.080126   0.000229  -0.000487   0.001198  -0.006531
    20  H   -0.010913  -0.046381  -0.000103   0.000012  -0.000125   0.001284
    21  H   -0.026791   0.086342   0.000011  -0.000007   0.000010  -0.000159
    22  H    0.027896  -0.033412  -0.000129   0.000007  -0.000007   0.000018
    23  H   -0.028970  -0.016213   0.000598  -0.000124   0.000015  -0.000120
    24  H    0.021387  -0.059206  -0.000871   0.000630  -0.000147   0.000204
    25  H    0.021387  -0.059206  -0.000871   0.000630  -0.000147   0.000204
              19         20         21         22         23         24
     1  C   -0.048510   0.007446  -0.001387   0.000926   0.005309   0.028188
     2  C   -0.007269   0.001998  -0.000380   0.000386  -0.002882   0.013219
     3  C    0.051000  -0.004915   0.000403  -0.000348   0.001197  -0.001650
     4  C   -0.064543   0.007283   0.000164  -0.001651   0.006442  -0.013002
     5  C   -0.077697   0.459358  -0.067992   0.016250   0.024850  -0.011680
     6  C    0.050698  -0.084624   0.378763  -0.019489  -0.003164  -0.001300
     7  C   -0.007940   0.003291  -0.021191   0.380571  -0.103195   0.015318
     8  C   -0.044540   0.046704  -0.019362  -0.020134   0.364756   0.035470
     9  C    0.075990  -0.023951  -0.005242   0.003375   0.089016   0.357748
    10  C    0.422415   0.012663   0.020257  -0.010494  -0.008299   0.005622
    11  C    0.081027  -0.011965  -0.006346   0.003380  -0.001905   0.005102
    12  C   -0.050952  -0.017509   0.005171  -0.010037   0.007369  -0.060084
    13  C    0.076225  -0.010913  -0.026791   0.027896  -0.028970   0.021387
    14  C   -0.080126  -0.046381   0.086342  -0.033412  -0.016213  -0.059206
    15  H    0.000229  -0.000103   0.000011  -0.000129   0.000598  -0.000871
    16  H   -0.000487   0.000012  -0.000007   0.000007  -0.000124   0.000630
    17  H    0.001198  -0.000125   0.000010  -0.000007   0.000015  -0.000147
    18  H   -0.006531   0.001284  -0.000159   0.000018  -0.000120   0.000204
    19  H    0.443097  -0.005792   0.001615  -0.000576   0.000368   0.000620
    20  H   -0.005792   0.449377  -0.010014   0.001942   0.000248   0.000146
    21  H    0.001615  -0.010014   0.420546  -0.006962   0.001601  -0.000135
    22  H   -0.000576   0.001942  -0.006962   0.416891  -0.008875   0.000624
    23  H    0.000368   0.000248   0.001601  -0.008875   0.435095  -0.000906
    24  H    0.000620   0.000146  -0.000135   0.000624  -0.000906   0.494510
    25  H    0.000620   0.000146  -0.000135   0.000624  -0.000906  -0.080545
              25
     1  C    0.028188
     2  C    0.013219
     3  C   -0.001650
     4  C   -0.013002
     5  C   -0.011680
     6  C   -0.001300
     7  C    0.015318
     8  C    0.035470
     9  C    0.357748
    10  C    0.005622
    11  C    0.005102
    12  C   -0.060084
    13  C    0.021387
    14  C   -0.059206
    15  H   -0.000871
    16  H    0.000630
    17  H   -0.000147
    18  H    0.000204
    19  H    0.000620
    20  H    0.000146
    21  H   -0.000135
    22  H    0.000624
    23  H   -0.000906
    24  H   -0.080545
    25  H    0.494510
 Mulliken charges:
               1
     1  C    0.109192
     2  C   -0.411440
     3  C   -0.442744
     4  C    0.009191
     5  C    0.034472
     6  C   -0.436199
     7  C   -0.402916
     8  C    0.079066
     9  C   -0.324423
    10  C    0.096724
    11  C   -0.623604
    12  C    0.652739
    13  C   -0.652136
    14  C    0.691712
    15  H    0.235498
    16  H    0.253594
    17  H    0.246741
    18  H    0.219667
    19  H    0.189864
    20  H    0.224390
    21  H    0.251219
    22  H    0.259223
    23  H    0.238694
    24  H    0.250738
    25  H    0.250738
 Sum of Mulliken charges =   1.00000
 Mulliken charges with hydrogens summed into heavy atoms:
               1
     1  C    0.344690
     2  C   -0.157846
     3  C   -0.196004
     4  C    0.228858
     5  C    0.258862
     6  C   -0.184980
     7  C   -0.143693
     8  C    0.317760
     9  C    0.177053
    10  C    0.286588
    11  C   -0.623604
    12  C    0.652739
    13  C   -0.652136
    14  C    0.691712
 Electronic spatial extent (au):  <R**2>=           2854.3683
 Charge=              1.0000 electrons
 Dipole moment (field-independent basis, Debye):
    X=             -0.4951    Y=             -0.5234    Z=             -0.0000  Tot=              0.7205
 Quadrupole moment (field-independent basis, Debye-Ang):
   XX=            -49.9704   YY=            -37.3909   ZZ=            -84.1364
   XY=             10.9010   XZ=             -0.0000   YZ=              0.0000
 Traceless Quadrupole moment (field-independent basis, Debye-Ang):
   XX=              7.1955   YY=             19.7750   ZZ=            -26.9705
   XY=             10.9010   XZ=             -0.0000   YZ=              0.0000
 Octapole moment (field-independent basis, Debye-Ang**2):
  XXX=             -2.9816  YYY=            -11.1177  ZZZ=             -0.0000  XYY=             -1.3686
  XXY=              3.2514  XXZ=             -0.0000  XZZ=              2.1814  YZZ=             -2.3831
  YYZ=              0.0000  XYZ=              0.0000
 Hexadecapole moment (field-independent basis, Debye-Ang**3):
 XXXX=          -1033.6701 YYYY=          -1812.3448 ZZZZ=            -99.3092 XXXY=           -358.7458
 XXXZ=             -0.0000 YYYX=           -289.7491 YYYZ=              0.0000 ZZZX=              0.0000
 ZZZY=             -0.0000 XXYY=           -449.4469 XXZZ=           -253.6784 YYZZ=           -482.3365
 XXYZ=              0.0000 YYXZ=             -0.0000 ZZXY=           -190.7177
 N-N= 7.814615297186D+02 E-N=-2.799279928171D+03  KE= 5.375298537148D+02
 Symmetry A'   KE= 5.228798610397D+02
 Symmetry A"   KE= 1.464999267513D+01
 Unable to Open any file for archive entry.
 1\1\GINC-GADI-CPU-CLX-0648\SP\RM062X TD-FC\6-311++G(d,p)\C14H11(1+)\TS
 1578\27-Jul-2022\0\\#n M062X/6-311++G(d,p) TD(NStates=1) EmpiricalDisp
 ersion=GD3 SP\\SP_0\\1,1\C,0,2.50745,1.3691,0.\C,0,3.720875,0.68995,0.
 \C,0,3.6889,-0.68835,0.\C,0,2.443575,-1.387275,0.\C,0,-2.482575,-1.410
 025,0.\C,0,-3.6774,-0.71935,0.\C,0,-3.67975,0.672325,0.\C,0,-2.4732,1.
 3706,0.\C,0,0.011,1.4566,0.\C,0,-0.0305,-1.42025,0.\C,0,1.25735,0.6760
 75,0.\C,0,1.2255,-0.720975,0.\C,0,-1.266475,0.6952,0.\C,0,-1.2505,-0.7
 23975,0.\H,0,2.4906,2.45255,0.\H,0,4.656175,1.228525,0.\H,0,4.6053,-1.
 2627,0.\H,0,2.45875,-2.47015,0.\H,0,-0.028125,-2.501475,0.\H,0,-2.477,
 -2.492275,0.\H,0,-4.61255,-1.261575,0.\H,0,-4.61455,1.21415,0.\H,0,-2.
 4801,2.453675,0.\H,0,0.04,2.15325,-0.858225\H,0,0.04,2.15325,0.858225\
 \Version=ES64L-G16RevC.01\State=1-A'\HF=-539.7573987\RMSD=8.127e-09\PG
 =CS [SG(C14H9),X(H2)]\\@
 The archive entry for this job was punched.


 A successful marriage requires falling in love
 many times, always with the same person.
                           -- Mignon McLaughlin
 Job cpu time:       0 days  0 hours 46 minutes 26.8 seconds.
 Elapsed time:       0 days  0 hours  1 minutes 28.3 seconds.
 File lengths (MBytes):  RWF=    460 Int=      0 D2E=      0 Chk=     15 Scr=      1
 Normal termination of Gaussian 16 at Wed Jul 27 11:11:44 2022.
