 Entering Gaussian System, Link 0=g16
 Initial command:
 /apps/gaussian/g16c01/g16/l1.exe "/jobfs/52804872.gadi-pbs/Gau-1421568.inp" -scrdir="/jobfs/52804872.gadi-pbs/"
 Entering Link 1 = /apps/gaussian/g16c01/g16/l1.exe PID=   1421569.
  
 Copyright (c) 1988-2019, Gaussian, Inc.  All Rights Reserved.
  
 This is part of the Gaussian(R) 16 program.  It is based on
 the Gaussian(R) 09 system (copyright 2009, Gaussian, Inc.),
 the Gaussian(R) 03 system (copyright 2003, Gaussian, Inc.),
 the Gaussian(R) 98 system (copyright 1998, Gaussian, Inc.),
 the Gaussian(R) 94 system (copyright 1995, Gaussian, Inc.),
 the Gaussian 92(TM) system (copyright 1992, Gaussian, Inc.),
 the Gaussian 90(TM) system (copyright 1990, Gaussian, Inc.),
 the Gaussian 88(TM) system (copyright 1988, Gaussian, Inc.),
 the Gaussian 86(TM) system (copyright 1986, Carnegie Mellon
 University), and the Gaussian 82(TM) system (copyright 1983,
 Carnegie Mellon University). Gaussian is a federally registered
 trademark of Gaussian, Inc.
  
 This software contains proprietary and confidential information,
 including trade secrets, belonging to Gaussian, Inc.
  
 This software is provided under written license and may be
 used, copied, transmitted, or stored only in accord with that
 written license.
  
 The following legend is applicable only to US Government
 contracts under FAR:
  
                    RESTRICTED RIGHTS LEGEND
  
 Use, reproduction and disclosure by the US Government is
 subject to restrictions as set forth in subparagraphs (a)
 and (c) of the Commercial Computer Software - Restricted
 Rights clause in FAR 52.227-19.
  
 Gaussian, Inc.
 340 Quinnipiac St., Bldg. 40, Wallingford CT 06492
  
  
 ---------------------------------------------------------------
 Warning -- This program may not be used in any manner that
 competes with the business of Gaussian, Inc. or will provide
 assistance to any competitor of Gaussian, Inc.  The licensee
 of this program is prohibited from giving any competitor of
 Gaussian, Inc. access to this program.  By using this program,
 the user acknowledges that Gaussian, Inc. is engaged in the
 business of creating and licensing software in the field of
 computational chemistry and represents and warrants to the
 licensee that it is not a competitor of Gaussian, Inc. and that
 it will not use this program in any manner prohibited above.
 ---------------------------------------------------------------
  

 Cite this work as:
 Gaussian 16, Revision C.01,
 M. J. Frisch, G. W. Trucks, H. B. Schlegel, G. E. Scuseria, 
 M. A. Robb, J. R. Cheeseman, G. Scalmani, V. Barone, 
 G. A. Petersson, H. Nakatsuji, X. Li, M. Caricato, A. V. Marenich, 
 J. Bloino, B. G. Janesko, R. Gomperts, B. Mennucci, H. P. Hratchian, 
 J. V. Ortiz, A. F. Izmaylov, J. L. Sonnenberg, D. Williams-Young, 
 F. Ding, F. Lipparini, F. Egidi, J. Goings, B. Peng, A. Petrone, 
 T. Henderson, D. Ranasinghe, V. G. Zakrzewski, J. Gao, N. Rega, 
 G. Zheng, W. Liang, M. Hada, M. Ehara, K. Toyota, R. Fukuda, 
 J. Hasegawa, M. Ishida, T. Nakajima, Y. Honda, O. Kitao, H. Nakai, 
 T. Vreven, K. Throssell, J. A. Montgomery, Jr., J. E. Peralta, 
 F. Ogliaro, M. J. Bearpark, J. J. Heyd, E. N. Brothers, K. N. Kudin, 
 V. N. Staroverov, T. A. Keith, R. Kobayashi, J. Normand, 
 K. Raghavachari, A. P. Rendell, J. C. Burant, S. S. Iyengar, 
 J. Tomasi, M. Cossi, J. M. Millam, M. Klene, C. Adamo, R. Cammi, 
 J. W. Ochterski, R. L. Martin, K. Morokuma, O. Farkas, 
 J. B. Foresman, and D. J. Fox, Gaussian, Inc., Wallingford CT, 2019.
 
 ******************************************
 Gaussian 16:  ES64L-G16RevC.01  3-Jul-2019
                27-Jul-2022 
 ******************************************
 %NProcShared=32
 Will use up to   32 processors via shared memory.
 %mem = 128GB
 ---------------------------------------------------------------
 #n M062X/6-311++G(d,p) TD(NStates=1) EmpiricalDispersion=GD3 SP
 ---------------------------------------------------------------
 1/38=1,172=1/1;
 2/12=2,17=6,18=5,40=1/2;
 3/5=4,6=6,7=1111,11=9,25=1,30=1,74=-55,124=31/1,2,3,8;
 4//1;
 5/5=2,38=5/2;
 8/6=1,10=2,108=1/1;
 9/41=1,42=1,70=2/14;
 6/7=2,8=2,9=2,10=2/1;
 99/5=1,9=1/99;
 ------
 SP_-50
 ------
 Symbolic Z-matrix:
 Charge =  1 Multiplicity = 1
 C                     2.47605   1.3697    0. 
 C                     3.68118   0.6718    0. 
 C                     3.6783   -0.72085   0. 
 C                     2.48273  -1.41033   0. 
 C                    -2.44373  -1.38758   0. 
 C                    -3.6898   -0.68985   0. 
 C                    -3.7223    0.68943   0. 
 C                    -2.5103    1.3682    0. 
 C                    -0.01095   1.4632    0. 
 C                     0.0305   -1.42055   0. 
 C                     1.2667    0.69528   0. 
 C                     1.2499   -0.72353   0. 
 C                    -1.25758   0.67615   0. 
 C                    -1.2249   -0.72053   0. 
 H                     2.4834    2.4527    0. 
 H                     4.61627   1.21303   0. 
 H                     4.613    -1.26345   0. 
 H                     2.47655  -2.4925    0. 
 H                     0.02813  -2.50163   0. 
 H                    -2.4583   -2.47038   0. 
 H                    -4.60575  -1.26458   0. 
 H                    -4.6579    1.2274    0. 
 H                    -2.4939    2.45158   0. 
 H                    -0.04      2.15475  -0.85988 
 H                    -0.04      2.15475   0.85988 
 
                          Input orientation:                          
 ---------------------------------------------------------------------
 Center     Atomic      Atomic             Coordinates (Angstroms)
 Number     Number       Type             X           Y           Z
 ---------------------------------------------------------------------
      1          6           0        2.476050    1.369700    0.000000
      2          6           0        3.681175    0.671800    0.000000
      3          6           0        3.678300   -0.720850    0.000000
      4          6           0        2.482725   -1.410325    0.000000
      5          6           0       -2.443725   -1.387575    0.000000
      6          6           0       -3.689800   -0.689850    0.000000
      7          6           0       -3.722300    0.689425    0.000000
      8          6           0       -2.510300    1.368200    0.000000
      9          6           0       -0.010950    1.463200    0.000000
     10          6           0        0.030500   -1.420550    0.000000
     11          6           0        1.266700    0.695275    0.000000
     12          6           0        1.249900   -0.723525    0.000000
     13          6           0       -1.257575    0.676150    0.000000
     14          6           0       -1.224900   -0.720525    0.000000
     15          1           0        2.483400    2.452700    0.000000
     16          1           0        4.616275    1.213025    0.000000
     17          1           0        4.613000   -1.263450    0.000000
     18          1           0        2.476550   -2.492500    0.000000
     19          1           0        0.028125   -2.501625    0.000000
     20          1           0       -2.458300   -2.470375    0.000000
     21          1           0       -4.605750   -1.264575    0.000000
     22          1           0       -4.657900    1.227400    0.000000
     23          1           0       -2.493900    2.451575    0.000000
     24          1           0       -0.040000    2.154750   -0.859875
     25          1           0       -0.040000    2.154750    0.859875
 ---------------------------------------------------------------------
                    Distance matrix (angstroms):
                    1          2          3          4          5
     1  C    0.000000
     2  C    1.392620   0.000000
     3  C    2.411598   1.392653   0.000000
     4  C    2.780033   2.402400   1.380136   0.000000
     5  C    5.639747   6.461844   6.158223   4.926503   0.000000
     6  C    6.500727   7.495690   7.368165   6.214431   1.428119
     7  C    6.235569   7.403496   7.533774   6.550671   2.438992
     8  C    4.986350   6.230516   6.531684   5.714062   2.756579
     9  C    2.488757   3.775990   4.287265   3.804676   3.747708
    10  C    3.710284   4.207773   3.714300   2.452246   2.474445
    11  C    1.384694   2.414589   2.796645   2.431516   4.255058
    12  C    2.425909   2.803218   2.428401   1.411223   3.752843
    13  C    3.797495   4.938752   5.129763   4.282899   2.380318
    14  C    4.250420   5.099818   4.903200   3.771247   1.389421
    15  H    1.083025   2.146222   3.391048   3.863025   6.246941
    16  H    2.145952   1.080433   2.149342   3.381420   7.523744
    17  H    3.391170   2.147904   1.080777   2.135332   7.057817
    18  H    3.862200   3.385840   2.140782   1.082193   5.042813
    19  H    4.580338   4.838946   4.061396   2.686261   2.711300
    20  H    6.252518   6.896841   6.381120   5.053458   1.082898
    21  H    7.555878   8.510151   8.301875   7.089973   2.165521
    22  H    7.135369   8.357563   8.560836   7.612235   3.426465
    23  H    5.086340   6.426441   6.939765   6.299291   3.839478
    24  H    2.772399   4.097032   4.778516   4.451212   4.366388
    25  H    2.772399   4.097032   4.778516   4.451212   4.366388
                    6          7          8          9         10
     6  C    0.000000
     7  C    1.379658   0.000000
     8  C    2.372086   1.389129   0.000000
     9  C    4.262577   3.791154   2.501155   0.000000
    10  C    3.791379   4.305288   3.772637   2.884048   0.000000
    11  C    5.146403   4.989003   3.836477   1.490670   2.450491
    12  C    4.939815   5.169062   4.302838   2.524185   1.404557
    13  C    2.789565   2.464761   1.431172   1.474287   2.460749
    14  C    2.465091   2.867920   2.452555   2.498465   1.437381
    15  H    6.927050   6.451345   5.110106   2.683448   4.584625
    16  H    8.521257   8.354998   7.128264   4.633983   5.288199
    17  H    8.322590   8.561013   7.593878   5.368010   4.585192
    18  H    6.424439   6.967811   6.306638   4.672817   2.670625
    19  H    4.135879   4.924275   4.628082   3.965018   1.081078
    20  H    2.164916   3.403238   3.838927   4.632767   2.701159
    21  H    1.081329   2.144435   3.364880   5.343495   4.638873
    22  H    2.147805   1.079243   2.152211   4.652929   5.384490
    23  H    3.361358   2.148055   1.083499   2.672438   4.622331
    24  H    4.706610   4.055354   2.731378   1.103843   3.677924
    25  H    4.706610   4.055354   2.731378   1.103843   3.677924
                   11         12         13         14         15
    11  C    0.000000
    12  C    1.418899   0.000000
    13  C    2.524347   2.871676   0.000000
    14  C    2.865756   2.474802   1.397057   0.000000
    15  H    2.137499   3.407334   4.141379   4.880660   0.000000
    16  H    3.389354   3.883646   5.898334   6.152881   2.466972
    17  H    3.877412   3.406165   6.182694   5.863092   4.283102
    18  H    3.409640   2.152659   4.897350   4.103733   4.945205
    19  H    3.428445   2.157400   3.428014   2.177703   5.529350
    20  H    4.888452   4.099053   3.367842   2.140853   6.975462
    21  H    6.190855   5.880593   3.869973   3.424345   8.004635
    22  H    5.948449   6.221592   3.444719   3.947138   7.245656
    23  H    4.150506   4.908900   2.163477   3.416516   4.977300
    24  H    2.139373   3.269204   2.099555   3.226543   2.682481
    25  H    2.139373   3.269204   2.099555   3.226543   2.682481
                   16         17         18         19         20
    16  H    0.000000
    17  H    2.476477   0.000000
    18  H    4.278941   2.464748   0.000000
    19  H    5.903367   4.749122   2.448442   0.000000
    20  H    7.976030   7.173559   4.934900   2.486621   0.000000
    21  H    9.549044   9.218750   7.187960   4.796154   2.462823
    22  H    9.274186   9.599683   8.045995   5.988694   4.302532
    23  H    7.217243   8.019317   7.010653   5.558309   4.922079
    24  H    4.827746   5.837284   5.354376   4.735594   5.289550
    25  H    4.827746   5.837284   5.354376   4.735594   5.289550
                   21         22         23         24         25
    21  H    0.000000
    22  H    2.492521   0.000000
    23  H    4.274305   2.486262   0.000000
    24  H    5.768643   4.787939   2.617081   0.000000
    25  H    5.768643   4.787939   2.617081   1.719750   0.000000
 Stoichiometry    C14H11(1+)
 Framework group  CS[SG(C14H9),X(H2)]
 Deg. of freedom    46
 Full point group                 CS      NOp   2
 Largest Abelian subgroup         CS      NOp   2
 Largest concise Abelian subgroup CS      NOp   2
                         Standard orientation:                         
 ---------------------------------------------------------------------
 Center     Atomic      Atomic             Coordinates (Angstroms)
 Number     Number       Type             X           Y           Z
 ---------------------------------------------------------------------
      1          6           0       -2.363441   -1.549069    0.000000
      2          6           0       -2.312180   -2.940745    0.000000
      3          6           0       -1.080808   -3.591288    0.000000
      4          6           0        0.088817   -2.858655    0.000000
      5          6           0        2.378978    1.503179    0.000000
      6          6           0        2.347075    2.930941    0.000000
      7          6           0        1.144106    3.606456    0.000000
      8          6           0       -0.023772    2.854298    0.000000
      9          6           0       -1.279746    0.691359    0.000000
     10          6           0        1.247817   -0.697583    0.000000
     11          6           0       -1.200648   -0.797211    0.000000
     12          6           0        0.060350   -1.447718    0.000000
     13          6           0        0.000000    1.423323    0.000000
     14          6           0        1.218256    0.739494    0.000000
     15          1           0       -3.323420   -1.047689    0.000000
     16          1           0       -3.228718   -3.512842    0.000000
     17          1           0       -1.039897   -4.671290    0.000000
     18          1           0        1.047517   -3.360686    0.000000
     19          1           0        2.203763   -1.202454    0.000000
     20          1           0        3.342169    1.008274    0.000000
     21          1           0        3.284221    3.470415    0.000000
     22          1           0        1.107701    4.685084    0.000000
     23          1           0       -0.988327    3.347861    0.000000
     24          1           0       -1.876917    1.041318    0.859875
     25          1           0       -1.876917    1.041318   -0.859875
 ---------------------------------------------------------------------
 Rotational constants (GHZ):           2.1360202           0.4445329           0.3687568
 Standard basis: 6-311++G(d,p) (5D, 7F)
 There are   299 symmetry adapted cartesian basis functions of A'  symmetry.
 There are   100 symmetry adapted cartesian basis functions of A"  symmetry.
 There are   285 symmetry adapted basis functions of A'  symmetry.
 There are   100 symmetry adapted basis functions of A"  symmetry.
   385 basis functions,   603 primitive gaussians,   399 cartesian basis functions
    47 alpha electrons       47 beta electrons
       nuclear repulsion energy       781.1640221200 Hartrees.
 NAtoms=   25 NActive=   25 NUniq=   24 SFac= 1.09D+00 NAtFMM=   60 NAOKFM=F Big=F
 Integral buffers will be    131072 words long.
 Regular integral format.
 Two-electron integral symmetry is turned on.
 Nuclear repulsion after empirical dispersion term =      781.1630427804 Hartrees.
 One-electron integrals computed using PRISM.
 NBasis=   385 RedAO= T EigKep=  1.12D-06  NBF=   285   100
 NBsUse=   379 1.00D-06 EigRej=  8.39D-07 NBFU=   279   100
 ExpMin= 3.60D-02 ExpMax= 4.56D+03 ExpMxC= 6.82D+02 IAcc=3 IRadAn=         5 AccDes= 0.00D+00
 Harris functional with IExCor= 1009 and IRadAn=       5 diagonalized for initial guess.
 HarFok:  IExCor= 1009 AccDes= 0.00D+00 IRadAn=         5 IDoV= 1 UseB2=F ITyADJ=14
 ICtDFT=  3500011 ScaDFX=  1.000000  1.000000  1.000000  1.000000
 FoFCou: FMM=F IPFlag=           0 FMFlag=      100000 FMFlg1=           0
         NFxFlg=           0 DoJE=T BraDBF=F KetDBF=T FulRan=T
         wScrn=  0.000000 ICntrl=       500 IOpCl=  0 I1Cent=   200000004 NGrid=           0
         NMat0=    1 NMatS0=      1 NMatT0=    0 NMatD0=    1 NMtDS0=    0 NMtDT0=    0
 Petite list used in FoFCou.
 Initial guess orbital symmetries:
       Occupied  (A') (A') (A') (A') (A') (A') (A') (A') (A') (A')
                 (A') (A') (A') (A') (A') (A') (A') (A') (A') (A')
                 (A') (A') (A') (A') (A') (A') (A') (A') (A') (A')
                 (A') (A') (A") (A') (A') (A') (A') (A') (A") (A')
                 (A") (A') (A') (A") (A") (A") (A")
       Virtual   (A") (A") (A") (A") (A") (A') (A') (A') (A') (A")
                 (A") (A') (A') (A') (A") (A') (A') (A') (A') (A")
                 (A') (A") (A') (A') (A') (A") (A') (A") (A') (A')
                 (A') (A') (A') (A') (A") (A') (A") (A') (A') (A')
                 (A") (A') (A') (A") (A') (A') (A') (A') (A') (A")
                 (A') (A') (A") (A") (A') (A') (A') (A") (A") (A')
                 (A') (A') (A') (A') (A') (A') (A") (A') (A') (A")
                 (A') (A') (A') (A') (A') (A') (A') (A') (A') (A')
                 (A') (A') (A') (A') (A') (A') (A') (A') (A') (A')
                 (A') (A') (A') (A') (A') (A') (A') (A") (A') (A")
                 (A') (A') (A") (A") (A') (A") (A') (A") (A") (A')
                 (A") (A') (A') (A') (A") (A') (A') (A") (A") (A')
                 (A") (A") (A') (A') (A') (A") (A') (A') (A') (A")
                 (A') (A') (A') (A') (A') (A') (A") (A') (A') (A')
                 (A') (A') (A') (A') (A') (A') (A') (A') (A') (A")
                 (A") (A') (A") (A") (A') (A') (A') (A") (A") (A')
                 (A") (A') (A") (A") (A") (A') (A') (A') (A') (A')
                 (A') (A") (A') (A") (A') (A') (A') (A') (A') (A")
                 (A') (A') (A') (A') (A") (A') (A") (A') (A") (A")
                 (A') (A") (A') (A") (A') (A') (A') (A") (A') (A')
                 (A") (A") (A") (A') (A') (A") (A') (A") (A') (A')
                 (A") (A") (A') (A") (A') (A") (A') (A') (A') (A")
                 (A') (A') (A') (A') (A") (A') (A') (A') (A") (A")
                 (A') (A') (A') (A") (A') (A') (A") (A') (A") (A')
                 (A") (A') (A') (A') (A') (A") (A') (A') (A') (A")
                 (A') (A') (A") (A') (A") (A') (A') (A") (A') (A')
                 (A') (A") (A') (A") (A') (A') (A') (A") (A') (A")
                 (A') (A') (A') (A') (A") (A') (A") (A') (A") (A')
                 (A") (A') (A") (A") (A") (A') (A') (A') (A') (A')
                 (A') (A') (A') (A') (A') (A') (A') (A') (A') (A')
                 (A') (A') (A') (A') (A') (A") (A') (A') (A') (A')
                 (A') (A') (A') (A') (A') (A') (A') (A') (A') (A')
                 (A') (A') (A') (A') (A') (A') (A') (A') (A') (A')
                 (A') (A')
 The electronic state of the initial guess is 1-A'.
 Requested convergence on RMS density matrix=1.00D-08 within 128 cycles.
 Requested convergence on MAX density matrix=1.00D-06.
 Requested convergence on             energy=1.00D-06.
 No special actions if energy rises.
 SCF Done:  E(RM062X) =  -539.757512743     A.U. after   15 cycles
            NFock= 15  Conv=0.83D-08     -V/T= 2.0042
 DoSCS=F DFT=T ScalE2(SS,OS)=  1.000000  1.000000
 ExpMin= 3.60D-02 ExpMax= 4.56D+03 ExpMxC= 6.82D+02 IAcc=3 IRadAn=         5 AccDes= 0.00D+00
 HarFok:  IExCor=  205 AccDes= 0.00D+00 IRadAn=         5 IDoV=-2 UseB2=F ITyADJ=14
 ICtDFT= 12500011 ScaDFX=  1.000000  1.000000  1.000000  1.000000
 Range of M.O.s used for correlation:    15   379
 NBasis=   385 NAE=    47 NBE=    47 NFC=    14 NFV=     0
 NROrb=    365 NOA=    33 NOB=    33 NVA=   332 NVB=   332

 **** Warning!!: The largest alpha MO coefficient is  0.13598197D+03

 Orbital symmetries:
       Occupied  (A') (A') (A') (A') (A') (A') (A') (A') (A') (A')
                 (A') (A') (A') (A') (A') (A') (A') (A') (A') (A')
                 (A') (A') (A') (A') (A') (A') (A') (A') (A') (A')
                 (A') (A') (A") (A') (A') (A') (A') (A") (A") (A')
                 (A') (A') (A') (A") (A") (A") (A")
       Virtual   (A") (A") (A") (A") (A') (A') (A') (A') (A") (A')
                 (A') (A") (A') (A') (A") (A') (A") (A') (A') (A')
                 (A") (A") (A') (A') (A') (A") (A') (A") (A') (A')
                 (A") (A') (A") (A') (A') (A') (A') (A') (A") (A')
                 (A") (A') (A') (A") (A") (A') (A") (A') (A") (A')
                 (A') (A') (A') (A') (A') (A") (A') (A') (A') (A')
                 (A') (A") (A') (A') (A') (A") (A') (A') (A') (A')
                 (A') (A') (A') (A') (A') (A') (A') (A') (A') (A')
                 (A') (A') (A') (A') (A') (A') (A') (A') (A') (A')
                 (A') (A') (A') (A') (A") (A') (A") (A") (A') (A")
                 (A') (A') (A') (A') (A") (A") (A') (A") (A") (A')
                 (A') (A') (A") (A') (A') (A") (A') (A") (A') (A")
                 (A") (A') (A") (A') (A') (A') (A") (A') (A') (A')
                 (A') (A') (A') (A') (A') (A') (A') (A') (A') (A')
                 (A') (A') (A') (A") (A') (A') (A') (A') (A') (A')
                 (A') (A') (A") (A') (A") (A') (A") (A") (A') (A")
                 (A") (A') (A') (A") (A") (A") (A') (A") (A') (A')
                 (A') (A') (A') (A") (A") (A') (A') (A') (A') (A")
                 (A') (A') (A') (A") (A") (A') (A') (A') (A") (A")
                 (A") (A') (A') (A") (A") (A') (A') (A') (A') (A')
                 (A") (A") (A") (A') (A") (A') (A') (A") (A') (A')
                 (A') (A") (A') (A") (A") (A') (A") (A') (A') (A")
                 (A') (A') (A') (A') (A") (A') (A') (A') (A") (A")
                 (A') (A') (A') (A") (A') (A') (A') (A") (A") (A')
                 (A") (A') (A') (A") (A') (A') (A') (A') (A') (A')
                 (A") (A') (A') (A') (A') (A") (A") (A") (A') (A')
                 (A') (A') (A') (A') (A') (A') (A") (A') (A') (A')
                 (A') (A") (A') (A") (A") (A") (A') (A") (A') (A")
                 (A') (A") (A") (A') (A") (A") (A') (A') (A') (A')
                 (A') (A') (A') (A') (A') (A') (A') (A') (A') (A')
                 (A') (A') (A') (A") (A') (A') (A') (A') (A') (A')
                 (A') (A') (A') (A') (A') (A') (A') (A') (A') (A')
                 (A') (A') (A') (A') (A') (A') (A') (A') (A') (A')
                 (A') (A')
     4 initial guesses have been made.
 Convergence on wavefunction:    0.001000000000000
 Iteration     1 Dimension     4 NMult     0 NNew      4
 CISAX will form     4 AO SS matrices at one time.
 Iteration     2 Dimension     6 NMult     4 NNew      2
 Iteration     3 Dimension     8 NMult     6 NNew      2
 Iteration     4 Dimension    10 NMult     8 NNew      2
 Iteration     5 Dimension    12 NMult    10 NNew      2
 Iteration     6 Dimension    14 NMult    12 NNew      2
 ***********************************************************************
 Excited states from <AA,BB:AA,BB> singles matrix:
 ***********************************************************************
 
 Ground to excited state transition densities written to RWF  633
 Ground to excited state transition electric dipole moments (Au):
       state          X           Y           Z        Dip. S.      Osc.
         1        -0.5029      0.3033     -0.0000      0.3449      0.0232
 Ground to excited state transition velocity dipole moments (Au):
       state          X           Y           Z        Dip. S.      Osc.
         1         0.0585     -0.0313      0.0000      0.0044      0.0291
 Ground to excited state transition magnetic dipole moments (Au):
       state          X           Y           Z
         1        -0.0000     -0.0000     -0.1592
 Ground to excited state transition velocity quadrupole moments (Au):
       state          XX          YY          ZZ          XY          XZ          YZ
         1         0.1396      0.1540     -0.0089      0.1370     -0.0000     -0.0000
 <0|del|b> * <b|rxdel|0> + <0|del|b> * <b|delr+rdel|0>
 Rotatory Strengths (R) in cgs (10**-40 erg-esu-cm/Gauss)
       state          XX          YY          ZZ    R(velocity)    E-M Angle
         1         0.0000     -0.0000      0.0000      0.0000       90.00
 1/2[<0|r|b>*<b|rxdel|0> + (<0|rxdel|b>*<b|r|0>)*]
 Rotatory Strengths (R) in cgs (10**-40 erg-esu-cm/Gauss)
       state          XX          YY          ZZ     R(length)
         1        -0.0000      0.0000     -0.0000     -0.0000
  1/2[<0|del|b>*<b|r|0> + (<0|r|b>*<b|del|0>)*] (Au)
       state          X           Y           Z        Dip. S.   Osc.(frdel)
         1        -0.0294     -0.0095     -0.0000      0.0389      0.0259

 Excitation energies and oscillator strengths:
 
 Excited State   1:      Singlet-A'     2.7451 eV  451.65 nm  f=0.0232  <S**2>=0.000
      47 -> 48         0.70370
 This state for optimization and/or second-order correction.
 Total Energy, E(TD-HF/TD-DFT) =  -539.656630641    
 Copying the excited state density for this state as the 1-particle RhoCI density.
 SavETr:  write IOETrn=   770 NScale= 10 NData=  16 NLR=1 NState=    1 LETran=      28.

 **********************************************************************

            Population analysis using the SCF Density.

 **********************************************************************

 Orbital symmetries:
       Occupied  (A') (A') (A') (A') (A') (A') (A') (A') (A') (A')
                 (A') (A') (A') (A') (A') (A') (A') (A') (A') (A')
                 (A') (A') (A') (A') (A') (A') (A') (A') (A') (A')
                 (A') (A') (A") (A') (A') (A') (A') (A") (A") (A')
                 (A') (A') (A') (A") (A") (A") (A")
       Virtual   (A") (A") (A") (A") (A') (A') (A') (A') (A") (A')
                 (A') (A") (A') (A') (A") (A') (A") (A') (A') (A')
                 (A") (A") (A') (A') (A') (A") (A') (A") (A') (A')
                 (A") (A') (A") (A') (A') (A') (A') (A') (A") (A')
                 (A") (A') (A') (A") (A") (A') (A") (A') (A") (A')
                 (A') (A') (A') (A') (A') (A") (A') (A') (A') (A')
                 (A') (A") (A') (A') (A') (A") (A') (A') (A') (A')
                 (A') (A') (A') (A') (A') (A') (A') (A') (A') (A')
                 (A') (A') (A') (A') (A') (A') (A') (A') (A') (A')
                 (A') (A') (A') (A') (A") (A') (A") (A") (A') (A")
                 (A') (A') (A') (A') (A") (A") (A') (A") (A") (A')
                 (A') (A') (A") (A') (A') (A") (A') (A") (A') (A")
                 (A") (A') (A") (A') (A') (A') (A") (A') (A') (A')
                 (A') (A') (A') (A') (A') (A') (A') (A') (A') (A')
                 (A') (A') (A') (A") (A') (A') (A') (A') (A') (A')
                 (A') (A') (A") (A') (A") (A') (A") (A") (A') (A")
                 (A") (A') (A') (A") (A") (A") (A') (A") (A') (A')
                 (A') (A') (A') (A") (A") (A') (A') (A') (A') (A")
                 (A') (A') (A') (A") (A") (A') (A') (A') (A") (A")
                 (A") (A') (A') (A") (A") (A') (A') (A') (A') (A')
                 (A") (A") (A") (A') (A") (A') (A') (A") (A') (A')
                 (A') (A") (A') (A") (A") (A') (A") (A') (A') (A")
                 (A') (A') (A') (A') (A") (A') (A') (A') (A") (A")
                 (A') (A') (A') (A") (A') (A') (A') (A") (A") (A')
                 (A") (A') (A') (A") (A') (A') (A') (A') (A') (A')
                 (A") (A') (A') (A') (A') (A") (A") (A") (A') (A')
                 (A') (A') (A') (A') (A') (A') (A") (A') (A') (A')
                 (A') (A") (A') (A") (A") (A") (A') (A") (A') (A")
                 (A') (A") (A") (A') (A") (A") (A') (A') (A') (A')
                 (A') (A') (A') (A') (A') (A') (A') (A') (A') (A')
                 (A') (A') (A') (A") (A') (A') (A') (A') (A') (A')
                 (A') (A') (A') (A') (A') (A') (A') (A') (A') (A')
                 (A') (A') (A') (A') (A') (A') (A') (A') (A') (A')
                 (A') (A')
 The electronic state is 1-A'.
 Alpha  occ. eigenvalues --  -10.77633 -10.73602 -10.72881 -10.72712 -10.72129
 Alpha  occ. eigenvalues --  -10.71700 -10.71662 -10.71016 -10.70985 -10.70377
 Alpha  occ. eigenvalues --  -10.70136 -10.69835 -10.69809 -10.69427  -1.16479
 Alpha  occ. eigenvalues --   -1.12466  -1.06942  -1.05772  -1.01302  -1.00280
 Alpha  occ. eigenvalues --   -0.95686  -0.91042  -0.86429  -0.85895  -0.83799
 Alpha  occ. eigenvalues --   -0.78369  -0.76072  -0.74394  -0.69666  -0.69278
 Alpha  occ. eigenvalues --   -0.68412  -0.68133  -0.68098  -0.64997  -0.64250
 Alpha  occ. eigenvalues --   -0.62896  -0.61747  -0.60260  -0.59438  -0.59124
 Alpha  occ. eigenvalues --   -0.56916  -0.55250  -0.54696  -0.52440  -0.46940
 Alpha  occ. eigenvalues --   -0.46100  -0.44160
 Alpha virt. eigenvalues --   -0.26098  -0.14668  -0.14088  -0.12769  -0.11183
 Alpha virt. eigenvalues --   -0.10089  -0.09242  -0.07973  -0.07952  -0.07479
 Alpha virt. eigenvalues --   -0.07206  -0.07141  -0.05645  -0.05578  -0.05341
 Alpha virt. eigenvalues --   -0.03837  -0.03654  -0.03277  -0.03133  -0.02162
 Alpha virt. eigenvalues --   -0.01359  -0.00941   0.00191   0.00593   0.00651
 Alpha virt. eigenvalues --    0.01061   0.01509   0.01937   0.02182   0.02300
 Alpha virt. eigenvalues --    0.02449   0.02671   0.02767   0.03276   0.03421
 Alpha virt. eigenvalues --    0.04232   0.04500   0.04709   0.05035   0.05376
 Alpha virt. eigenvalues --    0.06029   0.06292   0.06588   0.07047   0.07262
 Alpha virt. eigenvalues --    0.07898   0.08122   0.08356   0.08585   0.08920
 Alpha virt. eigenvalues --    0.09513   0.09580   0.10006   0.10845   0.10998
 Alpha virt. eigenvalues --    0.11122   0.12136   0.12249   0.12794   0.13013
 Alpha virt. eigenvalues --    0.13440   0.13524   0.13999   0.14356   0.16013
 Alpha virt. eigenvalues --    0.16367   0.16426   0.17336   0.17551   0.17795
 Alpha virt. eigenvalues --    0.18121   0.19063   0.19317   0.19628   0.19819
 Alpha virt. eigenvalues --    0.21510   0.21625   0.22697   0.23136   0.23559
 Alpha virt. eigenvalues --    0.23878   0.24559   0.25384   0.26930   0.27609
 Alpha virt. eigenvalues --    0.28849   0.29274   0.29887   0.31354   0.35793
 Alpha virt. eigenvalues --    0.36442   0.38197   0.39278   0.41109   0.41352
 Alpha virt. eigenvalues --    0.41963   0.42163   0.42983   0.43692   0.44339
 Alpha virt. eigenvalues --    0.44842   0.45099   0.45968   0.46307   0.47926
 Alpha virt. eigenvalues --    0.48469   0.48826   0.49033   0.50470   0.51119
 Alpha virt. eigenvalues --    0.51356   0.51917   0.52128   0.52834   0.54055
 Alpha virt. eigenvalues --    0.54105   0.54619   0.55660   0.55848   0.57526
 Alpha virt. eigenvalues --    0.58231   0.58880   0.61468   0.62226   0.62381
 Alpha virt. eigenvalues --    0.63186   0.63483   0.64942   0.65155   0.67340
 Alpha virt. eigenvalues --    0.70385   0.70532   0.71118   0.72457   0.72886
 Alpha virt. eigenvalues --    0.75666   0.76045   0.76359   0.76816   0.77114
 Alpha virt. eigenvalues --    0.77856   0.77938   0.78256   0.79901   0.80394
 Alpha virt. eigenvalues --    0.81242   0.81581   0.82283   0.83001   0.85208
 Alpha virt. eigenvalues --    0.87102   0.88167   0.88373   0.89215   0.90526
 Alpha virt. eigenvalues --    0.91062   0.91337   0.93242   0.94612   0.96338
 Alpha virt. eigenvalues --    0.96797   1.00306   1.01273   1.01607   1.02774
 Alpha virt. eigenvalues --    1.03231   1.03323   1.04801   1.05990   1.08817
 Alpha virt. eigenvalues --    1.19566   1.23113   1.24115   1.24749   1.28480
 Alpha virt. eigenvalues --    1.29487   1.32011   1.34301   1.35758   1.35984
 Alpha virt. eigenvalues --    1.39337   1.39900   1.40907   1.42988   1.43477
 Alpha virt. eigenvalues --    1.43530   1.44396   1.46360   1.46361   1.46637
 Alpha virt. eigenvalues --    1.47670   1.48093   1.51746   1.53648   1.55744
 Alpha virt. eigenvalues --    1.55796   1.56320   1.56579   1.57795   1.61453
 Alpha virt. eigenvalues --    1.63140   1.63366   1.64035   1.66095   1.68327
 Alpha virt. eigenvalues --    1.68327   1.68706   1.69787   1.74398   1.76002
 Alpha virt. eigenvalues --    1.77167   1.78066   1.79917   1.80062   1.80788
 Alpha virt. eigenvalues --    1.82987   1.83202   1.83609   1.83832   1.84176
 Alpha virt. eigenvalues --    1.84428   1.85605   1.86297   1.88291   1.91401
 Alpha virt. eigenvalues --    1.92106   1.94091   1.95262   1.97735   1.98151
 Alpha virt. eigenvalues --    1.99767   2.02394   2.04464   2.07284   2.11764
 Alpha virt. eigenvalues --    2.12109   2.14180   2.15244   2.19080   2.21220
 Alpha virt. eigenvalues --    2.22766   2.28555   2.30206   2.34557   2.34869
 Alpha virt. eigenvalues --    2.36288   2.38636   2.39638   2.42348   2.44646
 Alpha virt. eigenvalues --    2.46139   2.46475   2.49281   2.52927   2.53790
 Alpha virt. eigenvalues --    2.54240   2.56829   2.57875   2.58359   2.59518
 Alpha virt. eigenvalues --    2.59884   2.61569   2.62136   2.63551   2.63758
 Alpha virt. eigenvalues --    2.64805   2.65091   2.65108   2.65493   2.67934
 Alpha virt. eigenvalues --    2.68462   2.70942   2.71439   2.73357   2.74813
 Alpha virt. eigenvalues --    2.76293   2.78580   2.79682   2.82967   2.83131
 Alpha virt. eigenvalues --    2.84867   2.86273   2.92112   2.97058   2.99462
 Alpha virt. eigenvalues --    3.00101   3.05017   3.10195   3.11318   3.13702
 Alpha virt. eigenvalues --    3.20798   3.22857   3.26529   3.28520   3.30598
 Alpha virt. eigenvalues --    3.32797   3.34234   3.43648   3.46062   3.46673
 Alpha virt. eigenvalues --    3.48393   3.50081   3.56443   3.65912   3.66864
 Alpha virt. eigenvalues --    3.67654   3.93984   3.94193   3.95356   3.96342
 Alpha virt. eigenvalues --    4.03968   4.06679   4.07590   4.12540   4.35390
 Alpha virt. eigenvalues --    4.61112   4.69509   4.71417  23.45287  23.60303
 Alpha virt. eigenvalues --   23.81184  23.83847  23.86400  23.89124  23.91316
 Alpha virt. eigenvalues --   23.94427  23.96211  23.97838  24.01856  24.03677
 Alpha virt. eigenvalues --   24.10901  24.11747
          Condensed to atoms (all electrons):
               1          2          3          4          5          6
     1  C    8.427547   0.462994  -0.621369   1.825499  -0.010155  -0.088325
     2  C    0.462994   7.165119   0.404744  -1.019150  -0.033569  -0.015057
     3  C   -0.621369   0.404744   6.599866   0.731378  -0.115902   0.016906
     4  C    1.825499  -1.019150   0.731378  11.360857  -0.377482  -0.135067
     5  C   -0.010155  -0.033569  -0.115902  -0.377482  10.790285   0.808869
     6  C   -0.088325  -0.015057   0.016906  -0.135067   0.808869   6.590966
     7  C   -0.028345   0.000778  -0.013589   0.003488  -1.165700   0.281827
     8  C    0.405865  -0.006410  -0.103030  -0.067879   2.189382  -0.437364
     9  C   -1.154829  -0.842635   0.295160  -0.043885  -0.359754   0.294150
    10  C   -1.225861   0.186168  -0.290905  -2.724392  -2.443668  -0.412295
    11  C    0.321040  -0.830295   0.924830  -0.299322  -1.446121  -0.131178
    12  C   -1.882922   1.134118  -1.355868  -1.632334  -0.252410  -0.259118
    13  C    0.200390  -0.218205  -0.211673  -1.568398  -0.301455   1.083001
    14  C   -1.125227  -0.266529  -0.141580  -0.423120  -1.632808  -1.471161
    15  H    0.367097  -0.106005  -0.002711   0.025874   0.006251   0.001196
    16  H   -0.020006   0.381936  -0.020166   0.016030  -0.001650  -0.000349
    17  H   -0.021178  -0.020856   0.379397  -0.069334   0.000188   0.000409
    18  H    0.048191   0.003412  -0.084114   0.463775   0.006121  -0.005028
    19  H   -0.044698  -0.008073   0.051140  -0.077518  -0.063990   0.051479
    20  H    0.007046   0.002037  -0.005206   0.006069   0.455271  -0.084489
    21  H   -0.001256  -0.000414   0.000389   0.000436  -0.066855   0.370169
    22  H    0.000492   0.000333  -0.000306  -0.001404   0.011096  -0.013439
    23  H    0.006382  -0.002423   0.001013   0.004962   0.029262   0.000413
    24  H    0.036432   0.015524  -0.001380  -0.011567  -0.012912  -0.001728
    25  H    0.036432   0.015524  -0.001380  -0.011567  -0.012912  -0.001728
               7          8          9         10         11         12
     1  C   -0.028345   0.405865  -1.154829  -1.225861   0.321040  -1.882922
     2  C    0.000778  -0.006410  -0.842635   0.186168  -0.830295   1.134118
     3  C   -0.013589  -0.103030   0.295160  -0.290905   0.924830  -1.355868
     4  C    0.003488  -0.067879  -0.043885  -2.724392  -0.299322  -1.632334
     5  C   -1.165700   2.189382  -0.359754  -2.443668  -1.446121  -0.252410
     6  C    0.281827  -0.437364   0.294150  -0.412295  -0.131178  -0.259118
     7  C    7.168636   0.097255  -0.784523   0.319270  -0.281867  -0.115220
     8  C    0.097255   8.845746  -1.137614  -1.360468   0.256703  -1.053841
     9  C   -0.784523  -1.137614   9.604990   0.256538   1.624830  -2.057070
    10  C    0.319270  -1.360468   0.256538   9.135692  -0.360286   2.397071
    11  C   -0.281867   0.256703   1.624830  -0.360286  14.537729  -4.001298
    12  C   -0.115220  -1.053841  -2.057070   2.397071  -4.001298  16.223293
    13  C   -0.969700   0.300566   1.519972  -0.480960   1.084657  -4.746330
    14  C    1.620508  -2.433779  -1.791676   2.457076  -4.821110   3.110519
    15  H   -0.002838   0.005117   0.088600  -0.008376  -0.029537  -0.016353
    16  H    0.000393   0.000943   0.002389  -0.010095   0.025580  -0.031145
    17  H   -0.000382  -0.001377  -0.005070   0.020154  -0.026113   0.087770
    18  H    0.002088   0.007134  -0.023336   0.009076  -0.008431  -0.049540
    19  H   -0.007455  -0.048140   0.075230   0.422143   0.076755  -0.080167
    20  H    0.002287   0.052950  -0.025756   0.014089  -0.012011  -0.009969
    21  H   -0.010571  -0.030110  -0.006251   0.020487  -0.006272   0.005348
    22  H    0.375515  -0.017669   0.003900  -0.008431   0.002666  -0.008091
    23  H   -0.107697   0.369412   0.094205  -0.010796   0.005407   0.005380
    24  H    0.013427   0.029445   0.356229   0.005384   0.021514  -0.059923
    25  H    0.013427   0.029445   0.356229   0.005384   0.021514  -0.059923
              13         14         15         16         17         18
     1  C    0.200390  -1.125227   0.367097  -0.020006  -0.021178   0.048191
     2  C   -0.218205  -0.266529  -0.106005   0.381936  -0.020856   0.003412
     3  C   -0.211673  -0.141580  -0.002711  -0.020166   0.379397  -0.084114
     4  C   -1.568398  -0.423120   0.025874   0.016030  -0.069334   0.463775
     5  C   -0.301455  -1.632808   0.006251  -0.001650   0.000188   0.006121
     6  C    1.083001  -1.471161   0.001196  -0.000349   0.000409  -0.005028
     7  C   -0.969700   1.620508  -0.002838   0.000393  -0.000382   0.002088
     8  C    0.300566  -2.433779   0.005117   0.000943  -0.001377   0.007134
     9  C    1.519972  -1.791676   0.088600   0.002389  -0.005070  -0.023336
    10  C   -0.480960   2.457076  -0.008376  -0.010095   0.020154   0.009076
    11  C    1.084657  -4.821110  -0.029537   0.025580  -0.026113  -0.008431
    12  C   -4.746330   3.110519  -0.016353  -0.031145   0.087770  -0.049540
    13  C   14.368847  -3.480331  -0.002006   0.003317  -0.006300  -0.012203
    14  C   -3.480331  15.947571   0.007336  -0.010016   0.005246  -0.019051
    15  H   -0.002006   0.007336   0.435604  -0.008960   0.001611   0.000223
    16  H    0.003317  -0.010016  -0.008960   0.417137  -0.006966   0.001956
    17  H   -0.006300   0.005246   0.001611  -0.006966   0.420603  -0.010145
    18  H   -0.012203  -0.019051   0.000223   0.001956  -0.010145   0.450051
    19  H    0.080636  -0.051673   0.000380  -0.000586   0.001631  -0.005883
    20  H   -0.003920  -0.062040  -0.000122   0.000018  -0.000160   0.001259
    21  H   -0.027582   0.096143   0.000016  -0.000007   0.000010  -0.000127
    22  H    0.026339  -0.033425  -0.000125   0.000007  -0.000007   0.000012
    23  H   -0.032570  -0.032897   0.000570  -0.000130   0.000011  -0.000105
    24  H    0.005588  -0.060412  -0.000931   0.000629  -0.000137   0.000154
    25  H    0.005588  -0.060412  -0.000931   0.000629  -0.000137   0.000154
              19         20         21         22         23         24
     1  C   -0.044698   0.007046  -0.001256   0.000492   0.006382   0.036432
     2  C   -0.008073   0.002037  -0.000414   0.000333  -0.002423   0.015524
     3  C    0.051140  -0.005206   0.000389  -0.000306   0.001013  -0.001380
     4  C   -0.077518   0.006069   0.000436  -0.001404   0.004962  -0.011567
     5  C   -0.063990   0.455271  -0.066855   0.011096   0.029262  -0.012912
     6  C    0.051479  -0.084489   0.370169  -0.013439   0.000413  -0.001728
     7  C   -0.007455   0.002287  -0.010571   0.375515  -0.107697   0.013427
     8  C   -0.048140   0.052950  -0.030110  -0.017669   0.369412   0.029445
     9  C    0.075230  -0.025756  -0.006251   0.003900   0.094205   0.356229
    10  C    0.422143   0.014089   0.020487  -0.008431  -0.010796   0.005384
    11  C    0.076755  -0.012011  -0.006272   0.002666   0.005407   0.021514
    12  C   -0.080167  -0.009969   0.005348  -0.008091   0.005380  -0.059923
    13  C    0.080636  -0.003920  -0.027582   0.026339  -0.032570   0.005588
    14  C   -0.051673  -0.062040   0.096143  -0.033425  -0.032897  -0.060412
    15  H    0.000380  -0.000122   0.000016  -0.000125   0.000570  -0.000931
    16  H   -0.000586   0.000018  -0.000007   0.000007  -0.000130   0.000629
    17  H    0.001631  -0.000160   0.000010  -0.000007   0.000011  -0.000137
    18  H   -0.005883   0.001259  -0.000127   0.000012  -0.000105   0.000154
    19  H    0.443226  -0.006636   0.001213  -0.000497   0.000247   0.000592
    20  H   -0.006636   0.457495  -0.010385   0.001896   0.000096   0.000212
    21  H    0.001213  -0.010385   0.424140  -0.006187   0.001305  -0.000148
    22  H   -0.000497   0.001896  -0.006187   0.421562  -0.008976   0.000634
    23  H    0.000247   0.000096   0.001305  -0.008976   0.442884  -0.000889
    24  H    0.000592   0.000212  -0.000148   0.000634  -0.000889   0.493562
    25  H    0.000592   0.000212  -0.000148   0.000634  -0.000889  -0.079320
              25
     1  C    0.036432
     2  C    0.015524
     3  C   -0.001380
     4  C   -0.011567
     5  C   -0.012912
     6  C   -0.001728
     7  C    0.013427
     8  C    0.029445
     9  C    0.356229
    10  C    0.005384
    11  C    0.021514
    12  C   -0.059923
    13  C    0.005588
    14  C   -0.060412
    15  H   -0.000931
    16  H    0.000629
    17  H   -0.000137
    18  H    0.000154
    19  H    0.000592
    20  H    0.000212
    21  H   -0.000148
    22  H    0.000634
    23  H   -0.000889
    24  H   -0.079320
    25  H    0.493562
 Mulliken charges:
               1
     1  C    0.078764
     2  C   -0.403064
     3  C   -0.435643
     4  C    0.024053
     5  C    0.000620
     6  C   -0.443058
     7  C   -0.411009
     8  C    0.107719
     9  C   -0.340024
    10  C    0.087999
    11  C   -0.649384
    12  C    0.708021
    13  C   -0.617270
    14  C    0.672851
    15  H    0.239021
    16  H    0.259114
    17  H    0.251132
    18  H    0.224355
    19  H    0.190055
    20  H    0.219759
    21  H    0.246657
    22  H    0.253470
    23  H    0.235822
    24  H    0.250020
    25  H    0.250020
 Sum of Mulliken charges =   1.00000
 Mulliken charges with hydrogens summed into heavy atoms:
               1
     1  C    0.317784
     2  C   -0.143950
     3  C   -0.184511
     4  C    0.248408
     5  C    0.220379
     6  C   -0.196401
     7  C   -0.157539
     8  C    0.343541
     9  C    0.160016
    10  C    0.278054
    11  C   -0.649384
    12  C    0.708021
    13  C   -0.617270
    14  C    0.672851
 Electronic spatial extent (au):  <R**2>=           2856.3881
 Charge=              1.0000 electrons
 Dipole moment (field-independent basis, Debye):
    X=             -0.1673    Y=             -0.7027    Z=             -0.0000  Tot=              0.7223
 Quadrupole moment (field-independent basis, Debye-Ang):
   XX=            -51.0086   YY=            -36.3276   ZZ=            -84.1378
   XY=             10.2506   XZ=              0.0000   YZ=              0.0000
 Traceless Quadrupole moment (field-independent basis, Debye-Ang):
   XX=              6.1494   YY=             20.8304   ZZ=            -26.9798
   XY=             10.2506   XZ=              0.0000   YZ=              0.0000
 Octapole moment (field-independent basis, Debye-Ang**2):
  XXX=             -2.1130  YYY=             -0.8216  ZZZ=              0.0000  XYY=             -2.0946
  XXY=             -7.1275  XXZ=              0.0000  XZZ=             -3.2083  YZZ=              0.5542
  YYZ=              0.0000  XYZ=             -0.0000
 Hexadecapole moment (field-independent basis, Debye-Ang**3):
 XXXX=           -989.1876 YYYY=          -1848.5630 ZZZZ=            -99.3255 XXXY=           -348.1346
 XXXZ=              0.0000 YYYX=           -274.3251 YYYZ=              0.0000 ZZZX=              0.0000
 ZZZY=              0.0000 XXYY=           -454.6592 XXZZ=           -241.7187 YYZZ=           -494.8094
 XXYZ=             -0.0000 YYXZ=              0.0000 ZZXY=           -183.0675
 N-N= 7.811630427804D+02 E-N=-2.798672570852D+03  KE= 5.375137354392D+02
 Symmetry A'   KE= 5.228637497336D+02
 Symmetry A"   KE= 1.464998570559D+01
 Unable to Open any file for archive entry.
 1\1\GINC-GADI-CPU-CLX-0648\SP\RM062X TD-FC\6-311++G(d,p)\C14H11(1+)\TS
 1578\27-Jul-2022\0\\#n M062X/6-311++G(d,p) TD(NStates=1) EmpiricalDisp
 ersion=GD3 SP\\SP_-50\\1,1\C,0,2.47605,1.3697,0.\C,0,3.681175,0.6718,0
 .\C,0,3.6783,-0.72085,0.\C,0,2.482725,-1.410325,0.\C,0,-2.443725,-1.38
 7575,0.\C,0,-3.6898,-0.68985,0.\C,0,-3.7223,0.689425,0.\C,0,-2.5103,1.
 3682,0.\C,0,-0.01095,1.4632,0.\C,0,0.0305,-1.42055,0.\C,0,1.2667,0.695
 275,0.\C,0,1.2499,-0.723525,0.\C,0,-1.257575,0.67615,0.\C,0,-1.2249,-0
 .720525,0.\H,0,2.4834,2.4527,0.\H,0,4.616275,1.213025,0.\H,0,4.613,-1.
 26345,0.\H,0,2.47655,-2.4925,0.\H,0,0.028125,-2.501625,0.\H,0,-2.4583,
 -2.470375,0.\H,0,-4.60575,-1.264575,0.\H,0,-4.6579,1.2274,0.\H,0,-2.49
 39,2.451575,0.\H,0,-0.04,2.15475,-0.859875\H,0,-0.04,2.15475,0.859875\
 \Version=ES64L-G16RevC.01\State=1-A'\HF=-539.7575127\RMSD=8.310e-09\PG
 =CS [SG(C14H9),X(H2)]\\@
 The archive entry for this job was punched.


 The number of Unix installations has grown to 10,
  with more expected.
                  -- The Unix Programmer's Manual,
                     2nd Edition, June, 1972.
 Job cpu time:       0 days  0 hours 45 minutes 21.8 seconds.
 Elapsed time:       0 days  0 hours  1 minutes 26.8 seconds.
 File lengths (MBytes):  RWF=    460 Int=      0 D2E=      0 Chk=     15 Scr=      1
 Normal termination of Gaussian 16 at Wed Jul 27 10:50:34 2022.
