 Entering Gaussian System, Link 0=g16
 Initial command:
 /apps/gaussian/g16c01/g16/l1.exe "/jobfs/52804872.gadi-pbs/Gau-1416740.inp" -scrdir="/jobfs/52804872.gadi-pbs/"
 Entering Link 1 = /apps/gaussian/g16c01/g16/l1.exe PID=   1416741.
  
 Copyright (c) 1988-2019, Gaussian, Inc.  All Rights Reserved.
  
 This is part of the Gaussian(R) 16 program.  It is based on
 the Gaussian(R) 09 system (copyright 2009, Gaussian, Inc.),
 the Gaussian(R) 03 system (copyright 2003, Gaussian, Inc.),
 the Gaussian(R) 98 system (copyright 1998, Gaussian, Inc.),
 the Gaussian(R) 94 system (copyright 1995, Gaussian, Inc.),
 the Gaussian 92(TM) system (copyright 1992, Gaussian, Inc.),
 the Gaussian 90(TM) system (copyright 1990, Gaussian, Inc.),
 the Gaussian 88(TM) system (copyright 1988, Gaussian, Inc.),
 the Gaussian 86(TM) system (copyright 1986, Carnegie Mellon
 University), and the Gaussian 82(TM) system (copyright 1983,
 Carnegie Mellon University). Gaussian is a federally registered
 trademark of Gaussian, Inc.
  
 This software contains proprietary and confidential information,
 including trade secrets, belonging to Gaussian, Inc.
  
 This software is provided under written license and may be
 used, copied, transmitted, or stored only in accord with that
 written license.
  
 The following legend is applicable only to US Government
 contracts under FAR:
  
                    RESTRICTED RIGHTS LEGEND
  
 Use, reproduction and disclosure by the US Government is
 subject to restrictions as set forth in subparagraphs (a)
 and (c) of the Commercial Computer Software - Restricted
 Rights clause in FAR 52.227-19.
  
 Gaussian, Inc.
 340 Quinnipiac St., Bldg. 40, Wallingford CT 06492
  
  
 ---------------------------------------------------------------
 Warning -- This program may not be used in any manner that
 competes with the business of Gaussian, Inc. or will provide
 assistance to any competitor of Gaussian, Inc.  The licensee
 of this program is prohibited from giving any competitor of
 Gaussian, Inc. access to this program.  By using this program,
 the user acknowledges that Gaussian, Inc. is engaged in the
 business of creating and licensing software in the field of
 computational chemistry and represents and warrants to the
 licensee that it is not a competitor of Gaussian, Inc. and that
 it will not use this program in any manner prohibited above.
 ---------------------------------------------------------------
  

 Cite this work as:
 Gaussian 16, Revision C.01,
 M. J. Frisch, G. W. Trucks, H. B. Schlegel, G. E. Scuseria, 
 M. A. Robb, J. R. Cheeseman, G. Scalmani, V. Barone, 
 G. A. Petersson, H. Nakatsuji, X. Li, M. Caricato, A. V. Marenich, 
 J. Bloino, B. G. Janesko, R. Gomperts, B. Mennucci, H. P. Hratchian, 
 J. V. Ortiz, A. F. Izmaylov, J. L. Sonnenberg, D. Williams-Young, 
 F. Ding, F. Lipparini, F. Egidi, J. Goings, B. Peng, A. Petrone, 
 T. Henderson, D. Ranasinghe, V. G. Zakrzewski, J. Gao, N. Rega, 
 G. Zheng, W. Liang, M. Hada, M. Ehara, K. Toyota, R. Fukuda, 
 J. Hasegawa, M. Ishida, T. Nakajima, Y. Honda, O. Kitao, H. Nakai, 
 T. Vreven, K. Throssell, J. A. Montgomery, Jr., J. E. Peralta, 
 F. Ogliaro, M. J. Bearpark, J. J. Heyd, E. N. Brothers, K. N. Kudin, 
 V. N. Staroverov, T. A. Keith, R. Kobayashi, J. Normand, 
 K. Raghavachari, A. P. Rendell, J. C. Burant, S. S. Iyengar, 
 J. Tomasi, M. Cossi, J. M. Millam, M. Klene, C. Adamo, R. Cammi, 
 J. W. Ochterski, R. L. Martin, K. Morokuma, O. Farkas, 
 J. B. Foresman, and D. J. Fox, Gaussian, Inc., Wallingford CT, 2019.
 
 ******************************************
 Gaussian 16:  ES64L-G16RevC.01  3-Jul-2019
                27-Jul-2022 
 ******************************************
 %NProcShared=32
 Will use up to   32 processors via shared memory.
 %mem = 128GB
 ---------------------------------------------------------------
 #n M062X/6-311++G(d,p) TD(NStates=1) EmpiricalDispersion=GD3 SP
 ---------------------------------------------------------------
 1/38=1,172=1/1;
 2/12=2,17=6,18=5,40=1/2;
 3/5=4,6=6,7=1111,11=9,25=1,30=1,74=-55,124=31/1,2,3,8;
 4//1;
 5/5=2,38=5/2;
 8/6=1,10=2,108=1/1;
 9/41=1,42=1,70=2/14;
 6/7=2,8=2,9=2,10=2/1;
 99/5=1,9=1/99;
 ------
 SP_-75
 ------
 Symbolic Z-matrix:
 Charge =  1 Multiplicity = 1
 C                     2.46625   1.37      0. 
 C                     3.66908   0.66643   0. 
 C                     3.675    -0.7304    0. 
 C                     2.49445  -1.4172    0. 
 C                    -2.43205  -1.3808    0. 
 C                    -3.6934   -0.6808    0. 
 C                    -3.73488   0.69463   0. 
 C                    -2.52105   1.3676    0. 
 C                    -0.01753   1.4643    0. 
 C                     0.0488   -1.4206    0. 
 C                     1.26948   0.70103   0. 
 C                     1.2573   -0.72435   0. 
 C                    -1.25488   0.67043   0. 
 C                    -1.2173   -0.71955   0. 
 H                     2.4808    2.45288   0. 
 H                     4.60407   1.20853   0. 
 H                     4.61525  -1.26343   0. 
 H                     2.48195  -2.49918   0. 
 H                     0.045    -2.50165   0. 
 H                    -2.45275  -2.46378   0. 
 H                    -4.60365  -1.26523   0. 
 H                    -4.67068   1.23152   0. 
 H                    -2.4976    2.45108   0. 
 H                    -0.064     2.155    -0.86015 
 H                    -0.064     2.155     0.86015 
 
                          Input orientation:                          
 ---------------------------------------------------------------------
 Center     Atomic      Atomic             Coordinates (Angstroms)
 Number     Number       Type             X           Y           Z
 ---------------------------------------------------------------------
      1          6           0        2.466250    1.370000    0.000000
      2          6           0        3.669075    0.666425    0.000000
      3          6           0        3.675000   -0.730400    0.000000
      4          6           0        2.494450   -1.417200    0.000000
      5          6           0       -2.432050   -1.380800    0.000000
      6          6           0       -3.693400   -0.680800    0.000000
      7          6           0       -3.734875    0.694625    0.000000
      8          6           0       -2.521050    1.367600    0.000000
      9          6           0       -0.017525    1.464300    0.000000
     10          6           0        0.048800   -1.420600    0.000000
     11          6           0        1.269475    0.701025    0.000000
     12          6           0        1.257300   -0.724350    0.000000
     13          6           0       -1.254875    0.670425    0.000000
     14          6           0       -1.217300   -0.719550    0.000000
     15          1           0        2.480800    2.452875    0.000000
     16          1           0        4.604075    1.208525    0.000000
     17          1           0        4.615250   -1.263425    0.000000
     18          1           0        2.481950   -2.499175    0.000000
     19          1           0        0.045000   -2.501650    0.000000
     20          1           0       -2.452750   -2.463775    0.000000
     21          1           0       -4.603650   -1.265225    0.000000
     22          1           0       -4.670675    1.231525    0.000000
     23          1           0       -2.497600    2.451075    0.000000
     24          1           0       -0.064000    2.155000   -0.860150
     25          1           0       -0.064000    2.155000    0.860150
 ---------------------------------------------------------------------
                    Distance matrix (angstroms):
                    1          2          3          4          5
     1  C    0.000000
     2  C    1.393487   0.000000
     3  C    2.423377   1.396838   0.000000
     4  C    2.787343   2.391911   1.365794   0.000000
     5  C    5.617850   6.435438   6.141586   4.926634   0.000000
     6  C    6.492077   7.484721   7.368567   6.231514   1.442568
     7  C    6.237795   7.404004   7.545657   6.577560   2.450457
     8  C    4.987301   6.229711   6.541608   5.736754   2.749841
     9  C    2.485564   3.771952   4.295515   3.822703   3.731558
    10  C    3.692088   4.178764   3.691301   2.445652   2.481169
    11  C    1.371057   2.399849   2.799201   2.446925   4.246797
    12  C    2.418235   2.784046   2.417708   1.417950   3.747296
    13  C    3.786314   4.923952   5.125034   4.291342   2.365008
    14  C    4.234945   5.079133   4.892312   3.776745   1.383065
    15  H    1.082973   2.145554   3.399905   3.870099   6.231626
    16  H    2.143915   1.080786   2.150026   3.368226   7.497443
    17  H    3.398989   2.149318   1.080826   2.126368   7.048277
    18  H    3.869207   3.380871   2.133526   1.082047   5.039659
    19  H    4.566413   4.813587   4.039087   2.678775   2.718838
    20  H    6.236537   6.875674   6.368195   5.056689   1.083173
    21  H    7.545058   8.495249   8.295908   7.099727   2.174673
    22  H    7.138268   8.358874   8.573181   7.639029   3.440303
    23  H    5.080210   6.419724   6.944262   6.315387   3.832436
    24  H    2.785363   4.109935   4.800574   4.477291   4.341590
    25  H    2.785363   4.109935   4.800574   4.477291   4.341590
                    6          7          8          9         10
     6  C    0.000000
     7  C    1.376050   0.000000
     8  C    2.360158   1.387900   0.000000
     9  C    4.255997   3.796194   2.505392   0.000000
    10  C    3.814625   4.334786   3.791858   2.885662   0.000000
    11  C    5.151657   5.004354   3.848688   1.496315   2.447721
    12  C    4.950892   5.189923   4.318817   2.532858   1.394717
    13  C    2.787869   2.480118   1.445425   1.470127   2.464134
    14  C    2.476403   2.887572   2.460886   2.491718   1.447232
    15  H    6.923920   6.459571   5.118235   2.686803   4.573667
    16  H    8.509855   8.354770   7.126901   4.628672   5.259546
    17  H    8.329053   8.576628   7.605858   5.376159   4.569154
    18  H    6.437502   6.989225   6.323129   4.685777   2.661493
    19  H    4.158260   4.950114   4.642813   3.966443   1.081057
    20  H    2.172145   3.408715   3.831984   4.621698   2.710344
    21  H    1.081715   2.143778   3.356932   5.336933   4.655044
    22  H    2.147569   1.078881   2.153928   4.658969   5.413614
    23  H    3.352399   2.148480   1.083729   2.669175   4.634007
    24  H    4.685527   4.043251   2.719734   1.104122   3.679334
    25  H    4.685527   4.043251   2.719734   1.104122   3.679334
                   11         12         13         14         15
    11  C    0.000000
    12  C    1.425427   0.000000
    13  C    2.524535   2.873399   0.000000
    14  C    2.863928   2.474605   1.390483   0.000000
    15  H    2.129856   3.404660   4.139130   4.872394   0.000000
    16  H    3.372998   3.864830   5.883608   6.132363   2.461037
    17  H    3.879855   3.400945   6.180465   5.857853   4.285646
    18  H    3.422189   2.156333   4.900023   4.105060   4.952050
    19  H    3.428770   2.151387   3.428080   2.183869   5.520909
    20  H    4.885787   4.097569   3.355311   2.137442   6.965153
    21  H    6.193524   5.885854   3.867950   3.430033   8.000856
    22  H    5.963792   6.242302   3.461578   3.966421   7.255018
    23  H    4.153737   4.917580   2.171423   3.419361   4.978400
    24  H    2.152221   3.282735   2.088541   3.214498   2.702701
    25  H    2.152221   3.282735   2.088541   3.214498   2.702701
                   16         17         18         19         20
    16  H    0.000000
    17  H    2.471975   0.000000
    18  H    4.272055   2.465370   0.000000
    19  H    5.877973   4.735017   2.436951   0.000000
    20  H    7.955160   7.169202   4.934827   2.498037   0.000000
    21  H    9.534235   9.218900   7.192243   4.810270   2.462294
    22  H    9.274779   9.615258   8.067104   6.014498   4.309807
    23  H    7.209557   8.024347   7.021459   5.567252   4.915055
    24  H    4.840103   5.858401   5.374297   4.736679   5.270585
    25  H    4.840103   5.858401   5.374297   4.736679   5.270585
                   21         22         23         24         25
    21  H    0.000000
    22  H    2.497649   0.000000
    23  H    4.271573   2.491898   0.000000
    24  H    5.748584   4.776413   2.598062   0.000000
    25  H    5.748584   4.776413   2.598062   1.720300   0.000000
 Stoichiometry    C14H11(1+)
 Framework group  CS[SG(C14H9),X(H2)]
 Deg. of freedom    46
 Full point group                 CS      NOp   2
 Largest Abelian subgroup         CS      NOp   2
 Largest concise Abelian subgroup CS      NOp   2
                         Standard orientation:                         
 ---------------------------------------------------------------------
 Center     Atomic      Atomic             Coordinates (Angstroms)
 Number     Number       Type             X           Y           Z
 ---------------------------------------------------------------------
      1          6           0        0.099032   -2.815918    0.000000
      2          6           0        1.320500   -3.486605    0.000000
      3          6           0        2.522051   -2.774264    0.000000
      4          6           0        2.504997   -1.408577    0.000000
      5          6           0       -0.056542    2.799778    0.000000
      6          6           0       -1.305002    3.522517    0.000000
      7          6           0       -2.506450    2.851669    0.000000
      8          6           0       -2.460443    1.464532    0.000000
      9          6           0       -1.257575   -0.733216    0.000000
     10          6           0        1.251800    0.691593    0.000000
     11          6           0        0.058351   -1.445465    0.000000
     12          6           0        1.275102   -0.702929    0.000000
     13          6           0       -1.211929    0.736202    0.000000
     14          6           0        0.000000    1.417869    0.000000
     15          1           0       -0.822626   -3.384580    0.000000
     16          1           0        1.335593   -4.567286    0.000000
     17          1           0        3.462322   -3.307252    0.000000
     18          1           0        3.426936   -0.842136    0.000000
     19          1           0        2.177414    1.250094    0.000000
     20          1           0        0.862044    3.373767    0.000000
     21          1           0       -1.271067    4.603699    0.000000
     22          1           0       -3.447760    3.378849    0.000000
     23          1           0       -3.378046    0.887926    0.000000
     24          1           0       -1.874081   -1.048091    0.860150
     25          1           0       -1.874081   -1.048091   -0.860150
 ---------------------------------------------------------------------
 Rotational constants (GHZ):           2.1359169           0.4444300           0.3686834
 Standard basis: 6-311++G(d,p) (5D, 7F)
 There are   299 symmetry adapted cartesian basis functions of A'  symmetry.
 There are   100 symmetry adapted cartesian basis functions of A"  symmetry.
 There are   285 symmetry adapted basis functions of A'  symmetry.
 There are   100 symmetry adapted basis functions of A"  symmetry.
   385 basis functions,   603 primitive gaussians,   399 cartesian basis functions
    47 alpha electrons       47 beta electrons
       nuclear repulsion energy       781.1473999832 Hartrees.
 NAtoms=   25 NActive=   25 NUniq=   24 SFac= 1.09D+00 NAtFMM=   60 NAOKFM=F Big=F
 Integral buffers will be    131072 words long.
 Regular integral format.
 Two-electron integral symmetry is turned on.
 Nuclear repulsion after empirical dispersion term =      781.1464208932 Hartrees.
 One-electron integrals computed using PRISM.
 NBasis=   385 RedAO= T EigKep=  1.12D-06  NBF=   285   100
 NBsUse=   379 1.00D-06 EigRej=  8.37D-07 NBFU=   279   100
 ExpMin= 3.60D-02 ExpMax= 4.56D+03 ExpMxC= 6.82D+02 IAcc=3 IRadAn=         5 AccDes= 0.00D+00
 Harris functional with IExCor= 1009 and IRadAn=       5 diagonalized for initial guess.
 HarFok:  IExCor= 1009 AccDes= 0.00D+00 IRadAn=         5 IDoV= 1 UseB2=F ITyADJ=14
 ICtDFT=  3500011 ScaDFX=  1.000000  1.000000  1.000000  1.000000
 FoFCou: FMM=F IPFlag=           0 FMFlag=      100000 FMFlg1=           0
         NFxFlg=           0 DoJE=T BraDBF=F KetDBF=T FulRan=T
         wScrn=  0.000000 ICntrl=       500 IOpCl=  0 I1Cent=   200000004 NGrid=           0
         NMat0=    1 NMatS0=      1 NMatT0=    0 NMatD0=    1 NMtDS0=    0 NMtDT0=    0
 Petite list used in FoFCou.
 Initial guess orbital symmetries:
       Occupied  (A') (A') (A') (A') (A') (A') (A') (A') (A') (A')
                 (A') (A') (A') (A') (A') (A') (A') (A') (A') (A')
                 (A') (A') (A') (A') (A') (A') (A') (A') (A') (A')
                 (A') (A') (A") (A') (A') (A') (A') (A') (A") (A')
                 (A") (A') (A') (A") (A") (A") (A")
       Virtual   (A") (A") (A") (A") (A") (A') (A') (A') (A') (A")
                 (A") (A') (A') (A') (A") (A') (A') (A') (A') (A")
                 (A') (A") (A') (A') (A') (A") (A') (A") (A') (A')
                 (A') (A') (A') (A') (A") (A') (A") (A') (A') (A')
                 (A") (A') (A") (A') (A') (A') (A') (A') (A") (A')
                 (A') (A') (A") (A") (A') (A') (A') (A") (A") (A')
                 (A') (A') (A') (A') (A') (A') (A") (A') (A') (A")
                 (A') (A') (A') (A') (A') (A') (A') (A') (A') (A')
                 (A') (A') (A') (A') (A') (A') (A') (A') (A') (A')
                 (A') (A') (A') (A') (A') (A') (A') (A") (A') (A")
                 (A') (A') (A") (A") (A') (A") (A') (A") (A") (A')
                 (A") (A') (A') (A') (A") (A') (A') (A") (A") (A')
                 (A") (A") (A') (A') (A') (A") (A') (A') (A') (A")
                 (A') (A') (A') (A') (A') (A') (A") (A') (A') (A')
                 (A') (A') (A') (A') (A') (A') (A') (A') (A') (A")
                 (A") (A') (A") (A") (A') (A') (A') (A") (A") (A')
                 (A") (A') (A") (A") (A") (A') (A') (A') (A') (A')
                 (A') (A") (A') (A') (A") (A') (A') (A') (A') (A")
                 (A') (A') (A') (A') (A") (A") (A') (A') (A") (A")
                 (A") (A') (A') (A") (A') (A') (A') (A") (A') (A')
                 (A") (A") (A") (A') (A') (A") (A') (A") (A') (A')
                 (A") (A") (A') (A") (A') (A") (A') (A') (A') (A")
                 (A') (A') (A') (A') (A") (A') (A') (A') (A") (A")
                 (A') (A') (A') (A") (A') (A') (A") (A') (A") (A')
                 (A") (A') (A') (A') (A') (A") (A') (A') (A') (A")
                 (A') (A') (A') (A") (A") (A') (A') (A") (A') (A')
                 (A') (A") (A') (A") (A') (A') (A') (A") (A') (A")
                 (A') (A') (A') (A') (A") (A') (A") (A') (A") (A')
                 (A") (A') (A") (A") (A") (A') (A') (A') (A') (A')
                 (A') (A') (A') (A') (A') (A') (A') (A') (A') (A')
                 (A') (A') (A') (A') (A') (A") (A') (A') (A') (A')
                 (A') (A') (A') (A') (A') (A') (A') (A') (A') (A')
                 (A') (A') (A') (A') (A') (A') (A') (A') (A') (A')
                 (A') (A')
 The electronic state of the initial guess is 1-A'.
 Requested convergence on RMS density matrix=1.00D-08 within 128 cycles.
 Requested convergence on MAX density matrix=1.00D-06.
 Requested convergence on             energy=1.00D-06.
 No special actions if energy rises.
 SCF Done:  E(RM062X) =  -539.753298298     A.U. after   15 cycles
            NFock= 15  Conv=0.99D-08     -V/T= 2.0041
 DoSCS=F DFT=T ScalE2(SS,OS)=  1.000000  1.000000
 ExpMin= 3.60D-02 ExpMax= 4.56D+03 ExpMxC= 6.82D+02 IAcc=3 IRadAn=         5 AccDes= 0.00D+00
 HarFok:  IExCor=  205 AccDes= 0.00D+00 IRadAn=         5 IDoV=-2 UseB2=F ITyADJ=14
 ICtDFT= 12500011 ScaDFX=  1.000000  1.000000  1.000000  1.000000
 Range of M.O.s used for correlation:    15   379
 NBasis=   385 NAE=    47 NBE=    47 NFC=    14 NFV=     0
 NROrb=    365 NOA=    33 NOB=    33 NVA=   332 NVB=   332

 **** Warning!!: The largest alpha MO coefficient is  0.13952683D+03

 Orbital symmetries:
       Occupied  (A') (A') (A') (A') (A') (A') (A') (A') (A') (A')
                 (A') (A') (A') (A') (A') (A') (A') (A') (A') (A')
                 (A') (A') (A') (A') (A') (A') (A') (A') (A') (A')
                 (A') (A") (A') (A') (A') (A') (A') (A") (A") (A')
                 (A') (A') (A') (A") (A") (A") (A")
       Virtual   (A") (A") (A") (A") (A') (A') (A') (A') (A") (A')
                 (A') (A") (A') (A') (A") (A') (A") (A') (A') (A')
                 (A") (A") (A') (A') (A') (A") (A') (A") (A') (A')
                 (A") (A') (A") (A') (A') (A') (A') (A') (A") (A')
                 (A") (A') (A') (A") (A") (A') (A") (A') (A") (A')
                 (A') (A') (A') (A') (A') (A") (A') (A') (A') (A')
                 (A') (A") (A') (A') (A') (A") (A') (A') (A') (A')
                 (A') (A') (A') (A') (A') (A') (A') (A') (A') (A')
                 (A') (A') (A') (A') (A') (A') (A') (A') (A') (A')
                 (A') (A') (A') (A') (A") (A') (A") (A") (A') (A")
                 (A') (A') (A') (A') (A") (A") (A') (A") (A") (A')
                 (A') (A') (A") (A') (A") (A') (A') (A") (A') (A")
                 (A") (A') (A") (A') (A') (A') (A") (A') (A') (A')
                 (A') (A') (A') (A') (A') (A') (A') (A') (A') (A')
                 (A') (A') (A') (A") (A') (A') (A') (A') (A') (A')
                 (A') (A") (A') (A') (A") (A') (A") (A") (A') (A")
                 (A") (A') (A') (A") (A") (A') (A") (A") (A') (A')
                 (A') (A') (A") (A') (A") (A') (A') (A') (A') (A")
                 (A') (A') (A') (A") (A") (A') (A') (A") (A") (A')
                 (A") (A') (A') (A") (A") (A') (A') (A') (A') (A')
                 (A") (A") (A") (A') (A") (A') (A') (A") (A') (A')
                 (A') (A") (A') (A") (A") (A') (A") (A') (A') (A")
                 (A') (A') (A') (A') (A") (A') (A') (A') (A") (A")
                 (A') (A') (A') (A") (A') (A') (A') (A") (A") (A')
                 (A") (A') (A') (A") (A') (A') (A') (A') (A') (A')
                 (A") (A') (A') (A') (A') (A") (A") (A") (A') (A')
                 (A') (A') (A') (A') (A') (A') (A') (A") (A') (A')
                 (A') (A") (A') (A") (A") (A") (A') (A") (A') (A")
                 (A') (A") (A") (A') (A") (A") (A') (A') (A') (A')
                 (A') (A') (A') (A') (A') (A') (A') (A') (A') (A')
                 (A') (A') (A') (A") (A') (A') (A') (A') (A') (A')
                 (A') (A') (A') (A') (A') (A') (A') (A') (A') (A')
                 (A') (A') (A') (A') (A') (A') (A') (A') (A') (A')
                 (A') (A')
     4 initial guesses have been made.
 Convergence on wavefunction:    0.001000000000000
 Iteration     1 Dimension     4 NMult     0 NNew      4
 CISAX will form     4 AO SS matrices at one time.
 Iteration     2 Dimension     6 NMult     4 NNew      2
 Iteration     3 Dimension     8 NMult     6 NNew      2
 Iteration     4 Dimension    10 NMult     8 NNew      2
 Iteration     5 Dimension    12 NMult    10 NNew      2
 Iteration     6 Dimension    14 NMult    12 NNew      2
 ***********************************************************************
 Excited states from <AA,BB:AA,BB> singles matrix:
 ***********************************************************************
 
 Ground to excited state transition densities written to RWF  633
 Ground to excited state transition electric dipole moments (Au):
       state          X           Y           Z        Dip. S.      Osc.
         1        -0.4932     -0.2294     -0.0000      0.2959      0.0192
 Ground to excited state transition velocity dipole moments (Au):
       state          X           Y           Z        Dip. S.      Osc.
         1         0.0520      0.0292      0.0000      0.0036      0.0243
 Ground to excited state transition magnetic dipole moments (Au):
       state          X           Y           Z
         1         0.0000      0.0000     -0.1752
 Ground to excited state transition velocity quadrupole moments (Au):
       state          XX          YY          ZZ          XY          XZ          YZ
         1         0.0053      0.2554     -0.0081     -0.0536      0.0000     -0.0000
 <0|del|b> * <b|rxdel|0> + <0|del|b> * <b|delr+rdel|0>
 Rotatory Strengths (R) in cgs (10**-40 erg-esu-cm/Gauss)
       state          XX          YY          ZZ    R(velocity)    E-M Angle
         1        -0.0000     -0.0000      0.0000     -0.0000       90.00
 1/2[<0|r|b>*<b|rxdel|0> + (<0|rxdel|b>*<b|r|0>)*]
 Rotatory Strengths (R) in cgs (10**-40 erg-esu-cm/Gauss)
       state          XX          YY          ZZ     R(length)
         1         0.0000      0.0000     -0.0000     -0.0000
  1/2[<0|del|b>*<b|r|0> + (<0|r|b>*<b|del|0>)*] (Au)
       state          X           Y           Z        Dip. S.   Osc.(frdel)
         1        -0.0256     -0.0067     -0.0000      0.0323      0.0216

 Excitation energies and oscillator strengths:
 
 Excited State   1:      Singlet-A'     2.6542 eV  467.13 nm  f=0.0192  <S**2>=0.000
      47 -> 48         0.70350
 This state for optimization and/or second-order correction.
 Total Energy, E(TD-HF/TD-DFT) =  -539.655758563    
 Copying the excited state density for this state as the 1-particle RhoCI density.
 SavETr:  write IOETrn=   770 NScale= 10 NData=  16 NLR=1 NState=    1 LETran=      28.

 **********************************************************************

            Population analysis using the SCF Density.

 **********************************************************************

 Orbital symmetries:
       Occupied  (A') (A') (A') (A') (A') (A') (A') (A') (A') (A')
                 (A') (A') (A') (A') (A') (A') (A') (A') (A') (A')
                 (A') (A') (A') (A') (A') (A') (A') (A') (A') (A')
                 (A') (A") (A') (A') (A') (A') (A') (A") (A") (A')
                 (A') (A') (A') (A") (A") (A") (A")
       Virtual   (A") (A") (A") (A") (A') (A') (A') (A') (A") (A')
                 (A') (A") (A') (A') (A") (A') (A") (A') (A') (A')
                 (A") (A") (A') (A') (A') (A") (A') (A") (A') (A')
                 (A") (A') (A") (A') (A') (A') (A') (A') (A") (A')
                 (A") (A') (A') (A") (A") (A') (A") (A') (A") (A')
                 (A') (A') (A') (A') (A') (A") (A') (A') (A') (A')
                 (A') (A") (A') (A') (A') (A") (A') (A') (A') (A')
                 (A') (A') (A') (A') (A') (A') (A') (A') (A') (A')
                 (A') (A') (A') (A') (A') (A') (A') (A') (A') (A')
                 (A') (A') (A') (A') (A") (A') (A") (A") (A') (A")
                 (A') (A') (A') (A') (A") (A") (A') (A") (A") (A')
                 (A') (A') (A") (A') (A") (A') (A') (A") (A') (A")
                 (A") (A') (A") (A') (A') (A') (A") (A') (A') (A')
                 (A') (A') (A') (A') (A') (A') (A') (A') (A') (A')
                 (A') (A') (A') (A") (A') (A') (A') (A') (A') (A')
                 (A') (A") (A') (A') (A") (A') (A") (A") (A') (A")
                 (A") (A') (A') (A") (A") (A') (A") (A") (A') (A')
                 (A') (A') (A") (A') (A") (A') (A') (A') (A') (A")
                 (A') (A') (A') (A") (A") (A') (A') (A") (A") (A')
                 (A") (A') (A') (A") (A") (A') (A') (A') (A') (A')
                 (A") (A") (A") (A') (A") (A') (A') (A") (A') (A')
                 (A') (A") (A') (A") (A") (A') (A") (A') (A') (A")
                 (A') (A') (A') (A') (A") (A') (A') (A') (A") (A")
                 (A') (A') (A') (A") (A') (A') (A') (A") (A") (A')
                 (A") (A') (A') (A") (A') (A') (A') (A') (A') (A')
                 (A") (A') (A') (A') (A') (A") (A") (A") (A') (A')
                 (A') (A') (A') (A') (A') (A') (A') (A") (A') (A')
                 (A') (A") (A') (A") (A") (A") (A') (A") (A') (A")
                 (A') (A") (A") (A') (A") (A") (A') (A') (A') (A')
                 (A') (A') (A') (A') (A') (A') (A') (A') (A') (A')
                 (A') (A') (A') (A") (A') (A') (A') (A') (A') (A')
                 (A') (A') (A') (A') (A') (A') (A') (A') (A') (A')
                 (A') (A') (A') (A') (A') (A') (A') (A') (A') (A')
                 (A') (A')
 The electronic state is 1-A'.
 Alpha  occ. eigenvalues --  -10.77579 -10.73815 -10.72859 -10.72665 -10.72069
 Alpha  occ. eigenvalues --  -10.71932 -10.71884 -10.70992 -10.70796 -10.70233
 Alpha  occ. eigenvalues --  -10.70020 -10.69955 -10.69713 -10.69306  -1.16541
 Alpha  occ. eigenvalues --   -1.12467  -1.06937  -1.05847  -1.01284  -1.00421
 Alpha  occ. eigenvalues --   -0.95552  -0.91022  -0.86443  -0.85887  -0.83772
 Alpha  occ. eigenvalues --   -0.78325  -0.76140  -0.74362  -0.69801  -0.69323
 Alpha  occ. eigenvalues --   -0.68293  -0.68092  -0.68054  -0.65288  -0.64229
 Alpha  occ. eigenvalues --   -0.62725  -0.61561  -0.60483  -0.59237  -0.59167
 Alpha  occ. eigenvalues --   -0.56942  -0.55267  -0.54523  -0.52442  -0.47339
 Alpha  occ. eigenvalues --   -0.46127  -0.43759
 Alpha virt. eigenvalues --   -0.26110  -0.14666  -0.14075  -0.12761  -0.11191
 Alpha virt. eigenvalues --   -0.10093  -0.09261  -0.07958  -0.07925  -0.07485
 Alpha virt. eigenvalues --   -0.07211  -0.07134  -0.05647  -0.05573  -0.05353
 Alpha virt. eigenvalues --   -0.03852  -0.03666  -0.03272  -0.03133  -0.02156
 Alpha virt. eigenvalues --   -0.01346  -0.00958   0.00188   0.00593   0.00636
 Alpha virt. eigenvalues --    0.01065   0.01503   0.01932   0.02139   0.02305
 Alpha virt. eigenvalues --    0.02448   0.02673   0.02799   0.03244   0.03460
 Alpha virt. eigenvalues --    0.04219   0.04494   0.04727   0.05042   0.05393
 Alpha virt. eigenvalues --    0.06023   0.06287   0.06576   0.07053   0.07274
 Alpha virt. eigenvalues --    0.07906   0.08071   0.08348   0.08647   0.08907
 Alpha virt. eigenvalues --    0.09478   0.09589   0.09959   0.10807   0.10952
 Alpha virt. eigenvalues --    0.11131   0.12088   0.12247   0.12672   0.13033
 Alpha virt. eigenvalues --    0.13472   0.13525   0.13973   0.14316   0.15841
 Alpha virt. eigenvalues --    0.16378   0.16490   0.17326   0.17438   0.17775
 Alpha virt. eigenvalues --    0.18126   0.19068   0.19365   0.19674   0.19936
 Alpha virt. eigenvalues --    0.21468   0.21653   0.22653   0.23195   0.23569
 Alpha virt. eigenvalues --    0.23961   0.24532   0.25456   0.26948   0.27618
 Alpha virt. eigenvalues --    0.28856   0.29247   0.29930   0.31349   0.35758
 Alpha virt. eigenvalues --    0.36468   0.38219   0.39281   0.41034   0.41271
 Alpha virt. eigenvalues --    0.41971   0.42103   0.42982   0.43706   0.44404
 Alpha virt. eigenvalues --    0.44762   0.45134   0.45871   0.46418   0.47889
 Alpha virt. eigenvalues --    0.48382   0.48768   0.49043   0.50538   0.51065
 Alpha virt. eigenvalues --    0.51214   0.52087   0.52147   0.52750   0.54128
 Alpha virt. eigenvalues --    0.54166   0.54591   0.55627   0.55981   0.57599
 Alpha virt. eigenvalues --    0.58219   0.58985   0.61511   0.62274   0.62435
 Alpha virt. eigenvalues --    0.63154   0.63472   0.64912   0.65163   0.67478
 Alpha virt. eigenvalues --    0.70314   0.70464   0.71243   0.72529   0.72916
 Alpha virt. eigenvalues --    0.75546   0.76059   0.76444   0.76729   0.77122
 Alpha virt. eigenvalues --    0.77874   0.78026   0.78294   0.79927   0.80389
 Alpha virt. eigenvalues --    0.81235   0.81531   0.82455   0.82986   0.85248
 Alpha virt. eigenvalues --    0.87022   0.88079   0.88163   0.89347   0.90648
 Alpha virt. eigenvalues --    0.91035   0.91464   0.93322   0.94589   0.96252
 Alpha virt. eigenvalues --    0.96952   1.00115   1.01280   1.01495   1.02859
 Alpha virt. eigenvalues --    1.02889   1.03288   1.04902   1.06529   1.08910
 Alpha virt. eigenvalues --    1.19587   1.22905   1.24141   1.24171   1.29041
 Alpha virt. eigenvalues --    1.29239   1.32324   1.34283   1.35743   1.35955
 Alpha virt. eigenvalues --    1.39303   1.39576   1.40797   1.42929   1.43401
 Alpha virt. eigenvalues --    1.43473   1.44259   1.46362   1.46578   1.47015
 Alpha virt. eigenvalues --    1.47715   1.48241   1.51783   1.53687   1.55725
 Alpha virt. eigenvalues --    1.55755   1.56274   1.56590   1.57827   1.61476
 Alpha virt. eigenvalues --    1.62925   1.63392   1.64248   1.66077   1.68283
 Alpha virt. eigenvalues --    1.68372   1.68728   1.69865   1.74419   1.76031
 Alpha virt. eigenvalues --    1.77169   1.78093   1.79785   1.79975   1.80899
 Alpha virt. eigenvalues --    1.82784   1.83188   1.83608   1.83806   1.84188
 Alpha virt. eigenvalues --    1.84632   1.85414   1.86465   1.88391   1.91432
 Alpha virt. eigenvalues --    1.92167   1.94047   1.95368   1.97809   1.98154
 Alpha virt. eigenvalues --    1.99817   2.02372   2.04562   2.07327   2.11703
 Alpha virt. eigenvalues --    2.12190   2.14293   2.15281   2.19055   2.21190
 Alpha virt. eigenvalues --    2.22726   2.28450   2.30294   2.34430   2.34758
 Alpha virt. eigenvalues --    2.36382   2.38575   2.39699   2.42322   2.44580
 Alpha virt. eigenvalues --    2.46102   2.46453   2.49159   2.52957   2.53776
 Alpha virt. eigenvalues --    2.54263   2.56882   2.57932   2.58447   2.59392
 Alpha virt. eigenvalues --    2.59932   2.61519   2.62140   2.63574   2.63708
 Alpha virt. eigenvalues --    2.64844   2.65047   2.65062   2.65637   2.67919
 Alpha virt. eigenvalues --    2.68361   2.70921   2.71480   2.73380   2.74807
 Alpha virt. eigenvalues --    2.76277   2.78316   2.79628   2.83128   2.83244
 Alpha virt. eigenvalues --    2.84850   2.86257   2.92118   2.97137   2.99399
 Alpha virt. eigenvalues --    3.00163   3.04913   3.09272   3.11158   3.14261
 Alpha virt. eigenvalues --    3.20492   3.21927   3.26104   3.28793   3.30755
 Alpha virt. eigenvalues --    3.32823   3.34842   3.44025   3.46295   3.46785
 Alpha virt. eigenvalues --    3.48285   3.50015   3.56411   3.65894   3.66961
 Alpha virt. eigenvalues --    3.67978   3.93544   3.93996   3.95349   3.96552
 Alpha virt. eigenvalues --    4.03902   4.06415   4.07682   4.12530   4.35205
 Alpha virt. eigenvalues --    4.60770   4.69028   4.71085  23.45205  23.59980
 Alpha virt. eigenvalues --   23.79722  23.81987  23.84861  23.89174  23.92035
 Alpha virt. eigenvalues --   23.95221  23.95983  23.97758  24.03808  24.06539
 Alpha virt. eigenvalues --   24.11500  24.13474
          Condensed to atoms (all electrons):
               1          2          3          4          5          6
     1  C    8.349773   0.528592  -0.658587   1.751578  -0.004424  -0.084323
     2  C    0.528592   7.203011   0.426216  -0.992682  -0.040551  -0.015212
     3  C   -0.658587   0.426216   6.611965   0.713538  -0.111786   0.016893
     4  C    1.751578  -0.992682   0.713538  11.614626  -0.395036  -0.143456
     5  C   -0.004424  -0.040551  -0.111786  -0.395036  10.684761   0.840620
     6  C   -0.084323  -0.015212   0.016893  -0.143456   0.840620   6.603456
     7  C   -0.033494  -0.000408  -0.012911   0.020043  -1.229489   0.224208
     8  C    0.409200   0.002032  -0.107409  -0.099983   2.326655  -0.356037
     9  C   -1.130287  -0.875221   0.295571   0.075983  -0.428394   0.295780
    10  C   -1.200216   0.150850  -0.250370  -2.813290  -2.359943  -0.445560
    11  C    0.345774  -0.773502   0.871417  -0.346434  -1.409513  -0.102492
    12  C   -1.815042   1.020403  -1.342596  -1.677616  -0.210303  -0.296617
    13  C    0.204363  -0.208719  -0.231094  -1.601837  -0.339232   1.118661
    14  C   -1.155739  -0.305278  -0.106215  -0.478566  -1.666815  -1.529142
    15  H    0.367386  -0.106484  -0.003305   0.024971   0.006451   0.001254
    16  H   -0.020119   0.383631  -0.022264   0.017432  -0.001704  -0.000362
    17  H   -0.019589  -0.023043   0.382059  -0.070461   0.000114   0.000416
    18  H    0.047205   0.003741  -0.083385   0.468849   0.005772  -0.005043
    19  H   -0.043387  -0.008423   0.051317  -0.082644  -0.060635   0.051899
    20  H    0.006871   0.002048  -0.005310   0.005823   0.454666  -0.084207
    21  H   -0.001223  -0.000420   0.000382   0.000478  -0.066230   0.367166
    22  H    0.000371   0.000311  -0.000292  -0.001289   0.009604  -0.011649
    23  H    0.006788  -0.002229   0.000963   0.004318   0.030343   0.001813
    24  H    0.038473   0.016083  -0.001281  -0.011077  -0.013303  -0.001841
    25  H    0.038473   0.016083  -0.001281  -0.011077  -0.013303  -0.001841
               7          8          9         10         11         12
     1  C   -0.033494   0.409200  -1.130287  -1.200216   0.345774  -1.815042
     2  C   -0.000408   0.002032  -0.875221   0.150850  -0.773502   1.020403
     3  C   -0.012911  -0.107409   0.295571  -0.250370   0.871417  -1.342596
     4  C    0.020043  -0.099983   0.075983  -2.813290  -0.346434  -1.677616
     5  C   -1.229489   2.326655  -0.428394  -2.359943  -1.409513  -0.210303
     6  C    0.224208  -0.356037   0.295780  -0.445560  -0.102492  -0.296617
     7  C    7.221276  -0.074040  -0.784969   0.363701  -0.314054  -0.060149
     8  C   -0.074040   9.056790  -1.106165  -1.410446   0.309602  -1.054560
     9  C   -0.784969  -1.106165   9.623032   0.250224   1.592087  -2.114835
    10  C    0.363701  -1.410446   0.250224   9.093766  -0.286960   2.376606
    11  C   -0.314054   0.309602   1.592087  -0.286960  14.554352  -4.119570
    12  C   -0.060149  -1.054560  -2.114835   2.376606  -4.119570  16.340360
    13  C   -0.990880   0.301465   1.430704  -0.472721   1.062224  -4.681332
    14  C    1.808447  -2.708097  -1.692095   2.467234  -4.810119   3.133687
    15  H   -0.002925   0.004728   0.086910  -0.007564  -0.029512  -0.011384
    16  H    0.000408   0.001092   0.001406  -0.010431   0.024176  -0.029136
    17  H   -0.000369  -0.001419  -0.004608   0.019938  -0.024954   0.085233
    18  H    0.002150   0.006967  -0.022135   0.005873  -0.008746  -0.047853
    19  H   -0.007467  -0.048546   0.074594   0.422527   0.076891  -0.089093
    20  H    0.001681   0.054907  -0.026044   0.014238  -0.012134  -0.007814
    21  H   -0.006408  -0.033899  -0.006441   0.020205  -0.006214   0.005298
    22  H    0.373135  -0.016249   0.003860  -0.007684   0.002329  -0.007414
    23  H   -0.109425   0.371390   0.096031  -0.011401   0.008132   0.004340
    24  H    0.012791   0.027496   0.356171   0.005413   0.025964  -0.059767
    25  H    0.012791   0.027496   0.356171   0.005413   0.025964  -0.059767
              13         14         15         16         17         18
     1  C    0.204363  -1.155739   0.367386  -0.020119  -0.019589   0.047205
     2  C   -0.208719  -0.305278  -0.106484   0.383631  -0.023043   0.003741
     3  C   -0.231094  -0.106215  -0.003305  -0.022264   0.382059  -0.083385
     4  C   -1.601837  -0.478566   0.024971   0.017432  -0.070461   0.468849
     5  C   -0.339232  -1.666815   0.006451  -0.001704   0.000114   0.005772
     6  C    1.118661  -1.529142   0.001254  -0.000362   0.000416  -0.005043
     7  C   -0.990880   1.808447  -0.002925   0.000408  -0.000369   0.002150
     8  C    0.301465  -2.708097   0.004728   0.001092  -0.001419   0.006967
     9  C    1.430704  -1.692095   0.086910   0.001406  -0.004608  -0.022135
    10  C   -0.472721   2.467234  -0.007564  -0.010431   0.019938   0.005873
    11  C    1.062224  -4.810119  -0.029512   0.024176  -0.024954  -0.008746
    12  C   -4.681332   3.133687  -0.011384  -0.029136   0.085233  -0.047853
    13  C   14.237195  -3.256465  -0.003991   0.003456  -0.006305  -0.012429
    14  C   -3.256465  15.858353   0.007694  -0.010558   0.005242  -0.022492
    15  H   -0.003991   0.007694   0.433757  -0.008883   0.001688   0.000235
    16  H    0.003456  -0.010558  -0.008883   0.415699  -0.007113   0.001980
    17  H   -0.006305   0.005242   0.001688  -0.007113   0.419460  -0.010086
    18  H   -0.012429  -0.022492   0.000235   0.001980  -0.010086   0.448071
    19  H    0.082368  -0.043851   0.000430  -0.000616   0.001769  -0.005754
    20  H   -0.001629  -0.067503  -0.000128   0.000020  -0.000170   0.001253
    21  H   -0.026766   0.098072   0.000018  -0.000007   0.000010  -0.000118
    22  H    0.025251  -0.032530  -0.000124   0.000007  -0.000007   0.000011
    23  H   -0.034536  -0.038125   0.000557  -0.000132   0.000010  -0.000101
    24  H    0.000747  -0.060219  -0.000943   0.000626  -0.000133   0.000140
    25  H    0.000747  -0.060219  -0.000943   0.000626  -0.000133   0.000140
              19         20         21         22         23         24
     1  C   -0.043387   0.006871  -0.001223   0.000371   0.006788   0.038473
     2  C   -0.008423   0.002048  -0.000420   0.000311  -0.002229   0.016083
     3  C    0.051317  -0.005310   0.000382  -0.000292   0.000963  -0.001281
     4  C   -0.082644   0.005823   0.000478  -0.001289   0.004318  -0.011077
     5  C   -0.060635   0.454666  -0.066230   0.009604   0.030343  -0.013303
     6  C    0.051899  -0.084207   0.367166  -0.011649   0.001813  -0.001841
     7  C   -0.007467   0.001681  -0.006408   0.373135  -0.109425   0.012791
     8  C   -0.048546   0.054907  -0.033899  -0.016249   0.371390   0.027496
     9  C    0.074594  -0.026044  -0.006441   0.003860   0.096031   0.356171
    10  C    0.422527   0.014238   0.020205  -0.007684  -0.011401   0.005413
    11  C    0.076891  -0.012134  -0.006214   0.002329   0.008132   0.025964
    12  C   -0.089093  -0.007814   0.005298  -0.007414   0.004340  -0.059767
    13  C    0.082368  -0.001629  -0.026766   0.025251  -0.034536   0.000747
    14  C   -0.043851  -0.067503   0.098072  -0.032530  -0.038125  -0.060219
    15  H    0.000430  -0.000128   0.000018  -0.000124   0.000557  -0.000943
    16  H   -0.000616   0.000020  -0.000007   0.000007  -0.000132   0.000626
    17  H    0.001769  -0.000170   0.000010  -0.000007   0.000010  -0.000133
    18  H   -0.005754   0.001253  -0.000118   0.000011  -0.000101   0.000140
    19  H    0.444057  -0.006967   0.001103  -0.000474   0.000220   0.000588
    20  H   -0.006967   0.459906  -0.010426   0.001883   0.000032   0.000231
    21  H    0.001103  -0.010426   0.425068  -0.005860   0.001196  -0.000151
    22  H   -0.000474   0.001883  -0.005860   0.422667  -0.008900   0.000634
    23  H    0.000220   0.000032   0.001196  -0.008900   0.445398  -0.000872
    24  H    0.000588   0.000231  -0.000151   0.000634  -0.000872   0.493108
    25  H    0.000588   0.000231  -0.000151   0.000634  -0.000872  -0.078963
              25
     1  C    0.038473
     2  C    0.016083
     3  C   -0.001281
     4  C   -0.011077
     5  C   -0.013303
     6  C   -0.001841
     7  C    0.012791
     8  C    0.027496
     9  C    0.356171
    10  C    0.005413
    11  C    0.025964
    12  C   -0.059767
    13  C    0.000747
    14  C   -0.060219
    15  H   -0.000943
    16  H    0.000626
    17  H   -0.000133
    18  H    0.000140
    19  H    0.000588
    20  H    0.000231
    21  H   -0.000151
    22  H    0.000634
    23  H   -0.000872
    24  H   -0.078963
    25  H    0.493108
 Mulliken charges:
               1
     1  C    0.071580
     2  C   -0.400827
     3  C   -0.432236
     4  C    0.027809
     5  C   -0.008324
     6  C   -0.444385
     7  C   -0.413641
     8  C    0.117028
     9  C   -0.347324
    10  C    0.080600
    11  C   -0.654707
    12  C    0.718922
    13  C   -0.599245
    14  C    0.665301
    15  H    0.240109
    16  H    0.260763
    17  H    0.252450
    18  H    0.225758
    19  H    0.189508
    20  H    0.218542
    21  H    0.245318
    22  H    0.251775
    23  H    0.235061
    24  H    0.250084
    25  H    0.250084
 Sum of Mulliken charges =   1.00000
 Mulliken charges with hydrogens summed into heavy atoms:
               1
     1  C    0.311689
     2  C   -0.140064
     3  C   -0.179786
     4  C    0.253567
     5  C    0.210217
     6  C   -0.199067
     7  C   -0.161867
     8  C    0.352090
     9  C    0.152843
    10  C    0.270108
    11  C   -0.654707
    12  C    0.718922
    13  C   -0.599245
    14  C    0.665301
 Electronic spatial extent (au):  <R**2>=           2856.8638
 Charge=              1.0000 electrons
 Dipole moment (field-independent basis, Debye):
    X=              0.7198    Y=             -0.8685    Z=              0.0000  Tot=              1.1280
 Quadrupole moment (field-independent basis, Debye-Ang):
   XX=            -49.1339   YY=            -38.1374   ZZ=            -84.1312
   XY=            -11.4044   XZ=              0.0000   YZ=              0.0000
 Traceless Quadrupole moment (field-independent basis, Debye-Ang):
   XX=              8.0002   YY=             18.9968   ZZ=            -26.9970
   XY=            -11.4044   XZ=              0.0000   YZ=              0.0000
 Octapole moment (field-independent basis, Debye-Ang**2):
  XXX=              4.4705  YYY=            -14.4741  ZZZ=              0.0000  XYY=              2.8611
  XXY=              2.1551  XXZ=             -0.0000  XZZ=             -1.8259  YZZ=             -2.9821
  YYZ=             -0.0000  XYZ=             -0.0000
 Hexadecapole moment (field-independent basis, Debye-Ang**3):
 XXXX=          -1081.3166 YYYY=          -1775.0231 ZZZZ=            -99.3176 XXXY=            367.7569
 XXXZ=             -0.0000 YYYX=            303.9150 YYYZ=             -0.0000 ZZZX=              0.0000
 ZZZY=             -0.0000 XXYY=           -445.1594 XXZZ=           -266.3735 YYZZ=           -470.1982
 XXYZ=              0.0000 YYXZ=             -0.0000 ZZXY=            197.8523
 N-N= 7.811464208932D+02 E-N=-2.798648447646D+03  KE= 5.375287381539D+02
 Symmetry A'   KE= 5.228744006781D+02
 Symmetry A"   KE= 1.465433747580D+01
 Unable to Open any file for archive entry.
 1\1\GINC-GADI-CPU-CLX-0648\SP\RM062X TD-FC\6-311++G(d,p)\C14H11(1+)\TS
 1578\27-Jul-2022\0\\#n M062X/6-311++G(d,p) TD(NStates=1) EmpiricalDisp
 ersion=GD3 SP\\SP_-75\\1,1\C,0,2.46625,1.37,0.\C,0,3.669075,0.666425,0
 .\C,0,3.675,-0.7304,0.\C,0,2.49445,-1.4172,0.\C,0,-2.43205,-1.3808,0.\
 C,0,-3.6934,-0.6808,0.\C,0,-3.734875,0.694625,0.\C,0,-2.52105,1.3676,0
 .\C,0,-0.017525,1.4643,0.\C,0,0.0488,-1.4206,0.\C,0,1.269475,0.701025,
 0.\C,0,1.2573,-0.72435,0.\C,0,-1.254875,0.670425,0.\C,0,-1.2173,-0.719
 55,0.\H,0,2.4808,2.452875,0.\H,0,4.604075,1.208525,0.\H,0,4.61525,-1.2
 63425,0.\H,0,2.48195,-2.499175,0.\H,0,0.045,-2.50165,0.\H,0,-2.45275,-
 2.463775,0.\H,0,-4.60365,-1.265225,0.\H,0,-4.670675,1.231525,0.\H,0,-2
 .4976,2.451075,0.\H,0,-0.064,2.155,-0.86015\H,0,-0.064,2.155,0.86015\\
 Version=ES64L-G16RevC.01\State=1-A'\HF=-539.7532983\RMSD=9.938e-09\PG=
 CS [SG(C14H9),X(H2)]\\@
 The archive entry for this job was punched.


 I DON'T EXACTLY UNDERSTAND WHAT YOU ARE SAYING,
 BUT YOU ARE ABSOLUTELY RIGHT.
     M.S.GORDON, IN A NDSU FACULTY MEETING
 Job cpu time:       0 days  0 hours 53 minutes 38.9 seconds.
 Elapsed time:       0 days  0 hours  1 minutes 48.2 seconds.
 File lengths (MBytes):  RWF=    460 Int=      0 D2E=      0 Chk=     15 Scr=      1
 Normal termination of Gaussian 16 at Wed Jul 27 10:37:26 2022.
