 Entering Gaussian System, Link 0=g16
 Initial command:
 /apps/gaussian/g16c01/g16/l1.exe "/jobfs/52804872.gadi-pbs/Gau-1411682.inp" -scrdir="/jobfs/52804872.gadi-pbs/"
 Entering Link 1 = /apps/gaussian/g16c01/g16/l1.exe PID=   1411683.
  
 Copyright (c) 1988-2019, Gaussian, Inc.  All Rights Reserved.
  
 This is part of the Gaussian(R) 16 program.  It is based on
 the Gaussian(R) 09 system (copyright 2009, Gaussian, Inc.),
 the Gaussian(R) 03 system (copyright 2003, Gaussian, Inc.),
 the Gaussian(R) 98 system (copyright 1998, Gaussian, Inc.),
 the Gaussian(R) 94 system (copyright 1995, Gaussian, Inc.),
 the Gaussian 92(TM) system (copyright 1992, Gaussian, Inc.),
 the Gaussian 90(TM) system (copyright 1990, Gaussian, Inc.),
 the Gaussian 88(TM) system (copyright 1988, Gaussian, Inc.),
 the Gaussian 86(TM) system (copyright 1986, Carnegie Mellon
 University), and the Gaussian 82(TM) system (copyright 1983,
 Carnegie Mellon University). Gaussian is a federally registered
 trademark of Gaussian, Inc.
  
 This software contains proprietary and confidential information,
 including trade secrets, belonging to Gaussian, Inc.
  
 This software is provided under written license and may be
 used, copied, transmitted, or stored only in accord with that
 written license.
  
 The following legend is applicable only to US Government
 contracts under FAR:
  
                    RESTRICTED RIGHTS LEGEND
  
 Use, reproduction and disclosure by the US Government is
 subject to restrictions as set forth in subparagraphs (a)
 and (c) of the Commercial Computer Software - Restricted
 Rights clause in FAR 52.227-19.
  
 Gaussian, Inc.
 340 Quinnipiac St., Bldg. 40, Wallingford CT 06492
  
  
 ---------------------------------------------------------------
 Warning -- This program may not be used in any manner that
 competes with the business of Gaussian, Inc. or will provide
 assistance to any competitor of Gaussian, Inc.  The licensee
 of this program is prohibited from giving any competitor of
 Gaussian, Inc. access to this program.  By using this program,
 the user acknowledges that Gaussian, Inc. is engaged in the
 business of creating and licensing software in the field of
 computational chemistry and represents and warrants to the
 licensee that it is not a competitor of Gaussian, Inc. and that
 it will not use this program in any manner prohibited above.
 ---------------------------------------------------------------
  

 Cite this work as:
 Gaussian 16, Revision C.01,
 M. J. Frisch, G. W. Trucks, H. B. Schlegel, G. E. Scuseria, 
 M. A. Robb, J. R. Cheeseman, G. Scalmani, V. Barone, 
 G. A. Petersson, H. Nakatsuji, X. Li, M. Caricato, A. V. Marenich, 
 J. Bloino, B. G. Janesko, R. Gomperts, B. Mennucci, H. P. Hratchian, 
 J. V. Ortiz, A. F. Izmaylov, J. L. Sonnenberg, D. Williams-Young, 
 F. Ding, F. Lipparini, F. Egidi, J. Goings, B. Peng, A. Petrone, 
 T. Henderson, D. Ranasinghe, V. G. Zakrzewski, J. Gao, N. Rega, 
 G. Zheng, W. Liang, M. Hada, M. Ehara, K. Toyota, R. Fukuda, 
 J. Hasegawa, M. Ishida, T. Nakajima, Y. Honda, O. Kitao, H. Nakai, 
 T. Vreven, K. Throssell, J. A. Montgomery, Jr., J. E. Peralta, 
 F. Ogliaro, M. J. Bearpark, J. J. Heyd, E. N. Brothers, K. N. Kudin, 
 V. N. Staroverov, T. A. Keith, R. Kobayashi, J. Normand, 
 K. Raghavachari, A. P. Rendell, J. C. Burant, S. S. Iyengar, 
 J. Tomasi, M. Cossi, J. M. Millam, M. Klene, C. Adamo, R. Cammi, 
 J. W. Ochterski, R. L. Martin, K. Morokuma, O. Farkas, 
 J. B. Foresman, and D. J. Fox, Gaussian, Inc., Wallingford CT, 2019.
 
 ******************************************
 Gaussian 16:  ES64L-G16RevC.01  3-Jul-2019
                27-Jul-2022 
 ******************************************
 %NProcShared=32
 Will use up to   32 processors via shared memory.
 %mem = 128GB
 ---------------------------------------------------------------
 #n M062X/6-311++G(d,p) TD(NStates=1) EmpiricalDispersion=GD3 SP
 ---------------------------------------------------------------
 1/38=1,172=1/1;
 2/12=2,17=6,18=5,40=1/2;
 3/5=4,6=6,7=1111,11=9,25=1,30=1,74=-55,124=31/1,2,3,8;
 4//1;
 5/5=2,38=5/2;
 8/6=1,10=2,108=1/1;
 9/41=1,42=1,70=2/14;
 6/7=2,8=2,9=2,10=2/1;
 99/5=1,9=1/99;
 ------
 SP_-75
 ------
 Symbolic Z-matrix:
 Charge =  1 Multiplicity = 1
 C                     2.48985   1.37      0. 
 C                     3.70008   0.68123   0. 
 C                     3.683    -0.7036    0. 
 C                     2.46305  -1.3986    0. 
 C                    -2.46305  -1.3986    0. 
 C                    -3.683    -0.7036    0. 
 C                    -3.70008   0.68123   0. 
 C                    -2.48985   1.37      0. 
 C                     0.00008   1.4555    0. 
 C                     0.       -1.4202    0. 
 C                     1.26188   0.68563   0. 
 C                     1.2381   -0.72255   0. 
 C                    -1.26188   0.68563   0. 
 C                    -1.2381   -0.72255   0. 
 H                     2.4848    2.45328   0. 
 H                     4.63508   1.22152   0. 
 H                     4.60885  -1.26182   0. 
 H                     2.46795  -2.48117   0. 
 H                     0.       -2.50145   0. 
 H                    -2.46795  -2.48117   0. 
 H                    -4.60885  -1.26182   0. 
 H                    -4.63508   1.22152   0. 
 H                    -2.4848    2.45328   0. 
 H                     0.        2.153    -0.85795 
 H                     0.        2.153     0.85795 
 
                          Input orientation:                          
 ---------------------------------------------------------------------
 Center     Atomic      Atomic             Coordinates (Angstroms)
 Number     Number       Type             X           Y           Z
 ---------------------------------------------------------------------
      1          6           0        2.489850    1.370000    0.000000
      2          6           0        3.700075    0.681225    0.000000
      3          6           0        3.683000   -0.703600    0.000000
      4          6           0        2.463050   -1.398600    0.000000
      5          6           0       -2.463050   -1.398600    0.000000
      6          6           0       -3.683000   -0.703600    0.000000
      7          6           0       -3.700075    0.681225    0.000000
      8          6           0       -2.489850    1.370000    0.000000
      9          6           0        0.000075    1.455500    0.000000
     10          6           0        0.000000   -1.420200    0.000000
     11          6           0        1.261875    0.685625    0.000000
     12          6           0        1.238100   -0.722550    0.000000
     13          6           0       -1.261875    0.685625    0.000000
     14          6           0       -1.238100   -0.722550    0.000000
     15          1           0        2.484800    2.453275    0.000000
     16          1           0        4.635075    1.221525    0.000000
     17          1           0        4.608850   -1.261825    0.000000
     18          1           0        2.467950   -2.481175    0.000000
     19          1           0        0.000000   -2.501450    0.000000
     20          1           0       -2.467950   -2.481175    0.000000
     21          1           0       -4.608850   -1.261825    0.000000
     22          1           0       -4.635075    1.221525    0.000000
     23          1           0       -2.484800    2.453275    0.000000
     24          1           0        0.000000    2.153000   -0.857950
     25          1           0        0.000000    2.153000    0.857950
 ---------------------------------------------------------------------
                    Distance matrix (angstroms):
                    1          2          3          4          5
     1  C    0.000000
     2  C    1.392500   0.000000
     3  C    2.392368   1.384930   0.000000
     4  C    2.768730   2.419897   1.404031   0.000000
     5  C    5.674184   6.504597   6.185221   4.926100   0.000000
     6  C    6.511827   7.511826   7.366000   6.185221   1.404031
     7  C    6.228128   7.400150   7.511826   6.504597   2.419897
     8  C    4.979700   6.228128   6.511827   5.674184   2.768730
     9  C    2.491243   3.780146   4.269151   3.769898   3.769996
    10  C    3.739595   4.255178   3.752067   2.463145   2.463145
    11  C    1.405806   2.438204   2.791378   2.405580   4.268379
    12  C    2.438369   2.834062   2.444973   1.399123   3.762387
    13  C    3.813635   4.961952   5.136315   4.268379   2.405580
    14  C    4.275088   5.133825   4.921136   3.762387   1.399123
    15  H    1.083287   2.148733   3.376617   3.851936   6.270419
    16  H    2.150357   1.079884   2.147686   3.403344   7.566269
    17  H    3.378855   2.145068   1.081117   2.150155   7.073223
    18  H    3.851237   3.393951   2.153165   1.082586   5.048438
    19  H    4.602986   4.880571   4.098384   2.698684   2.698684
    20  H    6.277844   6.931472   6.402652   5.048438   1.082586
    21  H    7.570868   8.533093   8.310619   7.073223   2.150155
    22  H    7.126472   8.352643   8.537943   7.566269   3.403344
    23  H    5.091230   6.433727   6.928753   6.270419   3.851936
    24  H    2.747457   4.073421   4.739275   4.406422   4.406422
    25  H    2.747457   4.073421   4.739275   4.406422   4.406422
                    6          7          8          9         10
     6  C    0.000000
     7  C    1.384930   0.000000
     8  C    2.392368   1.392500   0.000000
     9  C    4.269280   3.780293   2.491393   0.000000
    10  C    3.752067   4.255178   3.739595   2.875700   0.000000
    11  C    5.136315   4.961952   3.813635   1.478123   2.454960
    12  C    4.921136   5.133825   4.275088   2.505316   1.421129
    13  C    2.791378   2.438204   1.405806   1.478251   2.454960
    14  C    2.444973   2.834062   2.438369   2.505390   1.421129
    15  H    6.928753   6.433727   5.091230   2.677576   4.601960
    16  H    8.537943   8.352643   7.126472   4.640902   5.335038
    17  H    8.310619   8.533093   7.570868   5.350202   4.611570
    18  H    6.402652   6.931472   6.277844   4.646269   2.686344
    19  H    4.098384   4.880571   4.602986   3.956950   1.081250
    20  H    2.153165   3.393951   3.851237   4.646349   2.686344
    21  H    1.081117   2.145068   3.378855   5.350331   4.611570
    22  H    2.147686   1.079884   2.150357   4.641052   5.335038
    23  H    3.376617   2.148733   1.083287   2.677715   4.601960
    24  H    4.739275   4.073421   2.747457   1.105705   3.674757
    25  H    4.739275   4.073421   2.747457   1.105705   3.674757
                   11         12         13         14         15
    11  C    0.000000
    12  C    1.408376   0.000000
    13  C    2.523750   2.869291   0.000000
    14  C    2.869291   2.476200   1.408376   0.000000
    15  H    2.149449   3.411763   4.142724   4.893450   0.000000
    16  H    3.415504   3.913932   5.921251   6.186567   2.478082
    17  H    3.872312   3.413616   6.185303   5.871766   4.279434
    18  H    3.388693   2.145995   4.892874   4.102142   4.934479
    19  H    3.427795   2.167343   3.427795   2.167343   5.542881
    20  H    4.892874   4.102142   3.388693   2.145995   6.991318
    21  H    6.185303   5.871766   3.872312   3.413616   8.007611
    22  H    5.921251   6.186567   3.415504   3.913932   7.225637
    23  H    4.142724   4.893450   2.149449   3.411763   4.969600
    24  H    2.116978   3.246191   2.116978   3.246191   2.645841
    25  H    2.116978   3.246191   2.116978   3.246191   2.645841
                   16         17         18         19         20
    16  H    0.000000
    17  H    2.483488   0.000000
    18  H    4.290270   2.463791   0.000000
    19  H    5.945121   4.772648   2.468033   0.000000
    20  H    8.010178   7.181080   4.935900   2.468033   0.000000
    21  H    9.571686   9.217700   7.181080   4.772648   2.463791
    22  H    9.270150   9.571686   8.010178   5.945121   4.290270
    23  H    7.225637   8.007611   6.991318   5.542881   4.934479
    24  H    4.804960   5.799880   5.320003   4.732862   5.320003
    25  H    4.804960   5.799880   5.320003   4.732862   5.320003
                   21         22         23         24         25
    21  H    0.000000
    22  H    2.483488   0.000000
    23  H    4.279434   2.478082   0.000000
    24  H    5.799880   4.804960   2.645841   0.000000
    25  H    5.799880   4.804960   2.645841   1.715900   0.000000
 Stoichiometry    C14H11(1+)
 Framework group  CS[SG(C14H9),X(H2)]
 Deg. of freedom    46
 Full point group                 CS      NOp   2
 Largest Abelian subgroup         CS      NOp   2
 Largest concise Abelian subgroup CS      NOp   2
                         Standard orientation:                         
 ---------------------------------------------------------------------
 Center     Atomic      Atomic             Coordinates (Angstroms)
 Number     Number       Type             X           Y           Z
 ---------------------------------------------------------------------
      1          6           0       -1.361314   -2.489845    0.000000
      2          6           0       -0.672539   -3.700070    0.000000
      3          6           0        0.712286   -3.682995    0.000000
      4          6           0        1.407286   -2.463045    0.000000
      5          6           0        1.407286    2.463055    0.000000
      6          6           0        0.712286    3.683005    0.000000
      7          6           0       -0.672539    3.700080    0.000000
      8          6           0       -1.361314    2.489855    0.000000
      9          6           0       -1.446814   -0.000070    0.000000
     10          6           0        1.428886    0.000005    0.000000
     11          6           0       -0.676939   -1.261870    0.000000
     12          6           0        0.731236   -1.238095    0.000000
     13          6           0       -0.676939    1.261880    0.000000
     14          6           0        0.731236    1.238105    0.000000
     15          1           0       -2.444589   -2.484795    0.000000
     16          1           0       -1.212839   -4.635070    0.000000
     17          1           0        1.270511   -4.608845    0.000000
     18          1           0        2.489861   -2.467945    0.000000
     19          1           0        2.510136    0.000005    0.000000
     20          1           0        2.489861    2.467955    0.000000
     21          1           0        1.270511    4.608855    0.000000
     22          1           0       -1.212839    4.635080    0.000000
     23          1           0       -2.444589    2.484805    0.000000
     24          1           0       -2.144314    0.000005    0.857950
     25          1           0       -2.144314    0.000005   -0.857950
 ---------------------------------------------------------------------
 Rotational constants (GHZ):           2.1383742           0.4449406           0.3691039
 Standard basis: 6-311++G(d,p) (5D, 7F)
 There are   299 symmetry adapted cartesian basis functions of A'  symmetry.
 There are   100 symmetry adapted cartesian basis functions of A"  symmetry.
 There are   285 symmetry adapted basis functions of A'  symmetry.
 There are   100 symmetry adapted basis functions of A"  symmetry.
   385 basis functions,   603 primitive gaussians,   399 cartesian basis functions
    47 alpha electrons       47 beta electrons
       nuclear repulsion energy       781.4909669839 Hartrees.
 NAtoms=   25 NActive=   25 NUniq=   24 SFac= 1.09D+00 NAtFMM=   60 NAOKFM=F Big=F
 Integral buffers will be    131072 words long.
 Regular integral format.
 Two-electron integral symmetry is turned on.
 Nuclear repulsion after empirical dispersion term =      781.4899875872 Hartrees.
 One-electron integrals computed using PRISM.
 NBasis=   385 RedAO= T EigKep=  1.11D-06  NBF=   285   100
 NBsUse=   379 1.00D-06 EigRej=  8.34D-07 NBFU=   279   100
 ExpMin= 3.60D-02 ExpMax= 4.56D+03 ExpMxC= 6.82D+02 IAcc=3 IRadAn=         5 AccDes= 0.00D+00
 Harris functional with IExCor= 1009 and IRadAn=       5 diagonalized for initial guess.
 HarFok:  IExCor= 1009 AccDes= 0.00D+00 IRadAn=         5 IDoV= 1 UseB2=F ITyADJ=14
 ICtDFT=  3500011 ScaDFX=  1.000000  1.000000  1.000000  1.000000
 FoFCou: FMM=F IPFlag=           0 FMFlag=      100000 FMFlg1=           0
         NFxFlg=           0 DoJE=T BraDBF=F KetDBF=T FulRan=T
         wScrn=  0.000000 ICntrl=       500 IOpCl=  0 I1Cent=   200000004 NGrid=           0
         NMat0=    1 NMatS0=      1 NMatT0=    0 NMatD0=    1 NMtDS0=    0 NMtDT0=    0
 Petite list used in FoFCou.
 Initial guess orbital symmetries:
       Occupied  (A') (A') (A') (A') (A') (A') (A') (A') (A') (A')
                 (A') (A') (A') (A') (A') (A') (A') (A') (A') (A')
                 (A') (A') (A') (A') (A') (A') (A') (A') (A') (A')
                 (A') (A') (A") (A') (A') (A') (A') (A') (A') (A")
                 (A") (A') (A') (A") (A") (A") (A")
       Virtual   (A") (A") (A") (A") (A") (A') (A') (A') (A') (A")
                 (A") (A') (A') (A') (A") (A') (A') (A') (A') (A")
                 (A') (A") (A') (A') (A') (A") (A') (A") (A') (A')
                 (A') (A') (A') (A") (A') (A') (A") (A') (A') (A")
                 (A') (A') (A') (A") (A') (A') (A') (A') (A') (A")
                 (A') (A') (A") (A") (A') (A') (A') (A") (A") (A')
                 (A') (A') (A') (A') (A') (A") (A') (A') (A') (A")
                 (A') (A') (A') (A') (A') (A') (A') (A') (A') (A')
                 (A') (A') (A') (A') (A') (A') (A') (A') (A') (A')
                 (A') (A') (A') (A') (A') (A') (A') (A") (A') (A")
                 (A') (A') (A") (A") (A') (A") (A") (A') (A') (A")
                 (A") (A') (A') (A') (A") (A') (A') (A") (A") (A')
                 (A") (A") (A') (A') (A') (A") (A') (A') (A') (A")
                 (A') (A') (A') (A') (A') (A') (A") (A') (A') (A')
                 (A') (A') (A') (A') (A') (A') (A') (A') (A') (A")
                 (A") (A') (A") (A") (A') (A') (A') (A") (A") (A')
                 (A") (A') (A") (A") (A") (A') (A') (A') (A') (A')
                 (A') (A") (A") (A') (A') (A') (A') (A') (A') (A")
                 (A') (A') (A') (A') (A') (A") (A") (A') (A") (A")
                 (A') (A") (A') (A") (A') (A') (A') (A") (A') (A')
                 (A") (A") (A") (A') (A') (A") (A') (A") (A') (A')
                 (A") (A") (A') (A") (A') (A") (A') (A') (A") (A')
                 (A') (A') (A') (A') (A") (A') (A') (A') (A") (A")
                 (A') (A') (A') (A") (A') (A') (A") (A') (A") (A')
                 (A") (A') (A') (A') (A') (A') (A") (A') (A') (A")
                 (A') (A') (A") (A') (A") (A') (A') (A") (A') (A')
                 (A') (A') (A") (A") (A') (A') (A') (A") (A") (A')
                 (A') (A') (A') (A') (A") (A') (A") (A') (A") (A')
                 (A") (A') (A") (A") (A") (A') (A') (A') (A') (A')
                 (A') (A') (A') (A') (A') (A') (A') (A') (A') (A')
                 (A') (A') (A') (A') (A") (A') (A') (A') (A') (A')
                 (A') (A') (A') (A') (A') (A') (A') (A') (A') (A')
                 (A') (A') (A') (A') (A') (A') (A') (A') (A') (A')
                 (A') (A')
 The electronic state of the initial guess is 1-A'.
 Requested convergence on RMS density matrix=1.00D-08 within 128 cycles.
 Requested convergence on MAX density matrix=1.00D-06.
 Requested convergence on             energy=1.00D-06.
 No special actions if energy rises.
 SCF Done:  E(RM062X) =  -539.760114062     A.U. after   15 cycles
            NFock= 15  Conv=0.45D-08     -V/T= 2.0042
 DoSCS=F DFT=T ScalE2(SS,OS)=  1.000000  1.000000
 ExpMin= 3.60D-02 ExpMax= 4.56D+03 ExpMxC= 6.82D+02 IAcc=3 IRadAn=         5 AccDes= 0.00D+00
 HarFok:  IExCor=  205 AccDes= 0.00D+00 IRadAn=         5 IDoV=-2 UseB2=F ITyADJ=14
 ICtDFT= 12500011 ScaDFX=  1.000000  1.000000  1.000000  1.000000
 Range of M.O.s used for correlation:    15   379
 NBasis=   385 NAE=    47 NBE=    47 NFC=    14 NFV=     0
 NROrb=    365 NOA=    33 NOB=    33 NVA=   332 NVB=   332

 **** Warning!!: The largest alpha MO coefficient is  0.14649396D+03

 Orbital symmetries:
       Occupied  (A') (A') (A') (A') (A') (A') (A') (A') (A') (A')
                 (A') (A') (A') (A') (A') (A') (A') (A') (A') (A')
                 (A') (A') (A') (A') (A') (A') (A') (A') (A') (A')
                 (A') (A') (A") (A') (A') (A') (A') (A") (A") (A')
                 (A') (A') (A') (A") (A") (A") (A")
       Virtual   (A") (A") (A") (A") (A') (A') (A') (A') (A") (A')
                 (A') (A") (A') (A') (A") (A') (A") (A') (A') (A')
                 (A") (A") (A') (A') (A') (A") (A') (A") (A') (A')
                 (A") (A') (A") (A') (A') (A') (A') (A') (A") (A')
                 (A") (A') (A') (A") (A") (A') (A") (A') (A") (A')
                 (A') (A') (A') (A') (A') (A") (A') (A') (A') (A')
                 (A') (A") (A') (A') (A') (A') (A") (A') (A') (A')
                 (A') (A') (A') (A') (A') (A') (A') (A') (A') (A')
                 (A') (A') (A') (A') (A') (A') (A') (A') (A') (A')
                 (A') (A') (A') (A') (A") (A') (A") (A") (A') (A")
                 (A') (A') (A') (A') (A") (A") (A') (A") (A") (A')
                 (A') (A') (A") (A') (A') (A") (A') (A") (A') (A")
                 (A") (A') (A") (A') (A') (A') (A") (A') (A') (A')
                 (A') (A') (A') (A') (A') (A') (A') (A') (A') (A')
                 (A') (A') (A') (A") (A') (A') (A') (A') (A') (A')
                 (A') (A') (A") (A') (A") (A') (A") (A") (A') (A")
                 (A") (A') (A') (A") (A") (A") (A') (A") (A') (A')
                 (A') (A') (A') (A") (A") (A') (A') (A') (A') (A")
                 (A') (A') (A') (A") (A') (A") (A') (A') (A") (A")
                 (A") (A') (A') (A") (A') (A") (A') (A') (A') (A')
                 (A") (A") (A") (A') (A") (A') (A') (A") (A') (A')
                 (A') (A") (A') (A") (A") (A") (A') (A') (A') (A")
                 (A') (A') (A') (A') (A") (A') (A') (A') (A") (A")
                 (A') (A') (A') (A") (A') (A') (A') (A") (A") (A')
                 (A") (A') (A') (A") (A') (A') (A') (A') (A') (A')
                 (A") (A') (A') (A') (A') (A") (A") (A") (A') (A')
                 (A') (A') (A') (A') (A') (A') (A") (A') (A') (A')
                 (A') (A") (A') (A") (A") (A") (A') (A") (A') (A")
                 (A') (A") (A") (A') (A") (A") (A') (A') (A') (A')
                 (A') (A') (A') (A') (A') (A') (A') (A') (A') (A')
                 (A') (A') (A') (A") (A') (A') (A') (A') (A') (A')
                 (A') (A') (A') (A') (A') (A') (A') (A') (A') (A')
                 (A') (A') (A') (A') (A') (A') (A') (A') (A') (A')
                 (A') (A')
     4 initial guesses have been made.
 Convergence on wavefunction:    0.001000000000000
 Iteration     1 Dimension     4 NMult     0 NNew      4
 CISAX will form     4 AO SS matrices at one time.
 Iteration     2 Dimension     6 NMult     4 NNew      2
 Iteration     3 Dimension     8 NMult     6 NNew      2
 Iteration     4 Dimension    10 NMult     8 NNew      2
 Iteration     5 Dimension    12 NMult    10 NNew      2
 Iteration     6 Dimension    14 NMult    12 NNew      2
 ***********************************************************************
 Excited states from <AA,BB:AA,BB> singles matrix:
 ***********************************************************************
 
 Ground to excited state transition densities written to RWF  633
 Ground to excited state transition electric dipole moments (Au):
       state          X           Y           Z        Dip. S.      Osc.
         1        -0.6478     -0.0000     -0.0000      0.4196      0.0290
 Ground to excited state transition velocity dipole moments (Au):
       state          X           Y           Z        Dip. S.      Osc.
         1         0.0749      0.0000     -0.0000      0.0056      0.0361
 Ground to excited state transition magnetic dipole moments (Au):
       state          X           Y           Z
         1        -0.0000     -0.0000      0.0001
 Ground to excited state transition velocity quadrupole moments (Au):
       state          XX          YY          ZZ          XY          XZ          YZ
         1         0.0347      0.2958     -0.0098     -0.0000      0.0000     -0.0000
 <0|del|b> * <b|rxdel|0> + <0|del|b> * <b|delr+rdel|0>
 Rotatory Strengths (R) in cgs (10**-40 erg-esu-cm/Gauss)
       state          XX          YY          ZZ    R(velocity)    E-M Angle
         1        -0.0000     -0.0000      0.0000     -0.0000       90.00
 1/2[<0|r|b>*<b|rxdel|0> + (<0|rxdel|b>*<b|r|0>)*]
 Rotatory Strengths (R) in cgs (10**-40 erg-esu-cm/Gauss)
       state          XX          YY          ZZ     R(length)
         1        -0.0000     -0.0000      0.0000     -0.0000
  1/2[<0|del|b>*<b|r|0> + (<0|r|b>*<b|del|0>)*] (Au)
       state          X           Y           Z        Dip. S.   Osc.(frdel)
         1        -0.0485     -0.0000      0.0000      0.0485      0.0324

 Excitation energies and oscillator strengths:
 
 Excited State   1:      Singlet-A'     2.8220 eV  439.35 nm  f=0.0290  <S**2>=0.000
      47 -> 48         0.70426
 This state for optimization and/or second-order correction.
 Total Energy, E(TD-HF/TD-DFT) =  -539.656407668    
 Copying the excited state density for this state as the 1-particle RhoCI density.
 SavETr:  write IOETrn=   770 NScale= 10 NData=  16 NLR=1 NState=    1 LETran=      28.

 **********************************************************************

            Population analysis using the SCF Density.

 **********************************************************************

 Orbital symmetries:
       Occupied  (A') (A') (A') (A') (A') (A') (A') (A') (A') (A')
                 (A') (A') (A') (A') (A') (A') (A') (A') (A') (A')
                 (A') (A') (A') (A') (A') (A') (A') (A') (A') (A')
                 (A') (A') (A") (A') (A') (A') (A') (A") (A") (A')
                 (A') (A') (A') (A") (A") (A") (A")
       Virtual   (A") (A") (A") (A") (A') (A') (A') (A') (A") (A')
                 (A') (A") (A') (A') (A") (A') (A") (A') (A') (A')
                 (A") (A") (A') (A') (A') (A") (A') (A") (A') (A')
                 (A") (A') (A") (A') (A') (A') (A') (A') (A") (A')
                 (A") (A') (A') (A") (A") (A') (A") (A') (A") (A')
                 (A') (A') (A') (A') (A') (A") (A') (A') (A') (A')
                 (A') (A") (A') (A') (A') (A') (A") (A') (A') (A')
                 (A') (A') (A') (A') (A') (A') (A') (A') (A') (A')
                 (A') (A') (A') (A') (A') (A') (A') (A') (A') (A')
                 (A') (A') (A') (A') (A") (A') (A") (A") (A') (A")
                 (A') (A') (A') (A') (A") (A") (A') (A") (A") (A')
                 (A') (A') (A") (A') (A') (A") (A') (A") (A') (A")
                 (A") (A') (A") (A') (A') (A') (A") (A') (A') (A')
                 (A') (A') (A') (A') (A') (A') (A') (A') (A') (A')
                 (A') (A') (A') (A") (A') (A') (A') (A') (A') (A')
                 (A') (A') (A") (A') (A") (A') (A") (A") (A') (A")
                 (A") (A') (A') (A") (A") (A") (A') (A") (A') (A')
                 (A') (A') (A') (A") (A") (A') (A') (A') (A') (A")
                 (A') (A') (A') (A") (A') (A") (A') (A') (A") (A")
                 (A") (A') (A') (A") (A') (A") (A') (A') (A') (A')
                 (A") (A") (A") (A') (A") (A') (A') (A") (A') (A')
                 (A') (A") (A') (A") (A") (A") (A') (A') (A') (A")
                 (A') (A') (A') (A') (A") (A') (A') (A') (A") (A")
                 (A') (A') (A') (A") (A') (A') (A') (A") (A") (A')
                 (A") (A') (A') (A") (A') (A') (A') (A') (A') (A')
                 (A") (A') (A') (A') (A') (A") (A") (A") (A') (A')
                 (A') (A') (A') (A') (A') (A') (A") (A') (A') (A')
                 (A') (A") (A') (A") (A") (A") (A') (A") (A') (A")
                 (A') (A") (A") (A') (A") (A") (A') (A') (A') (A')
                 (A') (A') (A') (A') (A') (A') (A') (A') (A') (A')
                 (A') (A') (A') (A") (A') (A') (A') (A') (A') (A')
                 (A') (A') (A') (A') (A') (A') (A') (A') (A') (A')
                 (A') (A') (A') (A') (A') (A') (A') (A') (A') (A')
                 (A') (A')
 The electronic state is 1-A'.
 Alpha  occ. eigenvalues --  -10.77653 -10.73202 -10.73201 -10.72423 -10.72422
 Alpha  occ. eigenvalues --  -10.71365 -10.71365 -10.71010 -10.71010 -10.70960
 Alpha  occ. eigenvalues --  -10.69970 -10.69970 -10.69620 -10.69620  -1.16481
 Alpha  occ. eigenvalues --   -1.12491  -1.06945  -1.05791  -1.01315  -1.00229
 Alpha  occ. eigenvalues --   -0.95776  -0.91071  -0.86424  -0.85915  -0.83829
 Alpha  occ. eigenvalues --   -0.78405  -0.76063  -0.74422  -0.69543  -0.69254
 Alpha  occ. eigenvalues --   -0.68517  -0.68209  -0.68090  -0.64748  -0.64302
 Alpha  occ. eigenvalues --   -0.63121  -0.61871  -0.59959  -0.59698  -0.59082
 Alpha  occ. eigenvalues --   -0.56917  -0.55205  -0.54866  -0.52434  -0.46648
 Alpha  occ. eigenvalues --   -0.46057  -0.44479
 Alpha virt. eigenvalues --   -0.26074  -0.14673  -0.14095  -0.12771  -0.11181
 Alpha virt. eigenvalues --   -0.10091  -0.09230  -0.07983  -0.07962  -0.07477
 Alpha virt. eigenvalues --   -0.07209  -0.07148  -0.05641  -0.05584  -0.05335
 Alpha virt. eigenvalues --   -0.03827  -0.03647  -0.03281  -0.03130  -0.02163
 Alpha virt. eigenvalues --   -0.01371  -0.00931   0.00185   0.00592   0.00684
 Alpha virt. eigenvalues --    0.01057   0.01511   0.01935   0.02224   0.02273
 Alpha virt. eigenvalues --    0.02450   0.02672   0.02751   0.03266   0.03371
 Alpha virt. eigenvalues --    0.04238   0.04511   0.04691   0.05028   0.05364
 Alpha virt. eigenvalues --    0.06030   0.06302   0.06598   0.07056   0.07249
 Alpha virt. eigenvalues --    0.07895   0.08171   0.08371   0.08552   0.08928
 Alpha virt. eigenvalues --    0.09553   0.09559   0.10051   0.10889   0.11064
 Alpha virt. eigenvalues --    0.11110   0.12191   0.12247   0.12921   0.13001
 Alpha virt. eigenvalues --    0.13412   0.13521   0.14029   0.14374   0.16287
 Alpha virt. eigenvalues --    0.16303   0.16304   0.17349   0.17629   0.17795
 Alpha virt. eigenvalues --    0.18134   0.19054   0.19230   0.19654   0.19751
 Alpha virt. eigenvalues --    0.21595   0.21604   0.22731   0.23129   0.23578
 Alpha virt. eigenvalues --    0.23736   0.24544   0.25251   0.26922   0.27616
 Alpha virt. eigenvalues --    0.28868   0.29311   0.29891   0.31378   0.35865
 Alpha virt. eigenvalues --    0.36461   0.38179   0.39283   0.41166   0.41403
 Alpha virt. eigenvalues --    0.42004   0.42171   0.42982   0.43711   0.44297
 Alpha virt. eigenvalues --    0.44951   0.45030   0.46100   0.46181   0.47905
 Alpha virt. eigenvalues --    0.48534   0.48897   0.49011   0.50435   0.51255
 Alpha virt. eigenvalues --    0.51664   0.51706   0.52113   0.52943   0.53974
 Alpha virt. eigenvalues --    0.54086   0.54693   0.55682   0.55763   0.57358
 Alpha virt. eigenvalues --    0.58243   0.58816   0.61455   0.62161   0.62352
 Alpha virt. eigenvalues --    0.63230   0.63496   0.65035   0.65163   0.67359
 Alpha virt. eigenvalues --    0.70388   0.70566   0.71045   0.72429   0.72887
 Alpha virt. eigenvalues --    0.75768   0.76021   0.76312   0.76906   0.77098
 Alpha virt. eigenvalues --    0.77852   0.77917   0.78271   0.79863   0.80404
 Alpha virt. eigenvalues --    0.81276   0.81636   0.82128   0.83024   0.85218
 Alpha virt. eigenvalues --    0.87190   0.88228   0.88641   0.89110   0.90428
 Alpha virt. eigenvalues --    0.91148   0.91244   0.93194   0.94649   0.96488
 Alpha virt. eigenvalues --    0.96630   1.00370   1.01320   1.01682   1.02716
 Alpha virt. eigenvalues --    1.03203   1.03895   1.04740   1.05361   1.08799
 Alpha virt. eigenvalues --    1.19578   1.23256   1.24089   1.25317   1.28121
 Alpha virt. eigenvalues --    1.29658   1.31801   1.34246   1.35794   1.36012
 Alpha virt. eigenvalues --    1.39393   1.40187   1.40979   1.42956   1.43498
 Alpha virt. eigenvalues --    1.43547   1.45241   1.45348   1.46388   1.46687
 Alpha virt. eigenvalues --    1.47639   1.48049   1.51796   1.53629   1.55810
 Alpha virt. eigenvalues --    1.56000   1.56357   1.56559   1.57816   1.61498
 Alpha virt. eigenvalues --    1.63190   1.63532   1.63717   1.66147   1.68358
 Alpha virt. eigenvalues --    1.68369   1.68660   1.69705   1.74444   1.76010
 Alpha virt. eigenvalues --    1.77228   1.78048   1.80153   1.80186   1.80737
 Alpha virt. eigenvalues --    1.83202   1.83202   1.83665   1.83803   1.84136
 Alpha virt. eigenvalues --    1.84295   1.85872   1.86074   1.88240   1.91407
 Alpha virt. eigenvalues --    1.92111   1.94158   1.95234   1.97707   1.98184
 Alpha virt. eigenvalues --    1.99781   2.02650   2.04472   2.07259   2.11835
 Alpha virt. eigenvalues --    2.12101   2.14116   2.15216   2.19184   2.21360
 Alpha virt. eigenvalues --    2.22798   2.28534   2.30363   2.34725   2.34992
 Alpha virt. eigenvalues --    2.36223   2.38688   2.39591   2.42401   2.44379
 Alpha virt. eigenvalues --    2.46196   2.46790   2.49406   2.52949   2.53830
 Alpha virt. eigenvalues --    2.54399   2.56674   2.57852   2.58297   2.59666
 Alpha virt. eigenvalues --    2.59826   2.61628   2.62172   2.63567   2.63847
 Alpha virt. eigenvalues --    2.64791   2.65149   2.65239   2.65352   2.68100
 Alpha virt. eigenvalues --    2.68647   2.70980   2.71417   2.73355   2.74833
 Alpha virt. eigenvalues --    2.76302   2.78998   2.79759   2.83026   2.83082
 Alpha virt. eigenvalues --    2.84919   2.86370   2.92145   2.96970   2.99537
 Alpha virt. eigenvalues --    3.00098   3.05426   3.11258   3.11590   3.13115
 Alpha virt. eigenvalues --    3.21182   3.24242   3.26851   3.28293   3.30814
 Alpha virt. eigenvalues --    3.32804   3.33623   3.43413   3.45918   3.46801
 Alpha virt. eigenvalues --    3.48723   3.50277   3.56627   3.65170   3.67077
 Alpha virt. eigenvalues --    3.67480   3.94189   3.94610   3.95115   3.96258
 Alpha virt. eigenvalues --    4.04034   4.06965   4.07597   4.12531   4.35748
 Alpha virt. eigenvalues --    4.61807   4.69931   4.71693  23.45329  23.60624
 Alpha virt. eigenvalues --   23.82343  23.85966  23.88046  23.89413  23.90445
 Alpha virt. eigenvalues --   23.92314  23.98043  23.99697  23.99835  24.00306
 Alpha virt. eigenvalues --   24.10608  24.10701
          Condensed to atoms (all electrons):
               1          2          3          4          5          6
     1  C    8.533681   0.399590  -0.566124   1.875159  -0.006412  -0.094622
     2  C    0.399590   7.077912   0.371007  -1.024088  -0.026828  -0.015017
     3  C   -0.566124   0.371007   6.584078   0.743312  -0.120389   0.016958
     4  C    1.875159  -1.024088   0.743312  10.831684  -0.309782  -0.120372
     5  C   -0.006412  -0.026828  -0.120389  -0.309782  10.831939   0.743289
     6  C   -0.094622  -0.015017   0.016958  -0.120372   0.743289   6.584079
     7  C   -0.024367   0.003460  -0.015017  -0.026844  -1.024022   0.370958
     8  C    0.406373  -0.024338  -0.094619  -0.006520   1.875372  -0.566131
     9  C   -1.252524  -0.777436   0.286365  -0.264446  -0.264130   0.286371
    10  C   -1.238065   0.234573  -0.357702  -2.552491  -2.552504  -0.357611
    11  C    0.251830  -0.942892   1.022761  -0.225143  -1.495691  -0.178245
    12  C   -1.870111   1.294845  -1.366896  -1.470969  -0.322878  -0.200715
    13  C    0.159745  -0.239225  -0.178227  -1.495613  -0.225117   1.022658
    14  C   -1.067882  -0.205605  -0.200723  -0.322634  -1.471612  -1.366803
    15  H    0.364742  -0.103125  -0.001950   0.026400   0.005982   0.001099
    16  H   -0.019643   0.377788  -0.015867   0.013729  -0.001556  -0.000328
    17  H   -0.022861  -0.016999   0.374384  -0.066621   0.000310   0.000394
    18  H    0.048667   0.002999  -0.085188   0.453613   0.007500  -0.004970
    19  H   -0.046884  -0.007522   0.050722  -0.070241  -0.070264   0.050718
    20  H    0.007507   0.001960  -0.004970   0.007497   0.453616  -0.085190
    21  H   -0.001328  -0.000398   0.000394   0.000310  -0.066621   0.374381
    22  H    0.000696   0.000359  -0.000328  -0.001556   0.013734  -0.015872
    23  H    0.005908  -0.002722   0.001099   0.005982   0.026400  -0.001950
    24  H    0.031737   0.014267  -0.001462  -0.012324  -0.012325  -0.001463
    25  H    0.031737   0.014267  -0.001462  -0.012324  -0.012325  -0.001463
               7          8          9         10         11         12
     1  C   -0.024367   0.406373  -1.252524  -1.238065   0.251830  -1.870111
     2  C    0.003460  -0.024338  -0.777436   0.234573  -0.942892   1.294845
     3  C   -0.015017  -0.094619   0.286365  -0.357702   1.022761  -1.366896
     4  C   -0.026844  -0.006520  -0.264446  -2.552491  -0.225143  -1.470969
     5  C   -1.024022   1.875372  -0.264130  -2.552504  -1.495691  -0.322878
     6  C    0.370958  -0.566131   0.286371  -0.357611  -0.178245  -0.200715
     7  C    7.077628   0.399574  -0.777368   0.234500  -0.239084  -0.205551
     8  C    0.399574   8.533463  -1.252178  -1.238104   0.159983  -1.067698
     9  C   -0.777368  -1.252178   9.651887   0.251694   1.748542  -1.994110
    10  C    0.234500  -1.238104   0.251694   9.250836  -0.555864   2.432903
    11  C   -0.239084   0.159983   1.748542  -0.555864  14.646208  -3.834951
    12  C   -0.205551  -1.067698  -1.994110   2.432903  -3.834951  16.048778
    13  C   -0.942753   0.251508   1.748287  -0.555733   1.090516  -4.859880
    14  C    1.294799  -1.870497  -1.994397   2.433129  -4.859629   2.963706
    15  H   -0.002721   0.005908   0.091980  -0.009583  -0.029708  -0.024289
    16  H    0.000359   0.000694   0.004427  -0.009868   0.029328  -0.035666
    17  H   -0.000398  -0.001327  -0.005937   0.020753  -0.028423   0.090745
    18  H    0.001961   0.007505  -0.025511   0.016458  -0.009771  -0.051368
    19  H   -0.007522  -0.046882   0.076449   0.422246   0.077481  -0.064961
    20  H    0.003004   0.048668  -0.025505   0.016450  -0.011693  -0.012386
    21  H   -0.017002  -0.022856  -0.005938   0.020753  -0.006364   0.005280
    22  H    0.377784  -0.019630   0.004434  -0.009870   0.003165  -0.009145
    23  H   -0.103119   0.364752   0.091988  -0.009582   0.001497   0.006731
    24  H    0.014265   0.031730   0.357799   0.005574   0.013228  -0.059575
    25  H    0.014265   0.031730   0.357799   0.005574   0.013228  -0.059575
              13         14         15         16         17         18
     1  C    0.159745  -1.067882   0.364742  -0.019643  -0.022861   0.048667
     2  C   -0.239225  -0.205605  -0.103125   0.377788  -0.016999   0.002999
     3  C   -0.178227  -0.200723  -0.001950  -0.015867   0.374384  -0.085188
     4  C   -1.495613  -0.322634   0.026400   0.013729  -0.066621   0.453613
     5  C   -0.225117  -1.471612   0.005982  -0.001556   0.000310   0.007500
     6  C    1.022658  -1.366803   0.001099  -0.000328   0.000394  -0.004970
     7  C   -0.942753   1.294799  -0.002721   0.000359  -0.000398   0.001961
     8  C    0.251508  -1.870497   0.005908   0.000694  -0.001327   0.007505
     9  C    1.748287  -1.994397   0.091980   0.004427  -0.005937  -0.025511
    10  C   -0.555733   2.433129  -0.009583  -0.009868   0.020753   0.016458
    11  C    1.090516  -4.859629  -0.029708   0.029328  -0.028423  -0.009771
    12  C   -4.859880   2.963706  -0.024289  -0.035666   0.090745  -0.051368
    13  C   14.646957  -3.834840   0.001499   0.003163  -0.006365  -0.011694
    14  C   -3.834840  16.049553   0.006732  -0.009144   0.005279  -0.012380
    15  H    0.001499   0.006732   0.438454  -0.008938   0.001461   0.000204
    16  H    0.003163  -0.009144  -0.008938   0.419207  -0.006644   0.001907
    17  H   -0.006365   0.005279   0.001461  -0.006644   0.422413  -0.010150
    18  H   -0.011694  -0.012380   0.000204   0.001907  -0.010150   0.452942
    19  H    0.077460  -0.064969   0.000293  -0.000530   0.001400  -0.006098
    20  H   -0.009756  -0.051382  -0.000111   0.000014  -0.000142   0.001292
    21  H   -0.028421   0.090745   0.000013  -0.000007   0.000010  -0.000142
    22  H    0.029337  -0.035689  -0.000126   0.000007  -0.000007   0.000014
    23  H   -0.029719  -0.024298   0.000608  -0.000126   0.000013  -0.000111
    24  H    0.013217  -0.059576  -0.000887   0.000627  -0.000141   0.000173
    25  H    0.013217  -0.059576  -0.000887   0.000627  -0.000141   0.000173
              19         20         21         22         23         24
     1  C   -0.046884   0.007507  -0.001328   0.000696   0.005908   0.031737
     2  C   -0.007522   0.001960  -0.000398   0.000359  -0.002722   0.014267
     3  C    0.050722  -0.004970   0.000394  -0.000328   0.001099  -0.001462
     4  C   -0.070241   0.007497   0.000310  -0.001556   0.005982  -0.012324
     5  C   -0.070264   0.453616  -0.066621   0.013734   0.026400  -0.012325
     6  C    0.050718  -0.085190   0.374381  -0.015872  -0.001950  -0.001463
     7  C   -0.007522   0.003004  -0.017002   0.377784  -0.103119   0.014265
     8  C   -0.046882   0.048668  -0.022856  -0.019630   0.364752   0.031730
     9  C    0.076449  -0.025505  -0.005938   0.004434   0.091988   0.357799
    10  C    0.422246   0.016450   0.020753  -0.009870  -0.009582   0.005574
    11  C    0.077481  -0.011693  -0.006364   0.003165   0.001497   0.013228
    12  C   -0.064961  -0.012386   0.005280  -0.009145   0.006731  -0.059575
    13  C    0.077460  -0.009756  -0.028421   0.029337  -0.029719   0.013217
    14  C   -0.064969  -0.051382   0.090745  -0.035689  -0.024298  -0.059576
    15  H    0.000293  -0.000111   0.000013  -0.000126   0.000608  -0.000887
    16  H   -0.000530   0.000014  -0.000007   0.000007  -0.000126   0.000627
    17  H    0.001400  -0.000142   0.000010  -0.000007   0.000013  -0.000141
    18  H   -0.006098   0.001292  -0.000142   0.000014  -0.000111   0.000173
    19  H    0.442566  -0.006098   0.001400  -0.000530   0.000293   0.000621
    20  H   -0.006098   0.452943  -0.010150   0.001908   0.000204   0.000173
    21  H    0.001400  -0.010150   0.422413  -0.006644   0.001461  -0.000141
    22  H   -0.000530   0.001908  -0.006644   0.419206  -0.008939   0.000627
    23  H    0.000293   0.000204   0.001461  -0.008939   0.438455  -0.000887
    24  H    0.000621   0.000173  -0.000141   0.000627  -0.000887   0.494850
    25  H    0.000621   0.000173  -0.000141   0.000627  -0.000887  -0.080868
              25
     1  C    0.031737
     2  C    0.014267
     3  C   -0.001462
     4  C   -0.012324
     5  C   -0.012325
     6  C   -0.001463
     7  C    0.014265
     8  C    0.031730
     9  C    0.357799
    10  C    0.005574
    11  C    0.013228
    12  C   -0.059575
    13  C    0.013217
    14  C   -0.059576
    15  H   -0.000887
    16  H    0.000627
    17  H   -0.000141
    18  H    0.000173
    19  H    0.000621
    20  H    0.000173
    21  H   -0.000141
    22  H    0.000627
    23  H   -0.000887
    24  H   -0.080868
    25  H    0.494850
 Mulliken charges:
               1
     1  C    0.093453
     2  C   -0.406832
     3  C   -0.440155
     4  C    0.024281
     5  C    0.024314
     6  C   -0.440153
     7  C   -0.406785
     8  C    0.093521
     9  C   -0.318542
    10  C    0.101532
    11  C   -0.640308
    12  C    0.667739
    13  C   -0.640220
    14  C    0.667694
    15  H    0.236950
    16  H    0.256439
    17  H    0.248993
    18  H    0.221973
    19  H    0.190231
    20  H    0.221973
    21  H    0.248994
    22  H    0.256438
    23  H    0.236948
    24  H    0.250761
    25  H    0.250761
 Sum of Mulliken charges =   1.00000
 Mulliken charges with hydrogens summed into heavy atoms:
               1
     1  C    0.330403
     2  C   -0.150393
     3  C   -0.191162
     4  C    0.246254
     5  C    0.246287
     6  C   -0.191160
     7  C   -0.150347
     8  C    0.330469
     9  C    0.182981
    10  C    0.291763
    11  C   -0.640308
    12  C    0.667739
    13  C   -0.640220
    14  C    0.667694
 Electronic spatial extent (au):  <R**2>=           2853.9432
 Charge=              1.0000 electrons
 Dipole moment (field-independent basis, Debye):
    X=              0.1825    Y=              0.0000    Z=              0.0000  Tot=              0.1825
 Quadrupole moment (field-independent basis, Debye-Ang):
   XX=            -56.2523   YY=            -31.1521   ZZ=            -84.1407
   XY=             -0.0001   XZ=              0.0000   YZ=              0.0000
 Traceless Quadrupole moment (field-independent basis, Debye-Ang):
   XX=              0.9294   YY=             26.0296   ZZ=            -26.9590
   XY=             -0.0001   XZ=              0.0000   YZ=              0.0000
 Octapole moment (field-independent basis, Debye-Ang**2):
  XXX=              5.1510  YYY=              0.0009  ZZZ=             -0.0000  XYY=             -5.1706
  XXY=              0.0002  XXZ=              0.0000  XZZ=             -3.0627  YZZ=             -0.0001
  YYZ=              0.0000  XYZ=             -0.0000
 Hexadecapole moment (field-independent basis, Debye-Ang**3):
 XXXX=           -608.5568 YYYY=          -2121.8855 ZZZZ=            -99.3139 XXXY=             -0.0020
 XXXZ=              0.0000 YYYX=             -0.0021 YYYZ=             -0.0000 ZZZX=             -0.0000
 ZZZY=              0.0000 XXYY=           -507.3012 XXZZ=           -145.6346 YYZZ=           -590.3216
 XXYZ=             -0.0000 YYXZ=              0.0000 ZZXY=             -0.0005
 N-N= 7.814899875872D+02 E-N=-2.799331547866D+03  KE= 5.375211638140D+02
 Symmetry A'   KE= 5.228739859746D+02
 Symmetry A"   KE= 1.464717783933D+01
 Unable to Open any file for archive entry.
 1\1\GINC-GADI-CPU-CLX-0648\SP\RM062X TD-FC\6-311++G(d,p)\C14H11(1+)\TS
 1578\27-Jul-2022\0\\#n M062X/6-311++G(d,p) TD(NStates=1) EmpiricalDisp
 ersion=GD3 SP\\SP_-75\\1,1\C,0,2.48985,1.37,0.\C,0,3.700075,0.681225,0
 .\C,0,3.683,-0.7036,0.\C,0,2.46305,-1.3986,0.\C,0,-2.46305,-1.3986,0.\
 C,0,-3.683,-0.7036,0.\C,0,-3.700075,0.681225,0.\C,0,-2.48985,1.37,0.\C
 ,0,0.000075,1.4555,0.\C,0,0.,-1.4202,0.\C,0,1.261875,0.685625,0.\C,0,1
 .2381,-0.72255,0.\C,0,-1.261875,0.685625,0.\C,0,-1.2381,-0.72255,0.\H,
 0,2.4848,2.453275,0.\H,0,4.635075,1.221525,0.\H,0,4.60885,-1.261825,0.
 \H,0,2.46795,-2.481175,0.\H,0,0.,-2.50145,0.\H,0,-2.46795,-2.481175,0.
 \H,0,-4.60885,-1.261825,0.\H,0,-4.635075,1.221525,0.\H,0,-2.4848,2.453
 275,0.\H,0,0.,2.153,-0.85795\H,0,0.,2.153,0.85795\\Version=ES64L-G16Re
 vC.01\State=1-A'\HF=-539.7601141\RMSD=4.479e-09\PG=CS [SG(C14H9),X(H2)
 ]\\@
 The archive entry for this job was punched.


 CONFIDENCE IS WHAT YOU FEEL BEFORE YOU FULLY
 COMPREHEND THE SITUATION.
 Job cpu time:       0 days  0 hours 46 minutes 24.8 seconds.
 Elapsed time:       0 days  0 hours  1 minutes 28.2 seconds.
 File lengths (MBytes):  RWF=    460 Int=      0 D2E=      0 Chk=     15 Scr=      1
 Normal termination of Gaussian 16 at Wed Jul 27 10:24:57 2022.
