 Entering Gaussian System, Link 0=g16
 Initial command:
 /apps/gaussian/g16c01/g16/l1.exe "/jobfs/52804872.gadi-pbs/Gau-1133360.inp" -scrdir="/jobfs/52804872.gadi-pbs/"
 Entering Link 1 = /apps/gaussian/g16c01/g16/l1.exe PID=   1133361.
  
 Copyright (c) 1988-2019, Gaussian, Inc.  All Rights Reserved.
  
 This is part of the Gaussian(R) 16 program.  It is based on
 the Gaussian(R) 09 system (copyright 2009, Gaussian, Inc.),
 the Gaussian(R) 03 system (copyright 2003, Gaussian, Inc.),
 the Gaussian(R) 98 system (copyright 1998, Gaussian, Inc.),
 the Gaussian(R) 94 system (copyright 1995, Gaussian, Inc.),
 the Gaussian 92(TM) system (copyright 1992, Gaussian, Inc.),
 the Gaussian 90(TM) system (copyright 1990, Gaussian, Inc.),
 the Gaussian 88(TM) system (copyright 1988, Gaussian, Inc.),
 the Gaussian 86(TM) system (copyright 1986, Carnegie Mellon
 University), and the Gaussian 82(TM) system (copyright 1983,
 Carnegie Mellon University). Gaussian is a federally registered
 trademark of Gaussian, Inc.
  
 This software contains proprietary and confidential information,
 including trade secrets, belonging to Gaussian, Inc.
  
 This software is provided under written license and may be
 used, copied, transmitted, or stored only in accord with that
 written license.
  
 The following legend is applicable only to US Government
 contracts under FAR:
  
                    RESTRICTED RIGHTS LEGEND
  
 Use, reproduction and disclosure by the US Government is
 subject to restrictions as set forth in subparagraphs (a)
 and (c) of the Commercial Computer Software - Restricted
 Rights clause in FAR 52.227-19.
  
 Gaussian, Inc.
 340 Quinnipiac St., Bldg. 40, Wallingford CT 06492
  
  
 ---------------------------------------------------------------
 Warning -- This program may not be used in any manner that
 competes with the business of Gaussian, Inc. or will provide
 assistance to any competitor of Gaussian, Inc.  The licensee
 of this program is prohibited from giving any competitor of
 Gaussian, Inc. access to this program.  By using this program,
 the user acknowledges that Gaussian, Inc. is engaged in the
 business of creating and licensing software in the field of
 computational chemistry and represents and warrants to the
 licensee that it is not a competitor of Gaussian, Inc. and that
 it will not use this program in any manner prohibited above.
 ---------------------------------------------------------------
  

 Cite this work as:
 Gaussian 16, Revision C.01,
 M. J. Frisch, G. W. Trucks, H. B. Schlegel, G. E. Scuseria, 
 M. A. Robb, J. R. Cheeseman, G. Scalmani, V. Barone, 
 G. A. Petersson, H. Nakatsuji, X. Li, M. Caricato, A. V. Marenich, 
 J. Bloino, B. G. Janesko, R. Gomperts, B. Mennucci, H. P. Hratchian, 
 J. V. Ortiz, A. F. Izmaylov, J. L. Sonnenberg, D. Williams-Young, 
 F. Ding, F. Lipparini, F. Egidi, J. Goings, B. Peng, A. Petrone, 
 T. Henderson, D. Ranasinghe, V. G. Zakrzewski, J. Gao, N. Rega, 
 G. Zheng, W. Liang, M. Hada, M. Ehara, K. Toyota, R. Fukuda, 
 J. Hasegawa, M. Ishida, T. Nakajima, Y. Honda, O. Kitao, H. Nakai, 
 T. Vreven, K. Throssell, J. A. Montgomery, Jr., J. E. Peralta, 
 F. Ogliaro, M. J. Bearpark, J. J. Heyd, E. N. Brothers, K. N. Kudin, 
 V. N. Staroverov, T. A. Keith, R. Kobayashi, J. Normand, 
 K. Raghavachari, A. P. Rendell, J. C. Burant, S. S. Iyengar, 
 J. Tomasi, M. Cossi, J. M. Millam, M. Klene, C. Adamo, R. Cammi, 
 J. W. Ochterski, R. L. Martin, K. Morokuma, O. Farkas, 
 J. B. Foresman, and D. J. Fox, Gaussian, Inc., Wallingford CT, 2019.
 
 ******************************************
 Gaussian 16:  ES64L-G16RevC.01  3-Jul-2019
                27-Jul-2022 
 ******************************************
 %NProcShared=32
 Will use up to   32 processors via shared memory.
 %mem = 128GB
 ---------------------------------------------------------------
 #n M062X/6-311++G(d,p) TD(NStates=1) EmpiricalDispersion=GD3 SP
 ---------------------------------------------------------------
 1/38=1,172=1/1;
 2/12=2,17=6,18=5,40=1/2;
 3/5=4,6=6,7=1111,11=9,25=1,30=1,74=-55,124=31/1,2,3,8;
 4//1;
 5/5=2,38=5/2;
 8/6=1,10=2,108=1/1;
 9/41=1,42=1,70=2/14;
 6/7=2,8=2,9=2,10=2/1;
 99/5=1,9=1/99;
 -------
 SP_-125
 -------
 Symbolic Z-matrix:
 Charge =  1 Multiplicity = 1
 C                     2.45845   1.3706    0. 
 C                     3.66038   0.66308   0. 
 C                     3.6724   -0.7361    0. 
 C                     2.5022   -1.42165   0. 
 C                    -2.4242   -1.37615   0. 
 C                    -3.6954   -0.6741    0. 
 C                    -3.74263   0.69833   0. 
 C                    -2.52695   1.3676    0. 
 C                    -0.02188   1.4621    0. 
 C                     0.061    -1.4205    0. 
 C                     1.27123   0.70483   0. 
 C                     1.2625   -0.7251    0. 
 C                    -1.25298   0.66658   0. 
 C                    -1.2125   -0.7191    0. 
 H                     2.4776    2.45343   0. 
 H                     4.59517   1.20603   0. 
 H                     4.61655  -1.26258   0. 
 H                     2.48575  -2.50353   0. 
 H                     0.05625  -2.5016    0. 
 H                    -2.44925  -2.45928   0. 
 H                    -4.60205  -1.26483   0. 
 H                    -4.67843   1.23478   0. 
 H                    -2.4986    2.45118   0. 
 H                    -0.08      2.1545   -0.8596 
 H                    -0.08      2.1545    0.8596 
 
                          Input orientation:                          
 ---------------------------------------------------------------------
 Center     Atomic      Atomic             Coordinates (Angstroms)
 Number     Number       Type             X           Y           Z
 ---------------------------------------------------------------------
      1          6           0        2.458450    1.370600    0.000000
      2          6           0        3.660375    0.663075    0.000000
      3          6           0        3.672400   -0.736100    0.000000
      4          6           0        2.502200   -1.421650    0.000000
      5          6           0       -2.424200   -1.376150    0.000000
      6          6           0       -3.695400   -0.674100    0.000000
      7          6           0       -3.742625    0.698325    0.000000
      8          6           0       -2.526950    1.367600    0.000000
      9          6           0       -0.021875    1.462100    0.000000
     10          6           0        0.061000   -1.420500    0.000000
     11          6           0        1.271225    0.704825    0.000000
     12          6           0        1.262500   -0.725100    0.000000
     13          6           0       -1.252975    0.666575    0.000000
     14          6           0       -1.212500   -0.719100    0.000000
     15          1           0        2.477600    2.453425    0.000000
     16          1           0        4.595175    1.206025    0.000000
     17          1           0        4.616550   -1.262575    0.000000
     18          1           0        2.485750   -2.503525    0.000000
     19          1           0        0.056250   -2.501600    0.000000
     20          1           0       -2.449250   -2.459275    0.000000
     21          1           0       -4.602050   -1.264825    0.000000
     22          1           0       -4.678425    1.234775    0.000000
     23          1           0       -2.498600    2.451175    0.000000
     24          1           0       -0.080000    2.154500   -0.859600
     25          1           0       -0.080000    2.154500    0.859600
 ---------------------------------------------------------------------
                    Distance matrix (angstroms):
                    1          2          3          4          5
     1  C    0.000000
     2  C    1.394710   0.000000
     3  C    2.431432   1.399227   0.000000
     4  C    2.792593   2.384837   1.356225   0.000000
     5  C    5.602223   6.417203   6.130106   4.926610   0.000000
     6  C    6.484649   7.476327   7.368061   6.242522   1.452179
     7  C    6.237410   7.403084   7.552494   6.594857   2.457985
     8  C    4.985401   6.227306   6.546564   5.750849   2.745673
     9  C    2.482012   3.767945   4.298808   3.832358   3.718444
    10  C    3.679403   4.158940   3.675679   2.441200   2.485596
    11  C    1.361161   2.389515   2.800340   2.457070   4.241064
    12  C    2.412935   2.770710   2.409925   1.421984   3.743745
    13  C    3.777609   4.913351   5.121212   4.296746   2.354675
    14  C    4.224064   5.065108   4.884930   3.780552   1.378380
    15  H    1.082994   2.145766   3.405968   3.875153   6.220393
    16  H    2.143054   1.081039   2.150201   3.359348   7.479255
    17  H    3.404557   2.149976   1.081016   2.120326   7.041666
    18  H    3.874221   3.377440   2.128833   1.082000   5.037716
    19  H    4.556808   4.796341   4.024119   2.673755   2.723834
    20  H    6.225228   6.861238   6.359554   5.059004   1.083415
    21  H    7.536320   8.484366   8.291325   7.105981   2.180693
    22  H    7.138167   8.358375   8.580246   7.656237   3.449414
    23  H    5.073459   6.413289   6.945499   6.325091   3.828048
    24  H    2.792336   4.117483   4.814041   4.493942   4.324312
    25  H    2.792336   4.117483   4.814041   4.493942   4.324312
                    6          7          8          9         10
     6  C    0.000000
     7  C    1.373237   0.000000
     8  C    2.352406   1.387730   0.000000
     9  C    4.249487   3.798333   2.506857   0.000000
    10  C    3.829837   4.353962   3.804075   2.883791   0.000000
    11  C    5.154493   5.013854   3.855568   1.498524   2.445741
    12  C    4.958162   5.203596   4.328894   2.536427   1.388230
    13  C    2.786189   2.489852   1.454114   1.465765   2.466255
    14  C    2.483308   2.900108   2.466191   2.484999   1.453879
    15  H    6.920068   6.463093   5.120990   2.688885   4.565879
    16  H    8.501088   8.353243   7.123958   4.624146   5.239979
    17  H    8.332756   8.586090   7.612320   5.379483   4.558287
    18  H    6.446194   7.003178   6.333464   4.691947   2.655627
    19  H    4.173084   4.966988   4.652272   3.964470   1.081110
    20  H    2.177094   3.412222   3.827664   4.611869   2.716691
    21  H    1.082114   2.143028   3.351970   5.330490   4.665648
    22  H    2.147124   1.078657   2.155571   4.662096   5.432553
    23  H    3.346591   2.149437   1.083946   2.666915   4.641273
    24  H    4.670226   4.034127   2.710293   1.105309   3.679595
    25  H    4.670226   4.034127   2.710293   1.105309   3.679595
                   11         12         13         14         15
    11  C    0.000000
    12  C    1.429952   0.000000
    13  C    2.524490   2.874782   0.000000
    14  C    2.862945   2.475007   1.386266   0.000000
    15  H    2.124369   3.402865   4.136426   4.866390   0.000000
    16  H    3.361524   3.851748   5.872978   6.118431   2.457668
    17  H    3.880961   3.396841   6.178426   5.854331   4.287629
    18  H    3.430537   2.158503   4.901795   4.106242   4.956957
    19  H    3.428896   2.147322   3.428032   2.187929   5.514999
    20  H    4.884001   4.096883   3.346941   2.134891   6.957620
    21  H    6.194746   5.889334   3.866084   3.433200   7.996676
    22  H    5.973205   6.255853   3.472256   3.978726   7.259050
    23  H    4.154674   4.922865   2.176322   3.421213   4.976201
    24  H    2.160157   3.291400   2.080554   3.206095   2.714698
    25  H    2.160157   3.291400   2.080554   3.206095   2.714698
                   16         17         18         19         20
    16  H    0.000000
    17  H    2.468693   0.000000
    18  H    4.267369   2.465819   0.000000
    19  H    5.860744   4.725624   2.429501   0.000000
    20  H    7.940929   7.166423   4.935198   2.505857   0.000000
    21  H    9.523342   9.218600   7.195227   4.819686   2.461962
    22  H    9.273645   9.624620   8.080860   6.031388   4.314537
    23  H    7.202225   8.026039   7.028001   5.572902   4.910698
    24  H    4.847244   5.871362   5.386946   4.736744   5.257298
    25  H    4.847244   5.871362   5.386946   4.736744   5.257298
                   21         22         23         24         25
    21  H    0.000000
    22  H    2.500767   0.000000
    23  H    4.270030   2.496250   0.000000
    24  H    5.734076   4.767632   2.583903   0.000000
    25  H    5.734076   4.767632   2.583903   1.719200   0.000000
 Stoichiometry    C14H11(1+)
 Framework group  CS[SG(C14H9),X(H2)]
 Deg. of freedom    46
 Full point group                 CS      NOp   2
 Largest Abelian subgroup         CS      NOp   2
 Largest concise Abelian subgroup CS      NOp   2
                         Standard orientation:                         
 ---------------------------------------------------------------------
 Center     Atomic      Atomic             Coordinates (Angstroms)
 Number     Number       Type             X           Y           Z
 ---------------------------------------------------------------------
      1          6           0        0.098925   -2.809541    0.000000
      2          6           0        1.324346   -3.475544    0.000000
      3          6           0        2.529956   -2.765375    0.000000
      4          6           0        2.515060   -1.409231    0.000000
      5          6           0       -0.060697    2.790408    0.000000
      6          6           0       -1.317096    3.518614    0.000000
      7          6           0       -2.517900    2.852394    0.000000
      8          6           0       -2.465636    1.465649    0.000000
      9          6           0       -1.256706   -0.730443    0.000000
     10          6           0        1.257026    0.682852    0.000000
     11          6           0        0.058311   -1.448986    0.000000
     12          6           0        1.279596   -0.705195    0.000000
     13          6           0       -1.208687    0.734535    0.000000
     14          6           0        0.000000    1.413365    0.000000
     15          1           0       -0.819446   -3.383536    0.000000
     16          1           0        1.340268   -4.556466    0.000000
     17          1           0        3.467438   -3.303632    0.000000
     18          1           0        3.434007   -0.838040    0.000000
     19          1           0        2.181334    1.243615    0.000000
     20          1           0        0.854894    3.369615    0.000000
     21          1           0       -1.277569    4.600006    0.000000
     22          1           0       -3.459634    3.378358    0.000000
     23          1           0       -3.379913    0.883380    0.000000
     24          1           0       -1.880184   -1.037154    0.859600
     25          1           0       -1.880184   -1.037154   -0.859600
 ---------------------------------------------------------------------
 Rotational constants (GHZ):           2.1368759           0.4444919           0.3687535
 Standard basis: 6-311++G(d,p) (5D, 7F)
 There are   299 symmetry adapted cartesian basis functions of A'  symmetry.
 There are   100 symmetry adapted cartesian basis functions of A"  symmetry.
 There are   285 symmetry adapted basis functions of A'  symmetry.
 There are   100 symmetry adapted basis functions of A"  symmetry.
   385 basis functions,   603 primitive gaussians,   399 cartesian basis functions
    47 alpha electrons       47 beta electrons
       nuclear repulsion energy       781.2775181140 Hartrees.
 NAtoms=   25 NActive=   25 NUniq=   24 SFac= 1.09D+00 NAtFMM=   60 NAOKFM=F Big=F
 Integral buffers will be    131072 words long.
 Regular integral format.
 Two-electron integral symmetry is turned on.
 Nuclear repulsion after empirical dispersion term =      781.2765393032 Hartrees.
 One-electron integrals computed using PRISM.
 NBasis=   385 RedAO= T EigKep=  1.11D-06  NBF=   285   100
 NBsUse=   379 1.00D-06 EigRej=  8.34D-07 NBFU=   279   100
 ExpMin= 3.60D-02 ExpMax= 4.56D+03 ExpMxC= 6.82D+02 IAcc=3 IRadAn=         5 AccDes= 0.00D+00
 Harris functional with IExCor= 1009 and IRadAn=       5 diagonalized for initial guess.
 HarFok:  IExCor= 1009 AccDes= 0.00D+00 IRadAn=         5 IDoV= 1 UseB2=F ITyADJ=14
 ICtDFT=  3500011 ScaDFX=  1.000000  1.000000  1.000000  1.000000
 FoFCou: FMM=F IPFlag=           0 FMFlag=      100000 FMFlg1=           0
         NFxFlg=           0 DoJE=T BraDBF=F KetDBF=T FulRan=T
         wScrn=  0.000000 ICntrl=       500 IOpCl=  0 I1Cent=   200000004 NGrid=           0
         NMat0=    1 NMatS0=      1 NMatT0=    0 NMatD0=    1 NMtDS0=    0 NMtDT0=    0
 Petite list used in FoFCou.
 Initial guess orbital symmetries:
       Occupied  (A') (A') (A') (A') (A') (A') (A') (A') (A') (A')
                 (A') (A') (A') (A') (A') (A') (A') (A') (A') (A')
                 (A') (A') (A') (A') (A') (A') (A') (A') (A') (A')
                 (A') (A') (A") (A') (A') (A') (A') (A') (A") (A')
                 (A") (A') (A') (A") (A") (A") (A")
       Virtual   (A") (A") (A") (A") (A") (A') (A') (A') (A') (A")
                 (A") (A') (A') (A') (A") (A') (A') (A') (A') (A")
                 (A') (A") (A') (A') (A') (A") (A') (A') (A") (A')
                 (A') (A') (A') (A') (A") (A') (A") (A') (A') (A')
                 (A") (A') (A") (A') (A') (A') (A') (A') (A") (A')
                 (A') (A') (A") (A") (A') (A') (A') (A") (A") (A')
                 (A') (A') (A') (A') (A') (A') (A") (A') (A') (A")
                 (A') (A') (A') (A') (A') (A') (A') (A') (A') (A')
                 (A') (A') (A') (A') (A') (A') (A') (A') (A') (A')
                 (A') (A') (A') (A') (A') (A') (A') (A") (A') (A")
                 (A') (A") (A') (A") (A') (A") (A') (A") (A") (A')
                 (A") (A') (A') (A') (A") (A') (A') (A") (A") (A')
                 (A") (A") (A') (A') (A') (A") (A') (A') (A') (A")
                 (A') (A') (A') (A') (A') (A') (A") (A') (A') (A')
                 (A') (A') (A') (A') (A') (A') (A') (A') (A') (A")
                 (A") (A') (A") (A") (A') (A') (A') (A") (A') (A")
                 (A") (A') (A") (A") (A") (A') (A') (A') (A') (A')
                 (A') (A") (A') (A') (A") (A') (A') (A') (A') (A")
                 (A') (A') (A') (A') (A") (A") (A') (A') (A") (A")
                 (A") (A') (A') (A") (A') (A') (A') (A") (A') (A')
                 (A") (A") (A") (A') (A') (A") (A') (A") (A') (A')
                 (A") (A") (A') (A") (A') (A") (A') (A') (A') (A')
                 (A") (A') (A') (A') (A") (A') (A') (A') (A") (A")
                 (A') (A') (A') (A") (A') (A') (A") (A') (A") (A')
                 (A") (A') (A') (A') (A') (A") (A') (A') (A') (A")
                 (A') (A') (A') (A") (A") (A') (A') (A") (A') (A')
                 (A') (A") (A') (A") (A') (A') (A') (A") (A') (A")
                 (A') (A') (A') (A') (A") (A') (A") (A') (A") (A")
                 (A') (A') (A") (A") (A") (A') (A') (A') (A') (A')
                 (A') (A') (A') (A') (A') (A') (A') (A') (A') (A')
                 (A') (A') (A') (A") (A') (A') (A') (A') (A') (A')
                 (A') (A') (A') (A') (A') (A') (A') (A') (A') (A')
                 (A') (A') (A') (A') (A') (A') (A') (A') (A') (A')
                 (A') (A')
 The electronic state of the initial guess is 1-A'.
 Requested convergence on RMS density matrix=1.00D-08 within 128 cycles.
 Requested convergence on MAX density matrix=1.00D-06.
 Requested convergence on             energy=1.00D-06.
 No special actions if energy rises.
 SCF Done:  E(RM062X) =  -539.749331284     A.U. after   16 cycles
            NFock= 16  Conv=0.35D-08     -V/T= 2.0041
 DoSCS=F DFT=T ScalE2(SS,OS)=  1.000000  1.000000
 ExpMin= 3.60D-02 ExpMax= 4.56D+03 ExpMxC= 6.82D+02 IAcc=3 IRadAn=         5 AccDes= 0.00D+00
 HarFok:  IExCor=  205 AccDes= 0.00D+00 IRadAn=         5 IDoV=-2 UseB2=F ITyADJ=14
 ICtDFT= 12500011 ScaDFX=  1.000000  1.000000  1.000000  1.000000
 Range of M.O.s used for correlation:    15   379
 NBasis=   385 NAE=    47 NBE=    47 NFC=    14 NFV=     0
 NROrb=    365 NOA=    33 NOB=    33 NVA=   332 NVB=   332

 **** Warning!!: The largest alpha MO coefficient is  0.14001330D+03

 Orbital symmetries:
       Occupied  (A') (A') (A') (A') (A') (A') (A') (A') (A') (A')
                 (A') (A') (A') (A') (A') (A') (A') (A') (A') (A')
                 (A') (A') (A') (A') (A') (A') (A') (A') (A') (A')
                 (A') (A") (A') (A') (A') (A') (A') (A") (A') (A")
                 (A') (A') (A') (A") (A") (A") (A")
       Virtual   (A") (A") (A") (A") (A') (A') (A') (A') (A") (A')
                 (A') (A") (A') (A') (A") (A') (A") (A') (A') (A')
                 (A") (A") (A') (A') (A') (A") (A') (A") (A') (A')
                 (A") (A') (A") (A') (A') (A') (A') (A') (A") (A')
                 (A") (A') (A') (A") (A") (A') (A") (A') (A") (A')
                 (A') (A') (A') (A') (A') (A") (A') (A') (A') (A')
                 (A') (A") (A') (A') (A') (A") (A') (A') (A') (A')
                 (A') (A') (A') (A') (A') (A') (A') (A') (A') (A')
                 (A') (A') (A') (A') (A') (A') (A') (A') (A') (A')
                 (A') (A') (A') (A') (A") (A') (A") (A") (A') (A")
                 (A') (A') (A') (A') (A") (A") (A') (A") (A") (A')
                 (A') (A") (A') (A') (A") (A') (A') (A") (A') (A")
                 (A") (A') (A") (A') (A') (A') (A") (A') (A') (A')
                 (A') (A') (A') (A') (A') (A') (A') (A') (A') (A')
                 (A') (A') (A') (A") (A') (A') (A') (A') (A') (A')
                 (A') (A") (A') (A') (A") (A') (A") (A") (A') (A")
                 (A") (A') (A') (A") (A') (A") (A") (A") (A') (A')
                 (A') (A') (A") (A') (A') (A") (A') (A') (A') (A")
                 (A') (A') (A') (A") (A") (A') (A') (A") (A") (A')
                 (A") (A') (A') (A") (A') (A") (A') (A') (A') (A')
                 (A") (A") (A") (A') (A") (A') (A') (A") (A') (A')
                 (A') (A") (A') (A") (A") (A') (A") (A') (A') (A")
                 (A') (A') (A') (A') (A") (A') (A') (A') (A") (A")
                 (A') (A') (A') (A") (A') (A') (A') (A") (A") (A')
                 (A") (A') (A') (A") (A') (A') (A') (A') (A') (A')
                 (A") (A') (A') (A') (A') (A") (A") (A") (A') (A')
                 (A') (A') (A') (A') (A') (A') (A') (A") (A') (A')
                 (A') (A") (A') (A") (A") (A") (A') (A") (A') (A")
                 (A') (A") (A") (A') (A") (A") (A') (A') (A') (A')
                 (A') (A') (A') (A') (A') (A') (A') (A') (A') (A')
                 (A') (A') (A') (A") (A') (A') (A') (A') (A') (A')
                 (A') (A') (A') (A') (A') (A') (A') (A') (A') (A')
                 (A') (A') (A') (A') (A') (A') (A') (A') (A') (A')
                 (A') (A')
     4 initial guesses have been made.
 Convergence on wavefunction:    0.001000000000000
 Iteration     1 Dimension     4 NMult     0 NNew      4
 CISAX will form     4 AO SS matrices at one time.
 Iteration     2 Dimension     6 NMult     4 NNew      2
 Iteration     3 Dimension     8 NMult     6 NNew      2
 Iteration     4 Dimension    10 NMult     8 NNew      2
 Iteration     5 Dimension    12 NMult    10 NNew      2
 Iteration     6 Dimension    14 NMult    12 NNew      2
 ***********************************************************************
 Excited states from <AA,BB:AA,BB> singles matrix:
 ***********************************************************************
 
 Ground to excited state transition densities written to RWF  633
 Ground to excited state transition electric dipole moments (Au):
       state          X           Y           Z        Dip. S.      Osc.
         1        -0.4836     -0.2004     -0.0000      0.2740      0.0174
 Ground to excited state transition velocity dipole moments (Au):
       state          X           Y           Z        Dip. S.      Osc.
         1         0.0495      0.0261      0.0000      0.0031      0.0219
 Ground to excited state transition magnetic dipole moments (Au):
       state          X           Y           Z
         1         0.0000     -0.0000     -0.1643
 Ground to excited state transition velocity quadrupole moments (Au):
       state          XX          YY          ZZ          XY          XZ          YZ
         1        -0.0035      0.2444     -0.0077     -0.0470      0.0000     -0.0000
 <0|del|b> * <b|rxdel|0> + <0|del|b> * <b|delr+rdel|0>
 Rotatory Strengths (R) in cgs (10**-40 erg-esu-cm/Gauss)
       state          XX          YY          ZZ    R(velocity)    E-M Angle
         1        -0.0000     -0.0000      0.0000     -0.0000       90.00
 1/2[<0|r|b>*<b|rxdel|0> + (<0|rxdel|b>*<b|r|0>)*]
 Rotatory Strengths (R) in cgs (10**-40 erg-esu-cm/Gauss)
       state          XX          YY          ZZ     R(length)
         1         0.0000     -0.0000     -0.0000     -0.0000
  1/2[<0|del|b>*<b|r|0> + (<0|r|b>*<b|del|0>)*] (Au)
       state          X           Y           Z        Dip. S.   Osc.(frdel)
         1        -0.0239     -0.0052     -0.0000      0.0292      0.0194

 Excitation energies and oscillator strengths:
 
 Excited State   1:      Singlet-A'     2.5875 eV  479.16 nm  f=0.0174  <S**2>=0.000
      47 -> 48         0.70343
 This state for optimization and/or second-order correction.
 Total Energy, E(TD-HF/TD-DFT) =  -539.654240813    
 Copying the excited state density for this state as the 1-particle RhoCI density.
 SavETr:  write IOETrn=   770 NScale= 10 NData=  16 NLR=1 NState=    1 LETran=      28.

 **********************************************************************

            Population analysis using the SCF Density.

 **********************************************************************

 Orbital symmetries:
       Occupied  (A') (A') (A') (A') (A') (A') (A') (A') (A') (A')
                 (A') (A') (A') (A') (A') (A') (A') (A') (A') (A')
                 (A') (A') (A') (A') (A') (A') (A') (A') (A') (A')
                 (A') (A") (A') (A') (A') (A') (A') (A") (A') (A")
                 (A') (A') (A') (A") (A") (A") (A")
       Virtual   (A") (A") (A") (A") (A') (A') (A') (A') (A") (A')
                 (A') (A") (A') (A') (A") (A') (A") (A') (A') (A')
                 (A") (A") (A') (A') (A') (A") (A') (A") (A') (A')
                 (A") (A') (A") (A') (A') (A') (A') (A') (A") (A')
                 (A") (A') (A') (A") (A") (A') (A") (A') (A") (A')
                 (A') (A') (A') (A') (A') (A") (A') (A') (A') (A')
                 (A') (A") (A') (A') (A') (A") (A') (A') (A') (A')
                 (A') (A') (A') (A') (A') (A') (A') (A') (A') (A')
                 (A') (A') (A') (A') (A') (A') (A') (A') (A') (A')
                 (A') (A') (A') (A') (A") (A') (A") (A") (A') (A")
                 (A') (A') (A') (A') (A") (A") (A') (A") (A") (A')
                 (A') (A") (A') (A') (A") (A') (A') (A") (A') (A")
                 (A") (A') (A") (A') (A') (A') (A") (A') (A') (A')
                 (A') (A') (A') (A') (A') (A') (A') (A') (A') (A')
                 (A') (A') (A') (A") (A') (A') (A') (A') (A') (A')
                 (A') (A") (A') (A') (A") (A') (A") (A") (A') (A")
                 (A") (A') (A') (A") (A') (A") (A") (A") (A') (A')
                 (A') (A') (A") (A') (A') (A") (A') (A') (A') (A")
                 (A') (A') (A') (A") (A") (A') (A') (A") (A") (A')
                 (A") (A') (A') (A") (A') (A") (A') (A') (A') (A')
                 (A") (A") (A") (A') (A") (A') (A') (A") (A') (A')
                 (A') (A") (A') (A") (A") (A') (A") (A') (A') (A")
                 (A') (A') (A') (A') (A") (A') (A') (A') (A") (A")
                 (A') (A') (A') (A") (A') (A') (A') (A") (A") (A')
                 (A") (A') (A') (A") (A') (A') (A') (A') (A') (A')
                 (A") (A') (A') (A') (A') (A") (A") (A") (A') (A')
                 (A') (A') (A') (A') (A') (A') (A') (A") (A') (A')
                 (A') (A") (A') (A") (A") (A") (A') (A") (A') (A")
                 (A') (A") (A") (A') (A") (A") (A') (A') (A') (A')
                 (A') (A') (A') (A') (A') (A') (A') (A') (A') (A')
                 (A') (A') (A') (A") (A') (A') (A') (A') (A') (A')
                 (A') (A') (A') (A') (A') (A') (A') (A') (A') (A')
                 (A') (A') (A') (A') (A') (A') (A') (A') (A') (A')
                 (A') (A')
 The electronic state is 1-A'.
 Alpha  occ. eigenvalues --  -10.77522 -10.73933 -10.72943 -10.72506 -10.72347
 Alpha  occ. eigenvalues --  -10.71998 -10.71789 -10.70988 -10.70645 -10.70296
 Alpha  occ. eigenvalues --  -10.70030 -10.69798 -10.69646 -10.69221  -1.16615
 Alpha  occ. eigenvalues --   -1.12481  -1.06934  -1.05946  -1.01269  -1.00559
 Alpha  occ. eigenvalues --   -0.95440  -0.91009  -0.86458  -0.85885  -0.83754
 Alpha  occ. eigenvalues --   -0.78289  -0.76214  -0.74341  -0.69903  -0.69361
 Alpha  occ. eigenvalues --   -0.68204  -0.68081  -0.68001  -0.65504  -0.64225
 Alpha  occ. eigenvalues --   -0.62627  -0.61414  -0.60627  -0.59194  -0.59100
 Alpha  occ. eigenvalues --   -0.56969  -0.55267  -0.54394  -0.52441  -0.47651
 Alpha  occ. eigenvalues --   -0.46142  -0.43455
 Alpha virt. eigenvalues --   -0.26115  -0.14666  -0.14061  -0.12751  -0.11199
 Alpha virt. eigenvalues --   -0.10100  -0.09277  -0.07946  -0.07897  -0.07490
 Alpha virt. eigenvalues --   -0.07219  -0.07129  -0.05648  -0.05570  -0.05366
 Alpha virt. eigenvalues --   -0.03866  -0.03677  -0.03269  -0.03131  -0.02150
 Alpha virt. eigenvalues --   -0.01337  -0.00975   0.00182   0.00592   0.00635
 Alpha virt. eigenvalues --    0.01070   0.01496   0.01925   0.02103   0.02303
 Alpha virt. eigenvalues --    0.02447   0.02676   0.02829   0.03211   0.03475
 Alpha virt. eigenvalues --    0.04206   0.04494   0.04740   0.05046   0.05407
 Alpha virt. eigenvalues --    0.06016   0.06286   0.06565   0.07064   0.07282
 Alpha virt. eigenvalues --    0.07913   0.08037   0.08345   0.08702   0.08895
 Alpha virt. eigenvalues --    0.09448   0.09590   0.09924   0.10784   0.10928
 Alpha virt. eigenvalues --    0.11135   0.12052   0.12245   0.12593   0.13050
 Alpha virt. eigenvalues --    0.13493   0.13524   0.13957   0.14279   0.15736
 Alpha virt. eigenvalues --    0.16364   0.16541   0.17319   0.17346   0.17748
 Alpha virt. eigenvalues --    0.18135   0.19069   0.19374   0.19737   0.20049
 Alpha virt. eigenvalues --    0.21449   0.21686   0.22627   0.23240   0.23588
 Alpha virt. eigenvalues --    0.24015   0.24496   0.25476   0.26965   0.27628
 Alpha virt. eigenvalues --    0.28879   0.29234   0.29981   0.31354   0.35748
 Alpha virt. eigenvalues --    0.36508   0.38236   0.39286   0.40972   0.41197
 Alpha virt. eigenvalues --    0.41999   0.42038   0.42983   0.43721   0.44461
 Alpha virt. eigenvalues --    0.44723   0.45158   0.45804   0.46497   0.47837
 Alpha virt. eigenvalues --    0.48312   0.48730   0.49044   0.50599   0.51060
 Alpha virt. eigenvalues --    0.51158   0.52163   0.52224   0.52709   0.54145
 Alpha virt. eigenvalues --    0.54256   0.54590   0.55593   0.56097   0.57614
 Alpha virt. eigenvalues --    0.58210   0.59083   0.61556   0.62300   0.62488
 Alpha virt. eigenvalues --    0.63138   0.63464   0.64923   0.65179   0.67640
 Alpha virt. eigenvalues --    0.70225   0.70418   0.71350   0.72601   0.72951
 Alpha virt. eigenvalues --    0.75457   0.76073   0.76490   0.76694   0.77125
 Alpha virt. eigenvalues --    0.77892   0.78111   0.78348   0.79942   0.80385
 Alpha virt. eigenvalues --    0.81223   0.81528   0.82583   0.82983   0.85301
 Alpha virt. eigenvalues --    0.86969   0.87867   0.88188   0.89454   0.90722
 Alpha virt. eigenvalues --    0.91042   0.91580   0.93399   0.94580   0.96210
 Alpha virt. eigenvalues --    0.97068   0.99905   1.01312   1.01407   1.02661
 Alpha virt. eigenvalues --    1.02928   1.03344   1.04995   1.06854   1.09026
 Alpha virt. eigenvalues --    1.19614   1.22742   1.23720   1.24196   1.29059
 Alpha virt. eigenvalues --    1.29500   1.32573   1.34239   1.35738   1.35934
 Alpha virt. eigenvalues --    1.39229   1.39407   1.40666   1.42851   1.43333
 Alpha virt. eigenvalues --    1.43378   1.44381   1.46376   1.46533   1.47433
 Alpha virt. eigenvalues --    1.47753   1.48417   1.51853   1.53727   1.55715
 Alpha virt. eigenvalues --    1.55814   1.56235   1.56602   1.57871   1.61525
 Alpha virt. eigenvalues --    1.62760   1.63410   1.64379   1.66080   1.68248
 Alpha virt. eigenvalues --    1.68447   1.68733   1.69919   1.74465   1.76070
 Alpha virt. eigenvalues --    1.77198   1.78120   1.79731   1.79928   1.81007
 Alpha virt. eigenvalues --    1.82638   1.83172   1.83634   1.83793   1.84186
 Alpha virt. eigenvalues --    1.84765   1.85322   1.86578   1.88479   1.91471
 Alpha virt. eigenvalues --    1.92238   1.94033   1.95481   1.97887   1.98173
 Alpha virt. eigenvalues --    1.99884   2.02462   2.04685   2.07368   2.11670
 Alpha virt. eigenvalues --    2.12281   2.14398   2.15313   2.19071   2.21219
 Alpha virt. eigenvalues --    2.22692   2.28336   2.30450   2.34355   2.34685
 Alpha virt. eigenvalues --    2.36463   2.38533   2.39745   2.42314   2.44379
 Alpha virt. eigenvalues --    2.46082   2.46567   2.49075   2.53000   2.53780
 Alpha virt. eigenvalues --    2.54361   2.56878   2.57992   2.58521   2.59313
 Alpha virt. eigenvalues --    2.59970   2.61486   2.62164   2.63607   2.63688
 Alpha virt. eigenvalues --    2.64888   2.65030   2.65053   2.65747   2.67978
 Alpha virt. eigenvalues --    2.68323   2.70915   2.71518   2.73407   2.74809
 Alpha virt. eigenvalues --    2.76262   2.78195   2.79600   2.83333   2.83356
 Alpha virt. eigenvalues --    2.84864   2.86283   2.92141   2.97195   2.99364
 Alpha virt. eigenvalues --    3.00230   3.04967   3.08683   3.11074   3.14637
 Alpha virt. eigenvalues --    3.20277   3.21441   3.25765   3.29080   3.31066
 Alpha virt. eigenvalues --    3.32865   3.35183   3.44367   3.46527   3.46898
 Alpha virt. eigenvalues --    3.48387   3.50034   3.56455   3.65534   3.67180
 Alpha virt. eigenvalues --    3.68276   3.93198   3.93859   3.95269   3.96724
 Alpha virt. eigenvalues --    4.03848   4.06245   4.07784   4.12517   4.35150
 Alpha virt. eigenvalues --    4.60666   4.68655   4.70803  23.45124  23.59740
 Alpha virt. eigenvalues --   23.78612  23.80714  23.83838  23.89321  23.92259
 Alpha virt. eigenvalues --   23.95185  23.96078  23.98635  24.05325  24.08786
 Alpha virt. eigenvalues --   24.12032  24.15174
          Condensed to atoms (all electrons):
               1          2          3          4          5          6
     1  C    8.289139   0.597536  -0.685981   1.660077   0.005783  -0.080993
     2  C    0.597536   7.212332   0.443435  -0.955933  -0.047813  -0.015502
     3  C   -0.685981   0.443435   6.621642   0.696427  -0.108168   0.016870
     4  C    1.660077  -0.955933   0.696427  11.721153  -0.385831  -0.147646
     5  C    0.005783  -0.047813  -0.108168  -0.385831  10.564922   0.856012
     6  C   -0.080993  -0.015502   0.016870  -0.147646   0.856012   6.612016
     7  C   -0.039641  -0.000619  -0.012586   0.027906  -1.251967   0.189050
     8  C    0.413572   0.005076  -0.109996  -0.112799   2.380357  -0.306766
     9  C   -1.146387  -0.889423   0.292568   0.140156  -0.486752   0.293821
    10  C   -1.166632   0.122048  -0.224973  -2.864632  -2.301434  -0.470138
    11  C    0.350730  -0.746100   0.839869  -0.361830  -1.386426  -0.084222
    12  C   -1.704215   0.931812  -1.328257  -1.658699  -0.178420  -0.321888
    13  C    0.192717  -0.205409  -0.244640  -1.620622  -0.355636   1.146100
    14  C   -1.177005  -0.333510  -0.084220  -0.515589  -1.645382  -1.559919
    15  H    0.366778  -0.105680  -0.003844   0.023960   0.006647   0.001293
    16  H   -0.020029   0.383988  -0.023338   0.018464  -0.001738  -0.000369
    17  H   -0.017984  -0.024384   0.383483  -0.070675   0.000056   0.000417
    18  H    0.045959   0.003942  -0.082887   0.470917   0.005992  -0.005014
    19  H   -0.042320  -0.008580   0.051228  -0.086655  -0.059034   0.051935
    20  H    0.006809   0.002023  -0.005343   0.006084   0.453005  -0.083972
    21  H   -0.001207  -0.000423   0.000375   0.000506  -0.065350   0.364994
    22  H    0.000276   0.000294  -0.000282  -0.001218   0.008639  -0.010070
    23  H    0.007188  -0.002125   0.000928   0.003979   0.030742   0.002581
    24  H    0.039373   0.016349  -0.001181  -0.010806  -0.013649  -0.001891
    25  H    0.039373   0.016349  -0.001181  -0.010806  -0.013649  -0.001891
               7          8          9         10         11         12
     1  C   -0.039641   0.413572  -1.146387  -1.166632   0.350730  -1.704215
     2  C   -0.000619   0.005076  -0.889423   0.122048  -0.746100   0.931812
     3  C   -0.012586  -0.109996   0.292568  -0.224973   0.839869  -1.328257
     4  C    0.027906  -0.112799   0.140156  -2.864632  -0.361830  -1.658699
     5  C   -1.251967   2.380357  -0.486752  -2.301434  -1.386426  -0.178420
     6  C    0.189050  -0.306766   0.293821  -0.470138  -0.084222  -0.321888
     7  C    7.239764  -0.160649  -0.779059   0.389263  -0.336419  -0.026715
     8  C   -0.160649   9.173160  -1.111208  -1.430954   0.326474  -1.049797
     9  C   -0.779059  -1.111208   9.670123   0.240920   1.620914  -2.180262
    10  C    0.389263  -1.430954   0.240920   9.100843  -0.270858   2.364987
    11  C   -0.336419   0.326474   1.620914  -0.270858  14.619526  -4.213681
    12  C   -0.026715  -1.049797  -2.180262   2.364987  -4.213681  16.417825
    13  C   -1.013473   0.290144   1.418228  -0.503435   1.035753  -4.659395
    14  C    1.915774  -2.821133  -1.655190   2.479335  -4.823068   3.103866
    15  H   -0.003000   0.004586   0.085918  -0.006998  -0.029579  -0.007954
    16  H    0.000414   0.001180   0.001100  -0.010803   0.024029  -0.028519
    17  H   -0.000359  -0.001450  -0.004375   0.019818  -0.024393   0.082971
    18  H    0.002155   0.006941  -0.021522   0.004843  -0.009835  -0.045672
    19  H   -0.007408  -0.048823   0.074406   0.423035   0.077376  -0.095322
    20  H    0.001345   0.055608  -0.026376   0.015334  -0.012276  -0.005919
    21  H   -0.003780  -0.035721  -0.006672   0.020134  -0.006216   0.005259
    22  H    0.370959  -0.015269   0.004119  -0.007343   0.002121  -0.006984
    23  H   -0.109600   0.371868   0.097723  -0.011845   0.010053   0.003709
    24  H    0.012288   0.025577   0.356943   0.005587   0.028859  -0.059385
    25  H    0.012288   0.025577   0.356943   0.005587   0.028859  -0.059385
              13         14         15         16         17         18
     1  C    0.192717  -1.177005   0.366778  -0.020029  -0.017984   0.045959
     2  C   -0.205409  -0.333510  -0.105680   0.383988  -0.024384   0.003942
     3  C   -0.244640  -0.084220  -0.003844  -0.023338   0.383483  -0.082887
     4  C   -1.620622  -0.515589   0.023960   0.018464  -0.070675   0.470917
     5  C   -0.355636  -1.645382   0.006647  -0.001738   0.000056   0.005992
     6  C    1.146100  -1.559919   0.001293  -0.000369   0.000417  -0.005014
     7  C   -1.013473   1.915774  -0.003000   0.000414  -0.000359   0.002155
     8  C    0.290144  -2.821133   0.004586   0.001180  -0.001450   0.006941
     9  C    1.418228  -1.655190   0.085918   0.001100  -0.004375  -0.021522
    10  C   -0.503435   2.479335  -0.006998  -0.010803   0.019818   0.004843
    11  C    1.035753  -4.823068  -0.029579   0.024029  -0.024393  -0.009835
    12  C   -4.659395   3.103866  -0.007954  -0.028519   0.082971  -0.045672
    13  C   14.217636  -3.128173  -0.005221   0.003541  -0.006329  -0.012603
    14  C   -3.128173  15.816885   0.007915  -0.010929   0.005217  -0.024338
    15  H   -0.005221   0.007915   0.432355  -0.008772   0.001729   0.000249
    16  H    0.003541  -0.010929  -0.008772   0.414585  -0.007185   0.001993
    17  H   -0.006329   0.005217   0.001729  -0.007185   0.418637  -0.009992
    18  H   -0.012603  -0.024338   0.000249   0.001993  -0.009992   0.446491
    19  H    0.084164  -0.038478   0.000456  -0.000631   0.001854  -0.005650
    20  H   -0.000931  -0.070118  -0.000131   0.000022  -0.000176   0.001259
    21  H   -0.026604   0.098861   0.000019  -0.000007   0.000010  -0.000111
    22  H    0.025319  -0.032622  -0.000123   0.000007  -0.000007   0.000010
    23  H   -0.036034  -0.041685   0.000560  -0.000133   0.000009  -0.000098
    24  H   -0.002711  -0.059921  -0.000940   0.000622  -0.000129   0.000127
    25  H   -0.002711  -0.059921  -0.000940   0.000622  -0.000129   0.000127
              19         20         21         22         23         24
     1  C   -0.042320   0.006809  -0.001207   0.000276   0.007188   0.039373
     2  C   -0.008580   0.002023  -0.000423   0.000294  -0.002125   0.016349
     3  C    0.051228  -0.005343   0.000375  -0.000282   0.000928  -0.001181
     4  C   -0.086655   0.006084   0.000506  -0.001218   0.003979  -0.010806
     5  C   -0.059034   0.453005  -0.065350   0.008639   0.030742  -0.013649
     6  C    0.051935  -0.083972   0.364994  -0.010070   0.002581  -0.001891
     7  C   -0.007408   0.001345  -0.003780   0.370959  -0.109600   0.012288
     8  C   -0.048823   0.055608  -0.035721  -0.015269   0.371868   0.025577
     9  C    0.074406  -0.026376  -0.006672   0.004119   0.097723   0.356943
    10  C    0.423035   0.015334   0.020134  -0.007343  -0.011845   0.005587
    11  C    0.077376  -0.012276  -0.006216   0.002121   0.010053   0.028859
    12  C   -0.095322  -0.005919   0.005259  -0.006984   0.003709  -0.059385
    13  C    0.084164  -0.000931  -0.026604   0.025319  -0.036034  -0.002711
    14  C   -0.038478  -0.070118   0.098861  -0.032622  -0.041685  -0.059921
    15  H    0.000456  -0.000131   0.000019  -0.000123   0.000560  -0.000940
    16  H   -0.000631   0.000022  -0.000007   0.000007  -0.000133   0.000622
    17  H    0.001854  -0.000176   0.000010  -0.000007   0.000009  -0.000129
    18  H   -0.005650   0.001259  -0.000111   0.000010  -0.000098   0.000127
    19  H    0.444721  -0.007144   0.001023  -0.000455   0.000197   0.000599
    20  H   -0.007144   0.461243  -0.010406   0.001867  -0.000003   0.000239
    21  H    0.001023  -0.010406   0.425663  -0.005634   0.001120  -0.000152
    22  H   -0.000455   0.001867  -0.005634   0.423214  -0.008798   0.000633
    23  H    0.000197  -0.000003   0.001120  -0.008798   0.446895  -0.000854
    24  H    0.000599   0.000239  -0.000152   0.000633  -0.000854   0.493158
    25  H    0.000599   0.000239  -0.000152   0.000633  -0.000854  -0.079216
              25
     1  C    0.039373
     2  C    0.016349
     3  C   -0.001181
     4  C   -0.010806
     5  C   -0.013649
     6  C   -0.001891
     7  C    0.012288
     8  C    0.025577
     9  C    0.356943
    10  C    0.005587
    11  C    0.028859
    12  C   -0.059385
    13  C   -0.002711
    14  C   -0.059921
    15  H   -0.000940
    16  H    0.000622
    17  H   -0.000129
    18  H    0.000127
    19  H    0.000599
    20  H    0.000239
    21  H   -0.000152
    22  H    0.000633
    23  H   -0.000854
    24  H   -0.079216
    25  H    0.493158
 Mulliken charges:
               1
     1  C    0.067082
     2  C   -0.399687
     3  C   -0.429946
     4  C    0.034114
     5  C   -0.010904
     6  C   -0.444810
     7  C   -0.415933
     8  C    0.124442
     9  C   -0.346656
    10  C    0.078311
    11  C   -0.659661
    12  C    0.720039
    13  C   -0.589677
    14  C    0.653350
    15  H    0.240718
    16  H    0.261886
    17  H    0.253365
    18  H    0.226716
    19  H    0.188907
    20  H    0.217717
    21  H    0.244472
    22  H    0.250716
    23  H    0.234476
    24  H    0.250481
    25  H    0.250481
 Sum of Mulliken charges =   1.00000
 Mulliken charges with hydrogens summed into heavy atoms:
               1
     1  C    0.307800
     2  C   -0.137800
     3  C   -0.176581
     4  C    0.260830
     5  C    0.206813
     6  C   -0.200339
     7  C   -0.165217
     8  C    0.358919
     9  C    0.154306
    10  C    0.267219
    11  C   -0.659661
    12  C    0.720039
    13  C   -0.589677
    14  C    0.653350
 Electronic spatial extent (au):  <R**2>=           2856.3180
 Charge=              1.0000 electrons
 Dipole moment (field-independent basis, Debye):
    X=              0.8521    Y=             -1.1086    Z=             -0.0000  Tot=              1.3982
 Quadrupole moment (field-independent basis, Debye-Ang):
   XX=            -48.9705   YY=            -38.2534   ZZ=            -84.1243
   XY=            -11.5123   XZ=             -0.0000   YZ=              0.0000
 Traceless Quadrupole moment (field-independent basis, Debye-Ang):
   XX=              8.1456   YY=             18.8627   ZZ=            -27.0083
   XY=            -11.5123   XZ=             -0.0000   YZ=              0.0000
 Octapole moment (field-independent basis, Debye-Ang**2):
  XXX=              5.5846  YYY=            -16.7824  ZZZ=             -0.0000  XYY=              3.5172
  XXY=              1.4216  XXZ=              0.0000  XZZ=             -1.6076  YZZ=             -3.3243
  YYZ=              0.0000  XYZ=             -0.0000
 Hexadecapole moment (field-independent basis, Debye-Ang**3):
 XXXX=          -1086.1187 YYYY=          -1770.2074 ZZZZ=            -99.3023 XXXY=            368.3780
 XXXZ=             -0.0000 YYYX=            305.3350 YYYZ=              0.0000 ZZZX=             -0.0000
 ZZZY=              0.0000 XXYY=           -444.4498 XXZZ=           -267.7296 YYZZ=           -468.6324
 XXYZ=             -0.0000 YYXZ=              0.0000 ZZXY=            198.5060
 N-N= 7.812765393032D+02 E-N=-2.798921911559D+03  KE= 5.375502404773D+02
 Symmetry A'   KE= 5.228918359849D+02
 Symmetry A"   KE= 1.465840449239D+01
 Unable to Open any file for archive entry.
 1\1\GINC-GADI-CPU-CLX-0648\SP\RM062X TD-FC\6-311++G(d,p)\C14H11(1+)\TS
 1578\27-Jul-2022\0\\#n M062X/6-311++G(d,p) TD(NStates=1) EmpiricalDisp
 ersion=GD3 SP\\SP_-125\\1,1\C,0,2.45845,1.3706,0.\C,0,3.660375,0.66307
 5,0.\C,0,3.6724,-0.7361,0.\C,0,2.5022,-1.42165,0.\C,0,-2.4242,-1.37615
 ,0.\C,0,-3.6954,-0.6741,0.\C,0,-3.742625,0.698325,0.\C,0,-2.52695,1.36
 76,0.\C,0,-0.021875,1.4621,0.\C,0,0.061,-1.4205,0.\C,0,1.271225,0.7048
 25,0.\C,0,1.2625,-0.7251,0.\C,0,-1.252975,0.666575,0.\C,0,-1.2125,-0.7
 191,0.\H,0,2.4776,2.453425,0.\H,0,4.595175,1.206025,0.\H,0,4.61655,-1.
 262575,0.\H,0,2.48575,-2.503525,0.\H,0,0.05625,-2.5016,0.\H,0,-2.44925
 ,-2.459275,0.\H,0,-4.60205,-1.264825,0.\H,0,-4.678425,1.234775,0.\H,0,
 -2.4986,2.451175,0.\H,0,-0.08,2.1545,-0.8596\H,0,-0.08,2.1545,0.8596\\
 Version=ES64L-G16RevC.01\State=1-A'\HF=-539.7493313\RMSD=3.494e-09\PG=
 CS [SG(C14H9),X(H2)]\\@
 The archive entry for this job was punched.


 LIFE IS A CONTINUAL STRUGGLE AGAINST THE TENDENCY TO PRODUCE ENTROPY.
 Job cpu time:       0 days  0 hours 45 minutes 54.8 seconds.
 Elapsed time:       0 days  0 hours  1 minutes 26.4 seconds.
 File lengths (MBytes):  RWF=    460 Int=      0 D2E=      0 Chk=     15 Scr=      1
 Normal termination of Gaussian 16 at Wed Jul 27 10:04:09 2022.
