 Entering Gaussian System, Link 0=g16
 Initial command:
 /apps/gaussian/g16c01/g16/l1.exe "/jobfs/52804872.gadi-pbs/Gau-1597749.inp" -scrdir="/jobfs/52804872.gadi-pbs/"
 Entering Link 1 = /apps/gaussian/g16c01/g16/l1.exe PID=   1597750.
  
 Copyright (c) 1988-2019, Gaussian, Inc.  All Rights Reserved.
  
 This is part of the Gaussian(R) 16 program.  It is based on
 the Gaussian(R) 09 system (copyright 2009, Gaussian, Inc.),
 the Gaussian(R) 03 system (copyright 2003, Gaussian, Inc.),
 the Gaussian(R) 98 system (copyright 1998, Gaussian, Inc.),
 the Gaussian(R) 94 system (copyright 1995, Gaussian, Inc.),
 the Gaussian 92(TM) system (copyright 1992, Gaussian, Inc.),
 the Gaussian 90(TM) system (copyright 1990, Gaussian, Inc.),
 the Gaussian 88(TM) system (copyright 1988, Gaussian, Inc.),
 the Gaussian 86(TM) system (copyright 1986, Carnegie Mellon
 University), and the Gaussian 82(TM) system (copyright 1983,
 Carnegie Mellon University). Gaussian is a federally registered
 trademark of Gaussian, Inc.
  
 This software contains proprietary and confidential information,
 including trade secrets, belonging to Gaussian, Inc.
  
 This software is provided under written license and may be
 used, copied, transmitted, or stored only in accord with that
 written license.
  
 The following legend is applicable only to US Government
 contracts under FAR:
  
                    RESTRICTED RIGHTS LEGEND
  
 Use, reproduction and disclosure by the US Government is
 subject to restrictions as set forth in subparagraphs (a)
 and (c) of the Commercial Computer Software - Restricted
 Rights clause in FAR 52.227-19.
  
 Gaussian, Inc.
 340 Quinnipiac St., Bldg. 40, Wallingford CT 06492
  
  
 ---------------------------------------------------------------
 Warning -- This program may not be used in any manner that
 competes with the business of Gaussian, Inc. or will provide
 assistance to any competitor of Gaussian, Inc.  The licensee
 of this program is prohibited from giving any competitor of
 Gaussian, Inc. access to this program.  By using this program,
 the user acknowledges that Gaussian, Inc. is engaged in the
 business of creating and licensing software in the field of
 computational chemistry and represents and warrants to the
 licensee that it is not a competitor of Gaussian, Inc. and that
 it will not use this program in any manner prohibited above.
 ---------------------------------------------------------------
  

 Cite this work as:
 Gaussian 16, Revision C.01,
 M. J. Frisch, G. W. Trucks, H. B. Schlegel, G. E. Scuseria, 
 M. A. Robb, J. R. Cheeseman, G. Scalmani, V. Barone, 
 G. A. Petersson, H. Nakatsuji, X. Li, M. Caricato, A. V. Marenich, 
 J. Bloino, B. G. Janesko, R. Gomperts, B. Mennucci, H. P. Hratchian, 
 J. V. Ortiz, A. F. Izmaylov, J. L. Sonnenberg, D. Williams-Young, 
 F. Ding, F. Lipparini, F. Egidi, J. Goings, B. Peng, A. Petrone, 
 T. Henderson, D. Ranasinghe, V. G. Zakrzewski, J. Gao, N. Rega, 
 G. Zheng, W. Liang, M. Hada, M. Ehara, K. Toyota, R. Fukuda, 
 J. Hasegawa, M. Ishida, T. Nakajima, Y. Honda, O. Kitao, H. Nakai, 
 T. Vreven, K. Throssell, J. A. Montgomery, Jr., J. E. Peralta, 
 F. Ogliaro, M. J. Bearpark, J. J. Heyd, E. N. Brothers, K. N. Kudin, 
 V. N. Staroverov, T. A. Keith, R. Kobayashi, J. Normand, 
 K. Raghavachari, A. P. Rendell, J. C. Burant, S. S. Iyengar, 
 J. Tomasi, M. Cossi, J. M. Millam, M. Klene, C. Adamo, R. Cammi, 
 J. W. Ochterski, R. L. Martin, K. Morokuma, O. Farkas, 
 J. B. Foresman, and D. J. Fox, Gaussian, Inc., Wallingford CT, 2019.
 
 ******************************************
 Gaussian 16:  ES64L-G16RevC.01  3-Jul-2019
                27-Jul-2022 
 ******************************************
 %NProcShared=32
 Will use up to   32 processors via shared memory.
 %mem = 128GB
 ---------------------------------------------------------------
 #n M062X/6-311++G(d,p) TD(NStates=1) EmpiricalDispersion=GD3 SP
 ---------------------------------------------------------------
 1/38=1,172=1/1;
 2/12=2,17=6,18=5,40=1/2;
 3/5=4,6=6,7=1111,11=9,25=1,30=1,74=-55,124=31/1,2,3,8;
 4//1;
 5/5=2,38=5/2;
 8/6=1,10=2,108=1/1;
 9/41=1,42=1,70=2/14;
 6/7=2,8=2,9=2,10=2/1;
 99/5=1,9=1/99;
 -----
 SP_25
 -----
 Symbolic Z-matrix:
 Charge =  1 Multiplicity = 1
 C                     2.48775   1.3688    0. 
 C                     3.69423   0.67683   0. 
 C                     3.6822   -0.7123    0. 
 C                     2.4711   -1.40365   0. 
 C                    -2.4555   -1.39455   0. 
 C                    -3.6868   -0.6999    0. 
 C                    -3.71068   0.68388   0. 
 C                    -2.50145   1.3682    0. 
 C                    -0.00443   1.4665    0. 
 C                     0.0122   -1.4207    0. 
 C                     1.26408   0.68958   0. 
 C                     1.2421   -0.7224    0. 
 C                    -1.26043   0.68193   0. 
 C                    -1.2321   -0.7212    0. 
 H                     2.4882    2.45188   0. 
 H                     4.62962   1.21678   0. 
 H                     4.61105  -1.26473   0. 
 H                     2.47085  -2.48598   0. 
 H                     0.01125  -2.5017    0. 
 H                    -2.46355  -2.47713   0. 
 H                    -4.60815  -1.26518   0. 
 H                    -4.64628   1.22253   0. 
 H                    -2.4924    2.45143   0. 
 H                    -0.016     2.1555   -0.8607 
 H                    -0.016     2.1555    0.8607 
 
                          Input orientation:                          
 ---------------------------------------------------------------------
 Center     Atomic      Atomic             Coordinates (Angstroms)
 Number     Number       Type             X           Y           Z
 ---------------------------------------------------------------------
      1          6           0        2.487750    1.368800    0.000000
      2          6           0        3.694225    0.676825    0.000000
      3          6           0        3.682200   -0.712300    0.000000
      4          6           0        2.471100   -1.403650    0.000000
      5          6           0       -2.455500   -1.394550    0.000000
      6          6           0       -3.686800   -0.699900    0.000000
      7          6           0       -3.710675    0.683875    0.000000
      8          6           0       -2.501450    1.368200    0.000000
      9          6           0       -0.004425    1.466500    0.000000
     10          6           0        0.012200   -1.420700    0.000000
     11          6           0        1.264075    0.689575    0.000000
     12          6           0        1.242100   -0.722400    0.000000
     13          6           0       -1.260425    0.681925    0.000000
     14          6           0       -1.232100   -0.721200    0.000000
     15          1           0        2.488200    2.451875    0.000000
     16          1           0        4.629625    1.216775    0.000000
     17          1           0        4.611050   -1.264725    0.000000
     18          1           0        2.470850   -2.485975    0.000000
     19          1           0        0.011250   -2.501700    0.000000
     20          1           0       -2.463550   -2.477125    0.000000
     21          1           0       -4.608150   -1.265175    0.000000
     22          1           0       -4.646275    1.222525    0.000000
     23          1           0       -2.492400    2.451425    0.000000
     24          1           0       -0.016000    2.155500   -0.860700
     25          1           0       -0.016000    2.155500    0.860700
 ---------------------------------------------------------------------
                    Distance matrix (angstroms):
                    1          2          3          4          5
     1  C    0.000000
     2  C    1.390831   0.000000
     3  C    2.399518   1.389177   0.000000
     4  C    2.772500   2.413382   1.394535   0.000000
     5  C    5.663199   6.489200   6.175502   4.926608   0.000000
     6  C    6.511880   7.508322   7.369010   6.197983   1.413732
     7  C    6.236152   7.404903   7.523557   6.524730   2.428027
     8  C    4.989200   6.234131   6.524263   5.692926   2.763132
     9  C    2.494089   3.782010   4.282333   3.790249   3.767410
    10  C    3.729565   4.237561   3.737744   2.458959   2.467839
    11  C    1.399545   2.430183   2.795100   2.416299   4.263662
    12  C    2.434083   2.823251   2.440121   1.405184   3.758195
    13  C    3.810592   4.954653   5.135504   4.274798   2.395820
    14  C    4.266777   5.120855   4.914308   3.765558   1.396463
    15  H    1.083075   2.145996   3.381958   3.855563   6.263797
    16  H    2.147263   1.080055   2.149173   3.394975   7.551027
    17  H    3.382877   2.147134   1.080711   2.144455   7.067742
    18  H    3.854812   3.391158   2.147857   1.082325   5.045803
    19  H    4.594978   4.864908   4.083849   2.693803   2.703819
    20  H    6.269490   6.918496   6.394126   5.050061   1.082605
    21  H    7.568991   8.526476   8.308765   7.080604   2.156534
    22  H    7.135524   8.358333   8.550266   7.586424   3.413001
    23  H    5.096467   6.436112   6.937928   6.284738   3.846152
    24  H    2.761968   4.085713   4.758336   4.426513   4.392587
    25  H    2.761968   4.085713   4.758336   4.426513   4.392587
                    6          7          8          9         10
     6  C    0.000000
     7  C    1.383981   0.000000
     8  C    2.383714   1.389434   0.000000
     9  C    4.272373   3.787980   2.498959   0.000000
    10  C    3.768574   4.276568   3.754517   2.887248   0.000000
    11  C    5.142159   4.974753   3.826187   1.487516   2.453661
    12  C    4.928951   5.148552   4.287747   2.518950   1.414311
    13  C    2.792264   2.450251   1.418138   1.480910   2.457764
    14  C    2.454792   2.849135   2.444758   2.508629   1.427439
    15  H    6.932843   6.446074   5.105973   2.680325   4.596457
    16  H    8.534434   8.357307   7.132683   4.640774   5.317602
    17  H    8.317051   8.546821   7.584191   5.363040   4.601494
    18  H    6.411452   6.946884   6.291139   4.663587   2.679509
    19  H    4.113643   4.899042   4.614086   3.968231   1.081000
    20  H    2.157515   3.398123   3.845512   4.647523   2.691723
    21  H    1.080936   2.145753   3.372365   5.353161   4.622967
    22  H    2.148560   1.079579   2.149766   4.648257   5.356121
    23  H    3.370080   2.146725   1.083263   2.675836   4.611548
    24  H    4.729576   4.069043   2.745561   1.102569   3.678424
    25  H    4.729576   4.069043   2.745561   1.102569   3.678424
                   11         12         13         14         15
    11  C    0.000000
    12  C    1.412146   0.000000
    13  C    2.524512   2.869627   0.000000
    14  C    2.867259   2.474200   1.403411   0.000000
    15  H    2.145736   3.410101   4.145469   4.889687   0.000000
    16  H    3.406592   3.903297   5.914284   6.173781   2.472079
    17  H    3.875762   3.412322   6.185763   5.868375   4.280141
    18  H    3.397120   2.149424   4.894691   4.101984   4.937880
    19  H    3.428383   2.163539   3.428210   2.171658   5.538338
    20  H    4.891132   4.100110   3.380400   2.144701   6.986764
    21  H    6.189029   5.875375   3.872785   3.419594   8.010908
    22  H    5.934330   6.201265   3.428736   3.928697   7.239616
    23  H    4.149123   4.900985   2.156129   3.413782   4.980600
    24  H    2.127988   3.256674   2.112066   3.239615   2.664519
    25  H    2.127988   3.256674   2.112066   3.239615   2.664519
                   16         17         18         19         20
    16  H    0.000000
    17  H    2.481570   0.000000
    18  H    4.286102   2.464124   0.000000
    19  H    5.929287   4.763220   2.459650   0.000000
    20  H    7.997376   7.177735   4.934408   2.474922   0.000000
    21  H    9.565384   9.219200   7.183495   4.782034   2.463358
    22  H    9.275902   9.585639   8.025362   5.963421   4.295544
    23  H    7.228250   8.016781   7.000841   5.549929   4.928634
    24  H    4.817037   5.817932   5.335590   4.736144   5.309663
    25  H    4.817037   5.817932   5.335590   4.736144   5.309663
                   21         22         23         24         25
    21  H    0.000000
    22  H    2.487992   0.000000
    23  H    4.276624   2.479793   0.000000
    24  H    5.790480   4.801114   2.638358   0.000000
    25  H    5.790480   4.801114   2.638358   1.721400   0.000000
 Stoichiometry    C14H11(1+)
 Framework group  CS[SG(C14H9),X(H2)]
 Deg. of freedom    46
 Full point group                 CS      NOp   2
 Largest Abelian subgroup         CS      NOp   2
 Largest concise Abelian subgroup CS      NOp   2
                         Standard orientation:                         
 ---------------------------------------------------------------------
 Center     Atomic      Atomic             Coordinates (Angstroms)
 Number     Number       Type             X           Y           Z
 ---------------------------------------------------------------------
      1          6           0       -2.371967   -1.553551    0.000000
      2          6           0       -2.330111   -2.943752    0.000000
      3          6           0       -1.099197   -3.587695    0.000000
      4          6           0        0.081259   -2.845231    0.000000
      5          6           0        2.394625    1.504460    0.000000
      6          6           0        2.362107    2.917818    0.000000
      7          6           0        1.152827    3.590905    0.000000
      8          6           0       -0.020549    2.846784    0.000000
      9          6           0       -1.283839    0.690655    0.000000
     10          6           0        1.254920   -0.684445    0.000000
     11          6           0       -1.196281   -0.794282    0.000000
     12          6           0        0.059476   -1.440216    0.000000
     13          6           0       -0.000000    1.428795    0.000000
     14          6           0        1.224250    0.742665    0.000000
     15          1           0       -3.327482   -1.043608    0.000000
     16          1           0       -3.247119   -3.514380    0.000000
     17          1           0       -1.049612   -4.667268    0.000000
     18          1           0        1.036019   -3.354997    0.000000
     19          1           0        2.208841   -1.192969    0.000000
     20          1           0        3.353280    1.001455    0.000000
     21          1           0        3.294831    3.464120    0.000000
     22          1           0        1.118573    4.669940    0.000000
     23          1           0       -0.980249    3.349213    0.000000
     24          1           0       -1.886103    1.025518    0.860700
     25          1           0       -1.886103    1.025518   -0.860700
 ---------------------------------------------------------------------
 Rotational constants (GHZ):           2.1347991           0.4443983           0.3686293
 Standard basis: 6-311++G(d,p) (5D, 7F)
 There are   299 symmetry adapted cartesian basis functions of A'  symmetry.
 There are   100 symmetry adapted cartesian basis functions of A"  symmetry.
 There are   285 symmetry adapted basis functions of A'  symmetry.
 There are   100 symmetry adapted basis functions of A"  symmetry.
   385 basis functions,   603 primitive gaussians,   399 cartesian basis functions
    47 alpha electrons       47 beta electrons
       nuclear repulsion energy       780.9969945064 Hartrees.
 NAtoms=   25 NActive=   25 NUniq=   24 SFac= 1.09D+00 NAtFMM=   60 NAOKFM=F Big=F
 Integral buffers will be    131072 words long.
 Regular integral format.
 Two-electron integral symmetry is turned on.
 Nuclear repulsion after empirical dispersion term =      780.9960149755 Hartrees.
 One-electron integrals computed using PRISM.
 NBasis=   385 RedAO= T EigKep=  1.13D-06  NBF=   285   100
 NBsUse=   379 1.00D-06 EigRej=  8.41D-07 NBFU=   279   100
 ExpMin= 3.60D-02 ExpMax= 4.56D+03 ExpMxC= 6.82D+02 IAcc=3 IRadAn=         5 AccDes= 0.00D+00
 Harris functional with IExCor= 1009 and IRadAn=       5 diagonalized for initial guess.
 HarFok:  IExCor= 1009 AccDes= 0.00D+00 IRadAn=         5 IDoV= 1 UseB2=F ITyADJ=14
 ICtDFT=  3500011 ScaDFX=  1.000000  1.000000  1.000000  1.000000
 FoFCou: FMM=F IPFlag=           0 FMFlag=      100000 FMFlg1=           0
         NFxFlg=           0 DoJE=T BraDBF=F KetDBF=T FulRan=T
         wScrn=  0.000000 ICntrl=       500 IOpCl=  0 I1Cent=   200000004 NGrid=           0
         NMat0=    1 NMatS0=      1 NMatT0=    0 NMatD0=    1 NMtDS0=    0 NMtDT0=    0
 Petite list used in FoFCou.
 Initial guess orbital symmetries:
       Occupied  (A') (A') (A') (A') (A') (A') (A') (A') (A') (A')
                 (A') (A') (A') (A') (A') (A') (A') (A') (A') (A')
                 (A') (A') (A') (A') (A') (A') (A') (A') (A') (A')
                 (A') (A') (A") (A') (A') (A') (A') (A') (A') (A")
                 (A") (A') (A') (A") (A") (A") (A")
       Virtual   (A") (A") (A") (A") (A") (A') (A') (A') (A') (A")
                 (A") (A') (A') (A') (A") (A') (A') (A') (A') (A")
                 (A') (A") (A') (A') (A') (A") (A') (A") (A') (A')
                 (A') (A') (A') (A") (A') (A') (A") (A') (A') (A")
                 (A') (A') (A') (A") (A') (A') (A') (A') (A') (A")
                 (A') (A') (A") (A") (A') (A') (A') (A") (A") (A')
                 (A') (A') (A') (A') (A') (A') (A") (A') (A') (A")
                 (A') (A') (A') (A') (A') (A') (A') (A') (A') (A')
                 (A') (A') (A') (A') (A') (A') (A') (A') (A') (A')
                 (A') (A') (A') (A') (A') (A') (A') (A") (A') (A")
                 (A') (A') (A") (A") (A') (A") (A') (A") (A') (A")
                 (A") (A') (A') (A') (A") (A') (A') (A") (A") (A')
                 (A") (A") (A') (A') (A') (A") (A') (A') (A') (A")
                 (A') (A') (A') (A') (A') (A') (A") (A') (A') (A')
                 (A') (A') (A') (A') (A') (A') (A') (A') (A') (A")
                 (A") (A') (A") (A") (A') (A') (A') (A") (A") (A')
                 (A") (A') (A") (A") (A") (A') (A') (A') (A') (A')
                 (A') (A") (A") (A') (A') (A') (A') (A') (A') (A")
                 (A') (A') (A') (A') (A') (A") (A") (A') (A") (A")
                 (A') (A") (A') (A") (A') (A') (A') (A") (A') (A')
                 (A") (A") (A") (A') (A') (A") (A') (A") (A') (A')
                 (A") (A") (A') (A") (A') (A") (A') (A') (A') (A")
                 (A') (A') (A') (A') (A") (A') (A') (A') (A") (A")
                 (A') (A') (A') (A") (A') (A') (A") (A') (A") (A')
                 (A") (A') (A') (A') (A') (A") (A') (A') (A') (A")
                 (A') (A') (A") (A') (A") (A') (A') (A") (A') (A')
                 (A') (A") (A') (A") (A') (A') (A') (A") (A') (A")
                 (A') (A') (A') (A') (A") (A') (A") (A') (A") (A')
                 (A") (A') (A") (A") (A") (A') (A') (A') (A') (A')
                 (A') (A') (A') (A') (A') (A') (A') (A') (A') (A')
                 (A') (A') (A') (A') (A') (A") (A') (A') (A') (A')
                 (A') (A') (A') (A') (A') (A') (A') (A') (A') (A')
                 (A') (A') (A') (A') (A') (A') (A') (A') (A') (A')
                 (A') (A')
 The electronic state of the initial guess is 1-A'.
 Requested convergence on RMS density matrix=1.00D-08 within 128 cycles.
 Requested convergence on MAX density matrix=1.00D-06.
 Requested convergence on             energy=1.00D-06.
 No special actions if energy rises.
 SCF Done:  E(RM062X) =  -539.759810662     A.U. after   15 cycles
            NFock= 15  Conv=0.57D-08     -V/T= 2.0042
 DoSCS=F DFT=T ScalE2(SS,OS)=  1.000000  1.000000
 ExpMin= 3.60D-02 ExpMax= 4.56D+03 ExpMxC= 6.82D+02 IAcc=3 IRadAn=         5 AccDes= 0.00D+00
 HarFok:  IExCor=  205 AccDes= 0.00D+00 IRadAn=         5 IDoV=-2 UseB2=F ITyADJ=14
 ICtDFT= 12500011 ScaDFX=  1.000000  1.000000  1.000000  1.000000
 Range of M.O.s used for correlation:    15   379
 NBasis=   385 NAE=    47 NBE=    47 NFC=    14 NFV=     0
 NROrb=    365 NOA=    33 NOB=    33 NVA=   332 NVB=   332

 **** Warning!!: The largest alpha MO coefficient is  0.14323029D+03

 Orbital symmetries:
       Occupied  (A') (A') (A') (A') (A') (A') (A') (A') (A') (A')
                 (A') (A') (A') (A') (A') (A') (A') (A') (A') (A')
                 (A') (A') (A') (A') (A') (A') (A') (A') (A') (A')
                 (A') (A') (A") (A') (A') (A') (A') (A") (A") (A')
                 (A') (A') (A') (A") (A") (A") (A")
       Virtual   (A") (A") (A") (A") (A') (A') (A') (A') (A") (A')
                 (A') (A") (A') (A') (A") (A') (A") (A') (A') (A')
                 (A") (A") (A') (A') (A') (A") (A') (A") (A') (A')
                 (A") (A') (A") (A') (A') (A') (A') (A') (A") (A')
                 (A") (A') (A') (A") (A") (A') (A") (A') (A") (A')
                 (A') (A') (A') (A') (A') (A") (A') (A') (A') (A')
                 (A') (A") (A') (A') (A') (A') (A") (A') (A') (A')
                 (A') (A') (A') (A') (A') (A') (A') (A') (A') (A')
                 (A') (A') (A') (A') (A') (A') (A') (A') (A') (A')
                 (A') (A') (A') (A') (A") (A') (A") (A") (A') (A")
                 (A') (A') (A') (A') (A") (A") (A') (A") (A") (A')
                 (A') (A') (A") (A') (A') (A") (A') (A") (A') (A")
                 (A") (A') (A") (A') (A') (A') (A") (A') (A') (A')
                 (A') (A') (A') (A') (A') (A') (A') (A') (A') (A')
                 (A') (A') (A') (A") (A') (A') (A') (A') (A') (A')
                 (A') (A') (A") (A') (A") (A') (A") (A") (A') (A")
                 (A") (A') (A') (A") (A") (A") (A') (A") (A') (A')
                 (A') (A') (A') (A") (A") (A') (A') (A') (A') (A")
                 (A') (A') (A') (A") (A') (A") (A') (A') (A") (A")
                 (A") (A') (A') (A") (A") (A') (A') (A') (A') (A')
                 (A") (A") (A") (A') (A') (A") (A') (A") (A') (A')
                 (A') (A") (A') (A") (A") (A') (A") (A') (A') (A")
                 (A') (A') (A') (A') (A") (A') (A') (A') (A") (A")
                 (A') (A') (A') (A") (A') (A') (A') (A") (A") (A')
                 (A") (A') (A') (A") (A') (A') (A') (A') (A') (A')
                 (A") (A') (A') (A') (A') (A") (A") (A") (A') (A')
                 (A') (A') (A') (A') (A') (A') (A") (A') (A') (A')
                 (A') (A") (A') (A") (A") (A") (A') (A") (A') (A")
                 (A') (A") (A") (A') (A") (A") (A') (A') (A') (A')
                 (A') (A') (A') (A') (A') (A') (A') (A') (A') (A')
                 (A') (A') (A') (A") (A') (A') (A') (A') (A') (A')
                 (A') (A') (A') (A') (A') (A') (A') (A') (A') (A')
                 (A') (A') (A') (A') (A') (A') (A') (A') (A') (A')
                 (A') (A')
     4 initial guesses have been made.
 Convergence on wavefunction:    0.001000000000000
 Iteration     1 Dimension     4 NMult     0 NNew      4
 CISAX will form     4 AO SS matrices at one time.
 Iteration     2 Dimension     6 NMult     4 NNew      2
 Iteration     3 Dimension     8 NMult     6 NNew      2
 Iteration     4 Dimension    10 NMult     8 NNew      2
 Iteration     5 Dimension    12 NMult    10 NNew      2
 Iteration     6 Dimension    14 NMult    12 NNew      2
 ***********************************************************************
 Excited states from <AA,BB:AA,BB> singles matrix:
 ***********************************************************************
 
 Ground to excited state transition densities written to RWF  633
 Ground to excited state transition electric dipole moments (Au):
       state          X           Y           Z        Dip. S.      Osc.
         1        -0.5492      0.3069     -0.0000      0.3958      0.0272
 Ground to excited state transition velocity dipole moments (Au):
       state          X           Y           Z        Dip. S.      Osc.
         1         0.0641     -0.0339      0.0000      0.0053      0.0340
 Ground to excited state transition magnetic dipole moments (Au):
       state          X           Y           Z
         1         0.0000      0.0000     -0.0884
 Ground to excited state transition velocity quadrupole moments (Au):
       state          XX          YY          ZZ          XY          XZ          YZ
         1         0.1217      0.2037     -0.0097      0.1273     -0.0000      0.0000
 <0|del|b> * <b|rxdel|0> + <0|del|b> * <b|delr+rdel|0>
 Rotatory Strengths (R) in cgs (10**-40 erg-esu-cm/Gauss)
       state          XX          YY          ZZ    R(velocity)    E-M Angle
         1        -0.0000      0.0000      0.0000     -0.0000       90.00
 1/2[<0|r|b>*<b|rxdel|0> + (<0|rxdel|b>*<b|r|0>)*]
 Rotatory Strengths (R) in cgs (10**-40 erg-esu-cm/Gauss)
       state          XX          YY          ZZ     R(length)
         1         0.0000     -0.0000     -0.0000     -0.0000
  1/2[<0|del|b>*<b|r|0> + (<0|r|b>*<b|del|0>)*] (Au)
       state          X           Y           Z        Dip. S.   Osc.(frdel)
         1        -0.0352     -0.0104     -0.0000      0.0456      0.0304

 Excitation energies and oscillator strengths:
 
 Excited State   1:      Singlet-A'     2.8087 eV  441.43 nm  f=0.0272  <S**2>=0.000
      47 -> 48         0.70410
 This state for optimization and/or second-order correction.
 Total Energy, E(TD-HF/TD-DFT) =  -539.656592991    
 Copying the excited state density for this state as the 1-particle RhoCI density.
 SavETr:  write IOETrn=   770 NScale= 10 NData=  16 NLR=1 NState=    1 LETran=      28.

 **********************************************************************

            Population analysis using the SCF Density.

 **********************************************************************

 Orbital symmetries:
       Occupied  (A') (A') (A') (A') (A') (A') (A') (A') (A') (A')
                 (A') (A') (A') (A') (A') (A') (A') (A') (A') (A')
                 (A') (A') (A') (A') (A') (A') (A') (A') (A') (A')
                 (A') (A') (A") (A') (A') (A') (A') (A") (A") (A')
                 (A') (A') (A') (A") (A") (A") (A")
       Virtual   (A") (A") (A") (A") (A') (A') (A') (A') (A") (A')
                 (A') (A") (A') (A') (A") (A') (A") (A') (A') (A')
                 (A") (A") (A') (A') (A') (A") (A') (A") (A') (A')
                 (A") (A') (A") (A') (A') (A') (A') (A') (A") (A')
                 (A") (A') (A') (A") (A") (A') (A") (A') (A") (A')
                 (A') (A') (A') (A') (A') (A") (A') (A') (A') (A')
                 (A') (A") (A') (A') (A') (A') (A") (A') (A') (A')
                 (A') (A') (A') (A') (A') (A') (A') (A') (A') (A')
                 (A') (A') (A') (A') (A') (A') (A') (A') (A') (A')
                 (A') (A') (A') (A') (A") (A') (A") (A") (A') (A")
                 (A') (A') (A') (A') (A") (A") (A') (A") (A") (A')
                 (A') (A') (A") (A') (A') (A") (A') (A") (A') (A")
                 (A") (A') (A") (A') (A') (A') (A") (A') (A') (A')
                 (A') (A') (A') (A') (A') (A') (A') (A') (A') (A')
                 (A') (A') (A') (A") (A') (A') (A') (A') (A') (A')
                 (A') (A') (A") (A') (A") (A') (A") (A") (A') (A")
                 (A") (A') (A') (A") (A") (A") (A') (A") (A') (A')
                 (A') (A') (A') (A") (A") (A') (A') (A') (A') (A")
                 (A') (A') (A') (A") (A') (A") (A') (A') (A") (A")
                 (A") (A') (A') (A") (A") (A') (A') (A') (A') (A')
                 (A") (A") (A") (A') (A') (A") (A') (A") (A') (A')
                 (A') (A") (A') (A") (A") (A') (A") (A') (A') (A")
                 (A') (A') (A') (A') (A") (A') (A') (A') (A") (A")
                 (A') (A') (A') (A") (A') (A') (A') (A") (A") (A')
                 (A") (A') (A') (A") (A') (A') (A') (A') (A') (A')
                 (A") (A') (A') (A') (A') (A") (A") (A") (A') (A')
                 (A') (A') (A') (A') (A') (A') (A") (A') (A') (A')
                 (A') (A") (A') (A") (A") (A") (A') (A") (A') (A")
                 (A') (A") (A") (A') (A") (A") (A') (A') (A') (A')
                 (A') (A') (A') (A') (A') (A') (A') (A') (A') (A')
                 (A') (A') (A') (A") (A') (A') (A') (A') (A') (A')
                 (A') (A') (A') (A') (A') (A') (A') (A') (A') (A')
                 (A') (A') (A') (A') (A') (A') (A') (A') (A') (A')
                 (A') (A')
 The electronic state is 1-A'.
 Alpha  occ. eigenvalues --  -10.77671 -10.73411 -10.73121 -10.72559 -10.72325
 Alpha  occ. eigenvalues --  -10.71507 -10.71260 -10.71233 -10.70994 -10.70745
 Alpha  occ. eigenvalues --  -10.70038 -10.69907 -10.69719 -10.69555  -1.16424
 Alpha  occ. eigenvalues --   -1.12450  -1.06945  -1.05695  -1.01311  -1.00171
 Alpha  occ. eigenvalues --   -0.95769  -0.91044  -0.86417  -0.85891  -0.83807
 Alpha  occ. eigenvalues --   -0.78390  -0.76012  -0.74412  -0.69590  -0.69244
 Alpha  occ. eigenvalues --   -0.68480  -0.68173  -0.68108  -0.64781  -0.64265
 Alpha  occ. eigenvalues --   -0.62997  -0.61845  -0.60087  -0.59614  -0.59102
 Alpha  occ. eigenvalues --   -0.56888  -0.55229  -0.54794  -0.52442  -0.46665
 Alpha  occ. eigenvalues --   -0.46068  -0.44452
 Alpha virt. eigenvalues --   -0.26099  -0.14667  -0.14096  -0.12775  -0.11178
 Alpha virt. eigenvalues --   -0.10083  -0.09232  -0.07981  -0.07972  -0.07476
 Alpha virt. eigenvalues --   -0.07200  -0.07142  -0.05645  -0.05579  -0.05332
 Alpha virt. eigenvalues --   -0.03829  -0.03647  -0.03278  -0.03135  -0.02166
 Alpha virt. eigenvalues --   -0.01364  -0.00931   0.00196   0.00592   0.00646
 Alpha virt. eigenvalues --    0.01057   0.01514   0.01944   0.02210   0.02296
 Alpha virt. eigenvalues --    0.02450   0.02668   0.02747   0.03333   0.03391
 Alpha virt. eigenvalues --    0.04241   0.04500   0.04700   0.05033   0.05367
 Alpha virt. eigenvalues --    0.06035   0.06291   0.06594   0.07036   0.07259
 Alpha virt. eigenvalues --    0.07891   0.08153   0.08356   0.08536   0.08927
 Alpha virt. eigenvalues --    0.09535   0.09564   0.10026   0.10853   0.11000
 Alpha virt. eigenvalues --    0.11121   0.12157   0.12241   0.12883   0.12973
 Alpha virt. eigenvalues --    0.13411   0.13526   0.14007   0.14384   0.16142
 Alpha virt. eigenvalues --    0.16322   0.16391   0.17343   0.17608   0.17797
 Alpha virt. eigenvalues --    0.18115   0.19083   0.19255   0.19620   0.19738
 Alpha virt. eigenvalues --    0.21525   0.21589   0.22714   0.23102   0.23548
 Alpha virt. eigenvalues --    0.23853   0.24592   0.25397   0.26920   0.27597
 Alpha virt. eigenvalues --    0.28833   0.29282   0.29844   0.31346   0.35784
 Alpha virt. eigenvalues --    0.36410   0.38188   0.39272   0.41143   0.41398
 Alpha virt. eigenvalues --    0.41942   0.42214   0.42984   0.43658   0.44298
 Alpha virt. eigenvalues --    0.44932   0.45037   0.46060   0.46192   0.47971
 Alpha virt. eigenvalues --    0.48516   0.48840   0.49036   0.50424   0.51085
 Alpha virt. eigenvalues --    0.51473   0.51723   0.52118   0.52870   0.53980
 Alpha virt. eigenvalues --    0.54094   0.54616   0.55681   0.55768   0.57551
 Alpha virt. eigenvalues --    0.58237   0.58820   0.61436   0.62221   0.62342
 Alpha virt. eigenvalues --    0.63198   0.63487   0.64918   0.65146   0.67206
 Alpha virt. eigenvalues --    0.70429   0.70615   0.71020   0.72404   0.72861
 Alpha virt. eigenvalues --    0.75765   0.76017   0.76283   0.76887   0.77093
 Alpha virt. eigenvalues --    0.77835   0.77861   0.78216   0.79898   0.80387
 Alpha virt. eigenvalues --    0.81223   0.81656   0.82164   0.83004   0.85165
 Alpha virt. eigenvalues --    0.87134   0.88141   0.88542   0.89144   0.90415
 Alpha virt. eigenvalues --    0.91037   0.91275   0.93196   0.94614   0.96410
 Alpha virt. eigenvalues --    0.96673   1.00397   1.01263   1.01685   1.02715
 Alpha virt. eigenvalues --    1.03196   1.03718   1.04741   1.05539   1.08754
 Alpha virt. eigenvalues --    1.19539   1.23257   1.24041   1.25149   1.28008
 Alpha virt. eigenvalues --    1.29699   1.31766   1.34347   1.35747   1.35994
 Alpha virt. eigenvalues --    1.39321   1.40106   1.40927   1.43056   1.43446
 Alpha virt. eigenvalues --    1.43510   1.44835   1.45673   1.46348   1.46664
 Alpha virt. eigenvalues --    1.47642   1.47999   1.51684   1.53617   1.55623
 Alpha virt. eigenvalues --    1.55827   1.56333   1.56588   1.57752   1.61405
 Alpha virt. eigenvalues --    1.63255   1.63479   1.63842   1.66084   1.68258
 Alpha virt. eigenvalues --    1.68354   1.68716   1.69758   1.74353   1.75971
 Alpha virt. eigenvalues --    1.77132   1.78051   1.79913   1.80092   1.80696
 Alpha virt. eigenvalues --    1.83110   1.83214   1.83576   1.83829   1.84186
 Alpha virt. eigenvalues --    1.84283   1.85808   1.86113   1.88220   1.91371
 Alpha virt. eigenvalues --    1.92048   1.94103   1.95177   1.97683   1.98131
 Alpha virt. eigenvalues --    1.99712   2.02275   2.04370   2.07260   2.11789
 Alpha virt. eigenvalues --    2.12030   2.14111   2.15226   2.19046   2.21169
 Alpha virt. eigenvalues --    2.22783   2.28667   2.30029   2.34579   2.34908
 Alpha virt. eigenvalues --    2.36229   2.38675   2.39595   2.42342   2.44857
 Alpha virt. eigenvalues --    2.46140   2.46323   2.49325   2.52880   2.53783
 Alpha virt. eigenvalues --    2.54133   2.56867   2.57836   2.58309   2.59603
 Alpha virt. eigenvalues --    2.59824   2.61577   2.62114   2.63519   2.63754
 Alpha virt. eigenvalues --    2.64775   2.65086   2.65188   2.65347   2.67851
 Alpha virt. eigenvalues --    2.68456   2.70938   2.71414   2.73338   2.74808
 Alpha virt. eigenvalues --    2.76302   2.78609   2.79692   2.82761   2.83052
 Alpha virt. eigenvalues --    2.84853   2.86235   2.92087   2.97031   2.99485
 Alpha virt. eigenvalues --    3.00038   3.04884   3.10793   3.11322   3.13142
 Alpha virt. eigenvalues --    3.20851   3.23203   3.26605   3.28205   3.30696
 Alpha virt. eigenvalues --    3.32790   3.33681   3.43446   3.45920   3.46454
 Alpha virt. eigenvalues --    3.48384   3.50034   3.56378   3.66333   3.66684
 Alpha virt. eigenvalues --    3.67426   3.94168   3.94487   3.95236   3.96204
 Alpha virt. eigenvalues --    4.03988   4.06823   4.07440   4.12552   4.35348
 Alpha virt. eigenvalues --    4.61028   4.69710   4.71560  23.45338  23.60426
 Alpha virt. eigenvalues --   23.82000  23.85020  23.87521  23.89093  23.90693
 Alpha virt. eigenvalues --   23.92736  23.97232  23.98776  24.00225  24.01183
 Alpha virt. eigenvalues --   24.10550  24.10801
          Condensed to atoms (all electrons):
               1          2          3          4          5          6
     1  C    8.556763   0.333260  -0.566530   1.978731  -0.033363  -0.093337
     2  C    0.333260   7.175806   0.368215  -1.082685  -0.020191  -0.014484
     3  C   -0.566530   0.368215   6.592765   0.760217  -0.122404   0.016926
     4  C    1.978731  -1.082685   0.760217  11.247493  -0.398544  -0.130284
     5  C   -0.033363  -0.020191  -0.122404  -0.398544  11.014336   0.791421
     6  C   -0.093337  -0.014484   0.016926  -0.130284   0.791421   6.589874
     7  C   -0.018988   0.000351  -0.013909  -0.005173  -1.142061   0.318825
     8  C    0.402182  -0.010237  -0.099087  -0.057073   2.122202  -0.491978
     9  C   -1.119001  -0.830004   0.298315  -0.127783  -0.254702   0.297924
    10  C   -1.282694   0.230974  -0.325931  -2.648798  -2.534598  -0.374369
    11  C    0.325422  -0.863720   0.969103  -0.307917  -1.485223  -0.155631
    12  C   -2.106649   1.289579  -1.393175  -1.681729  -0.304766  -0.222682
    13  C    0.228606  -0.232079  -0.187799  -1.535564  -0.306082   1.032249
    14  C   -1.101670  -0.219949  -0.175201  -0.372291  -1.679990  -1.439871
    15  H    0.368611  -0.107564  -0.001666   0.027373   0.005830   0.001140
    16  H   -0.019605   0.380961  -0.018531   0.014470  -0.001583  -0.000337
    17  H   -0.024321  -0.018032   0.377031  -0.069135   0.000273   0.000406
    18  H    0.050249   0.003110  -0.084336   0.462374   0.005629  -0.005115
    19  H   -0.045979  -0.007920   0.051410  -0.072684  -0.067212   0.051562
    20  H    0.007025   0.002083  -0.005183   0.005627   0.458916  -0.084509
    21  H   -0.001285  -0.000407   0.000398   0.000368  -0.068123   0.373282
    22  H    0.000637   0.000356  -0.000320  -0.001482   0.012506  -0.015867
    23  H    0.005857  -0.002535   0.001068   0.005306   0.028707  -0.000403
    24  H    0.034929   0.015032  -0.001524  -0.011923  -0.012452  -0.001661
    25  H    0.034929   0.015032  -0.001524  -0.011923  -0.012452  -0.001661
               7          8          9         10         11         12
     1  C   -0.018988   0.402182  -1.119001  -1.282694   0.325422  -2.106649
     2  C    0.000351  -0.010237  -0.830004   0.230974  -0.863720   1.289579
     3  C   -0.013909  -0.099087   0.298315  -0.325931   0.969103  -1.393175
     4  C   -0.005173  -0.057073  -0.127783  -2.648798  -0.307917  -1.681729
     5  C   -1.142061   2.122202  -0.254702  -2.534598  -1.485223  -0.304766
     6  C    0.318825  -0.491978   0.297924  -0.374369  -0.155631  -0.222682
     7  C    7.177960   0.185228  -0.806427   0.284076  -0.258215  -0.159096
     8  C    0.185228   8.728755  -1.113604  -1.335113   0.253059  -1.075076
     9  C   -0.806427  -1.113604   9.559087   0.264878   1.549079  -1.950788
    10  C    0.284076  -1.335113   0.264878   9.104321  -0.362500   2.411705
    11  C   -0.258215   0.253059   1.549079  -0.362500  14.431913  -3.836185
    12  C   -0.159096  -1.075076  -1.950788   2.411705  -3.836185  16.133792
    13  C   -0.919418   0.317411   1.508457  -0.409686   1.102615  -4.753057
    14  C    1.485940  -2.328408  -1.843625   2.434752  -4.783336   3.160849
    15  H   -0.002705   0.005350   0.089930  -0.009153  -0.030142  -0.021367
    16  H    0.000380   0.000818   0.002570  -0.009464   0.025153  -0.031301
    17  H   -0.000394  -0.001334  -0.005363   0.020232  -0.026478   0.091027
    18  H    0.002105   0.007049  -0.023964   0.009585  -0.006263  -0.054135
    19  H   -0.007670  -0.047286   0.075128   0.421781   0.077288  -0.071412
    20  H    0.002608   0.052148  -0.024940   0.011639  -0.012005  -0.013114
    21  H   -0.013839  -0.027941  -0.005824   0.020335  -0.006249   0.005335
    22  H    0.378340  -0.018654   0.003190  -0.008788   0.002867  -0.008666
    23  H   -0.108220   0.369577   0.092064  -0.010105   0.002981   0.006010
    24  H    0.014189   0.032182   0.355311   0.005213   0.016955  -0.060426
    25  H    0.014189   0.032182   0.355311   0.005213   0.016955  -0.060426
              13         14         15         16         17         18
     1  C    0.228606  -1.101670   0.368611  -0.019605  -0.024321   0.050249
     2  C   -0.232079  -0.219949  -0.107564   0.380961  -0.018032   0.003110
     3  C   -0.187799  -0.175201  -0.001666  -0.018531   0.377031  -0.084336
     4  C   -1.535564  -0.372291   0.027373   0.014470  -0.069135   0.462374
     5  C   -0.306082  -1.679990   0.005830  -0.001583   0.000273   0.005629
     6  C    1.032249  -1.439871   0.001140  -0.000337   0.000406  -0.005115
     7  C   -0.919418   1.485940  -0.002705   0.000380  -0.000394   0.002105
     8  C    0.317411  -2.328408   0.005350   0.000818  -0.001334   0.007049
     9  C    1.508457  -1.843625   0.089930   0.002570  -0.005363  -0.023964
    10  C   -0.409686   2.434752  -0.009153  -0.009464   0.020232   0.009585
    11  C    1.102615  -4.783336  -0.030142   0.025153  -0.026478  -0.006263
    12  C   -4.753057   3.160849  -0.021367  -0.031301   0.091027  -0.054135
    13  C   14.358291  -3.625020   0.000004   0.003136  -0.006265  -0.012105
    14  C   -3.625020  16.016117   0.006818  -0.009442   0.005303  -0.016764
    15  H    0.000004   0.006818   0.437915  -0.009054   0.001533   0.000183
    16  H    0.003136  -0.009442  -0.009054   0.418706  -0.006778   0.001943
    17  H   -0.006265   0.005303   0.001533  -0.006778   0.421743  -0.010285
    18  H   -0.012105  -0.016764   0.000183   0.001943  -0.010285   0.452551
    19  H    0.078761  -0.060122   0.000343  -0.000564   0.001510  -0.006121
    20  H   -0.004460  -0.059126  -0.000117   0.000017  -0.000151   0.001248
    21  H   -0.026996   0.094341   0.000015  -0.000007   0.000010  -0.000138
    22  H    0.025452  -0.032195  -0.000127   0.000008  -0.000007   0.000014
    23  H   -0.031349  -0.027943   0.000560  -0.000129   0.000013  -0.000110
    24  H    0.010653  -0.060578  -0.000932   0.000633  -0.000141   0.000175
    25  H    0.010653  -0.060578  -0.000932   0.000633  -0.000141   0.000175
              19         20         21         22         23         24
     1  C   -0.045979   0.007025  -0.001285   0.000637   0.005857   0.034929
     2  C   -0.007920   0.002083  -0.000407   0.000356  -0.002535   0.015032
     3  C    0.051410  -0.005183   0.000398  -0.000320   0.001068  -0.001524
     4  C   -0.072684   0.005627   0.000368  -0.001482   0.005306  -0.011923
     5  C   -0.067212   0.458916  -0.068123   0.012506   0.028707  -0.012452
     6  C    0.051562  -0.084509   0.373282  -0.015867  -0.000403  -0.001661
     7  C   -0.007670   0.002608  -0.013839   0.378340  -0.108220   0.014189
     8  C   -0.047286   0.052148  -0.027941  -0.018654   0.369577   0.032182
     9  C    0.075128  -0.024940  -0.005824   0.003190   0.092064   0.355311
    10  C    0.421781   0.011639   0.020335  -0.008788  -0.010105   0.005213
    11  C    0.077288  -0.012005  -0.006249   0.002867   0.002981   0.016955
    12  C   -0.071412  -0.013114   0.005335  -0.008666   0.006010  -0.060426
    13  C    0.078761  -0.004460  -0.026996   0.025452  -0.031349   0.010653
    14  C   -0.060122  -0.059126   0.094341  -0.032195  -0.027943  -0.060578
    15  H    0.000343  -0.000117   0.000015  -0.000127   0.000560  -0.000932
    16  H   -0.000564   0.000017  -0.000007   0.000008  -0.000129   0.000633
    17  H    0.001510  -0.000151   0.000010  -0.000007   0.000013  -0.000141
    18  H   -0.006121   0.001248  -0.000138   0.000014  -0.000110   0.000175
    19  H    0.442887  -0.006428   0.001343  -0.000528   0.000290   0.000578
    20  H   -0.006428   0.455532  -0.010377   0.001919   0.000132   0.000198
    21  H    0.001343  -0.010377   0.423153  -0.006461   0.001409  -0.000146
    22  H   -0.000528   0.001919  -0.006461   0.420486  -0.009056   0.000635
    23  H    0.000290   0.000132   0.001409  -0.009056   0.440840  -0.000914
    24  H    0.000578   0.000198  -0.000146   0.000635  -0.000914   0.493239
    25  H    0.000578   0.000198  -0.000146   0.000635  -0.000914  -0.078802
              25
     1  C    0.034929
     2  C    0.015032
     3  C   -0.001524
     4  C   -0.011923
     5  C   -0.012452
     6  C   -0.001661
     7  C    0.014189
     8  C    0.032182
     9  C    0.355311
    10  C    0.005213
    11  C    0.016955
    12  C   -0.060426
    13  C    0.010653
    14  C   -0.060578
    15  H   -0.000932
    16  H    0.000633
    17  H   -0.000141
    18  H    0.000175
    19  H    0.000578
    20  H    0.000198
    21  H   -0.000146
    22  H    0.000635
    23  H   -0.000914
    24  H   -0.078802
    25  H    0.493239
 Mulliken charges:
               1
     1  C    0.086219
     2  C   -0.404950
     3  C   -0.438327
     4  C    0.013031
     5  C    0.003924
     6  C   -0.441419
     7  C   -0.408076
     8  C    0.097649
     9  C   -0.345219
    10  C    0.086494
    11  C   -0.639528
    12  C    0.705752
    13  C   -0.626407
    14  C    0.691991
    15  H    0.238154
    16  H    0.257369
    17  H    0.249745
    18  H    0.222946
    19  H    0.190466
    20  H    0.221119
    21  H    0.247950
    22  H    0.255104
    23  H    0.236864
    24  H    0.249575
    25  H    0.249575
 Sum of Mulliken charges =   1.00000
 Mulliken charges with hydrogens summed into heavy atoms:
               1
     1  C    0.324372
     2  C   -0.147581
     3  C   -0.188582
     4  C    0.235977
     5  C    0.225043
     6  C   -0.193469
     7  C   -0.152972
     8  C    0.334513
     9  C    0.153931
    10  C    0.276961
    11  C   -0.639528
    12  C    0.705752
    13  C   -0.626407
    14  C    0.691991
 Electronic spatial extent (au):  <R**2>=           2857.3251
 Charge=              1.0000 electrons
 Dipole moment (field-independent basis, Debye):
    X=              0.0359    Y=             -0.3369    Z=             -0.0000  Tot=              0.3389
 Quadrupole moment (field-independent basis, Debye-Ang):
   XX=            -50.7911   YY=            -36.5658   ZZ=            -84.1422
   XY=             10.3909   XZ=              0.0000   YZ=             -0.0000
 Traceless Quadrupole moment (field-independent basis, Debye-Ang):
   XX=              6.3753   YY=             20.6006   ZZ=            -26.9758
   XY=             10.3909   XZ=              0.0000   YZ=             -0.0000
 Octapole moment (field-independent basis, Debye-Ang**2):
  XXX=             -0.5184  YYY=              2.7471  ZZZ=              0.0000  XYY=             -1.1191
  XXY=             -5.9621  XXZ=             -0.0000  XZZ=             -2.9316  YZZ=              1.1052
  YYZ=             -0.0000  XYZ=              0.0000
 Hexadecapole moment (field-independent basis, Debye-Ang**3):
 XXXX=           -997.3643 YYYY=          -1843.4345 ZZZZ=            -99.3393 XXXY=           -350.2173
 XXXZ=              0.0000 YYYX=           -277.0432 YYYZ=             -0.0000 ZZZX=              0.0000
 ZZZY=              0.0000 XXYY=           -453.8895 XXZZ=           -243.8643 YYZZ=           -492.9440
 XXYZ=             -0.0000 YYXZ=              0.0000 ZZXY=           -184.5648
 N-N= 7.809960149755D+02 E-N=-2.798327729793D+03  KE= 5.374964529076D+02
 Symmetry A'   KE= 5.228488259527D+02
 Symmetry A"   KE= 1.464762695490D+01
 Unable to Open any file for archive entry.
 1\1\GINC-GADI-CPU-CLX-0648\SP\RM062X TD-FC\6-311++G(d,p)\C14H11(1+)\TS
 1578\27-Jul-2022\0\\#n M062X/6-311++G(d,p) TD(NStates=1) EmpiricalDisp
 ersion=GD3 SP\\SP_25\\1,1\C,0,2.48775,1.3688,0.\C,0,3.694225,0.676825,
 0.\C,0,3.6822,-0.7123,0.\C,0,2.4711,-1.40365,0.\C,0,-2.4555,-1.39455,0
 .\C,0,-3.6868,-0.6999,0.\C,0,-3.710675,0.683875,0.\C,0,-2.50145,1.3682
 ,0.\C,0,-0.004425,1.4665,0.\C,0,0.0122,-1.4207,0.\C,0,1.264075,0.68957
 5,0.\C,0,1.2421,-0.7224,0.\C,0,-1.260425,0.681925,0.\C,0,-1.2321,-0.72
 12,0.\H,0,2.4882,2.451875,0.\H,0,4.629625,1.216775,0.\H,0,4.61105,-1.2
 64725,0.\H,0,2.47085,-2.485975,0.\H,0,0.01125,-2.5017,0.\H,0,-2.46355,
 -2.477125,0.\H,0,-4.60815,-1.265175,0.\H,0,-4.646275,1.222525,0.\H,0,-
 2.4924,2.451425,0.\H,0,-0.016,2.1555,-0.8607\H,0,-0.016,2.1555,0.8607\
 \Version=ES64L-G16RevC.01\State=1-A'\HF=-539.7598107\RMSD=5.719e-09\PG
 =CS [SG(C14H9),X(H2)]\\@
 The archive entry for this job was punched.


 Where a calculator on the ENIAC is equipped with 18,000
 vacuum tubes and weighs 30 tons, computers inthe future
 may  have only 1,000 vacuum tubes and weigh only 1 1/2 tons.
              ---Popular Mechanics, March 1949
 Job cpu time:       0 days  0 hours 45 minutes 22.1 seconds.
 Elapsed time:       0 days  0 hours  1 minutes 26.6 seconds.
 File lengths (MBytes):  RWF=    460 Int=      0 D2E=      0 Chk=     15 Scr=      1
 Normal termination of Gaussian 16 at Wed Jul 27 11:38:18 2022.
