 Entering Gaussian System, Link 0=g16
 Initial command:
 /apps/gaussian/g16c01/g16/l1.exe "/jobfs/52804872.gadi-pbs/Gau-1586829.inp" -scrdir="/jobfs/52804872.gadi-pbs/"
 Entering Link 1 = /apps/gaussian/g16c01/g16/l1.exe PID=   1586830.
  
 Copyright (c) 1988-2019, Gaussian, Inc.  All Rights Reserved.
  
 This is part of the Gaussian(R) 16 program.  It is based on
 the Gaussian(R) 09 system (copyright 2009, Gaussian, Inc.),
 the Gaussian(R) 03 system (copyright 2003, Gaussian, Inc.),
 the Gaussian(R) 98 system (copyright 1998, Gaussian, Inc.),
 the Gaussian(R) 94 system (copyright 1995, Gaussian, Inc.),
 the Gaussian 92(TM) system (copyright 1992, Gaussian, Inc.),
 the Gaussian 90(TM) system (copyright 1990, Gaussian, Inc.),
 the Gaussian 88(TM) system (copyright 1988, Gaussian, Inc.),
 the Gaussian 86(TM) system (copyright 1986, Carnegie Mellon
 University), and the Gaussian 82(TM) system (copyright 1983,
 Carnegie Mellon University). Gaussian is a federally registered
 trademark of Gaussian, Inc.
  
 This software contains proprietary and confidential information,
 including trade secrets, belonging to Gaussian, Inc.
  
 This software is provided under written license and may be
 used, copied, transmitted, or stored only in accord with that
 written license.
  
 The following legend is applicable only to US Government
 contracts under FAR:
  
                    RESTRICTED RIGHTS LEGEND
  
 Use, reproduction and disclosure by the US Government is
 subject to restrictions as set forth in subparagraphs (a)
 and (c) of the Commercial Computer Software - Restricted
 Rights clause in FAR 52.227-19.
  
 Gaussian, Inc.
 340 Quinnipiac St., Bldg. 40, Wallingford CT 06492
  
  
 ---------------------------------------------------------------
 Warning -- This program may not be used in any manner that
 competes with the business of Gaussian, Inc. or will provide
 assistance to any competitor of Gaussian, Inc.  The licensee
 of this program is prohibited from giving any competitor of
 Gaussian, Inc. access to this program.  By using this program,
 the user acknowledges that Gaussian, Inc. is engaged in the
 business of creating and licensing software in the field of
 computational chemistry and represents and warrants to the
 licensee that it is not a competitor of Gaussian, Inc. and that
 it will not use this program in any manner prohibited above.
 ---------------------------------------------------------------
  

 Cite this work as:
 Gaussian 16, Revision C.01,
 M. J. Frisch, G. W. Trucks, H. B. Schlegel, G. E. Scuseria, 
 M. A. Robb, J. R. Cheeseman, G. Scalmani, V. Barone, 
 G. A. Petersson, H. Nakatsuji, X. Li, M. Caricato, A. V. Marenich, 
 J. Bloino, B. G. Janesko, R. Gomperts, B. Mennucci, H. P. Hratchian, 
 J. V. Ortiz, A. F. Izmaylov, J. L. Sonnenberg, D. Williams-Young, 
 F. Ding, F. Lipparini, F. Egidi, J. Goings, B. Peng, A. Petrone, 
 T. Henderson, D. Ranasinghe, V. G. Zakrzewski, J. Gao, N. Rega, 
 G. Zheng, W. Liang, M. Hada, M. Ehara, K. Toyota, R. Fukuda, 
 J. Hasegawa, M. Ishida, T. Nakajima, Y. Honda, O. Kitao, H. Nakai, 
 T. Vreven, K. Throssell, J. A. Montgomery, Jr., J. E. Peralta, 
 F. Ogliaro, M. J. Bearpark, J. J. Heyd, E. N. Brothers, K. N. Kudin, 
 V. N. Staroverov, T. A. Keith, R. Kobayashi, J. Normand, 
 K. Raghavachari, A. P. Rendell, J. C. Burant, S. S. Iyengar, 
 J. Tomasi, M. Cossi, J. M. Millam, M. Klene, C. Adamo, R. Cammi, 
 J. W. Ochterski, R. L. Martin, K. Morokuma, O. Farkas, 
 J. B. Foresman, and D. J. Fox, Gaussian, Inc., Wallingford CT, 2019.
 
 ******************************************
 Gaussian 16:  ES64L-G16RevC.01  3-Jul-2019
                27-Jul-2022 
 ******************************************
 %NProcShared=32
 Will use up to   32 processors via shared memory.
 %mem = 128GB
 ---------------------------------------------------------------
 #n M062X/6-311++G(d,p) TD(NStates=1) EmpiricalDispersion=GD3 SP
 ---------------------------------------------------------------
 1/38=1,172=1/1;
 2/12=2,17=6,18=5,40=1/2;
 3/5=4,6=6,7=1111,11=9,25=1,30=1,74=-55,124=31/1,2,3,8;
 4//1;
 5/5=2,38=5/2;
 8/6=1,10=2,108=1/1;
 9/41=1,42=1,70=2/14;
 6/7=2,8=2,9=2,10=2/1;
 99/5=1,9=1/99;
 -----
 SP_25
 -----
 Symbolic Z-matrix:
 Charge =  1 Multiplicity = 1
 C                     2.51135   1.3688    0. 
 C                     3.72523   0.69163   0. 
 C                     3.6902   -0.6855    0. 
 C                     2.4397   -1.38505   0. 
 C                    -2.4865   -1.41235   0. 
 C                    -3.6764   -0.7227    0. 
 C                    -3.67588   0.67048   0. 
 C                    -2.47025   1.3706    0. 
 C                     0.01318   1.4577    0. 
 C                    -0.0366   -1.4203    0. 
 C                     1.25648   0.67418   0. 
 C                     1.2229   -0.7206    0. 
 C                    -1.26743   0.69713   0. 
 C                    -1.2529   -0.7242    0. 
 H                     2.4922    2.45228   0. 
 H                     4.66063   1.22978   0. 
 H                     4.60465  -1.26313   0. 
 H                     2.45685  -2.46798   0. 
 H                    -0.03375  -2.5015    0. 
 H                    -2.47875  -2.49452   0. 
 H                    -4.61335  -1.26178   0. 
 H                    -4.61068   1.21253   0. 
 H                    -2.4796    2.45363   0. 
 H                     0.048     2.1535   -0.8585 
 H                     0.048     2.1535    0.8585 
 
                          Input orientation:                          
 ---------------------------------------------------------------------
 Center     Atomic      Atomic             Coordinates (Angstroms)
 Number     Number       Type             X           Y           Z
 ---------------------------------------------------------------------
      1          6           0        2.511350    1.368800    0.000000
      2          6           0        3.725225    0.691625    0.000000
      3          6           0        3.690200   -0.685500    0.000000
      4          6           0        2.439700   -1.385050    0.000000
      5          6           0       -2.486500   -1.412350    0.000000
      6          6           0       -3.676400   -0.722700    0.000000
      7          6           0       -3.675875    0.670475    0.000000
      8          6           0       -2.470250    1.370600    0.000000
      9          6           0        0.013175    1.457700    0.000000
     10          6           0       -0.036600   -1.420300    0.000000
     11          6           0        1.256475    0.674175    0.000000
     12          6           0        1.222900   -0.720600    0.000000
     13          6           0       -1.267425    0.697125    0.000000
     14          6           0       -1.252900   -0.724200    0.000000
     15          1           0        2.492200    2.452275    0.000000
     16          1           0        4.660625    1.229775    0.000000
     17          1           0        4.604650   -1.263125    0.000000
     18          1           0        2.456850   -2.467975    0.000000
     19          1           0       -0.033750   -2.501500    0.000000
     20          1           0       -2.478750   -2.494525    0.000000
     21          1           0       -4.613350   -1.261775    0.000000
     22          1           0       -4.610675    1.212525    0.000000
     23          1           0       -2.479600    2.453625    0.000000
     24          1           0        0.048000    2.153500   -0.858500
     25          1           0        0.048000    2.153500    0.858500
 ---------------------------------------------------------------------
                    Distance matrix (angstroms):
                    1          2          3          4          5
     1  C    0.000000
     2  C    1.389985   0.000000
     3  C    2.368509   1.377570   0.000000
     4  C    2.754782   2.442366   1.432871   0.000000
     5  C    5.719554   6.558372   6.219319   4.926276   0.000000
     6  C    6.531663   7.535540   7.366694   6.151860   1.375311
     7  C    6.226509   7.401130   7.489842   6.451778   2.398494
     8  C    4.981600   6.232569   6.494512   5.630383   2.782997
     9  C    2.499756   3.790275   4.256033   3.737546   3.805990
    10  C    3.777715   4.314111   3.798548   2.476551   2.449913
    11  C    1.434300   2.468812   2.787783   2.374959   4.285259
    12  C    2.454729   2.873327   2.467550   1.386397   3.773349
    13  C    3.838006   4.992653   5.146814   4.251850   2.436397
    14  C    4.306997   5.175547   4.943251   3.751269   1.412558
    15  H    1.083644   2.149474   3.358696   3.837684   6.302601
    16  H    2.153767   1.079156   2.147092   3.430717   7.619857
    17  H    3.362876   2.143464   1.081605   2.168381   7.092720
    18  H    3.837162   3.404680   2.167572   1.083061   5.054805
    19  H    4.632144   4.932133   4.143146   2.713746   2.683697
    20  H    6.310814   6.974300   6.428726   5.042032   1.082203
    21  H    7.594819   8.564322   8.323523   7.054127   2.132173
    22  H    7.123739   8.352159   8.515106   7.513666   3.376698
    23  H    5.107487   6.450155   6.922466   6.239787   3.865981
    24  H    2.724127   4.049208   4.697080   4.356442   4.458251
    25  H    2.724127   4.049208   4.697080   4.356442   4.458251
                    6          7          8          9         10
     6  C    0.000000
     7  C    1.393175   0.000000
     8  C    2.415927   1.394169   0.000000
     9  C    4.285686   3.772110   2.484952   0.000000
    10  C    3.706048   4.197102   3.702941   2.878430   0.000000
    11  C    5.126843   4.932351   3.791238   1.469594   2.461477
    12  C    4.899300   5.092454   4.244111   2.491671   1.440805
    13  C    2.796259   2.408597   1.378534   1.489433   2.449167
    14  C    2.423500   2.795698   2.422835   2.522624   1.401407
    15  H    6.937730   6.420277   5.078969   2.671094   4.625113
    16  H    8.562602   8.355241   7.132265   4.653036   5.393220
    17  H    8.298665   8.503288   7.549220   5.337090   4.643911
    18  H    6.376734   6.889135   6.245876   4.624118   2.704610
    19  H    4.053767   4.829752   4.574898   3.959478   1.081204
    20  H    2.138628   3.383834   3.865134   4.672234   2.667969
    21  H    1.080961   2.147661   3.394448   5.366589   4.579495
    22  H    2.148945   1.080587   2.146254   4.630346   5.277682
    23  H    3.394314   2.147254   1.083065   2.684361   4.579907
    24  H    4.783378   4.099223   2.773362   1.105610   3.676442
    25  H    4.783378   4.099223   2.773362   1.105610   3.676442
                   11         12         13         14         15
    11  C    0.000000
    12  C    1.395179   0.000000
    13  C    2.524004   2.865600   0.000000
    14  C    2.872702   2.475803   1.421399   0.000000
    15  H    2.165330   3.417347   4.149136   4.910781   0.000000
    16  H    3.449192   3.952457   5.951932   6.227985   2.489292
    17  H    3.868256   3.424991   6.190626   5.882290   4.273949
    18  H    3.363630   2.139147   4.887544   4.099146   4.920377
    19  H    3.427768   2.179627   3.428288   2.155255   5.560603
    20  H    4.898221   4.104756   3.413786   2.153313   7.012929
    21  H    6.180837   5.861287   3.877177   3.403177   8.017669
    22  H    5.891797   6.145532   3.382744   3.876281   7.210258
    23  H    4.138200   4.876906   2.134165   3.406371   4.971800
    24  H    2.094239   3.221469   2.142054   3.272693   2.607758
    25  H    2.094239   3.221469   2.142054   3.272693   2.607758
                   16         17         18         19         20
    16  H    0.000000
    17  H    2.493528   0.000000
    18  H    4.304646   2.462663   0.000000
    19  H    5.996630   4.800867   2.490826   0.000000
    20  H    8.052396   7.189638   4.935671   2.445010   0.000000
    21  H    9.602835   9.218000   7.172353   4.744434   2.464993
    22  H    9.271316   9.542068   7.968437   5.894253   4.276368
    23  H    7.244351   8.000052   6.970702   5.525889   4.948150
    24  H    4.781903   5.759636   5.281819   4.734209   5.359629
    25  H    4.781903   5.759636   5.281819   4.734209   5.359629
                   21         22         23         24         25
    21  H    0.000000
    22  H    2.474301   0.000000
    23  H    4.284517   2.466133   0.000000
    24  H    5.842030   4.829670   2.686235   0.000000
    25  H    5.842030   4.829670   2.686235   1.717000   0.000000
 Stoichiometry    C14H11(1+)
 Framework group  CS[SG(C14H9),X(H2)]
 Deg. of freedom    46
 Full point group                 CS      NOp   2
 Largest Abelian subgroup         CS      NOp   2
 Largest concise Abelian subgroup CS      NOp   2
                         Standard orientation:                         
 ---------------------------------------------------------------------
 Center     Atomic      Atomic             Coordinates (Angstroms)
 Number     Number       Type             X           Y           Z
 ---------------------------------------------------------------------
      1          6           0        0.026234    2.855402    0.000000
      2          6           0       -1.140480    3.610940    0.000000
      3          6           0       -2.340930    2.935204    0.000000
      4          6           0       -2.373565    1.502705    0.000000
      5          6           0       -0.091180   -2.862947    0.000000
      6          6           0        1.075331   -3.591459    0.000000
      7          6           0        2.306117   -2.938694    0.000000
      8          6           0        2.360270   -1.545577    0.000000
      9          6           0        1.274463    0.689598    0.000000
     10          6           0       -1.245278   -0.701898    0.000000
     11          6           0        0.000000    1.421342    0.000000
     12          6           0       -1.216725    0.738624    0.000000
     13          6           0        1.202000   -0.798071    0.000000
     14          6           0       -0.060707   -1.450718    0.000000
     15          1           0        0.992576    3.345777    0.000000
     16          1           0       -1.102927    4.689443    0.000000
     17          1           0       -3.279486    3.472776    0.000000
     18          1           0       -3.338484    1.010820    0.000000
     19          1           0       -2.201978   -1.205611    0.000000
     20          1           0       -1.051036   -3.362787    0.000000
     21          1           0        1.037687   -4.671765    0.000000
     22          1           0        3.222766   -3.510904    0.000000
     23          1           0        3.321626   -1.046754    0.000000
     24          1           0        1.872978    1.046152    0.858500
     25          1           0        1.872978    1.046152   -0.858500
 ---------------------------------------------------------------------
 Rotational constants (GHZ):           2.1378937           0.4447876           0.3689853
 Standard basis: 6-311++G(d,p) (5D, 7F)
 There are   299 symmetry adapted cartesian basis functions of A'  symmetry.
 There are   100 symmetry adapted cartesian basis functions of A"  symmetry.
 There are   285 symmetry adapted basis functions of A'  symmetry.
 There are   100 symmetry adapted basis functions of A"  symmetry.
   385 basis functions,   603 primitive gaussians,   399 cartesian basis functions
    47 alpha electrons       47 beta electrons
       nuclear repulsion energy       781.4221189967 Hartrees.
 NAtoms=   25 NActive=   25 NUniq=   24 SFac= 1.09D+00 NAtFMM=   60 NAOKFM=F Big=F
 Integral buffers will be    131072 words long.
 Regular integral format.
 Two-electron integral symmetry is turned on.
 Nuclear repulsion after empirical dispersion term =      781.4211398140 Hartrees.
 One-electron integrals computed using PRISM.
 NBasis=   385 RedAO= T EigKep=  1.11D-06  NBF=   285   100
 NBsUse=   379 1.00D-06 EigRej=  8.34D-07 NBFU=   279   100
 ExpMin= 3.60D-02 ExpMax= 4.56D+03 ExpMxC= 6.82D+02 IAcc=3 IRadAn=         5 AccDes= 0.00D+00
 Harris functional with IExCor= 1009 and IRadAn=       5 diagonalized for initial guess.
 HarFok:  IExCor= 1009 AccDes= 0.00D+00 IRadAn=         5 IDoV= 1 UseB2=F ITyADJ=14
 ICtDFT=  3500011 ScaDFX=  1.000000  1.000000  1.000000  1.000000
 FoFCou: FMM=F IPFlag=           0 FMFlag=      100000 FMFlg1=           0
         NFxFlg=           0 DoJE=T BraDBF=F KetDBF=T FulRan=T
         wScrn=  0.000000 ICntrl=       500 IOpCl=  0 I1Cent=   200000004 NGrid=           0
         NMat0=    1 NMatS0=      1 NMatT0=    0 NMatD0=    1 NMtDS0=    0 NMtDT0=    0
 Petite list used in FoFCou.
 Initial guess orbital symmetries:
       Occupied  (A') (A') (A') (A') (A') (A') (A') (A') (A') (A')
                 (A') (A') (A') (A') (A') (A') (A') (A') (A') (A')
                 (A') (A') (A') (A') (A') (A') (A') (A') (A') (A')
                 (A') (A') (A") (A') (A') (A') (A') (A') (A") (A')
                 (A") (A') (A') (A") (A") (A") (A")
       Virtual   (A") (A") (A") (A") (A") (A') (A') (A') (A') (A")
                 (A") (A') (A') (A') (A") (A') (A') (A') (A') (A")
                 (A') (A") (A') (A') (A') (A") (A') (A") (A') (A')
                 (A') (A') (A') (A') (A") (A') (A") (A') (A') (A')
                 (A") (A') (A') (A") (A') (A') (A') (A') (A') (A")
                 (A') (A') (A") (A") (A') (A') (A') (A") (A") (A')
                 (A') (A') (A') (A') (A') (A') (A") (A') (A') (A")
                 (A') (A') (A') (A') (A') (A') (A') (A') (A') (A')
                 (A') (A') (A') (A') (A') (A') (A') (A') (A') (A')
                 (A') (A') (A') (A') (A') (A') (A') (A") (A') (A")
                 (A') (A') (A") (A") (A') (A") (A') (A") (A") (A')
                 (A") (A') (A') (A') (A") (A') (A') (A") (A") (A')
                 (A") (A") (A') (A') (A') (A") (A') (A') (A') (A")
                 (A') (A') (A') (A') (A') (A') (A") (A') (A') (A')
                 (A') (A') (A') (A') (A') (A') (A') (A') (A') (A")
                 (A") (A') (A") (A") (A') (A') (A') (A") (A") (A')
                 (A") (A') (A") (A") (A") (A') (A') (A') (A') (A')
                 (A') (A") (A') (A') (A") (A') (A') (A') (A') (A")
                 (A') (A') (A') (A') (A") (A') (A") (A') (A") (A")
                 (A') (A") (A') (A") (A') (A') (A') (A") (A') (A')
                 (A") (A") (A") (A') (A') (A") (A') (A") (A') (A')
                 (A") (A") (A') (A") (A') (A") (A') (A') (A') (A")
                 (A') (A') (A') (A') (A") (A') (A') (A') (A") (A")
                 (A') (A') (A') (A") (A') (A') (A") (A') (A") (A')
                 (A") (A') (A') (A') (A') (A") (A') (A') (A') (A")
                 (A') (A') (A") (A') (A") (A') (A') (A") (A') (A')
                 (A') (A") (A') (A") (A') (A') (A') (A") (A') (A")
                 (A') (A') (A') (A') (A") (A') (A") (A') (A") (A')
                 (A") (A') (A") (A") (A") (A') (A') (A') (A') (A')
                 (A') (A') (A') (A') (A') (A') (A') (A') (A') (A')
                 (A') (A') (A') (A") (A') (A') (A') (A') (A') (A')
                 (A') (A') (A') (A') (A') (A') (A') (A') (A') (A')
                 (A') (A') (A') (A') (A') (A') (A') (A') (A') (A')
                 (A') (A')
 The electronic state of the initial guess is 1-A'.
 Requested convergence on RMS density matrix=1.00D-08 within 128 cycles.
 Requested convergence on MAX density matrix=1.00D-06.
 Requested convergence on             energy=1.00D-06.
 No special actions if energy rises.
 SCF Done:  E(RM062X) =  -539.756221840     A.U. after   15 cycles
            NFock= 15  Conv=0.89D-08     -V/T= 2.0041
 DoSCS=F DFT=T ScalE2(SS,OS)=  1.000000  1.000000
 ExpMin= 3.60D-02 ExpMax= 4.56D+03 ExpMxC= 6.82D+02 IAcc=3 IRadAn=         5 AccDes= 0.00D+00
 HarFok:  IExCor=  205 AccDes= 0.00D+00 IRadAn=         5 IDoV=-2 UseB2=F ITyADJ=14
 ICtDFT= 12500011 ScaDFX=  1.000000  1.000000  1.000000  1.000000
 Range of M.O.s used for correlation:    15   379
 NBasis=   385 NAE=    47 NBE=    47 NFC=    14 NFV=     0
 NROrb=    365 NOA=    33 NOB=    33 NVA=   332 NVB=   332

 **** Warning!!: The largest alpha MO coefficient is  0.13916209D+03

 Orbital symmetries:
       Occupied  (A') (A') (A') (A') (A') (A') (A') (A') (A') (A')
                 (A') (A') (A') (A') (A') (A') (A') (A') (A') (A')
                 (A') (A') (A') (A') (A') (A') (A') (A') (A') (A')
                 (A') (A') (A") (A') (A') (A') (A') (A") (A") (A')
                 (A') (A') (A') (A") (A") (A") (A")
       Virtual   (A") (A") (A") (A") (A') (A') (A') (A') (A") (A')
                 (A') (A") (A') (A') (A") (A') (A") (A') (A') (A')
                 (A") (A") (A') (A') (A') (A") (A') (A") (A') (A')
                 (A") (A') (A") (A') (A') (A') (A') (A') (A") (A')
                 (A") (A') (A') (A") (A") (A') (A") (A') (A") (A')
                 (A') (A') (A') (A') (A') (A") (A') (A') (A') (A')
                 (A') (A") (A') (A') (A') (A") (A') (A') (A') (A')
                 (A') (A') (A') (A') (A') (A') (A') (A') (A') (A')
                 (A') (A') (A') (A') (A') (A') (A') (A') (A') (A')
                 (A') (A') (A') (A') (A") (A') (A") (A") (A') (A")
                 (A') (A') (A') (A') (A") (A") (A') (A") (A") (A')
                 (A') (A') (A") (A') (A') (A") (A') (A") (A') (A")
                 (A") (A') (A") (A') (A') (A') (A") (A') (A') (A')
                 (A') (A') (A') (A') (A') (A') (A') (A') (A') (A')
                 (A') (A') (A') (A") (A') (A') (A') (A') (A') (A')
                 (A') (A') (A") (A') (A") (A') (A") (A") (A') (A")
                 (A") (A') (A') (A") (A") (A') (A") (A") (A') (A')
                 (A') (A') (A') (A") (A") (A') (A') (A') (A') (A")
                 (A') (A') (A') (A") (A") (A') (A') (A") (A') (A")
                 (A") (A') (A') (A") (A') (A") (A') (A') (A') (A')
                 (A") (A") (A") (A') (A") (A') (A') (A") (A') (A')
                 (A') (A") (A') (A") (A") (A') (A") (A') (A') (A")
                 (A') (A') (A') (A') (A") (A') (A') (A') (A") (A")
                 (A') (A') (A') (A") (A') (A') (A') (A") (A") (A')
                 (A") (A') (A') (A") (A') (A') (A') (A') (A') (A')
                 (A") (A') (A') (A') (A') (A") (A") (A") (A') (A')
                 (A') (A') (A') (A') (A') (A') (A') (A") (A') (A')
                 (A') (A") (A') (A") (A") (A") (A') (A") (A') (A")
                 (A') (A") (A") (A') (A") (A") (A') (A') (A') (A')
                 (A') (A') (A') (A') (A') (A') (A') (A') (A') (A')
                 (A') (A') (A') (A") (A') (A') (A') (A') (A') (A')
                 (A') (A') (A') (A') (A') (A') (A') (A') (A') (A')
                 (A') (A') (A') (A') (A') (A') (A') (A') (A') (A')
                 (A') (A')
     4 initial guesses have been made.
 Convergence on wavefunction:    0.001000000000000
 Iteration     1 Dimension     4 NMult     0 NNew      4
 CISAX will form     4 AO SS matrices at one time.
 Iteration     2 Dimension     6 NMult     4 NNew      2
 Iteration     3 Dimension     8 NMult     6 NNew      2
 Iteration     4 Dimension    10 NMult     8 NNew      2
 Iteration     5 Dimension    12 NMult    10 NNew      2
 Iteration     6 Dimension    14 NMult    12 NNew      2
 ***********************************************************************
 Excited states from <AA,BB:AA,BB> singles matrix:
 ***********************************************************************
 
 Ground to excited state transition densities written to RWF  633
 Ground to excited state transition electric dipole moments (Au):
       state          X           Y           Z        Dip. S.      Osc.
         1         0.4890      0.3056      0.0000      0.3325      0.0221
 Ground to excited state transition velocity dipole moments (Au):
       state          X           Y           Z        Dip. S.      Osc.
         1        -0.0567     -0.0309     -0.0000      0.0042      0.0278
 Ground to excited state transition magnetic dipole moments (Au):
       state          X           Y           Z
         1        -0.0000     -0.0000      0.1620
 Ground to excited state transition velocity quadrupole moments (Au):
       state          XX          YY          ZZ          XY          XZ          YZ
         1         0.1399      0.1417     -0.0087     -0.1366     -0.0000      0.0000
 <0|del|b> * <b|rxdel|0> + <0|del|b> * <b|delr+rdel|0>
 Rotatory Strengths (R) in cgs (10**-40 erg-esu-cm/Gauss)
       state          XX          YY          ZZ    R(velocity)    E-M Angle
         1        -0.0000     -0.0000      0.0000      0.0000       90.00
 1/2[<0|r|b>*<b|rxdel|0> + (<0|rxdel|b>*<b|r|0>)*]
 Rotatory Strengths (R) in cgs (10**-40 erg-esu-cm/Gauss)
       state          XX          YY          ZZ     R(length)
         1         0.0000      0.0000     -0.0000      0.0000
  1/2[<0|del|b>*<b|r|0> + (<0|r|b>*<b|del|0>)*] (Au)
       state          X           Y           Z        Dip. S.   Osc.(frdel)
         1        -0.0277     -0.0094     -0.0000      0.0372      0.0248

 Excitation energies and oscillator strengths:
 
 Excited State   1:      Singlet-A'     2.7180 eV  456.17 nm  f=0.0221  <S**2>=0.000
      47 -> 48         0.70359
 This state for optimization and/or second-order correction.
 Total Energy, E(TD-HF/TD-DFT) =  -539.656338959    
 Copying the excited state density for this state as the 1-particle RhoCI density.
 SavETr:  write IOETrn=   770 NScale= 10 NData=  16 NLR=1 NState=    1 LETran=      28.

 **********************************************************************

            Population analysis using the SCF Density.

 **********************************************************************

 Orbital symmetries:
       Occupied  (A') (A') (A') (A') (A') (A') (A') (A') (A') (A')
                 (A') (A') (A') (A') (A') (A') (A') (A') (A') (A')
                 (A') (A') (A') (A') (A') (A') (A') (A') (A') (A')
                 (A') (A') (A") (A') (A') (A') (A') (A") (A") (A')
                 (A') (A') (A') (A") (A") (A") (A")
       Virtual   (A") (A") (A") (A") (A') (A') (A') (A') (A") (A')
                 (A') (A") (A') (A') (A") (A') (A") (A') (A') (A')
                 (A") (A") (A') (A') (A') (A") (A') (A") (A') (A')
                 (A") (A') (A") (A') (A') (A') (A') (A') (A") (A')
                 (A") (A') (A') (A") (A") (A') (A") (A') (A") (A')
                 (A') (A') (A') (A') (A') (A") (A') (A') (A') (A')
                 (A') (A") (A') (A') (A') (A") (A') (A') (A') (A')
                 (A') (A') (A') (A') (A') (A') (A') (A') (A') (A')
                 (A') (A') (A') (A') (A') (A') (A') (A') (A') (A')
                 (A') (A') (A') (A') (A") (A') (A") (A") (A') (A")
                 (A') (A') (A') (A') (A") (A") (A') (A") (A") (A')
                 (A') (A') (A") (A') (A') (A") (A') (A") (A') (A")
                 (A") (A') (A") (A') (A') (A') (A") (A') (A') (A')
                 (A') (A') (A') (A') (A') (A') (A') (A') (A') (A')
                 (A') (A') (A') (A") (A') (A') (A') (A') (A') (A')
                 (A') (A') (A") (A') (A") (A') (A") (A") (A') (A")
                 (A") (A') (A') (A") (A") (A') (A") (A") (A') (A')
                 (A') (A') (A') (A") (A") (A') (A') (A') (A') (A")
                 (A') (A') (A') (A") (A") (A') (A') (A") (A') (A")
                 (A") (A') (A') (A") (A') (A") (A') (A') (A') (A')
                 (A") (A") (A") (A') (A") (A') (A') (A") (A') (A')
                 (A') (A") (A') (A") (A") (A') (A") (A') (A') (A")
                 (A') (A') (A') (A') (A") (A') (A') (A') (A") (A")
                 (A') (A') (A') (A") (A') (A') (A') (A") (A") (A')
                 (A") (A') (A') (A") (A') (A') (A') (A') (A') (A')
                 (A") (A') (A') (A') (A') (A") (A") (A") (A') (A')
                 (A') (A') (A') (A') (A') (A') (A') (A") (A') (A')
                 (A') (A") (A') (A") (A") (A") (A') (A") (A') (A")
                 (A') (A") (A") (A') (A") (A") (A') (A') (A') (A')
                 (A') (A') (A') (A') (A') (A') (A') (A') (A') (A')
                 (A') (A') (A') (A") (A') (A') (A') (A') (A') (A')
                 (A') (A') (A') (A') (A') (A') (A') (A') (A') (A')
                 (A') (A') (A') (A') (A') (A') (A') (A') (A') (A')
                 (A') (A')
 The electronic state is 1-A'.
 Alpha  occ. eigenvalues --  -10.77606 -10.73637 -10.72776 -10.72751 -10.72053
 Alpha  occ. eigenvalues --  -10.71802 -10.71760 -10.70969 -10.70939 -10.70262
 Alpha  occ. eigenvalues --  -10.70166 -10.69867 -10.69777 -10.69376  -1.16530
 Alpha  occ. eigenvalues --   -1.12489  -1.06940  -1.05848  -1.01298  -1.00361
 Alpha  occ. eigenvalues --   -0.95643  -0.91051  -0.86437  -0.85905  -0.83802
 Alpha  occ. eigenvalues --   -0.78363  -0.76122  -0.74389  -0.69695  -0.69298
 Alpha  occ. eigenvalues --   -0.68388  -0.68122  -0.68086  -0.65102  -0.64256
 Alpha  occ. eigenvalues --   -0.62875  -0.61707  -0.60313  -0.59368  -0.59131
 Alpha  occ. eigenvalues --   -0.56940  -0.55256  -0.54661  -0.52436  -0.47078
 Alpha  occ. eigenvalues --   -0.46106  -0.44023
 Alpha virt. eigenvalues --   -0.26088  -0.14671  -0.14083  -0.12764  -0.11188
 Alpha virt. eigenvalues --   -0.10094  -0.09248  -0.07969  -0.07937  -0.07482
 Alpha virt. eigenvalues --   -0.07212  -0.07142  -0.05644  -0.05579  -0.05347
 Alpha virt. eigenvalues --   -0.03842  -0.03659  -0.03276  -0.03131  -0.02158
 Alpha virt. eigenvalues --   -0.01358  -0.00947   0.00184   0.00594   0.00666
 Alpha virt. eigenvalues --    0.01063   0.01506   0.01931   0.02167   0.02298
 Alpha virt. eigenvalues --    0.02449   0.02674   0.02780   0.03233   0.03421
 Alpha virt. eigenvalues --    0.04226   0.04504   0.04710   0.05034   0.05380
 Alpha virt. eigenvalues --    0.06024   0.06296   0.06587   0.07060   0.07260
 Alpha virt. eigenvalues --    0.07902   0.08112   0.08361   0.08617   0.08916
 Alpha virt. eigenvalues --    0.09506   0.09586   0.10003   0.10851   0.11016
 Alpha virt. eigenvalues --    0.11119   0.12133   0.12256   0.12768   0.13033
 Alpha virt. eigenvalues --    0.13457   0.13522   0.14002   0.14338   0.15985
 Alpha virt. eigenvalues --    0.16325   0.16483   0.17334   0.17529   0.17788
 Alpha virt. eigenvalues --    0.18131   0.19044   0.19335   0.19656   0.19863
 Alpha virt. eigenvalues --    0.21519   0.21656   0.22703   0.23140   0.23573
 Alpha virt. eigenvalues --    0.23869   0.24526   0.25328   0.26937   0.27621
 Alpha virt. eigenvalues --    0.28873   0.29280   0.29928   0.31370   0.35824
 Alpha virt. eigenvalues --    0.36478   0.38201   0.39284   0.41099   0.41326
 Alpha virt. eigenvalues --    0.41994   0.42121   0.42982   0.43725   0.44362
 Alpha virt. eigenvalues --    0.44809   0.45128   0.45938   0.46356   0.47879
 Alpha virt. eigenvalues --    0.48448   0.48835   0.49022   0.50499   0.51194
 Alpha virt. eigenvalues --    0.51357   0.52017   0.52132   0.52836   0.54096
 Alpha virt. eigenvalues --    0.54108   0.54642   0.55645   0.55894   0.57453
 Alpha virt. eigenvalues --    0.58230   0.58916   0.61493   0.62209   0.62410
 Alpha virt. eigenvalues --    0.63187   0.63485   0.64998   0.65168   0.67464
 Alpha virt. eigenvalues --    0.70342   0.70481   0.71176   0.72493   0.72910
 Alpha virt. eigenvalues --    0.75619   0.76064   0.76399   0.76789   0.77125
 Alpha virt. eigenvalues --    0.77875   0.77995   0.78295   0.79891   0.80403
 Alpha virt. eigenvalues --    0.81263   0.81547   0.82333   0.83006   0.85251
 Alpha virt. eigenvalues --    0.87100   0.88213   0.88314   0.89246   0.90577
 Alpha virt. eigenvalues --    0.91112   0.91372   0.93269   0.94622   0.96325
 Alpha virt. eigenvalues --    0.96851   1.00248   1.01290   1.01566   1.02807
 Alpha virt. eigenvalues --    1.03190   1.03253   1.04835   1.06155   1.08871
 Alpha virt. eigenvalues --    1.19593   1.23043   1.24156   1.24612   1.28752
 Alpha virt. eigenvalues --    1.29372   1.32149   1.34240   1.35782   1.35984
 Alpha virt. eigenvalues --    1.39369   1.39826   1.40890   1.42921   1.43465
 Alpha virt. eigenvalues --    1.43557   1.44355   1.46382   1.46609   1.46631
 Alpha virt. eigenvalues --    1.47684   1.48169   1.51818   1.53666   1.55772
 Alpha virt. eigenvalues --    1.55937   1.56312   1.56576   1.57838   1.61509
 Alpha virt. eigenvalues --    1.63067   1.63318   1.64093   1.66124   1.68313
 Alpha virt. eigenvalues --    1.68400   1.68686   1.69786   1.74453   1.76033
 Alpha virt. eigenvalues --    1.77220   1.78075   1.79995   1.80075   1.80854
 Alpha virt. eigenvalues --    1.82938   1.83191   1.83659   1.83857   1.84153
 Alpha virt. eigenvalues --    1.84491   1.85535   1.86366   1.88337   1.91430
 Alpha virt. eigenvalues --    1.92159   1.94106   1.95331   1.97773   1.98181
 Alpha virt. eigenvalues --    1.99819   2.02586   2.04552   2.07299   2.11769
 Alpha virt. eigenvalues --    2.12172   2.14223   2.15251   2.19145   2.21312
 Alpha virt. eigenvalues --    2.22760   2.28458   2.30402   2.34593   2.34874
 Alpha virt. eigenvalues --    2.36322   2.38617   2.39661   2.42370   2.44372
 Alpha virt. eigenvalues --    2.46156   2.46716   2.49284   2.52976   2.53809
 Alpha virt. eigenvalues --    2.54389   2.56745   2.57905   2.58385   2.59493
 Alpha virt. eigenvalues --    2.59918   2.61581   2.62166   2.63585   2.63790
 Alpha virt. eigenvalues --    2.64830   2.65094   2.65114   2.65562   2.68064
 Alpha virt. eigenvalues --    2.68524   2.70958   2.71457   2.73374   2.74825
 Alpha virt. eigenvalues --    2.76288   2.78691   2.79700   2.83168   2.83186
 Alpha virt. eigenvalues --    2.84900   2.86339   2.92145   2.97053   2.99468
 Alpha virt. eigenvalues --    3.00155   3.05264   3.10049   3.11391   3.13977
 Alpha virt. eigenvalues --    3.20880   3.22926   3.26546   3.28828   3.30612
 Alpha virt. eigenvalues --    3.32839   3.34449   3.43761   3.46152   3.46902
 Alpha virt. eigenvalues --    3.48516   3.50193   3.56557   3.65284   3.67099
 Alpha virt. eigenvalues --    3.67800   3.93836   3.94143   3.95361   3.96431
 Alpha virt. eigenvalues --    4.03970   4.06657   4.07712   4.12528   4.35539
 Alpha virt. eigenvalues --    4.61408   4.69471   4.71371  23.45254  23.60296
 Alpha virt. eigenvalues --   23.80865  23.83428  23.86032  23.89342  23.91553
 Alpha virt. eigenvalues --   23.95051  23.95932  23.97734  24.02623  24.04742
 Alpha virt. eigenvalues --   24.11115  24.12320
          Condensed to atoms (all electrons):
               1          2          3          4          5          6
     1  C    8.828603   0.126052  -0.435148   2.148403  -0.055108  -0.103992
     2  C    0.126052   7.126367   0.280485  -1.138603   0.000419  -0.013740
     3  C   -0.435148   0.280485   6.587545   0.801692  -0.133939   0.016895
     4  C    2.148403  -1.138603   0.801692  10.618586  -0.335886  -0.112107
     5  C   -0.055108   0.000419  -0.133939  -0.335886  11.277529   0.711668
     6  C   -0.103992  -0.013740   0.016895  -0.112107   0.711668   6.603432
     7  C   -0.009141   0.002046  -0.015579  -0.042574  -0.966021   0.424360
     8  C    0.408928  -0.035332  -0.085685   0.009253   1.703684  -0.647854
     9  C   -1.194194  -0.762460   0.287759  -0.420173  -0.044273   0.289555
    10  C   -1.345054   0.323056  -0.428152  -2.402702  -2.731760  -0.282361
    11  C    0.273150  -1.006326   1.110065  -0.280674  -1.573829  -0.221909
    12  C   -2.333543   1.626596  -1.463328  -1.541197  -0.437967  -0.132674
    13  C    0.220343  -0.286868  -0.125152  -1.431062  -0.262010   0.916445
    14  C   -1.033093  -0.107873  -0.270912  -0.225804  -1.530011  -1.328556
    15  H    0.367623  -0.105663   0.000289   0.028878   0.005040   0.000990
    16  H   -0.017551   0.373883  -0.012023   0.010671  -0.001395  -0.000302
    17  H   -0.029561  -0.009956   0.368931  -0.065755   0.000467   0.000383
    18  H    0.052211   0.002368  -0.084604   0.451754   0.006899  -0.005154
    19  H   -0.048641  -0.007258   0.051121  -0.063442  -0.079442   0.050741
    20  H    0.007357   0.002021  -0.004928   0.007046   0.461494  -0.084320
    21  H   -0.001398  -0.000376   0.000406   0.000141  -0.068505   0.379712
    22  H    0.000973   0.000392  -0.000352  -0.001670   0.016717  -0.020284
    23  H    0.005176  -0.002907   0.001216   0.006498   0.024691  -0.003332
    24  H    0.027653   0.013034  -0.001700  -0.013135  -0.011537  -0.001279
    25  H    0.027653   0.013034  -0.001700  -0.013135  -0.011537  -0.001279
               7          8          9         10         11         12
     1  C   -0.009141   0.408928  -1.194194  -1.345054   0.273150  -2.333543
     2  C    0.002046  -0.035332  -0.762460   0.323056  -1.006326   1.626596
     3  C   -0.015579  -0.085685   0.287759  -0.428152   1.110065  -1.463328
     4  C   -0.042574   0.009253  -0.420173  -2.402702  -0.280674  -1.541197
     5  C   -0.966021   1.703684  -0.044273  -2.731760  -1.573829  -0.437967
     6  C    0.424360  -0.647854   0.289555  -0.282361  -0.221909  -0.132674
     7  C    7.129478   0.550904  -0.832136   0.162269  -0.214422  -0.286314
     8  C    0.550904   8.368131  -1.223335  -1.177352   0.167902  -1.133586
     9  C   -0.832136  -1.223335   9.662909   0.247531   1.603765  -1.814161
    10  C    0.162269  -1.177352   0.247531   9.202738  -0.572722   2.471763
    11  C   -0.214422   0.167902   1.603765  -0.572722  14.494093  -3.483312
    12  C   -0.286314  -1.133586  -1.814161   2.471763  -3.483312  15.943414
    13  C   -0.837407   0.291897   1.736038  -0.418949   1.072882  -4.866154
    14  C    1.055298  -1.687962  -2.129318   2.393454  -4.782795   3.017231
    15  H   -0.002436   0.006698   0.095435  -0.011067  -0.032760  -0.034398
    16  H    0.000322   0.000427   0.004667  -0.008611   0.028162  -0.035276
    17  H   -0.000415  -0.001256  -0.006557   0.020825  -0.028617   0.096140
    18  H    0.001976   0.007179  -0.026379   0.016879  -0.005420  -0.061136
    19  H   -0.008033  -0.044058   0.075702   0.422462   0.081851  -0.048365
    20  H    0.003412   0.046570  -0.023512   0.011150  -0.012129  -0.018871
    21  H   -0.021861  -0.019047  -0.005078   0.020156  -0.006338   0.005172
    22  H    0.381262  -0.020115   0.002960  -0.010556   0.003397  -0.010216
    23  H   -0.103645   0.365141   0.088391  -0.008054  -0.002586   0.007484
    24  H    0.015546   0.036311   0.357579   0.005616   0.003554  -0.060188
    25  H    0.015546   0.036311   0.357579   0.005616   0.003554  -0.060188
              13         14         15         16         17         18
     1  C    0.220343  -1.033093   0.367623  -0.017551  -0.029561   0.052211
     2  C   -0.286868  -0.107873  -0.105663   0.373883  -0.009956   0.002368
     3  C   -0.125152  -0.270912   0.000289  -0.012023   0.368931  -0.084604
     4  C   -1.431062  -0.225804   0.028878   0.010671  -0.065755   0.451754
     5  C   -0.262010  -1.530011   0.005040  -0.001395   0.000467   0.006899
     6  C    0.916445  -1.328556   0.000990  -0.000302   0.000383  -0.005154
     7  C   -0.837407   1.055298  -0.002436   0.000322  -0.000415   0.001976
     8  C    0.291897  -1.687962   0.006698   0.000427  -0.001256   0.007179
     9  C    1.736038  -2.129318   0.095435   0.004667  -0.006557  -0.026379
    10  C   -0.418949   2.393454  -0.011067  -0.008611   0.020825   0.016879
    11  C    1.072882  -4.782795  -0.032760   0.028162  -0.028617  -0.005420
    12  C   -4.866154   3.017231  -0.034398  -0.035276   0.096140  -0.061136
    13  C   14.650195  -4.080447   0.006174   0.002682  -0.006346  -0.011976
    14  C   -4.080447  16.226896   0.005387  -0.007957   0.005373  -0.008025
    15  H    0.006174   0.005387   0.443208  -0.008896   0.001269   0.000103
    16  H    0.002682  -0.007957  -0.008896   0.421738  -0.006107   0.001879
    17  H   -0.006346   0.005373   0.001269  -0.006107   0.424468  -0.010329
    18  H   -0.011976  -0.008025   0.000103   0.001879  -0.010329   0.457735
    19  H    0.076358  -0.083249   0.000220  -0.000480   0.001160  -0.006635
    20  H   -0.010728  -0.046007  -0.000102   0.000011  -0.000122   0.001278
    21  H   -0.026344   0.085697   0.000010  -0.000007   0.000010  -0.000162
    22  H    0.027160  -0.032479  -0.000130   0.000007  -0.000007   0.000018
    23  H   -0.029066  -0.014558   0.000591  -0.000123   0.000016  -0.000122
    24  H    0.022994  -0.059263  -0.000870   0.000631  -0.000148   0.000211
    25  H    0.022994  -0.059263  -0.000870   0.000631  -0.000148   0.000211
              19         20         21         22         23         24
     1  C   -0.048641   0.007357  -0.001398   0.000973   0.005176   0.027653
     2  C   -0.007258   0.002021  -0.000376   0.000392  -0.002907   0.013034
     3  C    0.051121  -0.004928   0.000406  -0.000352   0.001216  -0.001700
     4  C   -0.063442   0.007046   0.000141  -0.001670   0.006498  -0.013135
     5  C   -0.079442   0.461494  -0.068505   0.016717   0.024691  -0.011537
     6  C    0.050741  -0.084320   0.379712  -0.020284  -0.003332  -0.001279
     7  C   -0.008033   0.003412  -0.021861   0.381262  -0.103645   0.015546
     8  C   -0.044058   0.046570  -0.019047  -0.020115   0.365141   0.036311
     9  C    0.075702  -0.023512  -0.005078   0.002960   0.088391   0.357579
    10  C    0.422462   0.011150   0.020156  -0.010556  -0.008054   0.005616
    11  C    0.081851  -0.012129  -0.006338   0.003397  -0.002586   0.003554
    12  C   -0.048365  -0.018871   0.005172  -0.010216   0.007484  -0.060188
    13  C    0.076358  -0.010728  -0.026344   0.027160  -0.029066   0.022994
    14  C   -0.083249  -0.046007   0.085697  -0.032479  -0.014558  -0.059263
    15  H    0.000220  -0.000102   0.000010  -0.000130   0.000591  -0.000870
    16  H   -0.000480   0.000011  -0.000007   0.000007  -0.000123   0.000631
    17  H    0.001160  -0.000122   0.000010  -0.000007   0.000016  -0.000148
    18  H   -0.006635   0.001278  -0.000162   0.000018  -0.000122   0.000211
    19  H    0.443323  -0.005749   0.001660  -0.000587   0.000385   0.000616
    20  H   -0.005749   0.448782  -0.010007   0.001952   0.000251   0.000142
    21  H    0.001660  -0.010007   0.420159  -0.007016   0.001627  -0.000134
    22  H   -0.000587   0.001952  -0.007016   0.416427  -0.008862   0.000624
    23  H    0.000385   0.000251   0.001627  -0.008862   0.434514  -0.000913
    24  H    0.000616   0.000142  -0.000134   0.000624  -0.000913   0.494277
    25  H    0.000616   0.000142  -0.000134   0.000624  -0.000913  -0.080288
              25
     1  C    0.027653
     2  C    0.013034
     3  C   -0.001700
     4  C   -0.013135
     5  C   -0.011537
     6  C   -0.001279
     7  C    0.015546
     8  C    0.036311
     9  C    0.357579
    10  C    0.005616
    11  C    0.003554
    12  C   -0.060188
    13  C    0.022994
    14  C   -0.059263
    15  H   -0.000870
    16  H    0.000631
    17  H   -0.000148
    18  H    0.000211
    19  H    0.000616
    20  H    0.000142
    21  H   -0.000134
    22  H    0.000624
    23  H   -0.000913
    24  H   -0.080288
    25  H    0.494277
 Mulliken charges:
               1
     1  C    0.112302
     2  C   -0.412388
     3  C   -0.443202
     4  C    0.004998
     5  C    0.034612
     6  C   -0.435037
     7  C   -0.402434
     8  C    0.076245
     9  C   -0.328295
    10  C    0.093826
    11  C   -0.618537
    12  C    0.653072
    13  C   -0.653653
    14  C    0.698237
    15  H    0.235274
    16  H    0.253015
    17  H    0.246282
    18  H    0.219239
    19  H    0.189727
    20  H    0.224866
    21  H    0.251656
    22  H    0.259760
    23  H    0.239103
    24  H    0.250666
    25  H    0.250666
 Sum of Mulliken charges =   1.00000
 Mulliken charges with hydrogens summed into heavy atoms:
               1
     1  C    0.347576
     2  C   -0.159373
     3  C   -0.196920
     4  C    0.224237
     5  C    0.259478
     6  C   -0.183380
     7  C   -0.142674
     8  C    0.315348
     9  C    0.173038
    10  C    0.283553
    11  C   -0.618537
    12  C    0.653072
    13  C   -0.653653
    14  C    0.698237
 Electronic spatial extent (au):  <R**2>=           2854.7437
 Charge=              1.0000 electrons
 Dipole moment (field-independent basis, Debye):
    X=              0.2383    Y=             -0.8218    Z=              0.0000  Tot=              0.8556
 Quadrupole moment (field-independent basis, Debye-Ang):
   XX=            -51.0801   YY=            -36.2598   ZZ=            -84.1347
   XY=            -10.1946   XZ=              0.0000   YZ=              0.0000
 Traceless Quadrupole moment (field-independent basis, Debye-Ang):
   XX=              6.0781   YY=             20.8984   ZZ=            -26.9765
   XY=            -10.1946   XZ=              0.0000   YZ=              0.0000
 Octapole moment (field-independent basis, Debye-Ang**2):
  XXX=              2.6685  YYY=             -1.9988  ZZZ=              0.0000  XYY=              2.4239
  XXY=             -7.5004  XXZ=              0.0000  XZZ=              3.2839  YZZ=              0.3634
  YYZ=              0.0000  XYZ=              0.0000
 Hexadecapole moment (field-independent basis, Debye-Ang**3):
 XXXX=           -985.8991 YYYY=          -1849.6200 ZZZZ=            -99.3088 XXXY=            347.3360
 XXXZ=              0.0000 YYYX=            273.4996 YYYZ=              0.0000 ZZZX=              0.0000
 ZZZY=              0.0000 XXYY=           -454.7641 XXZZ=           -240.9082 YYZZ=           -495.1801
 XXYZ=              0.0000 YYXZ=              0.0000 ZZXY=            182.4606
 N-N= 7.814211398140D+02 E-N=-2.799200274870D+03  KE= 5.375319827005D+02
 Symmetry A'   KE= 5.228807246772D+02
 Symmetry A"   KE= 1.465125802330D+01
 Unable to Open any file for archive entry.
 1\1\GINC-GADI-CPU-CLX-0648\SP\RM062X TD-FC\6-311++G(d,p)\C14H11(1+)\TS
 1578\27-Jul-2022\0\\#n M062X/6-311++G(d,p) TD(NStates=1) EmpiricalDisp
 ersion=GD3 SP\\SP_25\\1,1\C,0,2.51135,1.3688,0.\C,0,3.725225,0.691625,
 0.\C,0,3.6902,-0.6855,0.\C,0,2.4397,-1.38505,0.\C,0,-2.4865,-1.41235,0
 .\C,0,-3.6764,-0.7227,0.\C,0,-3.675875,0.670475,0.\C,0,-2.47025,1.3706
 ,0.\C,0,0.013175,1.4577,0.\C,0,-0.0366,-1.4203,0.\C,0,1.256475,0.67417
 5,0.\C,0,1.2229,-0.7206,0.\C,0,-1.267425,0.697125,0.\C,0,-1.2529,-0.72
 42,0.\H,0,2.4922,2.452275,0.\H,0,4.660625,1.229775,0.\H,0,4.60465,-1.2
 63125,0.\H,0,2.45685,-2.467975,0.\H,0,-0.03375,-2.5015,0.\H,0,-2.47875
 ,-2.494525,0.\H,0,-4.61335,-1.261775,0.\H,0,-4.610675,1.212525,0.\H,0,
 -2.4796,2.453625,0.\H,0,0.048,2.1535,-0.8585\H,0,0.048,2.1535,0.8585\\
 Version=ES64L-G16RevC.01\State=1-A'\HF=-539.7562218\RMSD=8.868e-09\PG=
 CS [SG(C14H9),X(H2)]\\@
 The archive entry for this job was punched.


 SCIENCE AND PEACE WILL TRIUMPH OVER IGNORANCE AND WAR

                          -- PASTEUR
 Job cpu time:       0 days  0 hours 44 minutes 51.4 seconds.
 Elapsed time:       0 days  0 hours  1 minutes 25.1 seconds.
 File lengths (MBytes):  RWF=    460 Int=      0 D2E=      0 Chk=     15 Scr=      1
 Normal termination of Gaussian 16 at Wed Jul 27 11:26:55 2022.
