 Entering Gaussian System, Link 0=g16
 Initial command:
 /apps/gaussian/g16c01/g16/l1.exe "/jobfs/52804872.gadi-pbs/Gau-1422390.inp" -scrdir="/jobfs/52804872.gadi-pbs/"
 Entering Link 1 = /apps/gaussian/g16c01/g16/l1.exe PID=   1422391.
  
 Copyright (c) 1988-2019, Gaussian, Inc.  All Rights Reserved.
  
 This is part of the Gaussian(R) 16 program.  It is based on
 the Gaussian(R) 09 system (copyright 2009, Gaussian, Inc.),
 the Gaussian(R) 03 system (copyright 2003, Gaussian, Inc.),
 the Gaussian(R) 98 system (copyright 1998, Gaussian, Inc.),
 the Gaussian(R) 94 system (copyright 1995, Gaussian, Inc.),
 the Gaussian 92(TM) system (copyright 1992, Gaussian, Inc.),
 the Gaussian 90(TM) system (copyright 1990, Gaussian, Inc.),
 the Gaussian 88(TM) system (copyright 1988, Gaussian, Inc.),
 the Gaussian 86(TM) system (copyright 1986, Carnegie Mellon
 University), and the Gaussian 82(TM) system (copyright 1983,
 Carnegie Mellon University). Gaussian is a federally registered
 trademark of Gaussian, Inc.
  
 This software contains proprietary and confidential information,
 including trade secrets, belonging to Gaussian, Inc.
  
 This software is provided under written license and may be
 used, copied, transmitted, or stored only in accord with that
 written license.
  
 The following legend is applicable only to US Government
 contracts under FAR:
  
                    RESTRICTED RIGHTS LEGEND
  
 Use, reproduction and disclosure by the US Government is
 subject to restrictions as set forth in subparagraphs (a)
 and (c) of the Commercial Computer Software - Restricted
 Rights clause in FAR 52.227-19.
  
 Gaussian, Inc.
 340 Quinnipiac St., Bldg. 40, Wallingford CT 06492
  
  
 ---------------------------------------------------------------
 Warning -- This program may not be used in any manner that
 competes with the business of Gaussian, Inc. or will provide
 assistance to any competitor of Gaussian, Inc.  The licensee
 of this program is prohibited from giving any competitor of
 Gaussian, Inc. access to this program.  By using this program,
 the user acknowledges that Gaussian, Inc. is engaged in the
 business of creating and licensing software in the field of
 computational chemistry and represents and warrants to the
 licensee that it is not a competitor of Gaussian, Inc. and that
 it will not use this program in any manner prohibited above.
 ---------------------------------------------------------------
  

 Cite this work as:
 Gaussian 16, Revision C.01,
 M. J. Frisch, G. W. Trucks, H. B. Schlegel, G. E. Scuseria, 
 M. A. Robb, J. R. Cheeseman, G. Scalmani, V. Barone, 
 G. A. Petersson, H. Nakatsuji, X. Li, M. Caricato, A. V. Marenich, 
 J. Bloino, B. G. Janesko, R. Gomperts, B. Mennucci, H. P. Hratchian, 
 J. V. Ortiz, A. F. Izmaylov, J. L. Sonnenberg, D. Williams-Young, 
 F. Ding, F. Lipparini, F. Egidi, J. Goings, B. Peng, A. Petrone, 
 T. Henderson, D. Ranasinghe, V. G. Zakrzewski, J. Gao, N. Rega, 
 G. Zheng, W. Liang, M. Hada, M. Ehara, K. Toyota, R. Fukuda, 
 J. Hasegawa, M. Ishida, T. Nakajima, Y. Honda, O. Kitao, H. Nakai, 
 T. Vreven, K. Throssell, J. A. Montgomery, Jr., J. E. Peralta, 
 F. Ogliaro, M. J. Bearpark, J. J. Heyd, E. N. Brothers, K. N. Kudin, 
 V. N. Staroverov, T. A. Keith, R. Kobayashi, J. Normand, 
 K. Raghavachari, A. P. Rendell, J. C. Burant, S. S. Iyengar, 
 J. Tomasi, M. Cossi, J. M. Millam, M. Klene, C. Adamo, R. Cammi, 
 J. W. Ochterski, R. L. Martin, K. Morokuma, O. Farkas, 
 J. B. Foresman, and D. J. Fox, Gaussian, Inc., Wallingford CT, 2019.
 
 ******************************************
 Gaussian 16:  ES64L-G16RevC.01  3-Jul-2019
                27-Jul-2022 
 ******************************************
 %NProcShared=32
 Will use up to   32 processors via shared memory.
 %mem = 128GB
 ---------------------------------------------------------------
 #n M062X/6-311++G(d,p) TD(NStates=1) EmpiricalDispersion=GD3 SP
 ---------------------------------------------------------------
 1/38=1,172=1/1;
 2/12=2,17=6,18=5,40=1/2;
 3/5=4,6=6,7=1111,11=9,25=1,30=1,74=-55,124=31/1,2,3,8;
 4//1;
 5/5=2,38=5/2;
 8/6=1,10=2,108=1/1;
 9/41=1,42=1,70=2/14;
 6/7=2,8=2,9=2,10=2/1;
 99/5=1,9=1/99;
 ------
 SP_-50
 ------
 Symbolic Z-matrix:
 Charge =  1 Multiplicity = 1
 C                     2.47015   1.3697    0. 
 C                     3.67343   0.6681    0. 
 C                     3.6763   -0.72755   0. 
 C                     2.49058  -1.41498   0. 
 C                    -2.43598  -1.38313   0. 
 C                    -3.6924   -0.68415   0. 
 C                    -3.731     0.69278   0. 
 C                    -2.5181    1.3676    0. 
 C                    -0.01535   1.4654    0. 
 C                     0.0427   -1.42065   0. 
 C                     1.2686    0.69913   0. 
 C                     1.2547   -0.72398   0. 
 C                    -1.25583   0.67235   0. 
 C                    -1.2197   -0.71978   0. 
 H                     2.4824    2.4526    0. 
 H                     4.60853   1.20978   0. 
 H                     4.6146   -1.26385   0. 
 H                     2.48005  -2.497     0. 
 H                     0.03938  -2.50168   0. 
 H                    -2.4545   -2.46603   0. 
 H                    -4.60445  -1.26543   0. 
 H                    -4.6668    1.2299    0. 
 H                    -2.4971    2.45103   0. 
 H                    -0.056     2.15525  -0.86043 
 H                    -0.056     2.15525   0.86043 
 
                          Input orientation:                          
 ---------------------------------------------------------------------
 Center     Atomic      Atomic             Coordinates (Angstroms)
 Number     Number       Type             X           Y           Z
 ---------------------------------------------------------------------
      1          6           0        2.470150    1.369700    0.000000
      2          6           0        3.673425    0.668100    0.000000
      3          6           0        3.676300   -0.727550    0.000000
      4          6           0        2.490575   -1.414975    0.000000
      5          6           0       -2.435975   -1.383125    0.000000
      6          6           0       -3.692400   -0.684150    0.000000
      7          6           0       -3.731000    0.692775    0.000000
      8          6           0       -2.518100    1.367600    0.000000
      9          6           0       -0.015350    1.465400    0.000000
     10          6           0        0.042700   -1.420650    0.000000
     11          6           0        1.268600    0.699125    0.000000
     12          6           0        1.254700   -0.723975    0.000000
     13          6           0       -1.255825    0.672350    0.000000
     14          6           0       -1.219700   -0.719775    0.000000
     15          1           0        2.482400    2.452600    0.000000
     16          1           0        4.608525    1.209775    0.000000
     17          1           0        4.614600   -1.263850    0.000000
     18          1           0        2.480050   -2.497000    0.000000
     19          1           0        0.039375   -2.501675    0.000000
     20          1           0       -2.454500   -2.466025    0.000000
     21          1           0       -4.604450   -1.265425    0.000000
     22          1           0       -4.666800    1.229900    0.000000
     23          1           0       -2.497100    2.451025    0.000000
     24          1           0       -0.056000    2.155250   -0.860425
     25          1           0       -0.056000    2.155250    0.860425
 ---------------------------------------------------------------------
                    Distance matrix (angstroms):
                    1          2          3          4          5
     1  C    0.000000
     2  C    1.392879   0.000000
     3  C    2.419350   1.395653   0.000000
     4  C    2.784750   2.395482   1.370583   0.000000
     5  C    5.625665   6.444555   6.147331   4.926653   0.000000
     6  C    6.495793   7.488922   7.368828   6.226017   1.437766
     7  C    6.237988   7.404466   7.542242   6.568912   2.446722
     8  C    4.988250   6.230913   6.539132   5.729708   2.751951
     9  C    2.487342   3.773957   4.293869   3.817882   3.738117
    10  C    3.698455   4.188680   3.699113   2.447882   2.478959
    11  C    1.376006   2.405025   2.798646   2.441852   4.249664
    12  C    2.420908   2.790717   2.421603   1.415934   3.749075
    13  C    3.790671   4.929252   5.126946   4.288641   2.370175
    14  C    4.240389   5.086145   4.896006   3.774844   1.385409
    15  H    1.082969   2.145456   3.396874   3.867584   6.237243
    16  H    2.144347   1.080659   2.149947   3.372688   7.506538
    17  H    3.396211   2.149009   1.080752   2.129395   7.051584
    18  H    3.866713   3.382603   2.135876   1.082076   5.040637
    19  H    4.571237   4.822219   4.046572   2.681287   2.716342
    20  H    6.242192   6.882892   6.372519   5.055539   1.083058
    21  H    7.549427   8.500690   8.298200   7.096601   2.171667
    22  H    7.138319   8.359125   8.569652   7.630425   3.435765
    23  H    5.083585   6.422943   6.943645   6.310535   3.834637
    24  H    2.781880   4.106161   4.793843   4.468991   4.350254
    25  H    2.781880   4.106161   4.793843   4.468991   4.350254
                    6          7          8          9         10
     6  C    0.000000
     7  C    1.377466   0.000000
     8  C    2.364034   1.387990   0.000000
     9  C    4.259256   3.795129   2.504660   0.000000
    10  C    3.807020   4.325203   3.785767   2.886634   0.000000
    11  C    5.150240   4.999604   3.845251   1.495227   2.448730
    12  C    4.947260   5.183086   4.313781   2.531085   1.397963
    13  C    2.788726   2.475259   1.441080   1.472313   2.463091
    14  C    2.472957   2.881306   2.458247   2.495085   1.443911
    15  H    6.925847   6.457811   5.116857   2.685762   4.577576
    16  H    8.514241   8.355535   7.128372   4.630936   5.269335
    17  H    8.327202   8.571897   7.602627   5.374499   4.574588
    18  H    6.433161   6.982249   6.317961   4.682695   2.664433
    19  H    4.150848   4.941684   4.638100   3.967452   1.081030
    20  H    2.169672   3.406974   3.834153   4.626614   2.707179
    21  H    1.081534   2.144169   3.359416   5.340154   4.649742
    22  H    2.147800   1.078993   2.153108   4.657408   5.404147
    23  H    3.355304   2.148011   1.083629   2.670307   4.630383
    24  H    4.693179   4.047813   2.724456   1.103574   3.679284
    25  H    4.693179   4.047813   2.724456   1.103574   3.679284
                   11         12         13         14         15
    11  C    0.000000
    12  C    1.423168   0.000000
    13  C    2.524567   2.872709   0.000000
    14  C    2.864422   2.474404   1.392594   0.000000
    15  H    2.132601   3.405565   4.140485   4.875398   0.000000
    16  H    3.378737   3.871373   5.888924   6.139330   2.462726
    17  H    3.879302   3.402998   6.181485   5.859614   4.284656
    18  H    3.418015   2.155249   4.899137   4.104471   4.949601
    19  H    3.428719   2.153423   3.428116   2.181843   5.523877
    20  H    4.886681   4.097914   3.359497   2.138719   6.968921
    21  H    6.192913   5.884115   3.868884   3.428450   8.002947
    22  H    5.959085   6.235526   3.456243   3.960269   7.253003
    23  H    4.153270   4.914939   2.168974   3.418439   4.979500
    24  H    2.148301   3.278445   2.092583   3.218742   2.696706
    25  H    2.148301   3.278445   2.092583   3.218742   2.696706
                   16         17         18         19         20
    16  H    0.000000
    17  H    2.473632   0.000000
    18  H    4.274411   2.465150   0.000000
    19  H    5.886594   4.739715   2.440679   0.000000
    20  H    7.962275   7.170593   4.934647   2.494130   0.000000
    21  H    9.539682   9.219050   7.190752   4.805562   2.462463
    22  H    9.275347   9.610576   8.060226   6.006058   4.307451
    23  H    7.213225   8.023501   7.018189   5.564436   4.917235
    24  H    4.836533   5.851930   5.367989   4.736705   5.277245
    25  H    4.836533   5.851930   5.367989   4.736705   5.277245
                   21         22         23         24         25
    21  H    0.000000
    22  H    2.496104   0.000000
    23  H    4.272344   2.489728   0.000000
    24  H    5.755845   4.780803   2.605146   0.000000
    25  H    5.755845   4.780803   2.605146   1.720850   0.000000
 Stoichiometry    C14H11(1+)
 Framework group  CS[SG(C14H9),X(H2)]
 Deg. of freedom    46
 Full point group                 CS      NOp   2
 Largest Abelian subgroup         CS      NOp   2
 Largest concise Abelian subgroup CS      NOp   2
                         Standard orientation:                         
 ---------------------------------------------------------------------
 Center     Atomic      Atomic             Coordinates (Angstroms)
 Number     Number       Type             X           Y           Z
 ---------------------------------------------------------------------
      1          6           0       -2.358095   -1.548090    0.000000
      2          6           0       -2.300299   -2.939770    0.000000
      3          6           0       -1.067843   -3.594673    0.000000
      4          6           0        0.094101   -2.867774    0.000000
      5          6           0        2.368739    1.502344    0.000000
      6          6           0        2.338107    2.939783    0.000000
      7          6           0        1.138903    3.617517    0.000000
      8          6           0       -0.024604    2.860704    0.000000
      9          6           0       -1.280911    0.693906    0.000000
     10          6           0        1.243317   -0.706425    0.000000
     11          6           0       -1.203650   -0.799324    0.000000
     12          6           0        0.060914   -1.452229    0.000000
     13          6           0        0.000000    1.419834    0.000000
     14          6           0        1.213798    0.737184    0.000000
     15          1           0       -3.321140   -1.052744    0.000000
     16          1           0       -3.216247   -3.513236    0.000000
     17          1           0       -1.032322   -4.674841    0.000000
     18          1           0        1.055566   -3.364235    0.000000
     19          1           0        2.200532   -1.208784    0.000000
     20          1           0        3.334717    1.012546    0.000000
     21          1           0        3.278288    3.474363    0.000000
     22          1           0        1.101484    4.695860    0.000000
     23          1           0       -0.992203    3.348560    0.000000
     24          1           0       -1.871760    1.052295    0.860425
     25          1           0       -1.871760    1.052295   -0.860425
 ---------------------------------------------------------------------
 Rotational constants (GHZ):           2.1354570           0.4443952           0.3686463
 Standard basis: 6-311++G(d,p) (5D, 7F)
 There are   299 symmetry adapted cartesian basis functions of A'  symmetry.
 There are   100 symmetry adapted cartesian basis functions of A"  symmetry.
 There are   285 symmetry adapted basis functions of A'  symmetry.
 There are   100 symmetry adapted basis functions of A"  symmetry.
   385 basis functions,   603 primitive gaussians,   399 cartesian basis functions
    47 alpha electrons       47 beta electrons
       nuclear repulsion energy       781.0849139689 Hartrees.
 NAtoms=   25 NActive=   25 NUniq=   24 SFac= 1.09D+00 NAtFMM=   60 NAOKFM=F Big=F
 Integral buffers will be    131072 words long.
 Regular integral format.
 Two-electron integral symmetry is turned on.
 Nuclear repulsion after empirical dispersion term =      781.0839347602 Hartrees.
 One-electron integrals computed using PRISM.
 NBasis=   385 RedAO= T EigKep=  1.13D-06  NBF=   285   100
 NBsUse=   379 1.00D-06 EigRej=  8.39D-07 NBFU=   279   100
 ExpMin= 3.60D-02 ExpMax= 4.56D+03 ExpMxC= 6.82D+02 IAcc=3 IRadAn=         5 AccDes= 0.00D+00
 Harris functional with IExCor= 1009 and IRadAn=       5 diagonalized for initial guess.
 HarFok:  IExCor= 1009 AccDes= 0.00D+00 IRadAn=         5 IDoV= 1 UseB2=F ITyADJ=14
 ICtDFT=  3500011 ScaDFX=  1.000000  1.000000  1.000000  1.000000
 FoFCou: FMM=F IPFlag=           0 FMFlag=      100000 FMFlg1=           0
         NFxFlg=           0 DoJE=T BraDBF=F KetDBF=T FulRan=T
         wScrn=  0.000000 ICntrl=       500 IOpCl=  0 I1Cent=   200000004 NGrid=           0
         NMat0=    1 NMatS0=      1 NMatT0=    0 NMatD0=    1 NMtDS0=    0 NMtDT0=    0
 Petite list used in FoFCou.
 Initial guess orbital symmetries:
       Occupied  (A') (A') (A') (A') (A') (A') (A') (A') (A') (A')
                 (A') (A') (A') (A') (A') (A') (A') (A') (A') (A')
                 (A') (A') (A') (A') (A') (A') (A') (A') (A') (A')
                 (A') (A') (A") (A') (A') (A') (A') (A') (A") (A')
                 (A") (A') (A') (A") (A") (A") (A")
       Virtual   (A") (A") (A") (A") (A") (A') (A') (A') (A') (A")
                 (A") (A') (A') (A') (A") (A') (A') (A') (A') (A")
                 (A') (A") (A') (A') (A') (A") (A') (A") (A') (A')
                 (A') (A') (A') (A') (A") (A') (A") (A') (A') (A')
                 (A") (A') (A') (A") (A') (A') (A') (A') (A") (A')
                 (A') (A') (A") (A") (A') (A') (A') (A") (A") (A')
                 (A') (A') (A') (A') (A') (A') (A") (A') (A') (A")
                 (A') (A') (A') (A') (A') (A') (A') (A') (A') (A')
                 (A') (A') (A') (A') (A') (A') (A') (A') (A') (A')
                 (A') (A') (A') (A') (A') (A') (A') (A") (A') (A")
                 (A') (A') (A") (A") (A') (A") (A') (A") (A") (A')
                 (A") (A') (A') (A') (A") (A') (A') (A") (A") (A')
                 (A") (A") (A') (A') (A') (A") (A') (A') (A') (A")
                 (A') (A') (A') (A') (A') (A') (A") (A') (A') (A')
                 (A') (A') (A') (A') (A') (A') (A') (A') (A') (A")
                 (A") (A') (A") (A") (A') (A') (A') (A") (A") (A')
                 (A") (A') (A") (A") (A") (A') (A') (A') (A') (A')
                 (A') (A") (A') (A') (A") (A') (A') (A') (A') (A")
                 (A') (A') (A') (A') (A") (A') (A") (A') (A") (A")
                 (A') (A") (A') (A") (A') (A') (A') (A") (A') (A')
                 (A") (A") (A") (A') (A') (A") (A') (A") (A') (A')
                 (A") (A") (A') (A") (A') (A") (A') (A') (A') (A")
                 (A') (A') (A') (A') (A") (A') (A') (A') (A") (A")
                 (A') (A') (A') (A") (A') (A') (A") (A') (A") (A')
                 (A") (A') (A') (A') (A') (A") (A') (A') (A') (A")
                 (A') (A') (A') (A") (A") (A') (A') (A") (A') (A')
                 (A') (A") (A') (A") (A') (A') (A') (A") (A') (A")
                 (A') (A') (A') (A') (A") (A') (A") (A') (A") (A')
                 (A") (A') (A") (A") (A") (A') (A') (A') (A') (A')
                 (A') (A') (A') (A') (A') (A') (A') (A') (A') (A')
                 (A') (A') (A') (A') (A') (A") (A') (A') (A') (A')
                 (A') (A') (A') (A') (A') (A') (A') (A') (A') (A')
                 (A') (A') (A') (A') (A') (A') (A') (A') (A') (A')
                 (A') (A')
 The electronic state of the initial guess is 1-A'.
 Requested convergence on RMS density matrix=1.00D-08 within 128 cycles.
 Requested convergence on MAX density matrix=1.00D-06.
 Requested convergence on             energy=1.00D-06.
 No special actions if energy rises.
 SCF Done:  E(RM062X) =  -539.754931558     A.U. after   15 cycles
            NFock= 15  Conv=0.97D-08     -V/T= 2.0042
 DoSCS=F DFT=T ScalE2(SS,OS)=  1.000000  1.000000
 ExpMin= 3.60D-02 ExpMax= 4.56D+03 ExpMxC= 6.82D+02 IAcc=3 IRadAn=         5 AccDes= 0.00D+00
 HarFok:  IExCor=  205 AccDes= 0.00D+00 IRadAn=         5 IDoV=-2 UseB2=F ITyADJ=14
 ICtDFT= 12500011 ScaDFX=  1.000000  1.000000  1.000000  1.000000
 Range of M.O.s used for correlation:    15   379
 NBasis=   385 NAE=    47 NBE=    47 NFC=    14 NFV=     0
 NROrb=    365 NOA=    33 NOB=    33 NVA=   332 NVB=   332

 **** Warning!!: The largest alpha MO coefficient is  0.13818308D+03

 Orbital symmetries:
       Occupied  (A') (A') (A') (A') (A') (A') (A') (A') (A') (A')
                 (A') (A') (A') (A') (A') (A') (A') (A') (A') (A')
                 (A') (A') (A') (A') (A') (A') (A') (A') (A') (A')
                 (A') (A") (A') (A') (A') (A') (A') (A") (A") (A')
                 (A') (A') (A') (A") (A") (A") (A")
       Virtual   (A") (A") (A") (A") (A') (A') (A') (A') (A") (A')
                 (A') (A") (A') (A') (A") (A') (A") (A') (A') (A')
                 (A") (A") (A') (A') (A') (A") (A') (A") (A') (A')
                 (A") (A') (A") (A') (A') (A') (A') (A') (A") (A')
                 (A") (A') (A') (A") (A") (A') (A") (A') (A") (A')
                 (A') (A') (A') (A') (A') (A") (A') (A') (A') (A')
                 (A') (A") (A') (A') (A') (A") (A') (A') (A') (A')
                 (A') (A') (A') (A') (A') (A') (A') (A') (A') (A')
                 (A') (A') (A') (A') (A') (A') (A') (A') (A') (A')
                 (A') (A') (A') (A') (A") (A') (A") (A") (A') (A")
                 (A') (A') (A') (A') (A") (A") (A') (A") (A") (A')
                 (A') (A') (A") (A') (A") (A') (A') (A") (A') (A")
                 (A") (A') (A") (A') (A') (A') (A") (A') (A') (A')
                 (A') (A') (A') (A') (A') (A') (A') (A') (A') (A')
                 (A') (A') (A') (A") (A') (A') (A') (A') (A') (A')
                 (A') (A') (A") (A') (A") (A') (A") (A") (A') (A")
                 (A") (A') (A') (A") (A") (A') (A") (A") (A') (A')
                 (A') (A') (A') (A") (A") (A') (A') (A') (A') (A")
                 (A') (A') (A') (A") (A") (A') (A') (A") (A") (A')
                 (A") (A') (A') (A") (A") (A') (A') (A') (A') (A')
                 (A") (A") (A") (A') (A") (A') (A') (A") (A') (A')
                 (A') (A") (A') (A") (A") (A') (A") (A') (A') (A")
                 (A') (A') (A') (A') (A") (A') (A') (A') (A") (A")
                 (A') (A') (A') (A") (A') (A') (A') (A") (A") (A')
                 (A") (A') (A') (A") (A') (A') (A') (A') (A') (A')
                 (A") (A') (A') (A') (A') (A") (A") (A") (A') (A')
                 (A') (A') (A') (A') (A') (A') (A') (A") (A') (A')
                 (A') (A") (A') (A") (A") (A") (A') (A") (A') (A")
                 (A') (A") (A") (A') (A") (A") (A') (A') (A') (A')
                 (A') (A') (A') (A') (A') (A') (A') (A') (A') (A')
                 (A') (A') (A') (A") (A') (A') (A') (A') (A') (A')
                 (A') (A') (A') (A') (A') (A') (A') (A') (A') (A')
                 (A') (A') (A') (A') (A') (A') (A') (A') (A') (A')
                 (A') (A')
     4 initial guesses have been made.
 Convergence on wavefunction:    0.001000000000000
 Iteration     1 Dimension     4 NMult     0 NNew      4
 CISAX will form     4 AO SS matrices at one time.
 Iteration     2 Dimension     6 NMult     4 NNew      2
 Iteration     3 Dimension     8 NMult     6 NNew      2
 Iteration     4 Dimension    10 NMult     8 NNew      2
 Iteration     5 Dimension    12 NMult    10 NNew      2
 Iteration     6 Dimension    14 NMult    12 NNew      2
 ***********************************************************************
 Excited states from <AA,BB:AA,BB> singles matrix:
 ***********************************************************************
 
 Ground to excited state transition densities written to RWF  633
 Ground to excited state transition electric dipole moments (Au):
       state          X           Y           Z        Dip. S.      Osc.
         1        -0.4677      0.3008      0.0000      0.3092      0.0203
 Ground to excited state transition velocity dipole moments (Au):
       state          X           Y           Z        Dip. S.      Osc.
         1         0.0540     -0.0297     -0.0000      0.0038      0.0256
 Ground to excited state transition magnetic dipole moments (Au):
       state          X           Y           Z
         1         0.0000     -0.0000     -0.1763
 Ground to excited state transition velocity quadrupole moments (Au):
       state          XX          YY          ZZ          XY          XZ          YZ
         1         0.1417      0.1297     -0.0084      0.1370      0.0000     -0.0000
 <0|del|b> * <b|rxdel|0> + <0|del|b> * <b|delr+rdel|0>
 Rotatory Strengths (R) in cgs (10**-40 erg-esu-cm/Gauss)
       state          XX          YY          ZZ    R(velocity)    E-M Angle
         1         0.0000      0.0000      0.0000      0.0000       90.00
 1/2[<0|r|b>*<b|rxdel|0> + (<0|rxdel|b>*<b|r|0>)*]
 Rotatory Strengths (R) in cgs (10**-40 erg-esu-cm/Gauss)
       state          XX          YY          ZZ     R(length)
         1         0.0000      0.0000      0.0000      0.0000
  1/2[<0|del|b>*<b|r|0> + (<0|r|b>*<b|del|0>)*] (Au)
       state          X           Y           Z        Dip. S.   Osc.(frdel)
         1        -0.0253     -0.0089     -0.0000      0.0342      0.0228

 Excitation energies and oscillator strengths:
 
 Excited State   1:      Singlet-A'     2.6860 eV  461.60 nm  f=0.0203  <S**2>=0.000
      47 -> 48         0.70355
 This state for optimization and/or second-order correction.
 Total Energy, E(TD-HF/TD-DFT) =  -539.656223860    
 Copying the excited state density for this state as the 1-particle RhoCI density.
 SavETr:  write IOETrn=   770 NScale= 10 NData=  16 NLR=1 NState=    1 LETran=      28.

 **********************************************************************

            Population analysis using the SCF Density.

 **********************************************************************

 Orbital symmetries:
       Occupied  (A') (A') (A') (A') (A') (A') (A') (A') (A') (A')
                 (A') (A') (A') (A') (A') (A') (A') (A') (A') (A')
                 (A') (A') (A') (A') (A') (A') (A') (A') (A') (A')
                 (A') (A") (A') (A') (A') (A') (A') (A") (A") (A')
                 (A') (A') (A') (A") (A") (A") (A")
       Virtual   (A") (A") (A") (A") (A') (A') (A') (A') (A") (A')
                 (A') (A") (A') (A') (A") (A') (A") (A') (A') (A')
                 (A") (A") (A') (A') (A') (A") (A') (A") (A') (A')
                 (A") (A') (A") (A') (A') (A') (A') (A') (A") (A')
                 (A") (A') (A') (A") (A") (A') (A") (A') (A") (A')
                 (A') (A') (A') (A') (A') (A") (A') (A') (A') (A')
                 (A') (A") (A') (A') (A') (A") (A') (A') (A') (A')
                 (A') (A') (A') (A') (A') (A') (A') (A') (A') (A')
                 (A') (A') (A') (A') (A') (A') (A') (A') (A') (A')
                 (A') (A') (A') (A') (A") (A') (A") (A") (A') (A")
                 (A') (A') (A') (A') (A") (A") (A') (A") (A") (A')
                 (A') (A') (A") (A') (A") (A') (A') (A") (A') (A")
                 (A") (A') (A") (A') (A') (A') (A") (A') (A') (A')
                 (A') (A') (A') (A') (A') (A') (A') (A') (A') (A')
                 (A') (A') (A') (A") (A') (A') (A') (A') (A') (A')
                 (A') (A') (A") (A') (A") (A') (A") (A") (A') (A")
                 (A") (A') (A') (A") (A") (A') (A") (A") (A') (A')
                 (A') (A') (A') (A") (A") (A') (A') (A') (A') (A")
                 (A') (A') (A') (A") (A") (A') (A') (A") (A") (A')
                 (A") (A') (A') (A") (A") (A') (A') (A') (A') (A')
                 (A") (A") (A") (A') (A") (A') (A') (A") (A') (A')
                 (A') (A") (A') (A") (A") (A') (A") (A') (A') (A")
                 (A') (A') (A') (A') (A") (A') (A') (A') (A") (A")
                 (A') (A') (A') (A") (A') (A') (A') (A") (A") (A')
                 (A") (A') (A') (A") (A') (A') (A') (A') (A') (A')
                 (A") (A') (A') (A') (A') (A") (A") (A") (A') (A')
                 (A') (A') (A') (A') (A') (A') (A') (A") (A') (A')
                 (A') (A") (A') (A") (A") (A") (A') (A") (A') (A")
                 (A') (A") (A") (A') (A") (A") (A') (A') (A') (A')
                 (A') (A') (A') (A') (A') (A') (A') (A') (A') (A')
                 (A') (A') (A') (A") (A') (A') (A') (A') (A') (A')
                 (A') (A') (A') (A') (A') (A') (A') (A') (A') (A')
                 (A') (A') (A') (A') (A') (A') (A') (A') (A') (A')
                 (A') (A')
 The electronic state is 1-A'.
 Alpha  occ. eigenvalues --  -10.77603 -10.73754 -10.72815 -10.72745 -10.72002
 Alpha  occ. eigenvalues --  -10.71931 -10.71825 -10.70994 -10.70871 -10.70202
 Alpha  occ. eigenvalues --  -10.70136 -10.69918 -10.69745 -10.69349  -1.16508
 Alpha  occ. eigenvalues --   -1.12460  -1.06939  -1.05804  -1.01290  -1.00359
 Alpha  occ. eigenvalues --   -0.95602  -0.91027  -0.86437  -0.85887  -0.83779
 Alpha  occ. eigenvalues --   -0.78341  -0.76106  -0.74373  -0.69755  -0.69305
 Alpha  occ. eigenvalues --   -0.68333  -0.68097  -0.68079  -0.65183  -0.64232
 Alpha  occ. eigenvalues --   -0.62774  -0.61628  -0.60413  -0.59305  -0.59154
 Alpha  occ. eigenvalues --   -0.56929  -0.55264  -0.54581  -0.52442  -0.47192
 Alpha  occ. eigenvalues --   -0.46120  -0.43903
 Alpha virt. eigenvalues --   -0.26109  -0.14666  -0.14080  -0.12765  -0.11188
 Alpha virt. eigenvalues --   -0.10090  -0.09254  -0.07964  -0.07937  -0.07482
 Alpha virt. eigenvalues --   -0.07208  -0.07136  -0.05647  -0.05574  -0.05348
 Alpha virt. eigenvalues --   -0.03847  -0.03661  -0.03274  -0.03134  -0.02159
 Alpha virt. eigenvalues --   -0.01351  -0.00952   0.00191   0.00593   0.00637
 Alpha virt. eigenvalues --    0.01063   0.01506   0.01935   0.02155   0.02305
 Alpha virt. eigenvalues --    0.02449   0.02672   0.02786   0.03260   0.03453
 Alpha virt. eigenvalues --    0.04224   0.04495   0.04721   0.05040   0.05387
 Alpha virt. eigenvalues --    0.06026   0.06288   0.06580   0.07047   0.07271
 Alpha virt. eigenvalues --    0.07902   0.08087   0.08349   0.08621   0.08912
 Alpha virt. eigenvalues --    0.09490   0.09586   0.09974   0.10817   0.10961
 Alpha virt. eigenvalues --    0.11129   0.12103   0.12247   0.12711   0.13024
 Alpha virt. eigenvalues --    0.13460   0.13525   0.13979   0.14333   0.15892
 Alpha virt. eigenvalues --    0.16386   0.16462   0.17328   0.17478   0.17784
 Alpha virt. eigenvalues --    0.18122   0.19070   0.19355   0.19647   0.19889
 Alpha virt. eigenvalues --    0.21477   0.21638   0.22665   0.23174   0.23561
 Alpha virt. eigenvalues --    0.23939   0.24549   0.25450   0.26941   0.27612
 Alpha virt. eigenvalues --    0.28847   0.29253   0.29907   0.31347   0.35761
 Alpha virt. eigenvalues --    0.36451   0.38212   0.39278   0.41060   0.41303
 Alpha virt. eigenvalues --    0.41960   0.42132   0.42983   0.43695   0.44379
 Alpha virt. eigenvalues --    0.44788   0.45120   0.45904   0.46378   0.47913
 Alpha virt. eigenvalues --    0.48413   0.48784   0.49043   0.50510   0.51063
 Alpha virt. eigenvalues --    0.51247   0.52020   0.52140   0.52771   0.54120
 Alpha virt. eigenvalues --    0.54123   0.54591   0.55641   0.55929   0.57596
 Alpha virt. eigenvalues --    0.58223   0.58943   0.61492   0.62264   0.62411
 Alpha virt. eigenvalues --    0.63163   0.63475   0.64907   0.65157   0.67405
 Alpha virt. eigenvalues --    0.70351   0.70491   0.71193   0.72498   0.72901
 Alpha virt. eigenvalues --    0.75589   0.76052   0.76412   0.76756   0.77119
 Alpha virt. eigenvalues --    0.77864   0.77986   0.78271   0.79922   0.80389
 Alpha virt. eigenvalues --    0.81234   0.81546   0.82395   0.82989   0.85224
 Alpha virt. eigenvalues --    0.87045   0.88152   0.88177   0.89300   0.90605
 Alpha virt. eigenvalues --    0.91031   0.91416   0.93291   0.94593   0.96275
 Alpha virt. eigenvalues --    0.96896   1.00196   1.01270   1.01538   1.02827
 Alpha virt. eigenvalues --    1.03021   1.03265   1.04863   1.06355   1.08865
 Alpha virt. eigenvalues --    1.19574   1.22981   1.24150   1.24342   1.28820
 Alpha virt. eigenvalues --    1.29333   1.32204   1.34303   1.35743   1.35964
 Alpha virt. eigenvalues --    1.39309   1.39683   1.40843   1.42965   1.43428
 Alpha virt. eigenvalues --    1.43508   1.44246   1.46356   1.46597   1.46795
 Alpha virt. eigenvalues --    1.47698   1.48172   1.51752   1.53668   1.55682
 Alpha virt. eigenvalues --    1.55773   1.56290   1.56588   1.57806   1.61454
 Alpha virt. eigenvalues --    1.63004   1.63389   1.64181   1.66075   1.68299
 Alpha virt. eigenvalues --    1.68339   1.68728   1.69842   1.74398   1.76013
 Alpha virt. eigenvalues --    1.77155   1.78082   1.79805   1.79996   1.80850
 Alpha virt. eigenvalues --    1.82852   1.83195   1.83596   1.83810   1.84190
 Alpha virt. eigenvalues --    1.84560   1.85474   1.86407   1.88350   1.91415
 Alpha virt. eigenvalues --    1.92135   1.94055   1.95318   1.97776   1.98146
 Alpha virt. eigenvalues --    1.99788   2.02329   2.04509   2.07310   2.11719
 Alpha virt. eigenvalues --    2.12149   2.14247   2.15268   2.19046   2.21175
 Alpha virt. eigenvalues --    2.22739   2.28504   2.30219   2.34460   2.34790
 Alpha virt. eigenvalues --    2.36346   2.38596   2.39677   2.42324   2.44674
 Alpha virt. eigenvalues --    2.46109   2.46398   2.49195   2.52936   2.53775
 Alpha virt. eigenvalues --    2.54218   2.56888   2.57906   2.58414   2.59431
 Alpha virt. eigenvalues --    2.59913   2.61532   2.62130   2.63558   2.63715
 Alpha virt. eigenvalues --    2.64826   2.65061   2.65065   2.65583   2.67890
 Alpha virt. eigenvalues --    2.68375   2.70924   2.71463   2.73369   2.74806
 Alpha virt. eigenvalues --    2.76283   2.78366   2.79639   2.83030   2.83196
 Alpha virt. eigenvalues --    2.84846   2.86245   2.92107   2.97114   2.99415
 Alpha virt. eigenvalues --    3.00132   3.04879   3.09554   3.11188   3.14058
 Alpha virt. eigenvalues --    3.20569   3.22158   3.26240   3.28651   3.30661
 Alpha virt. eigenvalues --    3.32803   3.34644   3.43878   3.46197   3.46707
 Alpha virt. eigenvalues --    3.48270   3.50006   3.56389   3.66063   3.66867
 Alpha virt. eigenvalues --    3.67845   3.93709   3.94056   3.95370   3.96469
 Alpha virt. eigenvalues --    4.03922   4.06493   4.07630   4.12536   4.35220
 Alpha virt. eigenvalues --    4.60797   4.69184   4.71200  23.45238  23.60080
 Alpha virt. eigenvalues --   23.80227  23.82592  23.85351  23.89107  23.91829
 Alpha virt. eigenvalues --   23.95223  23.95823  23.97606  24.03090  24.05499
 Alpha virt. eigenvalues --   24.11267  24.12775
          Condensed to atoms (all electrons):
               1          2          3          4          5          6
     1  C    8.384678   0.491254  -0.643315   1.800272  -0.010410  -0.085941
     2  C    0.491254   7.200587   0.416822  -1.012140  -0.036814  -0.015054
     3  C   -0.643315   0.416822   6.607569   0.723152  -0.113645   0.016892
     4  C    1.800272  -1.012140   0.723152  11.569279  -0.399530  -0.141408
     5  C   -0.010410  -0.036814  -0.113645  -0.399530  10.754399   0.834737
     6  C   -0.085941  -0.015054   0.016892  -0.141408   0.834737   6.600074
     7  C   -0.030507  -0.000375  -0.013048   0.016303  -1.219859   0.240537
     8  C    0.406538   0.000400  -0.106048  -0.094448   2.303308  -0.378085
     9  C   -1.120951  -0.868387   0.296710   0.043858  -0.398840   0.296326
    10  C   -1.217668   0.165648  -0.263137  -2.789382  -2.392293  -0.433732
    11  C    0.343760  -0.785799   0.886745  -0.344517  -1.424409  -0.111618
    12  C   -1.875390   1.066724  -1.351576  -1.687459  -0.226127  -0.284073
    13  C    0.210072  -0.211422  -0.223936  -1.594196  -0.336471   1.103065
    14  C   -1.145847  -0.291053  -0.117367  -0.460376  -1.678745  -1.515085
    15  H    0.367841  -0.106880  -0.003014   0.025549   0.006353   0.001233
    16  H   -0.020137   0.383381  -0.021705   0.016890  -0.001688  -0.000358
    17  H   -0.020447  -0.022293   0.381332  -0.070320   0.000143   0.000414
    18  H    0.047867   0.003642  -0.083542   0.468053   0.005656  -0.005057
    19  H   -0.043859  -0.008307   0.051324  -0.080897  -0.061714   0.051812
    20  H    0.006881   0.002057  -0.005292   0.005677   0.455650  -0.084223
    21  H   -0.001232  -0.000419   0.000386   0.000463  -0.066625   0.368247
    22  H    0.000415   0.000320  -0.000297  -0.001323   0.010067  -0.012436
    23  H    0.006590  -0.002282   0.000980   0.004474   0.030225   0.001476
    24  H    0.038013   0.015959  -0.001333  -0.011235  -0.013172  -0.001825
    25  H    0.038013   0.015959  -0.001333  -0.011235  -0.013172  -0.001825
               7          8          9         10         11         12
     1  C   -0.030507   0.406538  -1.120951  -1.217668   0.343760  -1.875390
     2  C   -0.000375   0.000400  -0.868387   0.165648  -0.785799   1.066724
     3  C   -0.013048  -0.106048   0.296710  -0.263137   0.886745  -1.351576
     4  C    0.016303  -0.094448   0.043858  -2.789382  -0.344517  -1.687459
     5  C   -1.219859   2.303308  -0.398840  -2.392293  -1.424409  -0.226127
     6  C    0.240537  -0.378085   0.296326  -0.433732  -0.111618  -0.284073
     7  C    7.215226  -0.035663  -0.788478   0.351494  -0.303526  -0.076507
     8  C   -0.035663   9.005487  -1.102055  -1.401397   0.301955  -1.058078
     9  C   -0.788478  -1.102055   9.602400   0.255204   1.577005  -2.083411
    10  C    0.351494  -1.401397   0.255204   9.090687  -0.290416   2.380586
    11  C   -0.303526   0.301955   1.577005  -0.290416  14.526571  -4.072780
    12  C   -0.076507  -1.058078  -2.083411   2.380586  -4.072780  16.309482
    13  C   -0.976645   0.306413   1.435731  -0.452618   1.075221  -4.692998
    14  C    1.756719  -2.657550  -1.711779   2.459772  -4.804291   3.150363
    15  H   -0.002888   0.004810   0.087325  -0.007888  -0.029657  -0.013073
    16  H    0.000404   0.001044   0.001553  -0.010235   0.024254  -0.029359
    17  H   -0.000374  -0.001403  -0.004727   0.019973  -0.025212   0.086340
    18  H    0.002147   0.006957  -0.022424   0.006278  -0.008229  -0.049028
    19  H   -0.007481  -0.048342   0.074662   0.422305   0.077099  -0.086187
    20  H    0.001797   0.054604  -0.025833   0.013578  -0.012134  -0.008831
    21  H   -0.007656  -0.033011  -0.006331   0.020204  -0.006218   0.005312
    22  H    0.374186  -0.016724   0.003712  -0.007844   0.002417  -0.007626
    23  H   -0.109394   0.371338   0.095138  -0.011210   0.007172   0.004633
    24  H    0.013056   0.028419   0.355866   0.005367   0.024553  -0.060034
    25  H    0.013056   0.028419   0.355866   0.005367   0.024553  -0.060034
              13         14         15         16         17         18
     1  C    0.210072  -1.145847   0.367841  -0.020137  -0.020447   0.047867
     2  C   -0.211422  -0.291053  -0.106880   0.383381  -0.022293   0.003642
     3  C   -0.223936  -0.117367  -0.003014  -0.021705   0.381332  -0.083542
     4  C   -1.594196  -0.460376   0.025549   0.016890  -0.070320   0.468053
     5  C   -0.336471  -1.678745   0.006353  -0.001688   0.000143   0.005656
     6  C    1.103065  -1.515085   0.001233  -0.000358   0.000414  -0.005057
     7  C   -0.976645   1.756719  -0.002888   0.000404  -0.000374   0.002147
     8  C    0.306413  -2.657550   0.004810   0.001044  -0.001403   0.006957
     9  C    1.435731  -1.711779   0.087325   0.001553  -0.004727  -0.022424
    10  C   -0.452618   2.459772  -0.007888  -0.010235   0.019973   0.006278
    11  C    1.075221  -4.804291  -0.029657   0.024254  -0.025212  -0.008229
    12  C   -4.692998   3.150363  -0.013073  -0.029359   0.086340  -0.049028
    13  C   14.247594  -3.316316  -0.003380   0.003395  -0.006293  -0.012425
    14  C   -3.316316  15.883161   0.007590  -0.010376   0.005252  -0.021632
    15  H   -0.003380   0.007590   0.434460  -0.008932   0.001666   0.000227
    16  H    0.003395  -0.010376  -0.008932   0.416230  -0.007070   0.001974
    17  H   -0.006293   0.005252   0.001666  -0.007070   0.419856  -0.010133
    18  H   -0.012425  -0.021632   0.000227   0.001974  -0.010133   0.448865
    19  H    0.081819  -0.046652   0.000413  -0.000607   0.001725  -0.005813
    20  H   -0.001872  -0.066317  -0.000126   0.000020  -0.000167   0.001249
    21  H   -0.026811   0.097614   0.000017  -0.000007   0.000010  -0.000121
    22  H    0.025185  -0.032381  -0.000125   0.000007  -0.000007   0.000011
    23  H   -0.033936  -0.036386   0.000556  -0.000131   0.000011  -0.000103
    24  H    0.002527  -0.060415  -0.000947   0.000628  -0.000135   0.000146
    25  H    0.002527  -0.060415  -0.000947   0.000628  -0.000135   0.000146
              19         20         21         22         23         24
     1  C   -0.043859   0.006881  -0.001232   0.000415   0.006590   0.038013
     2  C   -0.008307   0.002057  -0.000419   0.000320  -0.002282   0.015959
     3  C    0.051324  -0.005292   0.000386  -0.000297   0.000980  -0.001333
     4  C   -0.080897   0.005677   0.000463  -0.001323   0.004474  -0.011235
     5  C   -0.061714   0.455650  -0.066625   0.010067   0.030225  -0.013172
     6  C    0.051812  -0.084223   0.368247  -0.012436   0.001476  -0.001825
     7  C   -0.007481   0.001797  -0.007656   0.374186  -0.109394   0.013056
     8  C   -0.048342   0.054604  -0.033011  -0.016724   0.371338   0.028419
     9  C    0.074662  -0.025833  -0.006331   0.003712   0.095138   0.355866
    10  C    0.422305   0.013578   0.020204  -0.007844  -0.011210   0.005367
    11  C    0.077099  -0.012134  -0.006218   0.002417   0.007172   0.024553
    12  C   -0.086187  -0.008831   0.005312  -0.007626   0.004633  -0.060034
    13  C    0.081819  -0.001872  -0.026811   0.025185  -0.033936   0.002527
    14  C   -0.046652  -0.066317   0.097614  -0.032381  -0.036386  -0.060415
    15  H    0.000413  -0.000126   0.000017  -0.000125   0.000556  -0.000947
    16  H   -0.000607   0.000020  -0.000007   0.000007  -0.000131   0.000628
    17  H    0.001725  -0.000167   0.000010  -0.000007   0.000011  -0.000135
    18  H   -0.005813   0.001249  -0.000121   0.000011  -0.000103   0.000146
    19  H    0.443751  -0.006870   0.001141  -0.000484   0.000232   0.000584
    20  H   -0.006870   0.459231  -0.010432   0.001889   0.000049   0.000226
    21  H    0.001141  -0.010432   0.424758  -0.005968   0.001234  -0.000150
    22  H   -0.000484   0.001889  -0.005968   0.422369  -0.008945   0.000635
    23  H    0.000232   0.000049   0.001234  -0.008945   0.444670  -0.000882
    24  H    0.000584   0.000226  -0.000150   0.000635  -0.000882   0.493064
    25  H    0.000584   0.000226  -0.000150   0.000635  -0.000882  -0.078809
              25
     1  C    0.038013
     2  C    0.015959
     3  C   -0.001333
     4  C   -0.011235
     5  C   -0.013172
     6  C   -0.001825
     7  C    0.013056
     8  C    0.028419
     9  C    0.355866
    10  C    0.005367
    11  C    0.024553
    12  C   -0.060034
    13  C    0.002527
    14  C   -0.060415
    15  H   -0.000947
    16  H    0.000628
    17  H   -0.000135
    18  H    0.000146
    19  H    0.000584
    20  H    0.000226
    21  H   -0.000150
    22  H    0.000635
    23  H   -0.000882
    24  H   -0.078809
    25  H    0.493064
 Mulliken charges:
               1
     1  C    0.073509
     2  C   -0.401529
     3  C   -0.433319
     4  C    0.024499
     5  C   -0.007025
     6  C   -0.444094
     7  C   -0.412523
     8  C    0.113113
     9  C   -0.348139
    10  C    0.081358
    11  C   -0.652498
    12  C    0.719132
    13  C   -0.604230
    14  C    0.672512
    15  H    0.239814
    16  H    0.260196
    17  H    0.251992
    18  H    0.225290
    19  H    0.189761
    20  H    0.218963
    21  H    0.245747
    22  H    0.252310
    23  H    0.235374
    24  H    0.249893
    25  H    0.249893
 Sum of Mulliken charges =   1.00000
 Mulliken charges with hydrogens summed into heavy atoms:
               1
     1  C    0.313324
     2  C   -0.141333
     3  C   -0.181327
     4  C    0.249789
     5  C    0.211938
     6  C   -0.198348
     7  C   -0.160214
     8  C    0.348488
     9  C    0.151647
    10  C    0.271119
    11  C   -0.652498
    12  C    0.719132
    13  C   -0.604230
    14  C    0.672512
 Electronic spatial extent (au):  <R**2>=           2857.1475
 Charge=              1.0000 electrons
 Dipole moment (field-independent basis, Debye):
    X=             -0.3003    Y=             -0.9462    Z=              0.0000  Tot=              0.9927
 Quadrupole moment (field-independent basis, Debye-Ang):
   XX=            -51.1514   YY=            -36.1391   ZZ=            -84.1340
   XY=             10.1768   XZ=             -0.0000   YZ=              0.0000
 Traceless Quadrupole moment (field-independent basis, Debye-Ang):
   XX=              5.9901   YY=             21.0024   ZZ=            -26.9925
   XY=             10.1768   XZ=             -0.0000   YZ=              0.0000
 Octapole moment (field-independent basis, Debye-Ang**2):
  XXX=             -3.1411  YYY=             -3.1770  ZZZ=             -0.0000  XYY=             -2.7348
  XXY=             -7.9277  XXZ=              0.0000  XZZ=             -3.4063  YZZ=              0.1953
  YYZ=              0.0000  XYZ=              0.0000
 Hexadecapole moment (field-independent basis, Debye-Ang**3):
 XXXX=           -984.3002 YYYY=          -1852.4140 ZZZZ=            -99.3243 XXXY=           -346.7571
 XXXZ=              0.0000 YYYX=           -272.3382 YYYZ=             -0.0000 ZZZX=              0.0000
 ZZZY=              0.0000 XXYY=           -455.3006 XXZZ=           -240.3876 YYZZ=           -496.2860
 XXYZ=              0.0000 YYXZ=              0.0000 ZZXY=           -182.1487
 N-N= 7.810839347602D+02 E-N=-2.798517531655D+03  KE= 5.375192243260D+02
 Symmetry A'   KE= 5.228665377863D+02
 Symmetry A"   KE= 1.465268653973D+01
 Unable to Open any file for archive entry.
 1\1\GINC-GADI-CPU-CLX-0648\SP\RM062X TD-FC\6-311++G(d,p)\C14H11(1+)\TS
 1578\27-Jul-2022\0\\#n M062X/6-311++G(d,p) TD(NStates=1) EmpiricalDisp
 ersion=GD3 SP\\SP_-50\\1,1\C,0,2.47015,1.3697,0.\C,0,3.673425,0.6681,0
 .\C,0,3.6763,-0.72755,0.\C,0,2.490575,-1.414975,0.\C,0,-2.435975,-1.38
 3125,0.\C,0,-3.6924,-0.68415,0.\C,0,-3.731,0.692775,0.\C,0,-2.5181,1.3
 676,0.\C,0,-0.01535,1.4654,0.\C,0,0.0427,-1.42065,0.\C,0,1.2686,0.6991
 25,0.\C,0,1.2547,-0.723975,0.\C,0,-1.255825,0.67235,0.\C,0,-1.2197,-0.
 719775,0.\H,0,2.4824,2.4526,0.\H,0,4.608525,1.209775,0.\H,0,4.6146,-1.
 26385,0.\H,0,2.48005,-2.497,0.\H,0,0.039375,-2.501675,0.\H,0,-2.4545,-
 2.466025,0.\H,0,-4.60445,-1.265425,0.\H,0,-4.6668,1.2299,0.\H,0,-2.497
 1,2.451025,0.\H,0,-0.056,2.15525,-0.860425\H,0,-0.056,2.15525,0.860425
 \\Version=ES64L-G16RevC.01\State=1-A'\HF=-539.7549316\RMSD=9.654e-09\P
 G=CS [SG(C14H9),X(H2)]\\@
 The archive entry for this job was punched.


      TO SUSPECT YOUR OWN MORTALITY IS TO KNOW THE BEGINNING OF TERROR.
      TO LEARN IRREFUTABLY THAT YOU ARE MORTAL IS TO KNOW THE END
      OF TERROR.

                                                  -- JESSICA
                                                     CHILDREN OF DUNE
                                                     BY FRANK HERBERT
 Job cpu time:       0 days  0 hours 44 minutes 43.8 seconds.
 Elapsed time:       0 days  0 hours  1 minutes 24.4 seconds.
 File lengths (MBytes):  RWF=    460 Int=      0 D2E=      0 Chk=     15 Scr=      1
 Normal termination of Gaussian 16 at Wed Jul 27 10:53:23 2022.
