 Entering Gaussian System, Link 0=g16
 Initial command:
 /apps/gaussian/g16c01/g16/l1.exe "/jobfs/52826432.gadi-pbs/Gau-2810001.inp" -scrdir="/jobfs/52826432.gadi-pbs/"
 Entering Link 1 = /apps/gaussian/g16c01/g16/l1.exe PID=   2810002.
  
 Copyright (c) 1988-2019, Gaussian, Inc.  All Rights Reserved.
  
 This is part of the Gaussian(R) 16 program.  It is based on
 the Gaussian(R) 09 system (copyright 2009, Gaussian, Inc.),
 the Gaussian(R) 03 system (copyright 2003, Gaussian, Inc.),
 the Gaussian(R) 98 system (copyright 1998, Gaussian, Inc.),
 the Gaussian(R) 94 system (copyright 1995, Gaussian, Inc.),
 the Gaussian 92(TM) system (copyright 1992, Gaussian, Inc.),
 the Gaussian 90(TM) system (copyright 1990, Gaussian, Inc.),
 the Gaussian 88(TM) system (copyright 1988, Gaussian, Inc.),
 the Gaussian 86(TM) system (copyright 1986, Carnegie Mellon
 University), and the Gaussian 82(TM) system (copyright 1983,
 Carnegie Mellon University). Gaussian is a federally registered
 trademark of Gaussian, Inc.
  
 This software contains proprietary and confidential information,
 including trade secrets, belonging to Gaussian, Inc.
  
 This software is provided under written license and may be
 used, copied, transmitted, or stored only in accord with that
 written license.
  
 The following legend is applicable only to US Government
 contracts under FAR:
  
                    RESTRICTED RIGHTS LEGEND
  
 Use, reproduction and disclosure by the US Government is
 subject to restrictions as set forth in subparagraphs (a)
 and (c) of the Commercial Computer Software - Restricted
 Rights clause in FAR 52.227-19.
  
 Gaussian, Inc.
 340 Quinnipiac St., Bldg. 40, Wallingford CT 06492
  
  
 ---------------------------------------------------------------
 Warning -- This program may not be used in any manner that
 competes with the business of Gaussian, Inc. or will provide
 assistance to any competitor of Gaussian, Inc.  The licensee
 of this program is prohibited from giving any competitor of
 Gaussian, Inc. access to this program.  By using this program,
 the user acknowledges that Gaussian, Inc. is engaged in the
 business of creating and licensing software in the field of
 computational chemistry and represents and warrants to the
 licensee that it is not a competitor of Gaussian, Inc. and that
 it will not use this program in any manner prohibited above.
 ---------------------------------------------------------------
  

 Cite this work as:
 Gaussian 16, Revision C.01,
 M. J. Frisch, G. W. Trucks, H. B. Schlegel, G. E. Scuseria, 
 M. A. Robb, J. R. Cheeseman, G. Scalmani, V. Barone, 
 G. A. Petersson, H. Nakatsuji, X. Li, M. Caricato, A. V. Marenich, 
 J. Bloino, B. G. Janesko, R. Gomperts, B. Mennucci, H. P. Hratchian, 
 J. V. Ortiz, A. F. Izmaylov, J. L. Sonnenberg, D. Williams-Young, 
 F. Ding, F. Lipparini, F. Egidi, J. Goings, B. Peng, A. Petrone, 
 T. Henderson, D. Ranasinghe, V. G. Zakrzewski, J. Gao, N. Rega, 
 G. Zheng, W. Liang, M. Hada, M. Ehara, K. Toyota, R. Fukuda, 
 J. Hasegawa, M. Ishida, T. Nakajima, Y. Honda, O. Kitao, H. Nakai, 
 T. Vreven, K. Throssell, J. A. Montgomery, Jr., J. E. Peralta, 
 F. Ogliaro, M. J. Bearpark, J. J. Heyd, E. N. Brothers, K. N. Kudin, 
 V. N. Staroverov, T. A. Keith, R. Kobayashi, J. Normand, 
 K. Raghavachari, A. P. Rendell, J. C. Burant, S. S. Iyengar, 
 J. Tomasi, M. Cossi, J. M. Millam, M. Klene, C. Adamo, R. Cammi, 
 J. W. Ochterski, R. L. Martin, K. Morokuma, O. Farkas, 
 J. B. Foresman, and D. J. Fox, Gaussian, Inc., Wallingford CT, 2019.
 
 ******************************************
 Gaussian 16:  ES64L-G16RevC.01  3-Jul-2019
                27-Jul-2022 
 ******************************************
 %NProcShared=32
 Will use up to   32 processors via shared memory.
 %mem = 128GB
 ---------------------------------------------------------------
 #n M062X/6-311++G(d,p) TD(NStates=1) EmpiricalDispersion=GD3 SP
 ---------------------------------------------------------------
 1/38=1,172=1/1;
 2/12=2,17=6,18=5,40=1/2;
 3/5=4,6=6,7=1111,11=9,25=1,30=1,74=-55,124=31/1,2,3,8;
 4//1;
 5/5=2,38=5/2;
 8/6=1,10=2,108=1/1;
 9/41=1,42=1,70=2/14;
 6/7=2,8=2,9=2,10=2/1;
 99/5=1,9=1/99;
 ------
 SP_125
 ------
 Symbolic Z-matrix:
 Charge =  1 Multiplicity = 1
 C                     0.0136    2.49116   1.36043 
 C                     0.014     3.70618   0.67199 
 C                     0.0045    3.69141  -0.71383 
 C                    -0.01152   2.46963  -1.40754 
 C                    -0.01187  -2.47033  -1.40754 
 C                     0.0024   -3.69491  -0.71383 
 C                     0.01067  -3.70741   0.67199 
 C                     0.00695  -2.49325   1.36043 
 C                     0.00648   0.0077    1.45337 
 C                    -0.0183   -0.00035  -1.42919 
 C                    -0.00248   1.2564    0.67707 
 C                    -0.0082    1.2389   -0.7308 
 C                    -0.003    -1.25623   0.67707 
 C                    -0.0068   -1.23785  -0.7308 
 H                     0.007     2.4866    2.44365 
 H                     0.0145    4.63975   1.21169 
 H                    -0.00165   4.60674  -1.27235 
 H                    -0.006     2.47392  -2.49006 
 H                    -0.01688  -0.00018  -2.51027 
 H                    -0.00495  -2.47445  -2.49006 
 H                    -0.0027   -4.61111  -1.27235 
 H                     0.01048  -4.64238   1.21169 
 H                    -0.0007   -2.48887   2.44365 
 H                    -0.83559   0.00175   2.14386 
 H                     0.88359   0.00175   2.14771 
 
                          Input orientation:                          
 ---------------------------------------------------------------------
 Center     Atomic      Atomic             Coordinates (Angstroms)
 Number     Number       Type             X           Y           Z
 ---------------------------------------------------------------------
      1          6           0        0.013600    2.491155    1.360431
      2          6           0        0.014000    3.706183    0.671989
      3          6           0        0.004500    3.691411   -0.713830
      4          6           0       -0.011525    2.469631   -1.407538
      5          6           0       -0.011875   -2.470331   -1.407538
      6          6           0        0.002400   -3.694911   -0.713830
      7          6           0        0.010675   -3.707408    0.671989
      8          6           0        0.006950   -2.493255    1.360431
      9          6           0        0.006475    0.007700    1.453369
     10          6           0       -0.018300   -0.000350   -1.429189
     11          6           0       -0.002475    1.256405    0.677065
     12          6           0       -0.008200    1.238896   -0.730804
     13          6           0       -0.003000   -1.256230    0.677065
     14          6           0       -0.006800   -1.237846   -0.730804
     15          1           0        0.007000    2.486596    2.443647
     16          1           0        0.014500    4.639753    1.211689
     17          1           0       -0.001650    4.606737   -1.272349
     18          1           0       -0.006000    2.473925   -2.490059
     19          1           0       -0.016875   -0.000175   -2.510266
     20          1           0       -0.004950   -2.474450   -2.490059
     21          1           0       -0.002700   -4.611112   -1.272349
     22          1           0        0.010475   -4.642378    1.211689
     23          1           0       -0.000700   -2.488871    2.443647
     24          1           0       -0.835585    0.001750    2.143862
     25          1           0        0.883585    0.001750    2.147712
 ---------------------------------------------------------------------
                    Distance matrix (angstroms):
                    1          2          3          4          5
     1  C    0.000000
     2  C    1.396512   0.000000
     3  C    2.396509   1.385930   0.000000
     4  C    2.768167   2.419534   1.405074   0.000000
     5  C    5.681430   6.517241   6.200691   4.939962   0.000000
     6  C    6.524576   7.529729   7.386322   6.203467   1.407491
     7  C    6.236677   7.413592   7.527487   6.517725   2.419773
     8  C    4.984414   6.237550   6.523240   5.682625   2.768128
     9  C    2.485204   3.780131   4.273931   3.774416   3.784939
    10  C    3.740400   4.260796   3.760500   2.470085   2.470084
    11  C    1.411331   2.449839   2.804263   2.411964   4.270154
    12  C    2.437600   2.838279   2.452607   1.404524   3.770457
    13  C    3.809220   4.962445   5.139435   4.269389   2.412403
    14  C    4.275410   5.139230   4.929299   3.768737   1.406063
    15  H    1.083246   2.150863   3.379533   3.851267   6.277189
    16  H    2.153741   1.078346   2.146410   3.401537   7.577225
    17  H    3.377492   2.142824   1.072289   2.141400   7.078366
    18  H    3.850578   3.393731   2.153456   1.082544   5.061379
    19  H    4.603254   4.885160   4.105539   2.704807   2.705126
    20  H    6.283618   6.942559   6.416613   5.061209   1.082551
    21  H    7.574562   8.541553   8.321291   7.082039   2.145065
    22  H    7.135084   8.365988   8.553344   7.579017   3.402740
    23  H    5.096491   6.443422   6.940142   6.278414   3.851246
    24  H    2.744452   4.075663   4.741914   4.402494   4.404784
    25  H    2.752058   4.081269   4.751296   4.419441   4.421859
                    6          7          8          9         10
     6  C    0.000000
     7  C    1.385900   0.000000
     8  C    2.397198   1.395756   0.000000
     9  C    4.290233   3.796393   2.502681   0.000000
    10  C    3.763236   4.261228   3.741282   2.882676   0.000000
    11  C    5.142970   4.963833   3.811434   1.470371   2.452751
    12  C    4.933848   5.141411   4.278136   2.507323   1.422524
    13  C    2.807451   2.451221   1.413265   1.483326   2.452300
    14  C    2.457141   2.840224   2.439161   2.514393   1.421010
    15  H    6.941233   6.442396   5.096300   2.669377   4.602651
    16  H    8.554203   8.364591   7.134563   4.638361   5.339089
    17  H    8.320416   8.538478   7.572416   5.346096   4.609786
    18  H    6.419470   6.943177   6.284848   4.651134   2.692143
    19  H    4.108361   4.885804   4.604162   3.963712   1.081078
    20  H    2.155126   3.393962   3.850554   4.659595   2.691987
    21  H    1.073030   2.144134   3.378897   5.363119   4.613455
    22  H    2.146015   1.079558   2.154267   4.656356   5.340739
    23  H    3.379971   2.150287   1.083252   2.685809   4.603467
    24  H    4.746991   4.079267   2.747486   1.088982   3.665331
    25  H    4.757122   4.086268   2.759230   1.118691   3.688851
                   11         12         13         14         15
    11  C    0.000000
    12  C    1.407990   0.000000
    13  C    2.512635   2.864922   0.000000
    14  C    2.864158   2.476742   1.407994   0.000000
    15  H    2.152736   3.410883   4.138799   4.893751   0.000000
    16  H    3.425369   3.916583   5.920198   6.190307   2.480698
    17  H    3.876202   3.411109   6.178560   5.869621   4.278282
    18  H    3.393087   2.149484   4.893336   4.107581   4.933739
    19  H    3.426117   2.168377   3.425923   2.167583   5.543091
    20  H    4.893870   4.109006   3.393337   2.150389   6.996683
    21  H    6.182877   5.875023   3.880135   3.416462   8.011628
    22  H    5.922975   6.193788   3.428119   3.919747   7.234639
    23  H    4.141003   4.896268   2.154117   3.412073   4.975473
    24  H    2.102314   3.237098   2.104092   3.238393   2.640886
    25  H    2.126515   3.257555   2.128697   3.258103   2.651497
                   16         17         18         19         20
    16  H    0.000000
    17  H    2.484310   0.000000
    18  H    4.288842   2.455957   0.000000
    19  H    5.948350   4.770357   2.474206   0.000000
    20  H    8.019676   7.185126   4.948375   2.474386   0.000000
    21  H    9.578583   9.217849   7.188920   4.774241   2.459298
    22  H    9.282132   9.576885   8.021532   5.950105   4.289882
    23  H    7.234309   8.009762   6.997916   5.543927   4.933729
    24  H    4.806523   5.794122   5.317244   4.725590   5.319280
    25  H    4.810667   5.803995   5.330284   4.744217   5.331977
                   21         22         23         24         25
    21  H    0.000000
    22  H    2.484270   0.000000
    23  H    4.279315   2.481015   0.000000
    24  H    5.800232   4.811724   2.643879   0.000000
    25  H    5.810406   4.817301   2.659461   1.719174   0.000000
 Stoichiometry    C14H11(1+)
 Framework group  C1[X(C14H11)]
 Deg. of freedom    69
 Full point group                 C1      NOp   1
 Largest Abelian subgroup         C1      NOp   1
 Largest concise Abelian subgroup C1      NOp   1
                         Standard orientation:                         
 ---------------------------------------------------------------------
 Center     Atomic      Atomic             Coordinates (Angstroms)
 Number     Number       Type             X           Y           Z
 ---------------------------------------------------------------------
      1          6           0       -2.491363   -1.360114    0.003292
      2          6           0       -3.706290   -0.671506    0.007744
      3          6           0       -3.691309    0.714343    0.007422
      4          6           0       -2.469419    1.407957   -0.003505
      5          6           0        2.470542    1.407215   -0.001804
      6          6           0        3.695014    0.713243    0.008388
      7          6           0        3.707302   -0.672602    0.007497
      8          6           0        2.493049   -1.360821   -0.001289
      9          6           0       -0.007919   -1.453377   -0.003417
     10          6           0        0.000567    1.429281   -0.009111
     11          6           0       -1.256506   -0.676843   -0.007748
     12          6           0       -1.238786    0.731031   -0.004148
     13          6           0        1.256129   -0.677218   -0.007229
     14          6           0        1.237955    0.730648   -0.001719
     15          1           0       -2.486962   -2.443263   -0.010475
     16          1           0       -4.639940   -1.211057    0.004284
     17          1           0       -4.606549    1.273028    0.004588
     18          1           0       -2.473556    2.490419    0.009183
     19          1           0        0.000552    2.510324   -0.000531
     20          1           0        2.474819    2.489666    0.012287
     21          1           0        4.611299    1.271646    0.007365
     22          1           0        4.642192   -1.212430    0.004113
     23          1           0        2.488508   -2.443962   -0.016109
     24          1           0       -0.001721   -2.138283   -0.850026
     25          1           0       -0.002437   -2.153511    0.869081
 ---------------------------------------------------------------------
 Rotational constants (GHZ):           2.1360657           0.4433814           0.3679685
 Standard basis: 6-311++G(d,p) (5D, 7F)
 There are   399 symmetry adapted cartesian basis functions of A   symmetry.
 There are   385 symmetry adapted basis functions of A   symmetry.
   385 basis functions,   603 primitive gaussians,   399 cartesian basis functions
    47 alpha electrons       47 beta electrons
       nuclear repulsion energy       780.4982479451 Hartrees.
 NAtoms=   25 NActive=   25 NUniq=   25 SFac= 1.00D+00 NAtFMM=   60 NAOKFM=F Big=F
 Integral buffers will be    131072 words long.
 Regular integral format.
 Two-electron integral symmetry is turned on.
 Nuclear repulsion after empirical dispersion term =      780.4972682104 Hartrees.
 One-electron integrals computed using PRISM.
 NBasis=   385 RedAO= T EigKep=  1.17D-06  NBF=   385
 NBsUse=   379 1.00D-06 EigRej=  8.59D-07 NBFU=   379
 ExpMin= 3.60D-02 ExpMax= 4.56D+03 ExpMxC= 6.82D+02 IAcc=3 IRadAn=         5 AccDes= 0.00D+00
 Harris functional with IExCor= 1009 and IRadAn=       5 diagonalized for initial guess.
 HarFok:  IExCor= 1009 AccDes= 0.00D+00 IRadAn=         5 IDoV= 1 UseB2=F ITyADJ=14
 ICtDFT=  3500011 ScaDFX=  1.000000  1.000000  1.000000  1.000000
 FoFCou: FMM=F IPFlag=           0 FMFlag=      100000 FMFlg1=           0
         NFxFlg=           0 DoJE=T BraDBF=F KetDBF=T FulRan=T
         wScrn=  0.000000 ICntrl=       500 IOpCl=  0 I1Cent=   200000004 NGrid=           0
         NMat0=    1 NMatS0=      1 NMatT0=    0 NMatD0=    1 NMtDS0=    0 NMtDT0=    0
 Petite list used in FoFCou.
 Requested convergence on RMS density matrix=1.00D-08 within 128 cycles.
 Requested convergence on MAX density matrix=1.00D-06.
 Requested convergence on             energy=1.00D-06.
 No special actions if energy rises.
 SCF Done:  E(RM062X) =  -539.759194177     A.U. after   15 cycles
            NFock= 15  Conv=0.45D-08     -V/T= 2.0043
 DoSCS=F DFT=T ScalE2(SS,OS)=  1.000000  1.000000
 ExpMin= 3.60D-02 ExpMax= 4.56D+03 ExpMxC= 6.82D+02 IAcc=3 IRadAn=         5 AccDes= 0.00D+00
 HarFok:  IExCor=  205 AccDes= 0.00D+00 IRadAn=         5 IDoV=-2 UseB2=F ITyADJ=14
 ICtDFT= 12500011 ScaDFX=  1.000000  1.000000  1.000000  1.000000
 Range of M.O.s used for correlation:    15   379
 NBasis=   385 NAE=    47 NBE=    47 NFC=    14 NFV=     0
 NROrb=    365 NOA=    33 NOB=    33 NVA=   332 NVB=   332

 **** Warning!!: The largest alpha MO coefficient is  0.14985318D+03

 Orbital symmetries:
       Occupied  (A) (A) (A) (A) (A) (A) (A) (A) (A) (A) (A) (A)
                 (A) (A) (A) (A) (A) (A) (A) (A) (A) (A) (A) (A)
                 (A) (A) (A) (A) (A) (A) (A) (A) (A) (A) (A) (A)
                 (A) (A) (A) (A) (A) (A) (A) (A) (A) (A) (A)
       Virtual   (A) (A) (A) (A) (A) (A) (A) (A) (A) (A) (A) (A)
                 (A) (A) (A) (A) (A) (A) (A) (A) (A) (A) (A) (A)
                 (A) (A) (A) (A) (A) (A) (A) (A) (A) (A) (A) (A)
                 (A) (A) (A) (A) (A) (A) (A) (A) (A) (A) (A) (A)
                 (A) (A) (A) (A) (A) (A) (A) (A) (A) (A) (A) (A)
                 (A) (A) (A) (A) (A) (A) (A) (A) (A) (A) (A) (A)
                 (A) (A) (A) (A) (A) (A) (A) (A) (A) (A) (A) (A)
                 (A) (A) (A) (A) (A) (A) (A) (A) (A) (A) (A) (A)
                 (A) (A) (A) (A) (A) (A) (A) (A) (A) (A) (A) (A)
                 (A) (A) (A) (A) (A) (A) (A) (A) (A) (A) (A) (A)
                 (A) (A) (A) (A) (A) (A) (A) (A) (A) (A) (A) (A)
                 (A) (A) (A) (A) (A) (A) (A) (A) (A) (A) (A) (A)
                 (A) (A) (A) (A) (A) (A) (A) (A) (A) (A) (A) (A)
                 (A) (A) (A) (A) (A) (A) (A) (A) (A) (A) (A) (A)
                 (A) (A) (A) (A) (A) (A) (A) (A) (A) (A) (A) (A)
                 (A) (A) (A) (A) (A) (A) (A) (A) (A) (A) (A) (A)
                 (A) (A) (A) (A) (A) (A) (A) (A) (A) (A) (A) (A)
                 (A) (A) (A) (A) (A) (A) (A) (A) (A) (A) (A) (A)
                 (A) (A) (A) (A) (A) (A) (A) (A) (A) (A) (A) (A)
                 (A) (A) (A) (A) (A) (A) (A) (A) (A) (A) (A) (A)
                 (A) (A) (A) (A) (A) (A) (A) (A) (A) (A) (A) (A)
                 (A) (A) (A) (A) (A) (A) (A) (A) (A) (A) (A) (A)
                 (A) (A) (A) (A) (A) (A) (A) (A) (A) (A) (A) (A)
                 (A) (A) (A) (A) (A) (A) (A) (A) (A) (A) (A) (A)
                 (A) (A) (A) (A) (A) (A) (A) (A) (A) (A) (A) (A)
                 (A) (A) (A) (A) (A) (A) (A) (A) (A) (A) (A) (A)
                 (A) (A) (A) (A) (A) (A) (A) (A) (A) (A) (A) (A)
                 (A) (A) (A) (A) (A) (A) (A) (A)
     4 initial guesses have been made.
 Convergence on wavefunction:    0.001000000000000
 Iteration     1 Dimension     4 NMult     0 NNew      4
 CISAX will form     4 AO SS matrices at one time.
 Iteration     2 Dimension     6 NMult     4 NNew      2
 Iteration     3 Dimension     8 NMult     6 NNew      2
 Iteration     4 Dimension    10 NMult     8 NNew      2
 Iteration     5 Dimension    12 NMult    10 NNew      2
 Iteration     6 Dimension    14 NMult    12 NNew      2
 ***********************************************************************
 Excited states from <AA,BB:AA,BB> singles matrix:
 ***********************************************************************
 
 Ground to excited state transition densities written to RWF  633
 Ground to excited state transition electric dipole moments (Au):
       state          X           Y           Z        Dip. S.      Osc.
         1        -0.0103     -0.6392      0.0031      0.4087      0.0281
 Ground to excited state transition velocity dipole moments (Au):
       state          X           Y           Z        Dip. S.      Osc.
         1         0.0011      0.0737     -0.0004      0.0054      0.0351
 Ground to excited state transition magnetic dipole moments (Au):
       state          X           Y           Z
         1        -0.0039     -0.0007      0.0002
 Ground to excited state transition velocity quadrupole moments (Au):
       state          XX          YY          ZZ          XY          XZ          YZ
         1         0.3057      0.0331     -0.0097      0.0015      0.0001      0.0007
 <0|del|b> * <b|rxdel|0> + <0|del|b> * <b|delr+rdel|0>
 Rotatory Strengths (R) in cgs (10**-40 erg-esu-cm/Gauss)
       state          XX          YY          ZZ    R(velocity)    E-M Angle
         1        -0.2055     -0.0100     -0.1780     -0.1311       90.00
 1/2[<0|r|b>*<b|rxdel|0> + (<0|rxdel|b>*<b|r|0>)*]
 Rotatory Strengths (R) in cgs (10**-40 erg-esu-cm/Gauss)
       state          XX          YY          ZZ     R(length)
         1        -0.0280     -0.3259     -0.0005     -0.1181
  1/2[<0|del|b>*<b|r|0> + (<0|r|b>*<b|del|0>)*] (Au)
       state          X           Y           Z        Dip. S.   Osc.(frdel)
         1        -0.0000     -0.0471     -0.0000      0.0471      0.0314

 Excitation energies and oscillator strengths:
 
 Excited State   1:      Singlet-A      2.8098 eV  441.25 nm  f=0.0281  <S**2>=0.000
      47 -> 48         0.70427
 This state for optimization and/or second-order correction.
 Total Energy, E(TD-HF/TD-DFT) =  -539.655934414    
 Copying the excited state density for this state as the 1-particle RhoCI density.
 SavETr:  write IOETrn=   770 NScale= 10 NData=  16 NLR=1 NState=    1 LETran=      28.

 **********************************************************************

            Population analysis using the SCF Density.

 **********************************************************************

 Orbital symmetries:
       Occupied  (A) (A) (A) (A) (A) (A) (A) (A) (A) (A) (A) (A)
                 (A) (A) (A) (A) (A) (A) (A) (A) (A) (A) (A) (A)
                 (A) (A) (A) (A) (A) (A) (A) (A) (A) (A) (A) (A)
                 (A) (A) (A) (A) (A) (A) (A) (A) (A) (A) (A)
       Virtual   (A) (A) (A) (A) (A) (A) (A) (A) (A) (A) (A) (A)
                 (A) (A) (A) (A) (A) (A) (A) (A) (A) (A) (A) (A)
                 (A) (A) (A) (A) (A) (A) (A) (A) (A) (A) (A) (A)
                 (A) (A) (A) (A) (A) (A) (A) (A) (A) (A) (A) (A)
                 (A) (A) (A) (A) (A) (A) (A) (A) (A) (A) (A) (A)
                 (A) (A) (A) (A) (A) (A) (A) (A) (A) (A) (A) (A)
                 (A) (A) (A) (A) (A) (A) (A) (A) (A) (A) (A) (A)
                 (A) (A) (A) (A) (A) (A) (A) (A) (A) (A) (A) (A)
                 (A) (A) (A) (A) (A) (A) (A) (A) (A) (A) (A) (A)
                 (A) (A) (A) (A) (A) (A) (A) (A) (A) (A) (A) (A)
                 (A) (A) (A) (A) (A) (A) (A) (A) (A) (A) (A) (A)
                 (A) (A) (A) (A) (A) (A) (A) (A) (A) (A) (A) (A)
                 (A) (A) (A) (A) (A) (A) (A) (A) (A) (A) (A) (A)
                 (A) (A) (A) (A) (A) (A) (A) (A) (A) (A) (A) (A)
                 (A) (A) (A) (A) (A) (A) (A) (A) (A) (A) (A) (A)
                 (A) (A) (A) (A) (A) (A) (A) (A) (A) (A) (A) (A)
                 (A) (A) (A) (A) (A) (A) (A) (A) (A) (A) (A) (A)
                 (A) (A) (A) (A) (A) (A) (A) (A) (A) (A) (A) (A)
                 (A) (A) (A) (A) (A) (A) (A) (A) (A) (A) (A) (A)
                 (A) (A) (A) (A) (A) (A) (A) (A) (A) (A) (A) (A)
                 (A) (A) (A) (A) (A) (A) (A) (A) (A) (A) (A) (A)
                 (A) (A) (A) (A) (A) (A) (A) (A) (A) (A) (A) (A)
                 (A) (A) (A) (A) (A) (A) (A) (A) (A) (A) (A) (A)
                 (A) (A) (A) (A) (A) (A) (A) (A) (A) (A) (A) (A)
                 (A) (A) (A) (A) (A) (A) (A) (A) (A) (A) (A) (A)
                 (A) (A) (A) (A) (A) (A) (A) (A) (A) (A) (A) (A)
                 (A) (A) (A) (A) (A) (A) (A) (A) (A) (A) (A) (A)
                 (A) (A) (A) (A) (A) (A) (A) (A)
 The electronic state is 1-A.
 Alpha  occ. eigenvalues --  -10.77660 -10.73313 -10.73216 -10.72501 -10.72496
 Alpha  occ. eigenvalues --  -10.71473 -10.71421 -10.71060 -10.71043 -10.70981
 Alpha  occ. eigenvalues --  -10.70075 -10.70038 -10.69628 -10.69581  -1.16394
 Alpha  occ. eigenvalues --   -1.12307  -1.06863  -1.05783  -1.01166  -1.00196
 Alpha  occ. eigenvalues --   -0.95724  -0.91070  -0.86412  -0.85874  -0.83809
 Alpha  occ. eigenvalues --   -0.78392  -0.76015  -0.74386  -0.69574  -0.69287
 Alpha  occ. eigenvalues --   -0.68565  -0.68235  -0.68133  -0.64622  -0.64185
 Alpha  occ. eigenvalues --   -0.63148  -0.61965  -0.59943  -0.59561  -0.59132
 Alpha  occ. eigenvalues --   -0.56917  -0.55257  -0.54879  -0.52376  -0.46522
 Alpha  occ. eigenvalues --   -0.46052  -0.44430
 Alpha virt. eigenvalues --   -0.26075  -0.14757  -0.14119  -0.12869  -0.11178
 Alpha virt. eigenvalues --   -0.10082  -0.09218  -0.07998  -0.07942  -0.07471
 Alpha virt. eigenvalues --   -0.07211  -0.07149  -0.05645  -0.05582  -0.05348
 Alpha virt. eigenvalues --   -0.03802  -0.03640  -0.03282  -0.03134  -0.02161
 Alpha virt. eigenvalues --   -0.01361  -0.00916   0.00191   0.00626   0.00687
 Alpha virt. eigenvalues --    0.01047   0.01513   0.01912   0.02208   0.02292
 Alpha virt. eigenvalues --    0.02434   0.02657   0.02705   0.03306   0.03388
 Alpha virt. eigenvalues --    0.04247   0.04502   0.04690   0.04987   0.05358
 Alpha virt. eigenvalues --    0.06030   0.06289   0.06596   0.07039   0.07233
 Alpha virt. eigenvalues --    0.07872   0.08091   0.08361   0.08500   0.08933
 Alpha virt. eigenvalues --    0.09556   0.09569   0.10031   0.10802   0.11033
 Alpha virt. eigenvalues --    0.11119   0.12197   0.12268   0.12892   0.13012
 Alpha virt. eigenvalues --    0.13406   0.13534   0.14025   0.14303   0.16115
 Alpha virt. eigenvalues --    0.16301   0.16516   0.17375   0.17591   0.17726
 Alpha virt. eigenvalues --    0.18104   0.18993   0.19191   0.19605   0.19715
 Alpha virt. eigenvalues --    0.21491   0.21533   0.22724   0.23125   0.23563
 Alpha virt. eigenvalues --    0.23649   0.24559   0.25132   0.26880   0.27527
 Alpha virt. eigenvalues --    0.28838   0.29287   0.29842   0.31272   0.35806
 Alpha virt. eigenvalues --    0.36309   0.38077   0.39198   0.41162   0.41454
 Alpha virt. eigenvalues --    0.41950   0.42296   0.43013   0.43599   0.44288
 Alpha virt. eigenvalues --    0.44802   0.44904   0.45813   0.46079   0.47937
 Alpha virt. eigenvalues --    0.48575   0.48890   0.49059   0.50448   0.51152
 Alpha virt. eigenvalues --    0.51481   0.51523   0.52120   0.52698   0.53995
 Alpha virt. eigenvalues --    0.54112   0.54556   0.55712   0.55759   0.57455
 Alpha virt. eigenvalues --    0.58209   0.58791   0.61408   0.62119   0.62333
 Alpha virt. eigenvalues --    0.63075   0.63563   0.64783   0.65140   0.67174
 Alpha virt. eigenvalues --    0.70412   0.70617   0.70985   0.72298   0.72801
 Alpha virt. eigenvalues --    0.75736   0.75834   0.76207   0.76785   0.77024
 Alpha virt. eigenvalues --    0.77661   0.77765   0.78171   0.80187   0.80406
 Alpha virt. eigenvalues --    0.81189   0.81594   0.82086   0.82926   0.85044
 Alpha virt. eigenvalues --    0.86999   0.87914   0.88125   0.89427   0.90426
 Alpha virt. eigenvalues --    0.90860   0.91373   0.93094   0.94658   0.96431
 Alpha virt. eigenvalues --    0.96655   1.00463   1.01276   1.01593   1.02624
 Alpha virt. eigenvalues --    1.03099   1.03855   1.04601   1.05632   1.08748
 Alpha virt. eigenvalues --    1.19718   1.23323   1.24065   1.25300   1.27966
 Alpha virt. eigenvalues --    1.29436   1.31969   1.33982   1.35569   1.35942
 Alpha virt. eigenvalues --    1.39197   1.40195   1.40727   1.42875   1.43268
 Alpha virt. eigenvalues --    1.43436   1.45062   1.45197   1.46423   1.46735
 Alpha virt. eigenvalues --    1.47583   1.47757   1.51652   1.53599   1.55645
 Alpha virt. eigenvalues --    1.55937   1.56127   1.56470   1.57669   1.61314
 Alpha virt. eigenvalues --    1.63367   1.63798   1.63947   1.66027   1.68122
 Alpha virt. eigenvalues --    1.68455   1.68631   1.69710   1.74146   1.75954
 Alpha virt. eigenvalues --    1.77088   1.77958   1.79799   1.79991   1.80384
 Alpha virt. eigenvalues --    1.83115   1.83178   1.83512   1.83658   1.84123
 Alpha virt. eigenvalues --    1.84273   1.85802   1.85899   1.88142   1.91455
 Alpha virt. eigenvalues --    1.91886   1.94134   1.95229   1.97519   1.97863
 Alpha virt. eigenvalues --    1.99473   2.02415   2.04196   2.07463   2.11674
 Alpha virt. eigenvalues --    2.11991   2.13868   2.15150   2.18734   2.21121
 Alpha virt. eigenvalues --    2.22431   2.28473   2.29869   2.34514   2.35123
 Alpha virt. eigenvalues --    2.36097   2.38998   2.40052   2.42136   2.43322
 Alpha virt. eigenvalues --    2.46219   2.47522   2.48988   2.52712   2.53775
 Alpha virt. eigenvalues --    2.54188   2.56859   2.57791   2.58273   2.59632
 Alpha virt. eigenvalues --    2.59704   2.61657   2.61884   2.63393   2.63773
 Alpha virt. eigenvalues --    2.64606   2.64848   2.65088   2.65212   2.67862
 Alpha virt. eigenvalues --    2.68716   2.70888   2.71379   2.73341   2.74814
 Alpha virt. eigenvalues --    2.76256   2.78480   2.79608   2.82547   2.82959
 Alpha virt. eigenvalues --    2.84529   2.86269   2.92066   2.96822   2.99385
 Alpha virt. eigenvalues --    2.99823   3.05445   3.10550   3.10975   3.12329
 Alpha virt. eigenvalues --    3.20918   3.23777   3.26276   3.27933   3.30465
 Alpha virt. eigenvalues --    3.32094   3.33246   3.43350   3.45481   3.45937
 Alpha virt. eigenvalues --    3.47941   3.49674   3.56332   3.65550   3.67107
 Alpha virt. eigenvalues --    3.67510   3.94485   3.95004   3.95705   3.96501
 Alpha virt. eigenvalues --    4.04360   4.06953   4.07209   4.12498   4.35614
 Alpha virt. eigenvalues --    4.61486   4.69317   4.71073  23.45487  23.61071
 Alpha virt. eigenvalues --   23.81856  23.85788  23.87637  23.89120  23.90482
 Alpha virt. eigenvalues --   23.92236  23.97199  23.98333  23.98690  23.99573
 Alpha virt. eigenvalues --   24.09791  24.10035
          Condensed to atoms (all electrons):
               1          2          3          4          5          6
     1  C    8.492392   0.380506  -0.549327   1.859131  -0.007623  -0.091584
     2  C    0.380506   7.073509   0.358706  -1.010428  -0.023465  -0.014016
     3  C   -0.549327   0.358706   6.576653   0.714616  -0.121219   0.016543
     4  C    1.859131  -1.010428   0.714616  10.803644  -0.264565  -0.119109
     5  C   -0.007623  -0.023465  -0.121219  -0.264565  10.805780   0.693111
     6  C   -0.091584  -0.014016   0.016543  -0.119109   0.693111   6.571255
     7  C   -0.024758   0.002861  -0.014171  -0.024943  -0.988387   0.353306
     8  C    0.396815  -0.021403  -0.091835  -0.019505   1.886670  -0.561470
     9  C   -1.227217  -0.767411   0.290646  -0.274263  -0.257318   0.293866
    10  C   -1.228265   0.232866  -0.350109  -2.504976  -2.503734  -0.339363
    11  C    0.286354  -0.927222   1.042822  -0.404783  -1.534696  -0.156086
    12  C   -1.853912   1.278843  -1.383595  -1.316741  -0.274594  -0.205694
    13  C    0.151828  -0.239478  -0.160606  -1.537640  -0.420628   1.045699
    14  C   -1.065262  -0.200682  -0.205499  -0.269312  -1.357767  -1.362192
    15  H    0.363757  -0.105403  -0.000731   0.026887   0.005631   0.001095
    16  H   -0.020934   0.379800  -0.017450   0.013313  -0.001490  -0.000318
    17  H   -0.023522  -0.018054   0.378169  -0.065773   0.000146   0.000388
    18  H    0.048089   0.004307  -0.087250   0.453432   0.008155  -0.004922
    19  H   -0.046490  -0.007986   0.051804  -0.073330  -0.074477   0.051779
    20  H    0.007337   0.001920  -0.004964   0.007977   0.452078  -0.088265
    21  H   -0.001311  -0.000389   0.000391   0.000168  -0.065688   0.377990
    22  H    0.000728   0.000360  -0.000321  -0.001514   0.013766  -0.017945
    23  H    0.005722  -0.002700   0.001102   0.005640   0.026691  -0.000853
    24  H    0.023621   0.014215  -0.001993  -0.011857  -0.013440  -0.001503
    25  H    0.041468   0.014615  -0.000755  -0.013207  -0.011811  -0.001390
               7          8          9         10         11         12
     1  C   -0.024758   0.396815  -1.227217  -1.228265   0.286354  -1.853912
     2  C    0.002861  -0.021403  -0.767411   0.232866  -0.927222   1.278843
     3  C   -0.014171  -0.091835   0.290646  -0.350109   1.042822  -1.383595
     4  C   -0.024943  -0.019505  -0.274263  -2.504976  -0.404783  -1.316741
     5  C   -0.988387   1.886670  -0.257318  -2.503734  -1.534696  -0.274594
     6  C    0.353306  -0.561470   0.293866  -0.339363  -0.156086  -0.205694
     7  C    7.033389   0.385390  -0.753035   0.225124  -0.224513  -0.196699
     8  C    0.385390   8.481292  -1.198317  -1.228067   0.167518  -1.040839
     9  C   -0.753035  -1.198317   9.428677   0.270118   1.649784  -1.837296
    10  C    0.225124  -1.228067   0.270118   9.118320  -0.418161   2.288314
    11  C   -0.224513   0.167518   1.649784  -0.418161  14.425250  -3.714026
    12  C   -0.196699  -1.040839  -1.837296   2.288314  -3.714026  15.702259
    13  C   -0.916604   0.237123   1.630888  -0.424606   1.175419  -4.819232
    14  C    1.260058  -1.879501  -1.852562   2.299149  -4.784061   2.912545
    15  H   -0.002595   0.005627   0.090265  -0.009694  -0.027165  -0.023619
    16  H    0.000350   0.000625   0.003235  -0.009381   0.025863  -0.030710
    17  H   -0.000385  -0.001282  -0.005214   0.020112  -0.026613   0.088009
    18  H    0.001916   0.007151  -0.025414   0.016737  -0.013093  -0.047560
    19  H   -0.008107  -0.046419   0.074671   0.422517   0.083044  -0.067523
    20  H    0.005193   0.048112  -0.025261   0.017519  -0.012159  -0.011116
    21  H   -0.018587  -0.022913  -0.005185   0.020037  -0.005995   0.004986
    22  H    0.379098  -0.019366   0.003891  -0.009672   0.002914  -0.008935
    23  H   -0.104139   0.365071   0.090662  -0.009629   0.001068   0.006380
    24  H    0.015732   0.027191   0.363506   0.005801   0.009491  -0.051926
    25  H    0.012706   0.036591   0.351253   0.005531   0.018057  -0.067973
              13         14         15         16         17         18
     1  C    0.151828  -1.065262   0.363757  -0.020934  -0.023522   0.048089
     2  C   -0.239478  -0.200682  -0.105403   0.379800  -0.018054   0.004307
     3  C   -0.160606  -0.205499  -0.000731  -0.017450   0.378169  -0.087250
     4  C   -1.537640  -0.269312   0.026887   0.013313  -0.065773   0.453432
     5  C   -0.420628  -1.357767   0.005631  -0.001490   0.000146   0.008155
     6  C    1.045699  -1.362192   0.001095  -0.000318   0.000388  -0.004922
     7  C   -0.916604   1.260058  -0.002595   0.000350  -0.000385   0.001916
     8  C    0.237123  -1.879501   0.005627   0.000625  -0.001282   0.007151
     9  C    1.630888  -1.852562   0.090265   0.003235  -0.005214  -0.025414
    10  C   -0.424606   2.299149  -0.009694  -0.009381   0.020112   0.016737
    11  C    1.175419  -4.784061  -0.027165   0.025863  -0.026613  -0.013093
    12  C   -4.819232   2.912545  -0.023619  -0.030710   0.088009  -0.047560
    13  C   14.549726  -3.691738   0.001315   0.002839  -0.006139  -0.012552
    14  C   -3.691738  15.745657   0.006528  -0.008781   0.005020  -0.011772
    15  H    0.001315   0.006528   0.439758  -0.009003   0.001524   0.000154
    16  H    0.002839  -0.008781  -0.009003   0.419780  -0.006812   0.001929
    17  H   -0.006139   0.005020   0.001524  -0.006812   0.423876  -0.010465
    18  H   -0.012552  -0.011772   0.000154   0.001929  -0.010465   0.453651
    19  H    0.082494  -0.066737   0.000311  -0.000559   0.001464  -0.006357
    20  H   -0.013448  -0.047945  -0.000120   0.000016  -0.000146   0.001294
    21  H   -0.025957   0.087031   0.000015  -0.000007   0.000011  -0.000145
    22  H    0.026665  -0.032924  -0.000127   0.000007  -0.000007   0.000015
    23  H   -0.028229  -0.024397   0.000575  -0.000127   0.000015  -0.000117
    24  H    0.008478  -0.049720  -0.001305   0.000734  -0.000181   0.000188
    25  H    0.017897  -0.070366  -0.000531   0.000515  -0.000106   0.000171
              19         20         21         22         23         24
     1  C   -0.046490   0.007337  -0.001311   0.000728   0.005722   0.023621
     2  C   -0.007986   0.001920  -0.000389   0.000360  -0.002700   0.014215
     3  C    0.051804  -0.004964   0.000391  -0.000321   0.001102  -0.001993
     4  C   -0.073330   0.007977   0.000168  -0.001514   0.005640  -0.011857
     5  C   -0.074477   0.452078  -0.065688   0.013766   0.026691  -0.013440
     6  C    0.051779  -0.088265   0.377990  -0.017945  -0.000853  -0.001503
     7  C   -0.008107   0.005193  -0.018587   0.379098  -0.104139   0.015732
     8  C   -0.046419   0.048112  -0.022913  -0.019366   0.365071   0.027191
     9  C    0.074671  -0.025261  -0.005185   0.003891   0.090662   0.363506
    10  C    0.422517   0.017519   0.020037  -0.009672  -0.009629   0.005801
    11  C    0.083044  -0.012159  -0.005995   0.002914   0.001068   0.009491
    12  C   -0.067523  -0.011116   0.004986  -0.008935   0.006380  -0.051926
    13  C    0.082494  -0.013448  -0.025957   0.026665  -0.028229   0.008478
    14  C   -0.066737  -0.047945   0.087031  -0.032924  -0.024397  -0.049720
    15  H    0.000311  -0.000120   0.000015  -0.000127   0.000575  -0.001305
    16  H   -0.000559   0.000016  -0.000007   0.000007  -0.000127   0.000734
    17  H    0.001464  -0.000146   0.000011  -0.000007   0.000015  -0.000181
    18  H   -0.006357   0.001294  -0.000145   0.000015  -0.000117   0.000188
    19  H    0.444576  -0.006400   0.001451  -0.000555   0.000322   0.000608
    20  H   -0.006400   0.453766  -0.010338   0.001959   0.000137   0.000155
    21  H    0.001451  -0.010338   0.423441  -0.006772   0.001519  -0.000167
    22  H   -0.000555   0.001959  -0.006772   0.419757  -0.009029   0.000674
    23  H    0.000322   0.000137   0.001519  -0.009029   0.439372  -0.001117
    24  H    0.000608   0.000155  -0.000167   0.000674  -0.001117   0.492704
    25  H    0.000611   0.000210  -0.000122   0.000570  -0.000730  -0.079172
              25
     1  C    0.041468
     2  C    0.014615
     3  C   -0.000755
     4  C   -0.013207
     5  C   -0.011811
     6  C   -0.001390
     7  C    0.012706
     8  C    0.036591
     9  C    0.351253
    10  C    0.005531
    11  C    0.018057
    12  C   -0.067973
    13  C    0.017897
    14  C   -0.070366
    15  H   -0.000531
    16  H    0.000515
    17  H   -0.000106
    18  H    0.000171
    19  H    0.000611
    20  H    0.000210
    21  H   -0.000122
    22  H    0.000570
    23  H   -0.000730
    24  H   -0.079172
    25  H    0.493046
 Mulliken charges:
               1
     1  C    0.082459
     2  C   -0.403873
     3  C   -0.441626
     4  C    0.027139
     5  C    0.028875
     6  C   -0.440323
     7  C   -0.398200
     8  C    0.085741
     9  C   -0.312971
    10  C    0.093513
    11  C   -0.639011
    12  C    0.670652
    13  C   -0.633512
    14  C    0.665229
    15  H    0.236849
    16  H    0.256565
    17  H    0.245964
    18  H    0.222456
    19  H    0.189290
    20  H    0.222487
    21  H    0.246537
    22  H    0.256763
    23  H    0.236791
    24  H    0.249282
    25  H    0.252923
 Sum of Mulliken charges =   1.00000
 Mulliken charges with hydrogens summed into heavy atoms:
               1
     1  C    0.319309
     2  C   -0.147307
     3  C   -0.195662
     4  C    0.249595
     5  C    0.251362
     6  C   -0.193786
     7  C   -0.141437
     8  C    0.322532
     9  C    0.189235
    10  C    0.282803
    11  C   -0.639011
    12  C    0.670652
    13  C   -0.633512
    14  C    0.665229
 Electronic spatial extent (au):  <R**2>=           2861.8194
 Charge=              1.0000 electrons
 Dipole moment (field-independent basis, Debye):
    X=              0.0094    Y=              0.1902    Z=              0.0001  Tot=              0.1904
 Quadrupole moment (field-independent basis, Debye-Ang):
   XX=            -30.9855   YY=            -56.2611   ZZ=            -84.1904
   XY=              0.0053   XZ=              0.0086   YZ=              0.0710
 Traceless Quadrupole moment (field-independent basis, Debye-Ang):
   XX=             26.1601   YY=              0.8845   ZZ=            -27.0447
   XY=              0.0053   XZ=              0.0086   YZ=              0.0710
 Octapole moment (field-independent basis, Debye-Ang**2):
  XXX=              0.3860  YYY=              5.2072  ZZZ=             -0.0241  XYY=             -0.0041
  XXY=             -4.6936  XXZ=              0.1314  XZZ=             -0.0457  YZZ=             -3.0867
  YYZ=              0.0966  XYZ=              0.0433
 Hexadecapole moment (field-independent basis, Debye-Ang**3):
 XXXX=          -2124.8194 YYYY=           -609.2959 ZZZZ=            -99.5047 XXXY=              0.2175
 XXXZ=              0.2451 YYYX=             -0.0897 YYYZ=              0.7624 ZZZX=              0.0117
 ZZZY=              0.0372 XXYY=           -508.7486 XXZZ=           -592.3991 YYZZ=           -145.7672
 XXYZ=              0.7893 YYXZ=              0.0002 ZZXY=              0.0045
 N-N= 7.804972682104D+02 E-N=-2.797296739510D+03  KE= 5.374624956677D+02
 Unable to Open any file for archive entry.
 1\1\GINC-GADI-CPU-CLX-2542\SP\RM062X TD-FC\6-311++G(d,p)\C14H11(1+)\TS
 1578\27-Jul-2022\0\\#n M062X/6-311++G(d,p) TD(NStates=1) EmpiricalDisp
 ersion=GD3 SP\\SP_125\\1,1\C,0,0.0136,2.491155,1.360431\C,0,0.014,3.70
 6183,0.671989\C,0,0.0045,3.691411,-0.71383\C,0,-0.011525,2.469631,-1.4
 07538\C,0,-0.011875,-2.470331,-1.407538\C,0,0.0024,-3.694911,-0.71383\
 C,0,0.010675,-3.707408,0.671989\C,0,0.00695,-2.493255,1.360431\C,0,0.0
 06475,0.0077,1.453369\C,0,-0.0183,-0.00035,-1.429189\C,0,-0.002475,1.2
 56405,0.677065\C,0,-0.0082,1.238896,-0.730804\C,0,-0.003,-1.25623,0.67
 7065\C,0,-0.0068,-1.237846,-0.730804\H,0,0.007,2.486596,2.443647\H,0,0
 .0145,4.639753,1.211689\H,0,-0.00165,4.606737,-1.272349\H,0,-0.006,2.4
 73925,-2.490059\H,0,-0.016875,-0.000175,-2.510266\H,0,-0.00495,-2.4744
 5,-2.490059\H,0,-0.0027,-4.611112,-1.272349\H,0,0.010475,-4.642378,1.2
 11689\H,0,-0.0007,-2.488871,2.443647\H,0,-0.835585,0.00175,2.143862\H,
 0,0.883585,0.00175,2.147712\\Version=ES64L-G16RevC.01\State=1-A\HF=-53
 9.7591942\RMSD=4.532e-09\PG=C01 [X(C14H11)]\\@
 The archive entry for this job was punched.


 Everything starts as somebody's daydream.
                           -- Larry Niven
 Job cpu time:       0 days  1 hours 13 minutes 36.6 seconds.
 Elapsed time:       0 days  0 hours  2 minutes 20.5 seconds.
 File lengths (MBytes):  RWF=    460 Int=      0 D2E=      0 Chk=     15 Scr=      1
 Normal termination of Gaussian 16 at Wed Jul 27 13:32:21 2022.
