 Entering Gaussian System, Link 0=g16
 Initial command:
 /apps/gaussian/g16c01/g16/l1.exe "/jobfs/52804872.gadi-pbs/Gau-1412588.inp" -scrdir="/jobfs/52804872.gadi-pbs/"
 Entering Link 1 = /apps/gaussian/g16c01/g16/l1.exe PID=   1412589.
  
 Copyright (c) 1988-2019, Gaussian, Inc.  All Rights Reserved.
  
 This is part of the Gaussian(R) 16 program.  It is based on
 the Gaussian(R) 09 system (copyright 2009, Gaussian, Inc.),
 the Gaussian(R) 03 system (copyright 2003, Gaussian, Inc.),
 the Gaussian(R) 98 system (copyright 1998, Gaussian, Inc.),
 the Gaussian(R) 94 system (copyright 1995, Gaussian, Inc.),
 the Gaussian 92(TM) system (copyright 1992, Gaussian, Inc.),
 the Gaussian 90(TM) system (copyright 1990, Gaussian, Inc.),
 the Gaussian 88(TM) system (copyright 1988, Gaussian, Inc.),
 the Gaussian 86(TM) system (copyright 1986, Carnegie Mellon
 University), and the Gaussian 82(TM) system (copyright 1983,
 Carnegie Mellon University). Gaussian is a federally registered
 trademark of Gaussian, Inc.
  
 This software contains proprietary and confidential information,
 including trade secrets, belonging to Gaussian, Inc.
  
 This software is provided under written license and may be
 used, copied, transmitted, or stored only in accord with that
 written license.
  
 The following legend is applicable only to US Government
 contracts under FAR:
  
                    RESTRICTED RIGHTS LEGEND
  
 Use, reproduction and disclosure by the US Government is
 subject to restrictions as set forth in subparagraphs (a)
 and (c) of the Commercial Computer Software - Restricted
 Rights clause in FAR 52.227-19.
  
 Gaussian, Inc.
 340 Quinnipiac St., Bldg. 40, Wallingford CT 06492
  
  
 ---------------------------------------------------------------
 Warning -- This program may not be used in any manner that
 competes with the business of Gaussian, Inc. or will provide
 assistance to any competitor of Gaussian, Inc.  The licensee
 of this program is prohibited from giving any competitor of
 Gaussian, Inc. access to this program.  By using this program,
 the user acknowledges that Gaussian, Inc. is engaged in the
 business of creating and licensing software in the field of
 computational chemistry and represents and warrants to the
 licensee that it is not a competitor of Gaussian, Inc. and that
 it will not use this program in any manner prohibited above.
 ---------------------------------------------------------------
  

 Cite this work as:
 Gaussian 16, Revision C.01,
 M. J. Frisch, G. W. Trucks, H. B. Schlegel, G. E. Scuseria, 
 M. A. Robb, J. R. Cheeseman, G. Scalmani, V. Barone, 
 G. A. Petersson, H. Nakatsuji, X. Li, M. Caricato, A. V. Marenich, 
 J. Bloino, B. G. Janesko, R. Gomperts, B. Mennucci, H. P. Hratchian, 
 J. V. Ortiz, A. F. Izmaylov, J. L. Sonnenberg, D. Williams-Young, 
 F. Ding, F. Lipparini, F. Egidi, J. Goings, B. Peng, A. Petrone, 
 T. Henderson, D. Ranasinghe, V. G. Zakrzewski, J. Gao, N. Rega, 
 G. Zheng, W. Liang, M. Hada, M. Ehara, K. Toyota, R. Fukuda, 
 J. Hasegawa, M. Ishida, T. Nakajima, Y. Honda, O. Kitao, H. Nakai, 
 T. Vreven, K. Throssell, J. A. Montgomery, Jr., J. E. Peralta, 
 F. Ogliaro, M. J. Bearpark, J. J. Heyd, E. N. Brothers, K. N. Kudin, 
 V. N. Staroverov, T. A. Keith, R. Kobayashi, J. Normand, 
 K. Raghavachari, A. P. Rendell, J. C. Burant, S. S. Iyengar, 
 J. Tomasi, M. Cossi, J. M. Millam, M. Klene, C. Adamo, R. Cammi, 
 J. W. Ochterski, R. L. Martin, K. Morokuma, O. Farkas, 
 J. B. Foresman, and D. J. Fox, Gaussian, Inc., Wallingford CT, 2019.
 
 ******************************************
 Gaussian 16:  ES64L-G16RevC.01  3-Jul-2019
                27-Jul-2022 
 ******************************************
 %NProcShared=32
 Will use up to   32 processors via shared memory.
 %mem = 128GB
 ---------------------------------------------------------------
 #n M062X/6-311++G(d,p) TD(NStates=1) EmpiricalDispersion=GD3 SP
 ---------------------------------------------------------------
 1/38=1,172=1/1;
 2/12=2,17=6,18=5,40=1/2;
 3/5=4,6=6,7=1111,11=9,25=1,30=1,74=-55,124=31/1,2,3,8;
 4//1;
 5/5=2,38=5/2;
 8/6=1,10=2,108=1/1;
 9/41=1,42=1,70=2/14;
 6/7=2,8=2,9=2,10=2/1;
 99/5=1,9=1/99;
 ------
 SP_-75
 ------
 Symbolic Z-matrix:
 Charge =  1 Multiplicity = 1
 C                     2.4869    1.37      0. 
 C                     3.6962    0.67938   0. 
 C                     3.682    -0.70695   0. 
 C                     2.46698  -1.40093   0. 
 C                    -2.45918  -1.39638   0. 
 C                    -3.6843   -0.70075   0. 
 C                    -3.70443   0.6829    0. 
 C                    -2.49375   1.3697    0. 
 C                    -0.00213   1.4566    0. 
 C                     0.0061   -1.42025   0. 
 C                     1.26283   0.68755   0. 
 C                     1.2405   -0.72278   0. 
 C                    -1.261     0.68373   0. 
 C                    -1.2355   -0.72218   0. 
 H                     2.4843    2.45323   0. 
 H                     4.6312    1.2199    0. 
 H                     4.60965  -1.26203   0. 
 H                     2.4697   -2.48342   0. 
 H                     0.00563  -2.50147   0. 
 H                    -2.46605  -2.479     0. 
 H                    -4.6082   -1.26225   0. 
 H                    -4.63953   1.22278   0. 
 H                    -2.4864    2.453     0. 
 H                    -0.008     2.15325  -0.85823 
 H                    -0.008     2.15325   0.85823 
 
                          Input orientation:                          
 ---------------------------------------------------------------------
 Center     Atomic      Atomic             Coordinates (Angstroms)
 Number     Number       Type             X           Y           Z
 ---------------------------------------------------------------------
      1          6           0        2.486900    1.370000    0.000000
      2          6           0        3.696200    0.679375    0.000000
      3          6           0        3.682000   -0.706950    0.000000
      4          6           0        2.466975   -1.400925    0.000000
      5          6           0       -2.459175   -1.396375    0.000000
      6          6           0       -3.684300   -0.700750    0.000000
      7          6           0       -3.704425    0.682900    0.000000
      8          6           0       -2.493750    1.369700    0.000000
      9          6           0       -0.002125    1.456600    0.000000
     10          6           0        0.006100   -1.420250    0.000000
     11          6           0        1.262825    0.687550    0.000000
     12          6           0        1.240500   -0.722775    0.000000
     13          6           0       -1.261000    0.683725    0.000000
     14          6           0       -1.235500   -0.722175    0.000000
     15          1           0        2.484300    2.453225    0.000000
     16          1           0        4.631200    1.219900    0.000000
     17          1           0        4.609650   -1.262025    0.000000
     18          1           0        2.469700   -2.483425    0.000000
     19          1           0        0.005625   -2.501475    0.000000
     20          1           0       -2.466050   -2.479000    0.000000
     21          1           0       -4.608200   -1.262250    0.000000
     22          1           0       -4.639525    1.222775    0.000000
     23          1           0       -2.486400    2.453000    0.000000
     24          1           0       -0.008000    2.153250   -0.858225
     25          1           0       -0.008000    2.153250    0.858225
 ---------------------------------------------------------------------
                    Distance matrix (angstroms):
                    1          2          3          4          5
     1  C    0.000000
     2  C    1.392612   0.000000
     3  C    2.396244   1.386398   0.000000
     4  C    2.770997   2.416328   1.399245   0.000000
     5  C    5.667141   6.495951   6.179752   4.926152   0.000000
     6  C    6.509356   7.508430   7.366303   6.190996   1.408838
     7  C    6.229335   7.400626   7.516047   6.513717   2.423640
     8  C    4.980650   6.228325   6.515548   5.682003   2.766291
     9  C    2.490531   3.779112   4.272438   3.776494   3.765177
    10  C    3.733613   4.245617   3.744468   2.460951   2.465391
    11  C    1.401463   2.433389   2.792318   2.410748   4.265680
    12  C    2.435820   2.827806   2.441551   1.401474   3.760496
    13  C    3.810214   4.957202   5.134903   4.271248   2.400508
    14  C    4.270065   5.126988   4.917524   3.764176   1.397114
    15  H    1.083228   2.148312   3.379525   3.854189   6.265570
    16  H    2.149547   1.079996   2.147960   3.398911   7.557666
    17  H    3.381364   2.145559   1.081038   2.147172   7.070102
    18  H    3.853463   3.392286   2.150706   1.082503   5.047325
    19  H    4.598374   4.872181   4.090972   2.696193   2.701201
    20  H    6.272680   6.924497   6.398334   5.049454   1.082647
    21  H    7.567641   8.528363   8.308777   7.076534   2.153206
    22  H    7.127946   8.353418   8.542343   7.575364   3.407913
    23  H    5.089853   6.431974   6.930688   6.276039   3.849471
    24  H    2.752191   4.077984   4.746935   4.415225   4.398255
    25  H    2.752191   4.077984   4.746935   4.415225   4.398255
                    6          7          8          9         10
     6  C    0.000000
     7  C    1.383796   0.000000
     8  C    2.388341   1.391915   0.000000
     9  C    4.267619   3.782279   2.493140   0.000000
    10  C    3.759885   4.265118   3.746074   2.876862   0.000000
    11  C    5.138231   4.967252   3.818008   1.480384   2.454013
    12  C    4.924849   5.140837   4.280546   2.508743   1.417820
    13  C    2.790906   2.443425   1.410757   1.477194   2.456065
    14  C    2.448894   2.840744   2.441134   2.503652   1.424387
    15  H    6.928144   6.436953   5.094606   2.678726   4.598400
    16  H    8.534427   8.352904   7.126525   4.639367   5.325593
    17  H    8.312920   8.538535   7.575240   5.353447   4.606268
    18  H    6.407000   6.938691   6.283503   4.651206   2.683219
    19  H    4.105869   4.889245   4.607914   3.958083   1.081225
    20  H    2.155529   3.395760   3.848800   4.643261   2.689327
    21  H    1.081145   2.144858   3.376101   5.348651   4.617004
    22  H    2.147651   1.079758   2.150799   4.643291   5.344849
    23  H    3.373589   2.148683   1.083325   2.676646   4.605933
    24  H    4.732552   4.069648   2.743985   1.105399   3.675140
    25  H    4.732552   4.069648   2.743985   1.105399   3.675140
                   11         12         13         14         15
    11  C    0.000000
    12  C    1.410502   0.000000
    13  C    2.523828   2.869799   0.000000
    14  C    2.868615   2.476000   1.406131   0.000000
    15  H    2.147000   3.410867   4.142270   4.890816   0.000000
    16  H    3.410183   3.907791   5.916545   6.179792   2.475938
    17  H    3.873252   3.412032   6.184697   5.870027   4.280210
    18  H    3.392879   2.147282   4.893768   4.102500   4.936672
    19  H    3.427890   2.165338   3.427804   2.169401   5.540116
    20  H    4.891988   4.101565   3.384520   2.144921   6.988048
    21  H    6.186328   5.873527   3.871765   3.415668   8.006767
    22  H    5.926567   6.193534   3.421258   3.920487   7.229308
    23  H    4.144092   4.896461   2.152194   3.412695   4.970700
    24  H    2.121279   3.250665   2.113306   3.242125   2.652941
    25  H    2.121279   3.250665   2.113306   3.242125   2.652941
                   16         17         18         19         20
    16  H    0.000000
    17  H    2.482019   0.000000
    18  H    4.287971   2.463981   0.000000
    19  H    5.936714   4.767943   2.464141   0.000000
    20  H    8.003300   7.179593   4.935752   2.471777   0.000000
    21  H    9.567005   9.217850   7.182474   4.777349   2.463592
    22  H    9.270725   9.577133   8.017294   5.953777   4.292684
    23  H    7.223626   8.009703   6.995085   5.545900   4.932042
    24  H    4.809352   5.807180   5.326753   4.733202   5.313784
    25  H    4.809352   5.807180   5.326753   4.733202   5.313784
                   21         22         23         24         25
    21  H    0.000000
    22  H    2.485222   0.000000
    23  H    4.278448   2.479799   0.000000
    24  H    5.793447   4.801391   2.639861   0.000000
    25  H    5.793447   4.801391   2.639861   1.716450   0.000000
 Stoichiometry    C14H11(1+)
 Framework group  CS[SG(C14H9),X(H2)]
 Deg. of freedom    46
 Full point group                 CS      NOp   2
 Largest Abelian subgroup         CS      NOp   2
 Largest concise Abelian subgroup CS      NOp   2
                         Standard orientation:                         
 ---------------------------------------------------------------------
 Center     Atomic      Atomic             Coordinates (Angstroms)
 Number     Number       Type             X           Y           Z
 ---------------------------------------------------------------------
      1          6           0        2.492860   -1.350532    0.000000
      2          6           0        3.699158   -0.654677    0.000000
      3          6           0        3.678954    0.731574    0.000000
      4          6           0        2.460936    1.420281    0.000000
      5          6           0       -2.465148    1.394399    0.000000
      6          6           0       -3.687250    0.693475    0.000000
      7          6           0       -3.701383   -0.690249    0.000000
      8          6           0       -2.487745   -1.371800    0.000000
      9          6           0        0.004233   -1.447910    0.000000
     10          6           0        0.000000    1.428949    0.000000
     11          6           0        1.265841   -0.673389    0.000000
     12          6           0        1.237409    0.736826    0.000000
     13          6           0       -1.257977   -0.680493    0.000000
     14          6           0       -1.238565    0.725504    0.000000
     15          1           0        2.494950   -2.433758    0.000000
     16          1           0        4.636489   -1.191148    0.000000
     17          1           0        4.604192    1.290661    0.000000
     18          1           0        2.458973    2.502782    0.000000
     19          1           0       -0.005157    2.510162    0.000000
     20          1           0       -2.476712    2.476984    0.000000
     21          1           0       -4.613573    1.250969    0.000000
     22          1           0       -4.634136   -1.234169    0.000000
     23          1           0       -2.475704   -2.455058    0.000000
     24          1           0        0.001375   -2.144579    0.858225
     25          1           0        0.001375   -2.144579   -0.858225
 ---------------------------------------------------------------------
 Rotational constants (GHZ):           2.1380215           0.4448856           0.3690560
 Standard basis: 6-311++G(d,p) (5D, 7F)
 There are   299 symmetry adapted cartesian basis functions of A'  symmetry.
 There are   100 symmetry adapted cartesian basis functions of A"  symmetry.
 There are   285 symmetry adapted basis functions of A'  symmetry.
 There are   100 symmetry adapted basis functions of A"  symmetry.
   385 basis functions,   603 primitive gaussians,   399 cartesian basis functions
    47 alpha electrons       47 beta electrons
       nuclear repulsion energy       781.4420733198 Hartrees.
 NAtoms=   25 NActive=   25 NUniq=   24 SFac= 1.09D+00 NAtFMM=   60 NAOKFM=F Big=F
 Integral buffers will be    131072 words long.
 Regular integral format.
 Two-electron integral symmetry is turned on.
 Nuclear repulsion after empirical dispersion term =      781.4410939137 Hartrees.
 One-electron integrals computed using PRISM.
 NBasis=   385 RedAO= T EigKep=  1.11D-06  NBF=   285   100
 NBsUse=   379 1.00D-06 EigRej=  8.35D-07 NBFU=   279   100
 ExpMin= 3.60D-02 ExpMax= 4.56D+03 ExpMxC= 6.82D+02 IAcc=3 IRadAn=         5 AccDes= 0.00D+00
 Harris functional with IExCor= 1009 and IRadAn=       5 diagonalized for initial guess.
 HarFok:  IExCor= 1009 AccDes= 0.00D+00 IRadAn=         5 IDoV= 1 UseB2=F ITyADJ=14
 ICtDFT=  3500011 ScaDFX=  1.000000  1.000000  1.000000  1.000000
 FoFCou: FMM=F IPFlag=           0 FMFlag=      100000 FMFlg1=           0
         NFxFlg=           0 DoJE=T BraDBF=F KetDBF=T FulRan=T
         wScrn=  0.000000 ICntrl=       500 IOpCl=  0 I1Cent=   200000004 NGrid=           0
         NMat0=    1 NMatS0=      1 NMatT0=    0 NMatD0=    1 NMtDS0=    0 NMtDT0=    0
 Petite list used in FoFCou.
 Initial guess orbital symmetries:
       Occupied  (A') (A') (A') (A') (A') (A') (A') (A') (A') (A')
                 (A') (A') (A') (A') (A') (A') (A') (A') (A') (A')
                 (A') (A') (A') (A') (A') (A') (A') (A') (A') (A')
                 (A') (A') (A") (A') (A') (A') (A') (A') (A') (A")
                 (A") (A') (A') (A") (A") (A") (A")
       Virtual   (A") (A") (A") (A") (A") (A') (A') (A') (A') (A")
                 (A") (A') (A') (A') (A") (A') (A') (A') (A') (A")
                 (A') (A") (A') (A') (A') (A") (A') (A") (A') (A')
                 (A') (A') (A') (A") (A') (A') (A") (A') (A') (A")
                 (A') (A') (A') (A") (A') (A') (A') (A') (A') (A")
                 (A') (A') (A") (A") (A') (A') (A') (A") (A") (A')
                 (A') (A') (A') (A') (A') (A") (A') (A') (A') (A")
                 (A') (A') (A') (A') (A') (A') (A') (A') (A') (A')
                 (A') (A') (A') (A') (A') (A') (A') (A') (A') (A')
                 (A') (A') (A') (A') (A') (A') (A') (A") (A') (A")
                 (A') (A') (A") (A") (A') (A") (A") (A') (A') (A")
                 (A") (A') (A') (A') (A") (A') (A') (A") (A") (A')
                 (A") (A") (A') (A') (A') (A") (A') (A') (A') (A")
                 (A') (A') (A') (A') (A') (A') (A") (A') (A') (A')
                 (A') (A') (A') (A') (A') (A') (A') (A') (A') (A")
                 (A") (A') (A") (A") (A') (A') (A') (A") (A") (A')
                 (A") (A') (A") (A") (A") (A') (A') (A') (A') (A')
                 (A') (A") (A") (A') (A') (A') (A') (A') (A') (A")
                 (A') (A') (A') (A') (A') (A") (A") (A') (A") (A")
                 (A') (A") (A') (A") (A') (A') (A') (A") (A') (A')
                 (A") (A") (A") (A') (A') (A") (A') (A") (A') (A')
                 (A") (A") (A') (A") (A') (A") (A') (A') (A") (A')
                 (A') (A') (A') (A') (A") (A') (A') (A') (A") (A")
                 (A') (A') (A') (A") (A') (A') (A") (A') (A") (A')
                 (A") (A') (A') (A') (A') (A') (A") (A') (A') (A")
                 (A') (A') (A") (A') (A") (A') (A') (A") (A') (A')
                 (A') (A') (A") (A") (A') (A') (A') (A") (A") (A')
                 (A') (A') (A') (A') (A") (A') (A") (A') (A") (A')
                 (A") (A') (A") (A") (A") (A') (A') (A') (A') (A')
                 (A') (A') (A') (A') (A') (A') (A') (A') (A') (A')
                 (A') (A') (A') (A') (A") (A') (A') (A') (A') (A')
                 (A') (A') (A') (A') (A') (A') (A') (A') (A') (A')
                 (A') (A') (A') (A') (A') (A') (A') (A') (A') (A')
                 (A') (A')
 The electronic state of the initial guess is 1-A'.
 Requested convergence on RMS density matrix=1.00D-08 within 128 cycles.
 Requested convergence on MAX density matrix=1.00D-06.
 Requested convergence on             energy=1.00D-06.
 No special actions if energy rises.
 SCF Done:  E(RM062X) =  -539.760029654     A.U. after   15 cycles
            NFock= 15  Conv=0.46D-08     -V/T= 2.0042
 DoSCS=F DFT=T ScalE2(SS,OS)=  1.000000  1.000000
 ExpMin= 3.60D-02 ExpMax= 4.56D+03 ExpMxC= 6.82D+02 IAcc=3 IRadAn=         5 AccDes= 0.00D+00
 HarFok:  IExCor=  205 AccDes= 0.00D+00 IRadAn=         5 IDoV=-2 UseB2=F ITyADJ=14
 ICtDFT= 12500011 ScaDFX=  1.000000  1.000000  1.000000  1.000000
 Range of M.O.s used for correlation:    15   379
 NBasis=   385 NAE=    47 NBE=    47 NFC=    14 NFV=     0
 NROrb=    365 NOA=    33 NOB=    33 NVA=   332 NVB=   332

 **** Warning!!: The largest alpha MO coefficient is  0.15306337D+03

 Orbital symmetries:
       Occupied  (A') (A') (A') (A') (A') (A') (A') (A') (A') (A')
                 (A') (A') (A') (A') (A') (A') (A') (A') (A') (A')
                 (A') (A') (A') (A') (A') (A') (A') (A') (A') (A')
                 (A') (A') (A") (A') (A') (A') (A') (A") (A") (A')
                 (A') (A') (A') (A") (A") (A") (A")
       Virtual   (A") (A") (A") (A") (A') (A') (A') (A') (A") (A')
                 (A') (A") (A') (A') (A") (A') (A") (A') (A') (A')
                 (A") (A") (A') (A') (A') (A") (A') (A") (A') (A')
                 (A") (A') (A") (A') (A') (A') (A') (A') (A") (A')
                 (A") (A') (A') (A") (A") (A') (A") (A') (A") (A')
                 (A') (A') (A') (A') (A') (A") (A') (A') (A') (A')
                 (A') (A") (A') (A') (A') (A") (A') (A') (A') (A')
                 (A') (A') (A') (A') (A') (A') (A') (A') (A') (A')
                 (A') (A') (A') (A') (A') (A') (A') (A') (A') (A')
                 (A') (A') (A') (A') (A") (A') (A") (A") (A') (A")
                 (A') (A') (A') (A') (A") (A") (A') (A") (A") (A')
                 (A') (A') (A") (A') (A') (A") (A') (A") (A') (A")
                 (A") (A') (A") (A') (A') (A') (A") (A') (A') (A')
                 (A') (A') (A') (A') (A') (A') (A') (A') (A') (A')
                 (A') (A') (A') (A") (A') (A') (A') (A') (A') (A')
                 (A') (A') (A") (A') (A") (A') (A") (A") (A') (A")
                 (A") (A') (A') (A") (A") (A") (A') (A") (A') (A')
                 (A') (A') (A') (A") (A") (A') (A') (A') (A') (A")
                 (A') (A') (A') (A") (A') (A") (A') (A') (A") (A")
                 (A") (A') (A') (A") (A') (A") (A') (A') (A') (A')
                 (A") (A") (A") (A') (A") (A') (A') (A") (A') (A')
                 (A') (A") (A') (A") (A") (A') (A") (A') (A') (A")
                 (A') (A') (A') (A') (A") (A') (A') (A') (A") (A")
                 (A') (A') (A') (A") (A') (A') (A') (A") (A") (A')
                 (A") (A') (A') (A") (A') (A') (A') (A') (A') (A')
                 (A") (A') (A') (A') (A') (A") (A") (A") (A') (A')
                 (A') (A') (A') (A') (A') (A') (A") (A') (A') (A')
                 (A') (A") (A') (A") (A") (A") (A') (A") (A') (A")
                 (A') (A") (A") (A') (A") (A") (A') (A') (A') (A')
                 (A') (A') (A') (A') (A') (A') (A') (A') (A') (A')
                 (A') (A') (A') (A") (A') (A') (A') (A') (A') (A')
                 (A') (A') (A') (A') (A') (A') (A') (A') (A') (A')
                 (A') (A') (A') (A') (A') (A') (A') (A') (A') (A')
                 (A') (A')
     4 initial guesses have been made.
 Convergence on wavefunction:    0.001000000000000
 Iteration     1 Dimension     4 NMult     0 NNew      4
 CISAX will form     4 AO SS matrices at one time.
 Iteration     2 Dimension     6 NMult     4 NNew      2
 Iteration     3 Dimension     8 NMult     6 NNew      2
 Iteration     4 Dimension    10 NMult     8 NNew      2
 Iteration     5 Dimension    12 NMult    10 NNew      2
 Iteration     6 Dimension    14 NMult    12 NNew      2
 ***********************************************************************
 Excited states from <AA,BB:AA,BB> singles matrix:
 ***********************************************************************
 
 Ground to excited state transition densities written to RWF  633
 Ground to excited state transition electric dipole moments (Au):
       state          X           Y           Z        Dip. S.      Osc.
         1        -0.0034     -0.6440      0.0000      0.4148      0.0286
 Ground to excited state transition velocity dipole moments (Au):
       state          X           Y           Z        Dip. S.      Osc.
         1        -0.0004      0.0744     -0.0000      0.0055      0.0356
 Ground to excited state transition magnetic dipole moments (Au):
       state          X           Y           Z
         1        -0.0000     -0.0000     -0.0426
 Ground to excited state transition velocity quadrupole moments (Au):
       state          XX          YY          ZZ          XY          XZ          YZ
         1         0.2944      0.0343     -0.0098     -0.0172      0.0000     -0.0000
 <0|del|b> * <b|rxdel|0> + <0|del|b> * <b|delr+rdel|0>
 Rotatory Strengths (R) in cgs (10**-40 erg-esu-cm/Gauss)
       state          XX          YY          ZZ    R(velocity)    E-M Angle
         1        -0.0000      0.0000      0.0000     -0.0000       90.00
 1/2[<0|r|b>*<b|rxdel|0> + (<0|rxdel|b>*<b|r|0>)*]
 Rotatory Strengths (R) in cgs (10**-40 erg-esu-cm/Gauss)
       state          XX          YY          ZZ     R(length)
         1        -0.0000     -0.0000      0.0000      0.0000
  1/2[<0|del|b>*<b|r|0> + (<0|r|b>*<b|del|0>)*] (Au)
       state          X           Y           Z        Dip. S.   Osc.(frdel)
         1         0.0000     -0.0479     -0.0000      0.0479      0.0319

 Excitation energies and oscillator strengths:
 
 Excited State   1:      Singlet-A'     2.8186 eV  439.88 nm  f=0.0286  <S**2>=0.000
      47 -> 48         0.70422
 This state for optimization and/or second-order correction.
 Total Energy, E(TD-HF/TD-DFT) =  -539.656448610    
 Copying the excited state density for this state as the 1-particle RhoCI density.
 SavETr:  write IOETrn=   770 NScale= 10 NData=  16 NLR=1 NState=    1 LETran=      28.

 **********************************************************************

            Population analysis using the SCF Density.

 **********************************************************************

 Orbital symmetries:
       Occupied  (A') (A') (A') (A') (A') (A') (A') (A') (A') (A')
                 (A') (A') (A') (A') (A') (A') (A') (A') (A') (A')
                 (A') (A') (A') (A') (A') (A') (A') (A') (A') (A')
                 (A') (A') (A") (A') (A') (A') (A') (A") (A") (A')
                 (A') (A') (A') (A") (A") (A") (A")
       Virtual   (A") (A") (A") (A") (A') (A') (A') (A') (A") (A')
                 (A') (A") (A') (A') (A") (A') (A") (A') (A') (A')
                 (A") (A") (A') (A') (A') (A") (A') (A") (A') (A')
                 (A") (A') (A") (A') (A') (A') (A') (A') (A") (A')
                 (A") (A') (A') (A") (A") (A') (A") (A') (A") (A')
                 (A') (A') (A') (A') (A') (A") (A') (A') (A') (A')
                 (A') (A") (A') (A') (A') (A") (A') (A') (A') (A')
                 (A') (A') (A') (A') (A') (A') (A') (A') (A') (A')
                 (A') (A') (A') (A') (A') (A') (A') (A') (A') (A')
                 (A') (A') (A') (A') (A") (A') (A") (A") (A') (A")
                 (A') (A') (A') (A') (A") (A") (A') (A") (A") (A')
                 (A') (A') (A") (A') (A') (A") (A') (A") (A') (A")
                 (A") (A') (A") (A') (A') (A') (A") (A') (A') (A')
                 (A') (A') (A') (A') (A') (A') (A') (A') (A') (A')
                 (A') (A') (A') (A") (A') (A') (A') (A') (A') (A')
                 (A') (A') (A") (A') (A") (A') (A") (A") (A') (A")
                 (A") (A') (A') (A") (A") (A") (A') (A") (A') (A')
                 (A') (A') (A') (A") (A") (A') (A') (A') (A') (A")
                 (A') (A') (A') (A") (A') (A") (A') (A') (A") (A")
                 (A") (A') (A') (A") (A') (A") (A') (A') (A') (A')
                 (A") (A") (A") (A') (A") (A') (A') (A") (A') (A')
                 (A') (A") (A') (A") (A") (A') (A") (A') (A') (A")
                 (A') (A') (A') (A') (A") (A') (A') (A') (A") (A")
                 (A') (A') (A') (A") (A') (A') (A') (A") (A") (A')
                 (A") (A') (A') (A") (A') (A') (A') (A') (A') (A')
                 (A") (A') (A') (A') (A') (A") (A") (A") (A') (A')
                 (A') (A') (A') (A') (A') (A') (A") (A') (A') (A')
                 (A') (A") (A') (A") (A") (A") (A') (A") (A') (A")
                 (A') (A") (A") (A') (A") (A") (A') (A') (A') (A')
                 (A') (A') (A') (A') (A') (A') (A') (A') (A') (A')
                 (A') (A') (A') (A") (A') (A') (A') (A') (A') (A')
                 (A') (A') (A') (A') (A') (A') (A') (A') (A') (A')
                 (A') (A') (A') (A') (A') (A') (A') (A') (A') (A')
                 (A') (A')
 The electronic state is 1-A'.
 Alpha  occ. eigenvalues --  -10.77654 -10.73279 -10.73136 -10.72482 -10.72365
 Alpha  occ. eigenvalues --  -10.71434 -10.71296 -10.71139 -10.70963 -10.70881
 Alpha  occ. eigenvalues --  -10.70003 -10.69938 -10.69663 -10.69580  -1.16476
 Alpha  occ. eigenvalues --   -1.12487  -1.06945  -1.05783  -1.01314  -1.00226
 Alpha  occ. eigenvalues --   -0.95773  -0.91068  -0.86423  -0.85912  -0.83827
 Alpha  occ. eigenvalues --   -0.78403  -0.76059  -0.74421  -0.69550  -0.69254
 Alpha  occ. eigenvalues --   -0.68511  -0.68204  -0.68092  -0.64759  -0.64296
 Alpha  occ. eigenvalues --   -0.63103  -0.61866  -0.59986  -0.59675  -0.59085
 Alpha  occ. eigenvalues --   -0.56915  -0.55209  -0.54855  -0.52434  -0.46658
 Alpha  occ. eigenvalues --   -0.46060  -0.44467
 Alpha virt. eigenvalues --   -0.26076  -0.14673  -0.14095  -0.12771  -0.11181
 Alpha virt. eigenvalues --   -0.10090  -0.09230  -0.07983  -0.07963  -0.07477
 Alpha virt. eigenvalues --   -0.07208  -0.07148  -0.05641  -0.05583  -0.05335
 Alpha virt. eigenvalues --   -0.03827  -0.03647  -0.03280  -0.03131  -0.02164
 Alpha virt. eigenvalues --   -0.01370  -0.00931   0.00186   0.00592   0.00680
 Alpha virt. eigenvalues --    0.01056   0.01511   0.01936   0.02221   0.02276
 Alpha virt. eigenvalues --    0.02450   0.02672   0.02751   0.03273   0.03372
 Alpha virt. eigenvalues --    0.04238   0.04510   0.04692   0.05028   0.05365
 Alpha virt. eigenvalues --    0.06031   0.06301   0.06598   0.07055   0.07250
 Alpha virt. eigenvalues --    0.07894   0.08168   0.08369   0.08552   0.08928
 Alpha virt. eigenvalues --    0.09548   0.09563   0.10048   0.10885   0.11057
 Alpha virt. eigenvalues --    0.11111   0.12187   0.12247   0.12914   0.12999
 Alpha virt. eigenvalues --    0.13413   0.13521   0.14027   0.14374   0.16244
 Alpha virt. eigenvalues --    0.16313   0.16331   0.17348   0.17626   0.17795
 Alpha virt. eigenvalues --    0.18132   0.19056   0.19235   0.19650   0.19752
 Alpha virt. eigenvalues --    0.21584   0.21606   0.22729   0.23126   0.23575
 Alpha virt. eigenvalues --    0.23752   0.24548   0.25265   0.26922   0.27614
 Alpha virt. eigenvalues --    0.28865   0.29307   0.29887   0.31374   0.35856
 Alpha virt. eigenvalues --    0.36456   0.38180   0.39282   0.41163   0.41401
 Alpha virt. eigenvalues --    0.41997   0.42174   0.42982   0.43706   0.44298
 Alpha virt. eigenvalues --    0.44943   0.45036   0.46090   0.46188   0.47911
 Alpha virt. eigenvalues --    0.48531   0.48891   0.49013   0.50435   0.51238
 Alpha virt. eigenvalues --    0.51616   0.51737   0.52114   0.52934   0.53977
 Alpha virt. eigenvalues --    0.54087   0.54685   0.55681   0.55767   0.57378
 Alpha virt. eigenvalues --    0.58243   0.58818   0.61454   0.62167   0.62353
 Alpha virt. eigenvalues --    0.63226   0.63495   0.65023   0.65161   0.67345
 Alpha virt. eigenvalues --    0.70392   0.70569   0.71045   0.72428   0.72885
 Alpha virt. eigenvalues --    0.75764   0.76023   0.76310   0.76901   0.77098
 Alpha virt. eigenvalues --    0.77851   0.77912   0.78266   0.79866   0.80403
 Alpha virt. eigenvalues --    0.81271   0.81635   0.82136   0.83022   0.85213
 Alpha virt. eigenvalues --    0.87183   0.88219   0.88625   0.89115   0.90430
 Alpha virt. eigenvalues --    0.91136   0.91249   0.93196   0.94645   0.96472
 Alpha virt. eigenvalues --    0.96643   1.00371   1.01314   1.01680   1.02718
 Alpha virt. eigenvalues --    1.03203   1.03856   1.04742   1.05401   1.08796
 Alpha virt. eigenvalues --    1.19575   1.23252   1.24085   1.25286   1.28123
 Alpha virt. eigenvalues --    1.29655   1.31805   1.34256   1.35789   1.36010
 Alpha virt. eigenvalues --    1.39386   1.40172   1.40972   1.42966   1.43495
 Alpha virt. eigenvalues --    1.43542   1.45080   1.45506   1.46384   1.46684
 Alpha virt. eigenvalues --    1.47640   1.48046   1.51785   1.53630   1.55811
 Alpha virt. eigenvalues --    1.55962   1.56356   1.56561   1.57810   1.61489
 Alpha virt. eigenvalues --    1.63197   1.63506   1.63749   1.66141   1.68357
 Alpha virt. eigenvalues --    1.68360   1.68664   1.69712   1.74435   1.76007
 Alpha virt. eigenvalues --    1.77218   1.78049   1.80126   1.80174   1.80736
 Alpha virt. eigenvalues --    1.83187   1.83203   1.83656   1.83809   1.84141
 Alpha virt. eigenvalues --    1.84297   1.85852   1.86092   1.88239   1.91404
 Alpha virt. eigenvalues --    1.92105   1.94151   1.95230   1.97705   1.98179
 Alpha virt. eigenvalues --    1.99776   2.02612   2.04464   2.07260   2.11829
 Alpha virt. eigenvalues --    2.12096   2.14118   2.15217   2.19170   2.21341
 Alpha virt. eigenvalues --    2.22797   2.28546   2.30332   2.34709   2.34982
 Alpha virt. eigenvalues --    2.36225   2.38685   2.39592   2.42395   2.44424
 Alpha virt. eigenvalues --    2.46189   2.46742   2.49396   2.52943   2.53825
 Alpha virt. eigenvalues --    2.54373   2.56694   2.57852   2.58300   2.59655
 Alpha virt. eigenvalues --    2.59830   2.61622   2.62166   2.63563   2.63838
 Alpha virt. eigenvalues --    2.64790   2.65142   2.65227   2.65359   2.68076
 Alpha virt. eigenvalues --    2.68626   2.70976   2.71418   2.73354   2.74831
 Alpha virt. eigenvalues --    2.76302   2.78955   2.79752   2.83004   2.83080
 Alpha virt. eigenvalues --    2.84913   2.86356   2.92140   2.96978   2.99531
 Alpha virt. eigenvalues --    3.00093   3.05371   3.11186   3.11556   3.13145
 Alpha virt. eigenvalues --    3.21144   3.24111   3.26829   3.28298   3.30791
 Alpha virt. eigenvalues --    3.32805   3.33647   3.43422   3.45923   3.46768
 Alpha virt. eigenvalues --    3.48686   3.50252   3.56602   3.65286   3.67038
 Alpha virt. eigenvalues --    3.67481   3.94183   3.94577   3.95142   3.96255
 Alpha virt. eigenvalues --    4.04028   4.06945   4.07585   4.12533   4.35708
 Alpha virt. eigenvalues --    4.61726   4.69902   4.71675  23.45329  23.60599
 Alpha virt. eigenvalues --   23.82285  23.85804  23.87981  23.89337  23.90493
 Alpha virt. eigenvalues --   23.92454  23.97851  23.99371  23.99964  24.00696
 Alpha virt. eigenvalues --   24.10596  24.10751
          Condensed to atoms (all electrons):
               1          2          3          4          5          6
     1  C    8.507278   0.419864  -0.579352   1.855186  -0.005257  -0.093233
     2  C    0.419864   7.089402   0.379624  -1.018962  -0.028831  -0.015087
     3  C   -0.579352   0.379624   6.586661   0.739565  -0.119283   0.016955
     4  C    1.855186  -1.018962   0.739565  10.917150  -0.319291  -0.122791
     5  C   -0.005257  -0.028831  -0.119283  -0.319291  10.809683   0.754066
     6  C   -0.093233  -0.015087   0.016955  -0.122791   0.754066   6.583307
     7  C   -0.025556   0.003139  -0.014778  -0.021860  -1.047302   0.356216
     8  C    0.406462  -0.021199  -0.096331  -0.015613   1.930089  -0.545026
     9  C   -1.240489  -0.788109   0.287957  -0.224826  -0.287048   0.287552
    10  C   -1.231755   0.223654  -0.344919  -2.584467  -2.529932  -0.368966
    11  C    0.262281  -0.923742   1.004236  -0.229474  -1.484964  -0.169412
    12  C   -1.854946   1.258227  -1.361514  -1.492450  -0.307125  -0.211990
    13  C    0.165347  -0.234308  -0.185597  -1.508955  -0.234173   1.037242
    14  C   -1.079300  -0.218559  -0.189210  -0.342857  -1.496008  -1.383681
    15  H    0.364980  -0.103492  -0.002149   0.026200   0.006057   0.001119
    16  H   -0.019747   0.378562  -0.016700   0.014227  -0.001575  -0.000332
    17  H   -0.022347  -0.017854   0.375346  -0.067065   0.000282   0.000397
    18  H    0.048446   0.003066  -0.085091   0.455113   0.007318  -0.004970
    19  H   -0.046453  -0.007627   0.050778  -0.071526  -0.068906   0.050842
    20  H    0.007441   0.001972  -0.005010   0.007283   0.453571  -0.085111
    21  H   -0.001314  -0.000402   0.000393   0.000340  -0.066632   0.373567
    22  H    0.000653   0.000355  -0.000324  -0.001532   0.013211  -0.015307
    23  H    0.006014  -0.002674   0.001081   0.005825   0.026909  -0.001565
    24  H    0.032654   0.014510  -0.001440  -0.012177  -0.012435  -0.001509
    25  H    0.032654   0.014510  -0.001440  -0.012177  -0.012435  -0.001509
               7          8          9         10         11         12
     1  C   -0.025556   0.406462  -1.240489  -1.231755   0.262281  -1.854946
     2  C    0.003139  -0.021199  -0.788109   0.223654  -0.923742   1.258227
     3  C   -0.014778  -0.096331   0.287957  -0.344919   1.004236  -1.361514
     4  C   -0.021860  -0.015613  -0.224826  -2.584467  -0.229474  -1.492450
     5  C   -1.047302   1.930089  -0.287048  -2.529932  -1.484964  -0.307125
     6  C    0.356216  -0.545026   0.287552  -0.368966  -0.169412  -0.211990
     7  C    7.087318   0.351118  -0.776161   0.250358  -0.245905  -0.189180
     8  C    0.351118   8.578972  -1.234806  -1.260080   0.172310  -1.060722
     9  C   -0.776161  -1.234806   9.643521   0.252544   1.736748  -2.011405
    10  C    0.250358  -1.260080   0.252544   9.236056  -0.525425   2.426717
    11  C   -0.245905   0.172310   1.736748  -0.525425  14.629121  -3.872125
    12  C   -0.189180  -1.060722  -2.011405   2.426717  -3.872125  16.074888
    13  C   -0.952290   0.259922   1.713886  -0.551961   1.090083  -4.844366
    14  C    1.352098  -1.960811  -1.959267   2.440565  -4.856890   2.985207
    15  H   -0.002748   0.005759   0.091348  -0.009325  -0.029521  -0.022715
    16  H    0.000366   0.000743   0.004122  -0.009948   0.028778  -0.035012
    17  H   -0.000395  -0.001337  -0.005778   0.020641  -0.028033   0.090077
    18  H    0.001977   0.007474  -0.025156   0.015343  -0.009693  -0.050620
    19  H   -0.007486  -0.047257   0.076312   0.422209   0.076997  -0.067969
    20  H    0.002938   0.049376  -0.025629   0.016258  -0.011720  -0.011769
    21  H   -0.015905  -0.024084  -0.006031   0.020784  -0.006357   0.005307
    22  H    0.377351  -0.019330   0.004407  -0.009633   0.003091  -0.008952
    23  H   -0.103794   0.365374   0.092518  -0.009837   0.002237   0.006539
    24  H    0.014085   0.031182   0.357550   0.005532   0.014906  -0.059556
    25  H    0.014085   0.031182   0.357550   0.005532   0.014906  -0.059556
              13         14         15         16         17         18
     1  C    0.165347  -1.079300   0.364980  -0.019747  -0.022347   0.048446
     2  C   -0.234308  -0.218559  -0.103492   0.378562  -0.017854   0.003066
     3  C   -0.185597  -0.189210  -0.002149  -0.016700   0.375346  -0.085091
     4  C   -1.508955  -0.342857   0.026200   0.014227  -0.067065   0.455113
     5  C   -0.234173  -1.496008   0.006057  -0.001575   0.000282   0.007318
     6  C    1.037242  -1.383681   0.001119  -0.000332   0.000397  -0.004970
     7  C   -0.952290   1.352098  -0.002748   0.000366  -0.000395   0.001977
     8  C    0.259922  -1.960811   0.005759   0.000743  -0.001337   0.007474
     9  C    1.713886  -1.959267   0.091348   0.004122  -0.005778  -0.025156
    10  C   -0.551961   2.440565  -0.009325  -0.009948   0.020641   0.015343
    11  C    1.090083  -4.856890  -0.029521   0.028778  -0.028033  -0.009693
    12  C   -4.844366   2.985207  -0.022715  -0.035012   0.090077  -0.050620
    13  C   14.610321  -3.776920   0.000803   0.003202  -0.006352  -0.011741
    14  C   -3.776920  16.033830   0.006857  -0.009320   0.005263  -0.013562
    15  H    0.000803   0.006857   0.437834  -0.008946   0.001492   0.000211
    16  H    0.003202  -0.009320  -0.008946   0.418795  -0.006715   0.001916
    17  H   -0.006352   0.005263   0.001492  -0.006715   0.422055  -0.010140
    18  H   -0.011741  -0.013562   0.000211   0.001916  -0.010140   0.452307
    19  H    0.078010  -0.062113   0.000310  -0.000540   0.001445  -0.006044
    20  H   -0.008825  -0.053184  -0.000113   0.000015  -0.000145   0.001288
    21  H   -0.028474   0.091875   0.000013  -0.000007   0.000010  -0.000138
    22  H    0.028977  -0.035518  -0.000126   0.000007  -0.000007   0.000014
    23  H   -0.030150  -0.025993   0.000603  -0.000127   0.000013  -0.000109
    24  H    0.011626  -0.059757  -0.000893   0.000627  -0.000140   0.000169
    25  H    0.011626  -0.059757  -0.000893   0.000627  -0.000140   0.000169
              19         20         21         22         23         24
     1  C   -0.046453   0.007441  -0.001314   0.000653   0.006014   0.032654
     2  C   -0.007627   0.001972  -0.000402   0.000355  -0.002674   0.014510
     3  C    0.050778  -0.005010   0.000393  -0.000324   0.001081  -0.001440
     4  C   -0.071526   0.007283   0.000340  -0.001532   0.005825  -0.012177
     5  C   -0.068906   0.453571  -0.066632   0.013211   0.026909  -0.012435
     6  C    0.050842  -0.085111   0.373567  -0.015307  -0.001565  -0.001509
     7  C   -0.007486   0.002938  -0.015905   0.377351  -0.103794   0.014085
     8  C   -0.047257   0.049376  -0.024084  -0.019330   0.365374   0.031182
     9  C    0.076312  -0.025629  -0.006031   0.004407   0.092518   0.357550
    10  C    0.422209   0.016258   0.020784  -0.009633  -0.009837   0.005532
    11  C    0.076997  -0.011720  -0.006357   0.003091   0.002237   0.014906
    12  C   -0.067969  -0.011769   0.005307  -0.008952   0.006539  -0.059556
    13  C    0.078010  -0.008825  -0.028474   0.028977  -0.030150   0.011626
    14  C   -0.062113  -0.053184   0.091875  -0.035518  -0.025993  -0.059757
    15  H    0.000310  -0.000113   0.000013  -0.000126   0.000603  -0.000893
    16  H   -0.000540   0.000015  -0.000007   0.000007  -0.000127   0.000627
    17  H    0.001445  -0.000145   0.000010  -0.000007   0.000013  -0.000140
    18  H   -0.006044   0.001288  -0.000138   0.000014  -0.000109   0.000169
    19  H    0.442614  -0.006194   0.001362  -0.000522   0.000281   0.000617
    20  H   -0.006194   0.453808  -0.010199   0.001905   0.000186   0.000180
    21  H    0.001362  -0.010199   0.422778  -0.006565   0.001433  -0.000142
    22  H   -0.000522   0.001905  -0.006565   0.419689  -0.008952   0.000628
    23  H    0.000281   0.000186   0.001433  -0.008952   0.439277  -0.000887
    24  H    0.000617   0.000180  -0.000142   0.000628  -0.000887   0.494686
    25  H    0.000617   0.000180  -0.000142   0.000628  -0.000887  -0.080662
              25
     1  C    0.032654
     2  C    0.014510
     3  C   -0.001440
     4  C   -0.012177
     5  C   -0.012435
     6  C   -0.001509
     7  C    0.014085
     8  C    0.031182
     9  C    0.357550
    10  C    0.005532
    11  C    0.014906
    12  C   -0.059556
    13  C    0.011626
    14  C   -0.059757
    15  H   -0.000893
    16  H    0.000627
    17  H   -0.000140
    18  H    0.000169
    19  H    0.000617
    20  H    0.000180
    21  H   -0.000142
    22  H    0.000628
    23  H   -0.000887
    24  H   -0.080662
    25  H    0.494686
 Mulliken charges:
               1
     1  C    0.090488
     2  C   -0.406038
     3  C   -0.439460
     4  C    0.025134
     5  C    0.020011
     6  C   -0.440772
     7  C   -0.407686
     8  C    0.096629
     9  C   -0.321309
    10  C    0.100053
    11  C   -0.642434
    12  C    0.675007
    13  C   -0.636937
    14  C    0.667012
    15  H    0.237333
    16  H    0.256982
    17  H    0.249427
    18  H    0.222454
    19  H    0.190245
    20  H    0.221500
    21  H    0.248529
    22  H    0.255852
    23  H    0.236687
    24  H    0.250645
    25  H    0.250645
 Sum of Mulliken charges =   1.00000
 Mulliken charges with hydrogens summed into heavy atoms:
               1
     1  C    0.327821
     2  C   -0.149056
     3  C   -0.190033
     4  C    0.247588
     5  C    0.241511
     6  C   -0.192243
     7  C   -0.151833
     8  C    0.333316
     9  C    0.179982
    10  C    0.290298
    11  C   -0.642434
    12  C    0.675007
    13  C   -0.636937
    14  C    0.667012
 Electronic spatial extent (au):  <R**2>=           2854.2830
 Charge=              1.0000 electrons
 Dipole moment (field-independent basis, Debye):
    X=              0.1392    Y=              0.1837    Z=              0.0000  Tot=              0.2305
 Quadrupole moment (field-independent basis, Debye-Ang):
   XX=            -31.1455   YY=            -56.2531   ZZ=            -84.1408
   XY=              0.1767   XZ=             -0.0000   YZ=             -0.0000
 Traceless Quadrupole moment (field-independent basis, Debye-Ang):
   XX=             26.0343   YY=              0.9267   ZZ=            -26.9610
   XY=              0.1767   XZ=             -0.0000   YZ=             -0.0000
 Octapole moment (field-independent basis, Debye-Ang**2):
  XXX=              1.5163  YYY=              5.1657  ZZZ=              0.0000  XYY=              0.2849
  XXY=             -5.1696  XXZ=              0.0000  XZZ=              0.2165  YZZ=             -3.0661
  YYZ=              0.0000  XYZ=             -0.0000
 Hexadecapole moment (field-independent basis, Debye-Ang**3):
 XXXX=          -2121.9395 YYYY=           -608.7251 ZZZZ=            -99.3163 XXXY=             -3.1203
 XXXZ=             -0.0000 YYYX=             -4.8802 YYYZ=             -0.0000 ZZZX=             -0.0000
 ZZZY=              0.0000 XXYY=           -507.3596 XXZZ=           -590.3817 YYZZ=           -145.6590
 XXYZ=              0.0000 YYXZ=             -0.0000 ZZXY=             -2.3814
 N-N= 7.814410939137D+02 E-N=-2.799232342764D+03  KE= 5.375189471406D+02
 Symmetry A'   KE= 5.228716684903D+02
 Symmetry A"   KE= 1.464727865028D+01
 Unable to Open any file for archive entry.
 1\1\GINC-GADI-CPU-CLX-0648\SP\RM062X TD-FC\6-311++G(d,p)\C14H11(1+)\TS
 1578\27-Jul-2022\0\\#n M062X/6-311++G(d,p) TD(NStates=1) EmpiricalDisp
 ersion=GD3 SP\\SP_-75\\1,1\C,0,2.4869,1.37,0.\C,0,3.6962,0.679375,0.\C
 ,0,3.682,-0.70695,0.\C,0,2.466975,-1.400925,0.\C,0,-2.459175,-1.396375
 ,0.\C,0,-3.6843,-0.70075,0.\C,0,-3.704425,0.6829,0.\C,0,-2.49375,1.369
 7,0.\C,0,-0.002125,1.4566,0.\C,0,0.0061,-1.42025,0.\C,0,1.262825,0.687
 55,0.\C,0,1.2405,-0.722775,0.\C,0,-1.261,0.683725,0.\C,0,-1.2355,-0.72
 2175,0.\H,0,2.4843,2.453225,0.\H,0,4.6312,1.2199,0.\H,0,4.60965,-1.262
 025,0.\H,0,2.4697,-2.483425,0.\H,0,0.005625,-2.501475,0.\H,0,-2.46605,
 -2.479,0.\H,0,-4.6082,-1.26225,0.\H,0,-4.639525,1.222775,0.\H,0,-2.486
 4,2.453,0.\H,0,-0.008,2.15325,-0.858225\H,0,-0.008,2.15325,0.858225\\V
 ersion=ES64L-G16RevC.01\State=1-A'\HF=-539.7600297\RMSD=4.562e-09\PG=C
 S [SG(C14H9),X(H2)]\\@
 The archive entry for this job was punched.


 ... IT CAN BE VERY DIFFICULT, IN THESE COMPLEX TIMES,
 TO UNDERSTAND JUST HOW SCIENTISTS DO WHAT THEY DO.

                     DON MOSER IN THE FEBRUARY 1979 SMITHSONIAN
 Job cpu time:       0 days  0 hours 45 minutes 45.0 seconds.
 Elapsed time:       0 days  0 hours  1 minutes 27.2 seconds.
 File lengths (MBytes):  RWF=    460 Int=      0 D2E=      0 Chk=     15 Scr=      1
 Normal termination of Gaussian 16 at Wed Jul 27 10:26:25 2022.
