 Entering Gaussian System, Link 0=g16
 Initial command:
 /apps/gaussian/g16c01/g16/l1.exe "/jobfs/52804872.gadi-pbs/Gau-1722979.inp" -scrdir="/jobfs/52804872.gadi-pbs/"
 Entering Link 1 = /apps/gaussian/g16c01/g16/l1.exe PID=   1722984.
  
 Copyright (c) 1988-2019, Gaussian, Inc.  All Rights Reserved.
  
 This is part of the Gaussian(R) 16 program.  It is based on
 the Gaussian(R) 09 system (copyright 2009, Gaussian, Inc.),
 the Gaussian(R) 03 system (copyright 2003, Gaussian, Inc.),
 the Gaussian(R) 98 system (copyright 1998, Gaussian, Inc.),
 the Gaussian(R) 94 system (copyright 1995, Gaussian, Inc.),
 the Gaussian 92(TM) system (copyright 1992, Gaussian, Inc.),
 the Gaussian 90(TM) system (copyright 1990, Gaussian, Inc.),
 the Gaussian 88(TM) system (copyright 1988, Gaussian, Inc.),
 the Gaussian 86(TM) system (copyright 1986, Carnegie Mellon
 University), and the Gaussian 82(TM) system (copyright 1983,
 Carnegie Mellon University). Gaussian is a federally registered
 trademark of Gaussian, Inc.
  
 This software contains proprietary and confidential information,
 including trade secrets, belonging to Gaussian, Inc.
  
 This software is provided under written license and may be
 used, copied, transmitted, or stored only in accord with that
 written license.
  
 The following legend is applicable only to US Government
 contracts under FAR:
  
                    RESTRICTED RIGHTS LEGEND
  
 Use, reproduction and disclosure by the US Government is
 subject to restrictions as set forth in subparagraphs (a)
 and (c) of the Commercial Computer Software - Restricted
 Rights clause in FAR 52.227-19.
  
 Gaussian, Inc.
 340 Quinnipiac St., Bldg. 40, Wallingford CT 06492
  
  
 ---------------------------------------------------------------
 Warning -- This program may not be used in any manner that
 competes with the business of Gaussian, Inc. or will provide
 assistance to any competitor of Gaussian, Inc.  The licensee
 of this program is prohibited from giving any competitor of
 Gaussian, Inc. access to this program.  By using this program,
 the user acknowledges that Gaussian, Inc. is engaged in the
 business of creating and licensing software in the field of
 computational chemistry and represents and warrants to the
 licensee that it is not a competitor of Gaussian, Inc. and that
 it will not use this program in any manner prohibited above.
 ---------------------------------------------------------------
  

 Cite this work as:
 Gaussian 16, Revision C.01,
 M. J. Frisch, G. W. Trucks, H. B. Schlegel, G. E. Scuseria, 
 M. A. Robb, J. R. Cheeseman, G. Scalmani, V. Barone, 
 G. A. Petersson, H. Nakatsuji, X. Li, M. Caricato, A. V. Marenich, 
 J. Bloino, B. G. Janesko, R. Gomperts, B. Mennucci, H. P. Hratchian, 
 J. V. Ortiz, A. F. Izmaylov, J. L. Sonnenberg, D. Williams-Young, 
 F. Ding, F. Lipparini, F. Egidi, J. Goings, B. Peng, A. Petrone, 
 T. Henderson, D. Ranasinghe, V. G. Zakrzewski, J. Gao, N. Rega, 
 G. Zheng, W. Liang, M. Hada, M. Ehara, K. Toyota, R. Fukuda, 
 J. Hasegawa, M. Ishida, T. Nakajima, Y. Honda, O. Kitao, H. Nakai, 
 T. Vreven, K. Throssell, J. A. Montgomery, Jr., J. E. Peralta, 
 F. Ogliaro, M. J. Bearpark, J. J. Heyd, E. N. Brothers, K. N. Kudin, 
 V. N. Staroverov, T. A. Keith, R. Kobayashi, J. Normand, 
 K. Raghavachari, A. P. Rendell, J. C. Burant, S. S. Iyengar, 
 J. Tomasi, M. Cossi, J. M. Millam, M. Klene, C. Adamo, R. Cammi, 
 J. W. Ochterski, R. L. Martin, K. Morokuma, O. Farkas, 
 J. B. Foresman, and D. J. Fox, Gaussian, Inc., Wallingford CT, 2019.
 
 ******************************************
 Gaussian 16:  ES64L-G16RevC.01  3-Jul-2019
                27-Jul-2022 
 ******************************************
 %NProcShared=32
 Will use up to   32 processors via shared memory.
 %mem = 128GB
 ---------------------------------------------------------------
 #n M062X/6-311++G(d,p) TD(NStates=1) EmpiricalDispersion=GD3 SP
 ---------------------------------------------------------------
 1/38=1,172=1/1;
 2/12=2,17=6,18=5,40=1/2;
 3/5=4,6=6,7=1111,11=9,25=1,30=1,74=-55,124=31/1,2,3,8;
 4//1;
 5/5=2,38=5/2;
 8/6=1,10=2,108=1/1;
 9/41=1,42=1,70=2/14;
 6/7=2,8=2,9=2,10=2/1;
 99/5=1,9=1/99;
 ------
 SP_100
 ------
 Symbolic Z-matrix:
 Charge =  1 Multiplicity = 1
 C                     2.51715   1.3679    0. 
 C                     3.73053   0.69295   0. 
 C                     3.6921   -0.68365   0. 
 C                     2.43593  -1.38303   0. 
 C                    -2.49053  -1.41488   0. 
 C                    -3.676    -0.72705   0. 
 C                    -3.67295   0.66828   0. 
 C                    -2.4692    1.37      0. 
 C                     0.0153    1.4632    0. 
 C                    -0.0427   -1.42055   0. 
 C                     1.25575   0.67233   0. 
 C                     1.2199   -0.71993   0. 
 C                    -1.26853   0.6991    0. 
 C                    -1.2549   -0.72413   0. 
 H                     2.496     2.45135   0. 
 H                     4.66623   1.23028   0. 
 H                     4.6043   -1.2648    0. 
 H                     2.45465  -2.46595   0. 
 H                    -0.03938  -2.50163   0. 
 H                    -2.4802   -2.49693   0. 
 H                    -4.61445  -1.26323   0. 
 H                    -4.60795   1.21015   0. 
 H                    -2.4813    2.45293   0. 
 H                     0.056     2.15475  -0.85988 
 H                     0.056     2.15475   0.85988 
 
                          Input orientation:                          
 ---------------------------------------------------------------------
 Center     Atomic      Atomic             Coordinates (Angstroms)
 Number     Number       Type             X           Y           Z
 ---------------------------------------------------------------------
      1          6           0        2.517150    1.367900    0.000000
      2          6           0        3.730525    0.692950    0.000000
      3          6           0        3.692100   -0.683650    0.000000
      4          6           0        2.435925   -1.383025    0.000000
      5          6           0       -2.490525   -1.414875    0.000000
      6          6           0       -3.676000   -0.727050    0.000000
      7          6           0       -3.672950    0.668275    0.000000
      8          6           0       -2.469200    1.370000    0.000000
      9          6           0        0.015300    1.463200    0.000000
     10          6           0       -0.042700   -1.420550    0.000000
     11          6           0        1.255750    0.672325    0.000000
     12          6           0        1.219900   -0.719925    0.000000
     13          6           0       -1.268525    0.699100    0.000000
     14          6           0       -1.254900   -0.724125    0.000000
     15          1           0        2.496000    2.451350    0.000000
     16          1           0        4.666225    1.230275    0.000000
     17          1           0        4.604300   -1.264800    0.000000
     18          1           0        2.454650   -2.465950    0.000000
     19          1           0       -0.039375   -2.501625    0.000000
     20          1           0       -2.480200   -2.496925    0.000000
     21          1           0       -4.614450   -1.263225    0.000000
     22          1           0       -4.607950    1.210150    0.000000
     23          1           0       -2.481300    2.452925    0.000000
     24          1           0        0.056000    2.154750   -0.859875
     25          1           0        0.056000    2.154750    0.859875
 ---------------------------------------------------------------------
                    Distance matrix (angstroms):
                    1          2          3          4          5
     1  C    0.000000
     2  C    1.388465   0.000000
     3  C    2.364184   1.377136   0.000000
     4  C    2.752124   2.446561   1.437742   0.000000
     5  C    5.728931   6.568439   6.225716   4.926553   0.000000
     6  C    6.537884   7.541420   7.368228   6.147026   1.370567
     7  C    6.229511   7.403516   7.488101   6.444081   2.395338
     8  C    4.986350   6.236585   6.494544   5.624891   2.784957
     9  C    2.503664   3.794230   4.257678   3.736365   3.816081
    10  C    3.785272   4.324825   3.806803   2.478909   2.447832
    11  C    1.440470   2.474861   2.788274   2.370079   4.288471
    12  C    2.458022   2.880877   2.472466   1.385070   3.774945
    13  C    3.844298   4.999054   5.149738   4.249493   2.441756
    14  C    4.313343   5.182911   4.947166   3.749178   1.415593
    15  H    1.083656   2.148493   3.355425   3.834846   6.309764
    16  H    2.153477   1.079005   2.147563   3.435633   7.629934
    17  H    3.359658   2.143891   1.081593   2.171596   7.096412
    18  H    3.834359   3.406832   2.169764   1.083087   5.055642
    19  H    4.637784   4.941402   4.150776   2.716317   2.681261
    20  H    6.317466   6.982006   6.433137   5.040740   1.082099
    21  H    7.601483   8.571186   8.326745   7.051393   2.129332
    22  H    7.126846   8.354499   8.513361   7.506046   3.372572
    23  H    5.114859   6.456337   6.924519   6.236474   3.867811
    24  H    2.723192   4.047021   4.692241   4.349630   4.468377
    25  H    2.723192   4.047021   4.692241   4.349630   4.468377
                    6          7          8          9         10
     6  C    0.000000
     7  C    1.395328   0.000000
     8  C    2.419501   1.393353   0.000000
     9  C    4.292190   3.772942   2.486247   0.000000
    10  C    3.698893   4.188306   3.697982   2.884333   0.000000
    11  C    5.126442   4.928702   3.789723   1.471122   2.462945
    12  C    4.895905   5.085969   4.239958   2.493411   1.443965
    13  C    2.798185   2.404623   1.375401   1.494007   2.448584
    14  C    2.421102   2.790295   2.420720   2.529387   1.398012
    15  H    6.942320   6.421472   5.081587   2.670265   4.629968
    16  H    8.568771   8.358091   7.136793   4.656754   5.403781
    17  H    8.297743   8.499979   7.548283   5.338624   4.649609
    18  H    6.372491   6.882648   6.241699   4.624786   2.707327
    19  H    4.046499   4.821943   4.570944   3.965202   1.081080
    20  H    2.135976   3.382476   3.866941   4.680824   2.664581
    21  H    1.080820   2.148747   3.396465   5.372893   4.574456
    22  H    2.149715   1.080673   2.144715   4.630170   5.268974
    23  H    3.396991   2.145928   1.082993   2.685622   4.577180
    24  H    4.792909   4.105370   2.780621   1.104211   3.678573
    25  H    4.792909   4.105370   2.780621   1.104211   3.678573
                   11         12         13         14         15
    11  C    0.000000
    12  C    1.392711   0.000000
    13  C    2.524417   2.864593   0.000000
    14  C    2.872879   2.474804   1.423290   0.000000
    15  H    2.168675   3.418394   4.152352   4.914559   0.000000
    16  H    3.455814   3.959853   5.958473   6.235335   2.490161
    17  H    3.868493   3.427981   6.192494   5.884093   4.272552
    18  H    3.359484   2.138507   4.886673   4.098136   4.917474
    19  H    3.428018   2.181795   3.428622   2.153371   5.564179
    20  H    4.899129   4.104689   3.418001   2.155036   7.017691
    21  H    6.181068   5.859592   3.878909   3.402529   8.022254
    22  H    5.888313   6.139139   3.378303   3.870964   7.211566
    23  H    4.139575   4.875024   2.132305   3.405540   4.977300
    24  H    2.091977   3.218354   2.147712   3.278073   2.604027
    25  H    2.091977   3.218354   2.147712   3.278073   2.604027
                   16         17         18         19         20
    16  H    0.000000
    17  H    2.495843   0.000000
    18  H    4.307336   2.462470   0.000000
    19  H    6.005810   4.805565   2.494280   0.000000
    20  H    8.059988   7.190846   4.934947   2.440830   0.000000
    21  H    9.609811   9.218750   7.170685   4.739720   2.465165
    22  H    9.274197   9.538916   7.962037   5.886353   4.274310
    23  H    7.251344   8.001700   6.968424   5.523637   4.949850
    24  H    4.779981   5.754975   5.276720   4.736065   5.367474
    25  H    4.779981   5.754975   5.276720   4.736065   5.367474
                   21         22         23         24         25
    21  H    0.000000
    22  H    2.473384   0.000000
    23  H    4.284869   2.463154   0.000000
    24  H    5.851072   4.835709   2.695586   0.000000
    25  H    5.851072   4.835709   2.695586   1.719750   0.000000
 Stoichiometry    C14H11(1+)
 Framework group  CS[SG(C14H9),X(H2)]
 Deg. of freedom    46
 Full point group                 CS      NOp   2
 Largest Abelian subgroup         CS      NOp   2
 Largest concise Abelian subgroup CS      NOp   2
                         Standard orientation:                         
 ---------------------------------------------------------------------
 Center     Atomic      Atomic             Coordinates (Angstroms)
 Number     Number       Type             X           Y           Z
 ---------------------------------------------------------------------
      1          6           0        0.025289    2.860007    0.000000
      2          6           0       -1.138556    3.617172    0.000000
      3          6           0       -2.337550    2.939736    0.000000
      4          6           0       -2.368641    1.502331    0.000000
      5          6           0       -0.094015   -2.867681    0.000000
      6          6           0        1.068171   -3.594164    0.000000
      7          6           0        2.300253   -2.939248    0.000000
      8          6           0        2.357927   -1.547089    0.000000
      9          6           0        1.278983    0.692846    0.000000
     10          6           0       -1.243225   -0.706386    0.000000
     11          6           0        0.000000    1.419759    0.000000
     12          6           0       -1.214032    0.737284    0.000000
     13          6           0        1.203597   -0.799258    0.000000
     14          6           0       -0.060943   -1.452474    0.000000
     15          1           0        0.992977    3.347749    0.000000
     16          1           0       -1.100922    4.695521    0.000000
     17          1           0       -3.277695    3.474499    0.000000
     18          1           0       -3.334730    1.012690    0.000000
     19          1           0       -2.200480   -1.208776    0.000000
     20          1           0       -1.055405   -3.364339    0.000000
     21          1           0        1.032838   -4.674406    0.000000
     22          1           0        3.216335   -3.512525    0.000000
     23          1           0        3.320919   -1.051592    0.000000
     24          1           0        1.871308    1.052078    0.859875
     25          1           0        1.871308    1.052078   -0.859875
 ---------------------------------------------------------------------
 Rotational constants (GHZ):           2.1361786           0.4445026           0.3687406
 Standard basis: 6-311++G(d,p) (5D, 7F)
 There are   299 symmetry adapted cartesian basis functions of A'  symmetry.
 There are   100 symmetry adapted cartesian basis functions of A"  symmetry.
 There are   285 symmetry adapted basis functions of A'  symmetry.
 There are   100 symmetry adapted basis functions of A"  symmetry.
   385 basis functions,   603 primitive gaussians,   399 cartesian basis functions
    47 alpha electrons       47 beta electrons
       nuclear repulsion energy       781.1844017858 Hartrees.
 NAtoms=   25 NActive=   25 NUniq=   24 SFac= 1.09D+00 NAtFMM=   60 NAOKFM=F Big=F
 Integral buffers will be    131072 words long.
 Regular integral format.
 Two-electron integral symmetry is turned on.
 Nuclear repulsion after empirical dispersion term =      781.1834226099 Hartrees.
 One-electron integrals computed using PRISM.
 NBasis=   385 RedAO= T EigKep=  1.12D-06  NBF=   285   100
 NBsUse=   379 1.00D-06 EigRej=  8.37D-07 NBFU=   279   100
 ExpMin= 3.60D-02 ExpMax= 4.56D+03 ExpMxC= 6.82D+02 IAcc=3 IRadAn=         5 AccDes= 0.00D+00
 Harris functional with IExCor= 1009 and IRadAn=       5 diagonalized for initial guess.
 HarFok:  IExCor= 1009 AccDes= 0.00D+00 IRadAn=         5 IDoV= 1 UseB2=F ITyADJ=14
 ICtDFT=  3500011 ScaDFX=  1.000000  1.000000  1.000000  1.000000
 FoFCou: FMM=F IPFlag=           0 FMFlag=      100000 FMFlg1=           0
         NFxFlg=           0 DoJE=T BraDBF=F KetDBF=T FulRan=T
         wScrn=  0.000000 ICntrl=       500 IOpCl=  0 I1Cent=   200000004 NGrid=           0
         NMat0=    1 NMatS0=      1 NMatT0=    0 NMatD0=    1 NMtDS0=    0 NMtDT0=    0
 Petite list used in FoFCou.
 Initial guess orbital symmetries:
       Occupied  (A') (A') (A') (A') (A') (A') (A') (A') (A') (A')
                 (A') (A') (A') (A') (A') (A') (A') (A') (A') (A')
                 (A') (A') (A') (A') (A') (A') (A') (A') (A') (A')
                 (A') (A') (A") (A') (A') (A') (A') (A') (A") (A')
                 (A") (A') (A') (A") (A") (A") (A")
       Virtual   (A") (A") (A") (A") (A") (A') (A') (A') (A') (A")
                 (A") (A') (A') (A') (A") (A') (A') (A') (A') (A")
                 (A') (A") (A') (A') (A') (A") (A') (A") (A') (A')
                 (A') (A') (A') (A') (A") (A') (A") (A') (A') (A')
                 (A") (A') (A') (A") (A') (A') (A') (A') (A") (A')
                 (A') (A') (A") (A") (A') (A') (A') (A") (A") (A')
                 (A') (A') (A') (A') (A') (A') (A") (A') (A') (A")
                 (A') (A') (A') (A') (A') (A') (A') (A') (A') (A')
                 (A') (A') (A') (A') (A') (A') (A') (A') (A') (A')
                 (A') (A') (A') (A') (A') (A') (A') (A") (A') (A")
                 (A') (A') (A") (A") (A') (A") (A') (A") (A") (A')
                 (A") (A') (A') (A') (A") (A') (A') (A") (A") (A')
                 (A") (A") (A') (A') (A') (A") (A') (A') (A') (A")
                 (A') (A') (A') (A') (A') (A') (A") (A') (A') (A')
                 (A') (A') (A') (A') (A') (A') (A') (A') (A') (A")
                 (A") (A') (A") (A") (A') (A') (A') (A") (A") (A')
                 (A") (A') (A") (A") (A") (A') (A') (A') (A') (A')
                 (A') (A") (A') (A') (A") (A') (A') (A') (A') (A")
                 (A') (A') (A') (A') (A") (A') (A") (A') (A") (A")
                 (A') (A") (A') (A") (A') (A') (A') (A") (A') (A')
                 (A") (A") (A") (A') (A') (A") (A') (A") (A') (A')
                 (A") (A") (A') (A") (A') (A") (A') (A') (A') (A")
                 (A') (A') (A') (A') (A") (A') (A') (A') (A") (A")
                 (A') (A') (A') (A") (A') (A') (A") (A') (A") (A')
                 (A") (A') (A') (A') (A') (A") (A') (A') (A') (A")
                 (A') (A') (A') (A") (A") (A') (A') (A") (A') (A')
                 (A') (A") (A') (A") (A') (A') (A') (A") (A') (A")
                 (A') (A') (A') (A') (A") (A') (A") (A') (A") (A')
                 (A") (A') (A") (A") (A") (A') (A') (A') (A') (A')
                 (A') (A') (A') (A') (A') (A') (A') (A') (A') (A')
                 (A') (A') (A') (A') (A') (A") (A') (A') (A') (A')
                 (A') (A') (A') (A') (A') (A') (A') (A') (A') (A')
                 (A') (A') (A') (A') (A') (A') (A') (A') (A') (A')
                 (A') (A')
 The electronic state of the initial guess is 1-A'.
 Requested convergence on RMS density matrix=1.00D-08 within 128 cycles.
 Requested convergence on MAX density matrix=1.00D-06.
 Requested convergence on             energy=1.00D-06.
 No special actions if energy rises.
 SCF Done:  E(RM062X) =  -539.754906032     A.U. after   15 cycles
            NFock= 15  Conv=0.95D-08     -V/T= 2.0041
 DoSCS=F DFT=T ScalE2(SS,OS)=  1.000000  1.000000
 ExpMin= 3.60D-02 ExpMax= 4.56D+03 ExpMxC= 6.82D+02 IAcc=3 IRadAn=         5 AccDes= 0.00D+00
 HarFok:  IExCor=  205 AccDes= 0.00D+00 IRadAn=         5 IDoV=-2 UseB2=F ITyADJ=14
 ICtDFT= 12500011 ScaDFX=  1.000000  1.000000  1.000000  1.000000
 Range of M.O.s used for correlation:    15   379
 NBasis=   385 NAE=    47 NBE=    47 NFC=    14 NFV=     0
 NROrb=    365 NOA=    33 NOB=    33 NVA=   332 NVB=   332

 **** Warning!!: The largest alpha MO coefficient is  0.13873047D+03

 Orbital symmetries:
       Occupied  (A') (A') (A') (A') (A') (A') (A') (A') (A') (A')
                 (A') (A') (A') (A') (A') (A') (A') (A') (A') (A')
                 (A') (A') (A') (A') (A') (A') (A') (A') (A') (A')
                 (A') (A") (A') (A') (A') (A') (A') (A") (A") (A')
                 (A') (A') (A') (A") (A") (A") (A")
       Virtual   (A") (A") (A") (A") (A') (A') (A') (A') (A") (A')
                 (A') (A") (A') (A') (A") (A') (A") (A') (A') (A')
                 (A") (A") (A') (A') (A') (A") (A') (A") (A') (A')
                 (A") (A') (A") (A') (A') (A') (A') (A') (A") (A')
                 (A") (A') (A') (A") (A") (A') (A") (A') (A") (A')
                 (A') (A') (A') (A') (A') (A") (A') (A') (A') (A')
                 (A') (A") (A') (A') (A') (A") (A') (A') (A') (A')
                 (A') (A') (A') (A') (A') (A') (A') (A') (A') (A')
                 (A') (A') (A') (A') (A') (A') (A') (A') (A') (A')
                 (A') (A') (A') (A') (A") (A') (A") (A") (A') (A")
                 (A') (A') (A') (A') (A") (A") (A') (A") (A") (A')
                 (A') (A') (A") (A') (A") (A') (A') (A") (A') (A")
                 (A") (A') (A") (A') (A') (A') (A") (A') (A') (A')
                 (A') (A') (A') (A') (A') (A') (A') (A') (A') (A')
                 (A') (A') (A') (A") (A') (A') (A') (A') (A') (A')
                 (A') (A') (A") (A') (A") (A') (A") (A") (A') (A")
                 (A") (A') (A') (A") (A") (A') (A") (A") (A') (A')
                 (A') (A') (A') (A") (A") (A') (A') (A') (A') (A")
                 (A') (A') (A') (A") (A") (A') (A') (A") (A") (A')
                 (A") (A') (A') (A") (A") (A') (A') (A') (A') (A')
                 (A") (A") (A") (A') (A") (A') (A') (A") (A') (A')
                 (A') (A") (A') (A") (A") (A') (A") (A') (A') (A")
                 (A') (A') (A') (A') (A") (A') (A') (A') (A") (A")
                 (A') (A') (A') (A") (A') (A') (A') (A") (A") (A')
                 (A") (A') (A') (A") (A') (A') (A') (A') (A') (A')
                 (A") (A') (A') (A') (A') (A") (A") (A") (A') (A')
                 (A') (A') (A') (A') (A') (A') (A') (A") (A') (A')
                 (A') (A") (A') (A") (A") (A") (A') (A") (A') (A")
                 (A') (A") (A") (A') (A") (A") (A') (A') (A') (A')
                 (A') (A') (A') (A') (A') (A') (A') (A') (A') (A')
                 (A') (A') (A') (A") (A') (A') (A') (A') (A') (A')
                 (A') (A') (A') (A') (A') (A') (A') (A') (A') (A')
                 (A') (A') (A') (A') (A') (A') (A') (A') (A') (A')
                 (A') (A')
     4 initial guesses have been made.
 Convergence on wavefunction:    0.001000000000000
 Iteration     1 Dimension     4 NMult     0 NNew      4
 CISAX will form     4 AO SS matrices at one time.
 Iteration     2 Dimension     6 NMult     4 NNew      2
 Iteration     3 Dimension     8 NMult     6 NNew      2
 Iteration     4 Dimension    10 NMult     8 NNew      2
 Iteration     5 Dimension    12 NMult    10 NNew      2
 Iteration     6 Dimension    14 NMult    12 NNew      2
 ***********************************************************************
 Excited states from <AA,BB:AA,BB> singles matrix:
 ***********************************************************************
 
 Ground to excited state transition densities written to RWF  633
 Ground to excited state transition electric dipole moments (Au):
       state          X           Y           Z        Dip. S.      Osc.
         1         0.4690      0.3022      0.0000      0.3113      0.0205
 Ground to excited state transition velocity dipole moments (Au):
       state          X           Y           Z        Dip. S.      Osc.
         1        -0.0541     -0.0299     -0.0000      0.0038      0.0258
 Ground to excited state transition magnetic dipole moments (Au):
       state          X           Y           Z
         1        -0.0000     -0.0000      0.1734
 Ground to excited state transition velocity quadrupole moments (Au):
       state          XX          YY          ZZ          XY          XZ          YZ
         1         0.1412      0.1300     -0.0084     -0.1367      0.0000     -0.0000
 <0|del|b> * <b|rxdel|0> + <0|del|b> * <b|delr+rdel|0>
 Rotatory Strengths (R) in cgs (10**-40 erg-esu-cm/Gauss)
       state          XX          YY          ZZ    R(velocity)    E-M Angle
         1         0.0000     -0.0000     -0.0000     -0.0000       90.00
 1/2[<0|r|b>*<b|rxdel|0> + (<0|rxdel|b>*<b|r|0>)*]
 Rotatory Strengths (R) in cgs (10**-40 erg-esu-cm/Gauss)
       state          XX          YY          ZZ     R(length)
         1         0.0000      0.0000     -0.0000     -0.0000
  1/2[<0|del|b>*<b|r|0> + (<0|r|b>*<b|del|0>)*] (Au)
       state          X           Y           Z        Dip. S.   Osc.(frdel)
         1        -0.0254     -0.0090     -0.0000      0.0344      0.0229

 Excitation energies and oscillator strengths:
 
 Excited State   1:      Singlet-A'     2.6865 eV  461.50 nm  f=0.0205  <S**2>=0.000
      47 -> 48         0.70354
 This state for optimization and/or second-order correction.
 Total Energy, E(TD-HF/TD-DFT) =  -539.656177448    
 Copying the excited state density for this state as the 1-particle RhoCI density.
 SavETr:  write IOETrn=   770 NScale= 10 NData=  16 NLR=1 NState=    1 LETran=      28.

 **********************************************************************

            Population analysis using the SCF Density.

 **********************************************************************

 Orbital symmetries:
       Occupied  (A') (A') (A') (A') (A') (A') (A') (A') (A') (A')
                 (A') (A') (A') (A') (A') (A') (A') (A') (A') (A')
                 (A') (A') (A') (A') (A') (A') (A') (A') (A') (A')
                 (A') (A") (A') (A') (A') (A') (A') (A") (A") (A')
                 (A') (A') (A') (A") (A") (A") (A")
       Virtual   (A") (A") (A") (A") (A') (A') (A') (A') (A") (A')
                 (A') (A") (A') (A') (A") (A') (A") (A') (A') (A')
                 (A") (A") (A') (A') (A') (A") (A') (A") (A') (A')
                 (A") (A') (A") (A') (A') (A') (A') (A') (A") (A')
                 (A") (A') (A') (A") (A") (A') (A") (A') (A") (A')
                 (A') (A') (A') (A') (A') (A") (A') (A') (A') (A')
                 (A') (A") (A') (A') (A') (A") (A') (A') (A') (A')
                 (A') (A') (A') (A') (A') (A') (A') (A') (A') (A')
                 (A') (A') (A') (A') (A') (A') (A') (A') (A') (A')
                 (A') (A') (A') (A') (A") (A') (A") (A") (A') (A")
                 (A') (A') (A') (A') (A") (A") (A') (A") (A") (A')
                 (A') (A') (A") (A') (A") (A') (A') (A") (A') (A")
                 (A") (A') (A") (A') (A') (A') (A") (A') (A') (A')
                 (A') (A') (A') (A') (A') (A') (A') (A') (A') (A')
                 (A') (A') (A') (A") (A') (A') (A') (A') (A') (A')
                 (A') (A') (A") (A') (A") (A') (A") (A") (A') (A")
                 (A") (A') (A') (A") (A") (A') (A") (A") (A') (A')
                 (A') (A') (A') (A") (A") (A') (A') (A') (A') (A")
                 (A') (A') (A') (A") (A") (A') (A') (A") (A") (A')
                 (A") (A') (A') (A") (A") (A') (A') (A') (A') (A')
                 (A") (A") (A") (A') (A") (A') (A') (A") (A') (A')
                 (A') (A") (A') (A") (A") (A') (A") (A') (A') (A")
                 (A') (A') (A') (A') (A") (A') (A') (A') (A") (A")
                 (A') (A') (A') (A") (A') (A') (A') (A") (A") (A')
                 (A") (A') (A') (A") (A') (A') (A') (A') (A') (A')
                 (A") (A') (A') (A') (A') (A") (A") (A") (A') (A')
                 (A') (A') (A') (A') (A') (A') (A') (A") (A') (A')
                 (A') (A") (A') (A") (A") (A") (A') (A") (A') (A")
                 (A') (A") (A") (A') (A") (A") (A') (A') (A') (A')
                 (A') (A') (A') (A') (A') (A') (A') (A') (A') (A')
                 (A') (A') (A') (A") (A') (A') (A') (A') (A') (A')
                 (A') (A') (A') (A') (A') (A') (A') (A') (A') (A')
                 (A') (A') (A') (A') (A') (A') (A') (A') (A') (A')
                 (A') (A')
 The electronic state is 1-A'.
 Alpha  occ. eigenvalues --  -10.77598 -10.73740 -10.72810 -10.72733 -10.71997
 Alpha  occ. eigenvalues --  -10.71933 -10.71824 -10.70987 -10.70870 -10.70201
 Alpha  occ. eigenvalues --  -10.70138 -10.69915 -10.69745 -10.69345  -1.16521
 Alpha  occ. eigenvalues --   -1.12469  -1.06939  -1.05825  -1.01291  -1.00373
 Alpha  occ. eigenvalues --   -0.95601  -0.91032  -0.86438  -0.85891  -0.83783
 Alpha  occ. eigenvalues --   -0.78343  -0.76118  -0.74375  -0.69751  -0.69308
 Alpha  occ. eigenvalues --   -0.68338  -0.68093  -0.68084  -0.65188  -0.64237
 Alpha  occ. eigenvalues --   -0.62786  -0.61633  -0.60405  -0.59304  -0.59152
 Alpha  occ. eigenvalues --   -0.56935  -0.55263  -0.54588  -0.52440  -0.47197
 Alpha  occ. eigenvalues --   -0.46118  -0.43899
 Alpha virt. eigenvalues --   -0.26104  -0.14667  -0.14080  -0.12764  -0.11188
 Alpha virt. eigenvalues --   -0.10092  -0.09254  -0.07964  -0.07935  -0.07483
 Alpha virt. eigenvalues --   -0.07210  -0.07137  -0.05646  -0.05575  -0.05349
 Alpha virt. eigenvalues --   -0.03847  -0.03662  -0.03274  -0.03133  -0.02158
 Alpha virt. eigenvalues --   -0.01352  -0.00952   0.00188   0.00593   0.00644
 Alpha virt. eigenvalues --    0.01063   0.01505   0.01933   0.02154   0.02304
 Alpha virt. eigenvalues --    0.02449   0.02673   0.02787   0.03250   0.03446
 Alpha virt. eigenvalues --    0.04223   0.04497   0.04719   0.05039   0.05386
 Alpha virt. eigenvalues --    0.06025   0.06290   0.06581   0.07052   0.07269
 Alpha virt. eigenvalues --    0.07903   0.08089   0.08352   0.08626   0.08912
 Alpha virt. eigenvalues --    0.09491   0.09587   0.09978   0.10824   0.10973
 Alpha virt. eigenvalues --    0.11127   0.12107   0.12249   0.12716   0.13029
 Alpha virt. eigenvalues --    0.13462   0.13524   0.13983   0.14330   0.15903
 Alpha virt. eigenvalues --    0.16369   0.16475   0.17329   0.17483   0.17784
 Alpha virt. eigenvalues --    0.18125   0.19063   0.19354   0.19655   0.19892
 Alpha virt. eigenvalues --    0.21486   0.21646   0.22672   0.23169   0.23566
 Alpha virt. eigenvalues --    0.23929   0.24539   0.25419   0.26942   0.27616
 Alpha virt. eigenvalues --    0.28856   0.29259   0.29917   0.31353   0.35776
 Alpha virt. eigenvalues --    0.36462   0.38210   0.39280   0.41065   0.41302
 Alpha virt. eigenvalues --    0.41970   0.42123   0.42983   0.43706   0.44380
 Alpha virt. eigenvalues --    0.44787   0.45126   0.45904   0.46382   0.47899
 Alpha virt. eigenvalues --    0.48415   0.48793   0.49038   0.50513   0.51098
 Alpha virt. eigenvalues --    0.51264   0.52036   0.52139   0.52782   0.54118
 Alpha virt. eigenvalues --    0.54127   0.54603   0.55639   0.55932   0.57560
 Alpha virt. eigenvalues --    0.58224   0.58945   0.61496   0.62252   0.62417
 Alpha virt. eigenvalues --    0.63166   0.63477   0.64931   0.65161   0.67435
 Alpha virt. eigenvalues --    0.70341   0.70483   0.71200   0.72503   0.72906
 Alpha virt. eigenvalues --    0.75587   0.76057   0.76417   0.76757   0.77121
 Alpha virt. eigenvalues --    0.77870   0.77997   0.78282   0.79915   0.80393
 Alpha virt. eigenvalues --    0.81241   0.81542   0.82394   0.82993   0.85236
 Alpha virt. eigenvalues --    0.87053   0.88170   0.88189   0.89297   0.90609
 Alpha virt. eigenvalues --    0.91052   0.91416   0.93292   0.94599   0.96281
 Alpha virt. eigenvalues --    0.96898   1.00194   1.01276   1.01535   1.02830
 Alpha virt. eigenvalues --    1.03028   1.03267   1.04865   1.06350   1.08876
 Alpha virt. eigenvalues --    1.19582   1.22980   1.24156   1.24362   1.28856
 Alpha virt. eigenvalues --    1.29320   1.32218   1.34283   1.35753   1.35968
 Alpha virt. eigenvalues --    1.39325   1.39692   1.40845   1.42947   1.43430
 Alpha virt. eigenvalues --    1.43516   1.44266   1.46364   1.46601   1.46805
 Alpha virt. eigenvalues --    1.47698   1.48186   1.51776   1.53673   1.55755
 Alpha virt. eigenvalues --    1.55769   1.56293   1.56585   1.57819   1.61473
 Alpha virt. eigenvalues --    1.63001   1.63371   1.64176   1.66088   1.68299
 Alpha virt. eigenvalues --    1.68363   1.68716   1.69833   1.74417   1.76022
 Alpha virt. eigenvalues --    1.77175   1.78083   1.79848   1.80010   1.80863
 Alpha virt. eigenvalues --    1.82857   1.83193   1.83615   1.83824   1.84180
 Alpha virt. eigenvalues --    1.84559   1.85473   1.86411   1.88356   1.91422
 Alpha virt. eigenvalues --    1.92148   1.94066   1.95333   1.97783   1.98157
 Alpha virt. eigenvalues --    1.99803   2.02403   2.04532   2.07311   2.11728
 Alpha virt. eigenvalues --    2.12164   2.14251   2.15266   2.19073   2.21213
 Alpha virt. eigenvalues --    2.22742   2.28482   2.30281   2.34487   2.34804
 Alpha virt. eigenvalues --    2.36349   2.38596   2.39678   2.42335   2.44576
 Alpha virt. eigenvalues --    2.46119   2.46490   2.49210   2.52951   2.53783
 Alpha virt. eigenvalues --    2.54271   2.56851   2.57912   2.58415   2.59437
 Alpha virt. eigenvalues --    2.59919   2.61542   2.62142   2.63569   2.63733
 Alpha virt. eigenvalues --    2.64831   2.65065   2.65077   2.65590   2.67941
 Alpha virt. eigenvalues --    2.68409   2.70932   2.71465   2.73373   2.74811
 Alpha virt. eigenvalues --    2.76283   2.78436   2.79652   2.83089   2.83204
 Alpha virt. eigenvalues --    2.84861   2.86272   2.92119   2.97105   2.99425
 Alpha virt. eigenvalues --    3.00145   3.04984   3.09610   3.11233   3.14091
 Alpha virt. eigenvalues --    3.20631   3.22291   3.26287   3.28741   3.30658
 Alpha virt. eigenvalues --    3.32818   3.34646   3.43881   3.46210   3.46774
 Alpha virt. eigenvalues --    3.48331   3.50055   3.56436   3.65828   3.66947
 Alpha virt. eigenvalues --    3.67863   3.93703   3.94063   3.95368   3.96477
 Alpha virt. eigenvalues --    4.03930   4.06516   4.07664   4.12533   4.35300
 Alpha virt. eigenvalues --    4.60947   4.69223   4.71218  23.45235  23.60112
 Alpha virt. eigenvalues --   23.80275  23.82650  23.85400  23.89182  23.91828
 Alpha virt. eigenvalues --   23.95252  23.95829  23.97625  24.03146  24.05560
 Alpha virt. eigenvalues --   24.11280  24.12812
          Condensed to atoms (all electrons):
               1          2          3          4          5          6
     1  C    8.970627  -0.003621  -0.387126   2.271284  -0.085904  -0.105878
     2  C   -0.003621   7.193550   0.246778  -1.202136   0.013193  -0.013182
     3  C   -0.387126   0.246778   6.597391   0.828423  -0.140008   0.016889
     4  C    2.271284  -1.202136   0.828423  10.705952  -0.382738  -0.112843
     5  C   -0.085904   0.013193  -0.140008  -0.382738  11.509413   0.718500
     6  C   -0.105878  -0.013182   0.016889  -0.112843   0.718500   6.607554
     7  C   -0.001632   0.000231  -0.015227  -0.039185  -0.996085   0.421134
     8  C    0.407935  -0.032521  -0.085433  -0.003964   1.763693  -0.648082
     9  C   -1.124870  -0.781170   0.294075  -0.411363   0.030093   0.294786
    10  C   -1.390781   0.347735  -0.435542  -2.388616  -2.782221  -0.265029
    11  C    0.299378  -0.988107   1.109036  -0.322161  -1.591845  -0.225263
    12  C   -2.590777   1.737221  -1.505969  -1.643535  -0.459756  -0.118533
    13  C    0.283197  -0.301867  -0.112790  -1.423006  -0.322748   0.890413
    14  C   -1.050280  -0.080441  -0.283851  -0.222362  -1.646449  -1.344088
    15  H    0.370433  -0.108481   0.001257   0.029939   0.004584   0.000979
    16  H   -0.016787   0.373846  -0.012129   0.010106  -0.001334  -0.000297
    17  H   -0.032377  -0.007928   0.368159  -0.066334   0.000470   0.000384
    18  H    0.054076   0.001927  -0.084287   0.454459   0.006000  -0.005263
    19  H   -0.048474  -0.007414   0.051638  -0.061922  -0.080982   0.051164
    20  H    0.007058   0.002114  -0.005020   0.006030   0.466610  -0.083679
    21  H   -0.001404  -0.000373   0.000413   0.000135  -0.069903   0.381107
    22  H    0.001036   0.000402  -0.000357  -0.001688   0.016985  -0.021488
    23  H    0.004892  -0.002902   0.001234   0.006420   0.025205  -0.003171
    24  H    0.027991   0.012984  -0.001800  -0.013202  -0.011280  -0.001307
    25  H    0.027991   0.012984  -0.001800  -0.013202  -0.011280  -0.001307
               7          8          9         10         11         12
     1  C   -0.001632   0.407935  -1.124870  -1.390781   0.299378  -2.590777
     2  C    0.000231  -0.032521  -0.781170   0.347735  -0.988107   1.737221
     3  C   -0.015227  -0.085433   0.294075  -0.435542   1.109036  -1.505969
     4  C   -0.039185  -0.003964  -0.411363  -2.388616  -0.322161  -1.643535
     5  C   -0.996085   1.763693   0.030093  -2.782221  -1.591845  -0.459756
     6  C    0.421134  -0.648082   0.294786  -0.265029  -0.225263  -0.118533
     7  C    7.183580   0.515615  -0.861236   0.161307  -0.211751  -0.293517
     8  C    0.515615   8.370637  -1.148298  -1.203638   0.198437  -1.145474
     9  C   -0.861236  -1.148298   9.623081   0.252041   1.476455  -1.734088
    10  C    0.161307  -1.203638   0.252041   9.120622  -0.487322   2.466184
    11  C   -0.211751   0.198437   1.476455  -0.487322  14.308516  -3.345090
    12  C   -0.293517  -1.145474  -1.734088   2.466184  -3.345090  15.897491
    13  C   -0.795704   0.333107   1.621398  -0.321115   1.070996  -4.822622
    14  C    1.052863  -1.814637  -2.104546   2.383848  -4.714405   3.115291
    15  H   -0.002311   0.006674   0.095455  -0.011234  -0.033811  -0.036349
    16  H    0.000318   0.000406   0.003993  -0.007997   0.025935  -0.033162
    17  H   -0.000418  -0.001235  -0.006426   0.020374  -0.027299   0.097431
    18  H    0.002034   0.006949  -0.026013   0.014488  -0.002616  -0.065314
    19  H   -0.008256  -0.043776   0.074913   0.422389   0.082037  -0.046394
    20  H    0.003610   0.047372  -0.022624   0.007353  -0.012373  -0.021177
    21  H   -0.022372  -0.019889  -0.004789   0.020007  -0.006307   0.005228
    22  H    0.382897  -0.020107   0.001871  -0.010358   0.003404  -0.010381
    23  H   -0.105990   0.367068   0.087496  -0.007859  -0.003326   0.007596
    24  H    0.015894   0.037718   0.356384   0.005445   0.002336  -0.060343
    25  H    0.015894   0.037718   0.356384   0.005445   0.002336  -0.060343
              13         14         15         16         17         18
     1  C    0.283197  -1.050280   0.370433  -0.016787  -0.032377   0.054076
     2  C   -0.301867  -0.080441  -0.108481   0.373846  -0.007928   0.001927
     3  C   -0.112790  -0.283851   0.001257  -0.012129   0.368159  -0.084287
     4  C   -1.423006  -0.222362   0.029939   0.010106  -0.066334   0.454459
     5  C   -0.322748  -1.646449   0.004584  -0.001334   0.000470   0.006000
     6  C    0.890413  -1.344088   0.000979  -0.000297   0.000384  -0.005263
     7  C   -0.795704   1.052863  -0.002311   0.000318  -0.000418   0.002034
     8  C    0.333107  -1.814637   0.006674   0.000406  -0.001235   0.006949
     9  C    1.621398  -2.104546   0.095455   0.003993  -0.006426  -0.026013
    10  C   -0.321115   2.383848  -0.011234  -0.007997   0.020374   0.014488
    11  C    1.070996  -4.714405  -0.033811   0.025935  -0.027299  -0.002616
    12  C   -4.822622   3.115291  -0.036349  -0.033162   0.097431  -0.065314
    13  C   14.563560  -4.087394   0.007154   0.002464  -0.006253  -0.012110
    14  C   -4.087394  16.298856   0.004764  -0.007661   0.005330  -0.008414
    15  H    0.007154   0.004764   0.444489  -0.008923   0.001234   0.000058
    16  H    0.002464  -0.007661  -0.008923   0.422289  -0.005977   0.001885
    17  H   -0.006253   0.005330   0.001234  -0.005977   0.424766  -0.010408
    18  H   -0.012110  -0.008414   0.000058   0.001885  -0.010408   0.459029
    19  H    0.076914  -0.086215   0.000226  -0.000480   0.001135  -0.006831
    20  H   -0.008952  -0.047933  -0.000102   0.000011  -0.000121   0.001257
    21  H   -0.025443   0.085931   0.000011  -0.000007   0.000010  -0.000166
    22  H    0.024941  -0.030067  -0.000131   0.000007  -0.000007   0.000020
    23  H   -0.029506  -0.013031   0.000565  -0.000124   0.000017  -0.000126
    24  H    0.024549  -0.059789  -0.000877   0.000634  -0.000150   0.000224
    25  H    0.024549  -0.059789  -0.000877   0.000634  -0.000150   0.000224
              19         20         21         22         23         24
     1  C   -0.048474   0.007058  -0.001404   0.001036   0.004892   0.027991
     2  C   -0.007414   0.002114  -0.000373   0.000402  -0.002902   0.012984
     3  C    0.051638  -0.005020   0.000413  -0.000357   0.001234  -0.001800
     4  C   -0.061922   0.006030   0.000135  -0.001688   0.006420  -0.013202
     5  C   -0.080982   0.466610  -0.069903   0.016985   0.025205  -0.011280
     6  C    0.051164  -0.083679   0.381107  -0.021488  -0.003171  -0.001307
     7  C   -0.008256   0.003610  -0.022372   0.382897  -0.105990   0.015894
     8  C   -0.043776   0.047372  -0.019889  -0.020107   0.367068   0.037718
     9  C    0.074913  -0.022624  -0.004789   0.001871   0.087496   0.356384
    10  C    0.422389   0.007353   0.020007  -0.010358  -0.007859   0.005445
    11  C    0.082037  -0.012373  -0.006307   0.003404  -0.003326   0.002336
    12  C   -0.046394  -0.021177   0.005228  -0.010381   0.007596  -0.060343
    13  C    0.076914  -0.008952  -0.025443   0.024941  -0.029506   0.024549
    14  C   -0.086215  -0.047933   0.085931  -0.030067  -0.013031  -0.059789
    15  H    0.000226  -0.000102   0.000011  -0.000131   0.000565  -0.000877
    16  H   -0.000480   0.000011  -0.000007   0.000007  -0.000124   0.000634
    17  H    0.001135  -0.000121   0.000010  -0.000007   0.000017  -0.000150
    18  H   -0.006831   0.001257  -0.000166   0.000020  -0.000126   0.000224
    19  H    0.443704  -0.005781   0.001719  -0.000604   0.000409   0.000593
    20  H   -0.005781   0.448642  -0.010090   0.001970   0.000235   0.000144
    21  H    0.001719  -0.010090   0.419833  -0.007068   0.001662  -0.000134
    22  H   -0.000604   0.001970  -0.007068   0.416142  -0.008902   0.000627
    23  H    0.000409   0.000235   0.001662  -0.008902   0.434296  -0.000938
    24  H    0.000593   0.000144  -0.000134   0.000627  -0.000938   0.493383
    25  H    0.000593   0.000144  -0.000134   0.000627  -0.000938  -0.079216
              25
     1  C    0.027991
     2  C    0.012984
     3  C   -0.001800
     4  C   -0.013202
     5  C   -0.011280
     6  C   -0.001307
     7  C    0.015894
     8  C    0.037718
     9  C    0.356384
    10  C    0.005445
    11  C    0.002336
    12  C   -0.060343
    13  C    0.024549
    14  C   -0.059789
    15  H   -0.000877
    16  H    0.000634
    17  H   -0.000150
    18  H    0.000224
    19  H    0.000593
    20  H    0.000144
    21  H   -0.000134
    22  H    0.000627
    23  H   -0.000938
    24  H   -0.079216
    25  H    0.493383
 Mulliken charges:
               1
     1  C    0.114017
     2  C   -0.412823
     3  C   -0.443952
     4  C   -0.004495
     5  C    0.027787
     6  C   -0.433500
     7  C   -0.401693
     8  C    0.073726
     9  C   -0.343003
    10  C    0.084470
    11  C   -0.607190
    12  C    0.666383
    13  C   -0.653734
    14  C    0.714469
    15  H    0.235274
    16  H    0.252350
    17  H    0.245773
    18  H    0.218918
    19  H    0.189694
    20  H    0.225303
    21  H    0.252023
    22  H    0.260228
    23  H    0.239717
    24  H    0.250130
    25  H    0.250130
 Sum of Mulliken charges =   1.00000
 Mulliken charges with hydrogens summed into heavy atoms:
               1
     1  C    0.349291
     2  C   -0.160472
     3  C   -0.198179
     4  C    0.214424
     5  C    0.253089
     6  C   -0.181477
     7  C   -0.141465
     8  C    0.313442
     9  C    0.157256
    10  C    0.274165
    11  C   -0.607190
    12  C    0.666383
    13  C   -0.653734
    14  C    0.714469
 Electronic spatial extent (au):  <R**2>=           2856.4734
 Charge=              1.0000 electrons
 Dipole moment (field-independent basis, Debye):
    X=              0.3018    Y=             -0.9452    Z=             -0.0000  Tot=              0.9922
 Quadrupole moment (field-independent basis, Debye-Ang):
   XX=            -51.1514   YY=            -36.1473   ZZ=            -84.1335
   XY=            -10.1707   XZ=              0.0000   YZ=              0.0000
 Traceless Quadrupole moment (field-independent basis, Debye-Ang):
   XX=              5.9927   YY=             20.9968   ZZ=            -26.9894
   XY=            -10.1707   XZ=              0.0000   YZ=              0.0000
 Octapole moment (field-independent basis, Debye-Ang**2):
  XXX=              3.1543  YYY=             -3.1750  ZZZ=             -0.0000  XYY=              2.7375
  XXY=             -7.9186  XXZ=             -0.0000  XZZ=              3.3984  YZZ=              0.1914
  YYZ=             -0.0000  XYZ=              0.0000
 Hexadecapole moment (field-independent basis, Debye-Ang**3):
 XXXX=           -984.0187 YYYY=          -1852.1167 ZZZZ=            -99.3189 XXXY=            346.7186
 XXXZ=             -0.0000 YYYX=            272.3924 YYYZ=              0.0000 ZZZX=             -0.0000
 ZZZY=              0.0000 XXYY=           -455.2281 XXZZ=           -240.3392 YYZZ=           -496.1631
 XXYZ=              0.0000 YYXZ=             -0.0000 ZZXY=            182.0988
 N-N= 7.811834226099D+02 E-N=-2.798719898611D+03  KE= 5.375245116147D+02
 Symmetry A'   KE= 5.228718260115D+02
 Symmetry A"   KE= 1.465268560325D+01
 Unable to Open any file for archive entry.
 1\1\GINC-GADI-CPU-CLX-0648\SP\RM062X TD-FC\6-311++G(d,p)\C14H11(1+)\TS
 1578\27-Jul-2022\0\\#n M062X/6-311++G(d,p) TD(NStates=1) EmpiricalDisp
 ersion=GD3 SP\\SP_100\\1,1\C,0,2.51715,1.3679,0.\C,0,3.730525,0.69295,
 0.\C,0,3.6921,-0.68365,0.\C,0,2.435925,-1.383025,0.\C,0,-2.490525,-1.4
 14875,0.\C,0,-3.676,-0.72705,0.\C,0,-3.67295,0.668275,0.\C,0,-2.4692,1
 .37,0.\C,0,0.0153,1.4632,0.\C,0,-0.0427,-1.42055,0.\C,0,1.25575,0.6723
 25,0.\C,0,1.2199,-0.719925,0.\C,0,-1.268525,0.6991,0.\C,0,-1.2549,-0.7
 24125,0.\H,0,2.496,2.45135,0.\H,0,4.666225,1.230275,0.\H,0,4.6043,-1.2
 648,0.\H,0,2.45465,-2.46595,0.\H,0,-0.039375,-2.501625,0.\H,0,-2.4802,
 -2.496925,0.\H,0,-4.61445,-1.263225,0.\H,0,-4.60795,1.21015,0.\H,0,-2.
 4813,2.452925,0.\H,0,0.056,2.15475,-0.859875\H,0,0.056,2.15475,0.85987
 5\\Version=ES64L-G16RevC.01\State=1-A'\HF=-539.754906\RMSD=9.486e-09\P
 G=CS [SG(C14H9),X(H2)]\\@
 The archive entry for this job was punched.


 The juvenile sea squirt wanders through the sea searching
 for a suitable rock or hunk of coral to cling to and make
 its home for life.  For this task it has a rudimentary
 nervous system.  When it finds its spot and takes root, it
 doesn't need its brain any more so it eats it.
 It's rather like getting tenure.

                               -- source unknown
 Job cpu time:       0 days  0 hours 50 minutes  0.3 seconds.
 Elapsed time:       0 days  0 hours  1 minutes 42.7 seconds.
 File lengths (MBytes):  RWF=    460 Int=      0 D2E=      0 Chk=     15 Scr=      1
 Normal termination of Gaussian 16 at Wed Jul 27 12:18:02 2022.
