 Entering Gaussian System, Link 0=g16
 Initial command:
 /apps/gaussian/g16c01/g16/l1.exe "/jobfs/52804872.gadi-pbs/Gau-1413021.inp" -scrdir="/jobfs/52804872.gadi-pbs/"
 Entering Link 1 = /apps/gaussian/g16c01/g16/l1.exe PID=   1413022.
  
 Copyright (c) 1988-2019, Gaussian, Inc.  All Rights Reserved.
  
 This is part of the Gaussian(R) 16 program.  It is based on
 the Gaussian(R) 09 system (copyright 2009, Gaussian, Inc.),
 the Gaussian(R) 03 system (copyright 2003, Gaussian, Inc.),
 the Gaussian(R) 98 system (copyright 1998, Gaussian, Inc.),
 the Gaussian(R) 94 system (copyright 1995, Gaussian, Inc.),
 the Gaussian 92(TM) system (copyright 1992, Gaussian, Inc.),
 the Gaussian 90(TM) system (copyright 1990, Gaussian, Inc.),
 the Gaussian 88(TM) system (copyright 1988, Gaussian, Inc.),
 the Gaussian 86(TM) system (copyright 1986, Carnegie Mellon
 University), and the Gaussian 82(TM) system (copyright 1983,
 Carnegie Mellon University). Gaussian is a federally registered
 trademark of Gaussian, Inc.
  
 This software contains proprietary and confidential information,
 including trade secrets, belonging to Gaussian, Inc.
  
 This software is provided under written license and may be
 used, copied, transmitted, or stored only in accord with that
 written license.
  
 The following legend is applicable only to US Government
 contracts under FAR:
  
                    RESTRICTED RIGHTS LEGEND
  
 Use, reproduction and disclosure by the US Government is
 subject to restrictions as set forth in subparagraphs (a)
 and (c) of the Commercial Computer Software - Restricted
 Rights clause in FAR 52.227-19.
  
 Gaussian, Inc.
 340 Quinnipiac St., Bldg. 40, Wallingford CT 06492
  
  
 ---------------------------------------------------------------
 Warning -- This program may not be used in any manner that
 competes with the business of Gaussian, Inc. or will provide
 assistance to any competitor of Gaussian, Inc.  The licensee
 of this program is prohibited from giving any competitor of
 Gaussian, Inc. access to this program.  By using this program,
 the user acknowledges that Gaussian, Inc. is engaged in the
 business of creating and licensing software in the field of
 computational chemistry and represents and warrants to the
 licensee that it is not a competitor of Gaussian, Inc. and that
 it will not use this program in any manner prohibited above.
 ---------------------------------------------------------------
  

 Cite this work as:
 Gaussian 16, Revision C.01,
 M. J. Frisch, G. W. Trucks, H. B. Schlegel, G. E. Scuseria, 
 M. A. Robb, J. R. Cheeseman, G. Scalmani, V. Barone, 
 G. A. Petersson, H. Nakatsuji, X. Li, M. Caricato, A. V. Marenich, 
 J. Bloino, B. G. Janesko, R. Gomperts, B. Mennucci, H. P. Hratchian, 
 J. V. Ortiz, A. F. Izmaylov, J. L. Sonnenberg, D. Williams-Young, 
 F. Ding, F. Lipparini, F. Egidi, J. Goings, B. Peng, A. Petrone, 
 T. Henderson, D. Ranasinghe, V. G. Zakrzewski, J. Gao, N. Rega, 
 G. Zheng, W. Liang, M. Hada, M. Ehara, K. Toyota, R. Fukuda, 
 J. Hasegawa, M. Ishida, T. Nakajima, Y. Honda, O. Kitao, H. Nakai, 
 T. Vreven, K. Throssell, J. A. Montgomery, Jr., J. E. Peralta, 
 F. Ogliaro, M. J. Bearpark, J. J. Heyd, E. N. Brothers, K. N. Kudin, 
 V. N. Staroverov, T. A. Keith, R. Kobayashi, J. Normand, 
 K. Raghavachari, A. P. Rendell, J. C. Burant, S. S. Iyengar, 
 J. Tomasi, M. Cossi, J. M. Millam, M. Klene, C. Adamo, R. Cammi, 
 J. W. Ochterski, R. L. Martin, K. Morokuma, O. Farkas, 
 J. B. Foresman, and D. J. Fox, Gaussian, Inc., Wallingford CT, 2019.
 
 ******************************************
 Gaussian 16:  ES64L-G16RevC.01  3-Jul-2019
                27-Jul-2022 
 ******************************************
 %NProcShared=32
 Will use up to   32 processors via shared memory.
 %mem = 128GB
 ---------------------------------------------------------------
 #n M062X/6-311++G(d,p) TD(NStates=1) EmpiricalDispersion=GD3 SP
 ---------------------------------------------------------------
 1/38=1,172=1/1;
 2/12=2,17=6,18=5,40=1/2;
 3/5=4,6=6,7=1111,11=9,25=1,30=1,74=-55,124=31/1,2,3,8;
 4//1;
 5/5=2,38=5/2;
 8/6=1,10=2,108=1/1;
 9/41=1,42=1,70=2/14;
 6/7=2,8=2,9=2,10=2/1;
 99/5=1,9=1/99;
 ------
 SP_-75
 ------
 Symbolic Z-matrix:
 Charge =  1 Multiplicity = 1
 C                     2.48395   1.37      0. 
 C                     3.69233   0.67753   0. 
 C                     3.681    -0.7103    0. 
 C                     2.4709   -1.40325   0. 
 C                    -2.4553   -1.39415   0. 
 C                    -3.6856   -0.6979    0. 
 C                    -3.70878   0.68458   0. 
 C                    -2.49765   1.3694    0. 
 C                    -0.00433   1.4577    0. 
 C                     0.0122   -1.4203    0. 
 C                     1.26378   0.68948   0. 
 C                     1.2429   -0.723     0. 
 C                    -1.26013   0.68183   0. 
 C                    -1.2329   -0.7218    0. 
 H                     2.4838    2.45318   0. 
 H                     4.62732   1.21827   0. 
 H                     4.61045  -1.26223   0. 
 H                     2.47145  -2.48568   0. 
 H                     0.01125  -2.5015    0. 
 H                    -2.46415  -2.47682   0. 
 H                    -4.60755  -1.26268   0. 
 H                    -4.64398   1.22403   0. 
 H                    -2.488     2.45273   0. 
 H                    -0.016     2.1535   -0.8585 
 H                    -0.016     2.1535    0.8585 
 
                          Input orientation:                          
 ---------------------------------------------------------------------
 Center     Atomic      Atomic             Coordinates (Angstroms)
 Number     Number       Type             X           Y           Z
 ---------------------------------------------------------------------
      1          6           0        2.483950    1.370000    0.000000
      2          6           0        3.692325    0.677525    0.000000
      3          6           0        3.681000   -0.710300    0.000000
      4          6           0        2.470900   -1.403250    0.000000
      5          6           0       -2.455300   -1.394150    0.000000
      6          6           0       -3.685600   -0.697900    0.000000
      7          6           0       -3.708775    0.684575    0.000000
      8          6           0       -2.497650    1.369400    0.000000
      9          6           0       -0.004325    1.457700    0.000000
     10          6           0        0.012200   -1.420300    0.000000
     11          6           0        1.263775    0.689475    0.000000
     12          6           0        1.242900   -0.723000    0.000000
     13          6           0       -1.260125    0.681825    0.000000
     14          6           0       -1.232900   -0.721800    0.000000
     15          1           0        2.483800    2.453175    0.000000
     16          1           0        4.627325    1.218275    0.000000
     17          1           0        4.610450   -1.262225    0.000000
     18          1           0        2.471450   -2.485675    0.000000
     19          1           0        0.011250   -2.501500    0.000000
     20          1           0       -2.464150   -2.476825    0.000000
     21          1           0       -4.607550   -1.262675    0.000000
     22          1           0       -4.643975    1.224025    0.000000
     23          1           0       -2.488000    2.452725    0.000000
     24          1           0       -0.016000    2.153500   -0.858500
     25          1           0       -0.016000    2.153500    0.858500
 ---------------------------------------------------------------------
                    Distance matrix (angstroms):
                    1          2          3          4          5
     1  C    0.000000
     2  C    1.392728   0.000000
     3  C    2.400120   1.387871   0.000000
     4  C    2.773281   2.412779   1.394461   0.000000
     5  C    5.660099   6.487305   6.174288   4.926208   0.000000
     6  C    6.506885   7.505036   7.366610   6.196774   1.413649
     7  C    6.230542   7.401103   7.520269   6.522837   2.427405
     8  C    4.981600   6.228522   6.519269   5.689822   2.763874
     9  C    2.489820   3.778081   4.275727   3.783090   3.760363
    10  C    3.727643   4.236058   3.736869   2.458759   2.467639
    11  C    1.397119   2.428579   2.793268   2.415916   4.262982
    12  C    2.433281   2.821552   2.438133   1.403825   3.758607
    13  C    3.806794   4.952452   5.133491   4.274118   2.395436
    14  C    4.265044   5.120152   4.913913   3.765967   1.395104
    15  H    1.083175   2.147898   3.382434   3.856447   6.260720
    16  H    2.148738   1.080109   2.148239   3.394490   7.549062
    17  H    3.383875   2.146062   1.080971   2.144193   7.066981
    18  H    3.855695   3.390630   2.148248   1.082425   5.046216
    19  H    4.593774   4.863796   4.083560   2.693702   2.703718
    20  H    6.267516   6.917522   6.394019   5.050473   1.082711
    21  H    7.564413   8.523632   8.306936   7.079846   2.156262
    22  H    7.129420   8.354194   8.546743   7.584459   3.412497
    23  H    5.088475   6.430222   6.932625   6.281658   3.847014
    24  H    2.756927   4.082548   4.754596   4.424044   4.390106
    25  H    2.756927   4.082548   4.754596   4.424044   4.390106
                    6          7          8          9         10
     6  C    0.000000
     7  C    1.382669   0.000000
     8  C    2.384314   1.391334   0.000000
     9  C    4.265958   3.784266   2.494888   0.000000
    10  C    3.767703   4.275062   3.752569   2.878047   0.000000
    11  C    5.140148   4.972552   3.822384   1.482649   2.453078
    12  C    4.928564   5.147849   4.286007   2.512175   1.414514
    13  C    2.790443   2.448652   1.415707   1.476149   2.457181
    14  C    2.452816   2.847428   2.443913   2.501923   1.427647
    15  H    6.927537   6.440181   5.097981   2.679876   4.594847
    16  H    8.530911   8.353167   7.126578   4.637834   5.316151
    17  H    8.315221   8.543977   7.579613   5.356691   4.600966
    18  H    6.411350   6.945910   6.289162   4.656143   2.680100
    19  H    4.113353   4.897924   4.612857   3.959231   1.081200
    20  H    2.157896   3.397579   3.846371   4.640175   2.692314
    21  H    1.081186   2.144663   3.373351   5.346973   4.622438
    22  H    2.147622   1.079632   2.151243   4.645531   5.354663
    23  H    3.370561   2.148638   1.083368   2.675578   4.609916
    24  H    4.725830   4.065876   2.740515   1.105123   3.675577
    25  H    4.725830   4.065876   2.740515   1.105123   3.675577
                   11         12         13         14         15
    11  C    0.000000
    12  C    1.412629   0.000000
    13  C    2.523912   2.870308   0.000000
    14  C    2.867941   2.475800   1.403889   0.000000
    15  H    2.144551   3.409974   4.141818   4.888182   0.000000
    16  H    3.404864   3.901651   5.911839   6.173016   2.473798
    17  H    3.874192   3.410448   6.184091   5.868288   4.280986
    18  H    3.397066   2.148571   4.894661   4.102860   4.938865
    19  H    3.427994   2.163336   3.427820   2.171461   5.537356
    20  H    4.891102   4.100990   3.380347   2.143849   6.984777
    21  H    6.187354   5.875288   3.871219   3.417720   8.005922
    22  H    5.931885   6.200500   3.427014   3.927043   7.232979
    23  H    4.145463   4.899474   2.154939   3.413632   4.971800
    24  H    2.125609   3.255166   2.109667   3.238089   2.660043
    25  H    2.125609   3.255166   2.109667   3.238089   2.660043
                   16         17         18         19         20
    16  H    0.000000
    17  H    2.480557   0.000000
    18  H    4.285679   2.464173   0.000000
    19  H    5.928311   4.763239   2.460251   0.000000
    20  H    7.996423   7.178107   4.935608   2.475523   0.000000
    21  H    9.562323   9.218000   7.183869   4.782050   2.463397
    22  H    9.271302   9.582579   8.024409   5.962437   4.295105
    23  H    7.221615   8.011794   6.998853   5.548927   4.929608
    24  H    4.813744   5.814485   5.333514   4.733581   5.307577
    25  H    4.813744   5.814485   5.333514   4.733581   5.307577
                   21         22         23         24         25
    21  H    0.000000
    22  H    2.486967   0.000000
    23  H    4.277463   2.481518   0.000000
    24  H    5.787020   4.797822   2.633883   0.000000
    25  H    5.787020   4.797822   2.633883   1.717000   0.000000
 Stoichiometry    C14H11(1+)
 Framework group  CS[SG(C14H9),X(H2)]
 Deg. of freedom    46
 Full point group                 CS      NOp   2
 Largest Abelian subgroup         CS      NOp   2
 Largest concise Abelian subgroup CS      NOp   2
                         Standard orientation:                         
 ---------------------------------------------------------------------
 Center     Atomic      Atomic             Coordinates (Angstroms)
 Number     Number       Type             X           Y           Z
 ---------------------------------------------------------------------
      1          6           0       -2.371283   -1.549549    0.000000
      2          6           0       -2.329928   -2.941663    0.000000
      3          6           0       -1.100512   -3.585653    0.000000
      4          6           0        0.080909   -2.844864    0.000000
      5          6           0        2.394233    1.504395    0.000000
      6          6           0        2.359881    2.917626    0.000000
      7          6           0        1.151441    3.589524    0.000000
      8          6           0       -0.023297    2.844003    0.000000
      9          6           0       -1.276097    0.686468    0.000000
     10          6           0        1.254549   -0.684294    0.000000
     11          6           0       -1.196073   -0.794020    0.000000
     12          6           0        0.059585   -1.441202    0.000000
     13          6           0        0.000000    1.428488    0.000000
     14          6           0        1.225186    0.743051    0.000000
     15          1           0       -3.326586   -1.038997    0.000000
     16          1           0       -3.247472   -3.511530    0.000000
     17          1           0       -1.051687   -4.665520    0.000000
     18          1           0        1.035363   -3.355416    0.000000
     19          1           0        2.208629   -1.192945    0.000000
     20          1           0        3.353337    1.002017    0.000000
     21          1           0        3.292466    3.464662    0.000000
     22          1           0        1.116329    4.668585    0.000000
     23          1           0       -0.983351    3.345982    0.000000
     24          1           0       -1.884300    1.024644    0.858500
     25          1           0       -1.884300    1.024644   -0.858500
 ---------------------------------------------------------------------
 Rotational constants (GHZ):           2.1376819           0.4448281           0.3690068
 Standard basis: 6-311++G(d,p) (5D, 7F)
 There are   299 symmetry adapted cartesian basis functions of A'  symmetry.
 There are   100 symmetry adapted cartesian basis functions of A"  symmetry.
 There are   285 symmetry adapted basis functions of A'  symmetry.
 There are   100 symmetry adapted basis functions of A"  symmetry.
   385 basis functions,   603 primitive gaussians,   399 cartesian basis functions
    47 alpha electrons       47 beta electrons
       nuclear repulsion energy       781.3948820499 Hartrees.
 NAtoms=   25 NActive=   25 NUniq=   24 SFac= 1.09D+00 NAtFMM=   60 NAOKFM=F Big=F
 Integral buffers will be    131072 words long.
 Regular integral format.
 Two-electron integral symmetry is turned on.
 Nuclear repulsion after empirical dispersion term =      781.3939026481 Hartrees.
 One-electron integrals computed using PRISM.
 NBasis=   385 RedAO= T EigKep=  1.11D-06  NBF=   285   100
 NBsUse=   379 1.00D-06 EigRej=  8.36D-07 NBFU=   279   100
 ExpMin= 3.60D-02 ExpMax= 4.56D+03 ExpMxC= 6.82D+02 IAcc=3 IRadAn=         5 AccDes= 0.00D+00
 Harris functional with IExCor= 1009 and IRadAn=       5 diagonalized for initial guess.
 HarFok:  IExCor= 1009 AccDes= 0.00D+00 IRadAn=         5 IDoV= 1 UseB2=F ITyADJ=14
 ICtDFT=  3500011 ScaDFX=  1.000000  1.000000  1.000000  1.000000
 FoFCou: FMM=F IPFlag=           0 FMFlag=      100000 FMFlg1=           0
         NFxFlg=           0 DoJE=T BraDBF=F KetDBF=T FulRan=T
         wScrn=  0.000000 ICntrl=       500 IOpCl=  0 I1Cent=   200000004 NGrid=           0
         NMat0=    1 NMatS0=      1 NMatT0=    0 NMatD0=    1 NMtDS0=    0 NMtDT0=    0
 Petite list used in FoFCou.
 Initial guess orbital symmetries:
       Occupied  (A') (A') (A') (A') (A') (A') (A') (A') (A') (A')
                 (A') (A') (A') (A') (A') (A') (A') (A') (A') (A')
                 (A') (A') (A') (A') (A') (A') (A') (A') (A') (A')
                 (A') (A') (A") (A') (A') (A') (A') (A') (A') (A")
                 (A") (A') (A') (A") (A") (A") (A")
       Virtual   (A") (A") (A") (A") (A") (A') (A') (A') (A') (A")
                 (A") (A') (A') (A') (A") (A') (A') (A') (A') (A")
                 (A') (A") (A') (A') (A') (A") (A') (A") (A') (A')
                 (A') (A') (A') (A") (A') (A') (A") (A') (A') (A")
                 (A') (A') (A') (A") (A') (A') (A') (A') (A') (A")
                 (A') (A') (A") (A") (A') (A') (A') (A") (A") (A')
                 (A') (A') (A') (A') (A') (A") (A') (A') (A') (A")
                 (A') (A') (A') (A') (A') (A') (A') (A') (A') (A')
                 (A') (A') (A') (A') (A') (A') (A') (A') (A') (A')
                 (A') (A') (A') (A') (A') (A') (A') (A") (A') (A")
                 (A') (A') (A") (A") (A') (A") (A') (A") (A') (A")
                 (A") (A') (A') (A') (A") (A') (A') (A") (A") (A')
                 (A") (A") (A') (A') (A') (A") (A') (A') (A') (A")
                 (A') (A') (A') (A') (A') (A') (A") (A') (A') (A')
                 (A') (A') (A') (A') (A') (A') (A') (A') (A') (A")
                 (A") (A') (A") (A") (A') (A') (A') (A") (A") (A')
                 (A") (A') (A") (A") (A") (A') (A') (A') (A') (A')
                 (A') (A") (A") (A') (A') (A') (A') (A') (A') (A")
                 (A') (A') (A') (A') (A') (A") (A") (A') (A") (A")
                 (A') (A") (A') (A") (A') (A') (A') (A") (A') (A')
                 (A") (A") (A") (A') (A') (A") (A') (A") (A') (A')
                 (A") (A") (A') (A") (A') (A") (A') (A') (A') (A")
                 (A') (A') (A') (A') (A") (A') (A') (A') (A") (A")
                 (A') (A') (A') (A") (A') (A') (A") (A') (A") (A')
                 (A") (A') (A') (A') (A') (A") (A') (A') (A') (A")
                 (A') (A') (A") (A') (A") (A') (A') (A") (A') (A')
                 (A') (A') (A") (A") (A') (A') (A') (A") (A") (A')
                 (A') (A') (A') (A') (A") (A') (A") (A') (A") (A')
                 (A") (A') (A") (A") (A") (A') (A') (A') (A') (A')
                 (A') (A') (A') (A') (A') (A') (A') (A') (A') (A')
                 (A') (A') (A') (A') (A") (A') (A') (A') (A') (A')
                 (A') (A') (A') (A') (A') (A') (A') (A') (A') (A')
                 (A') (A') (A') (A') (A') (A') (A') (A') (A') (A')
                 (A') (A')
 The electronic state of the initial guess is 1-A'.
 Requested convergence on RMS density matrix=1.00D-08 within 128 cycles.
 Requested convergence on MAX density matrix=1.00D-06.
 Requested convergence on             energy=1.00D-06.
 No special actions if energy rises.
 SCF Done:  E(RM062X) =  -539.759704019     A.U. after   15 cycles
            NFock= 15  Conv=0.59D-08     -V/T= 2.0042
 DoSCS=F DFT=T ScalE2(SS,OS)=  1.000000  1.000000
 ExpMin= 3.60D-02 ExpMax= 4.56D+03 ExpMxC= 6.82D+02 IAcc=3 IRadAn=         5 AccDes= 0.00D+00
 HarFok:  IExCor=  205 AccDes= 0.00D+00 IRadAn=         5 IDoV=-2 UseB2=F ITyADJ=14
 ICtDFT= 12500011 ScaDFX=  1.000000  1.000000  1.000000  1.000000
 Range of M.O.s used for correlation:    15   379
 NBasis=   385 NAE=    47 NBE=    47 NFC=    14 NFV=     0
 NROrb=    365 NOA=    33 NOB=    33 NVA=   332 NVB=   332

 **** Warning!!: The largest alpha MO coefficient is  0.14985558D+03

 Orbital symmetries:
       Occupied  (A') (A') (A') (A') (A') (A') (A') (A') (A') (A')
                 (A') (A') (A') (A') (A') (A') (A') (A') (A') (A')
                 (A') (A') (A') (A') (A') (A') (A') (A') (A') (A')
                 (A') (A') (A") (A') (A') (A') (A') (A") (A") (A')
                 (A') (A') (A') (A") (A") (A") (A")
       Virtual   (A") (A") (A") (A") (A') (A') (A') (A') (A") (A')
                 (A') (A") (A') (A') (A") (A') (A") (A') (A') (A')
                 (A") (A") (A') (A') (A') (A") (A') (A") (A') (A')
                 (A") (A') (A") (A') (A') (A') (A') (A') (A") (A')
                 (A") (A') (A') (A") (A") (A') (A") (A') (A") (A')
                 (A') (A') (A') (A') (A') (A") (A') (A') (A') (A')
                 (A') (A") (A') (A') (A') (A") (A') (A') (A') (A')
                 (A') (A') (A') (A') (A') (A') (A') (A') (A') (A')
                 (A') (A') (A') (A') (A') (A') (A') (A') (A') (A')
                 (A') (A') (A') (A') (A") (A') (A") (A") (A') (A")
                 (A') (A') (A') (A') (A") (A") (A') (A") (A") (A')
                 (A') (A') (A") (A') (A') (A") (A') (A") (A') (A")
                 (A") (A') (A") (A') (A') (A') (A") (A') (A') (A')
                 (A') (A') (A') (A') (A') (A') (A') (A') (A') (A')
                 (A') (A') (A') (A") (A') (A') (A') (A') (A') (A')
                 (A') (A') (A") (A') (A") (A') (A") (A") (A') (A")
                 (A") (A') (A') (A") (A") (A") (A') (A") (A') (A')
                 (A') (A') (A') (A") (A") (A') (A') (A') (A') (A")
                 (A') (A') (A') (A") (A') (A") (A') (A') (A") (A")
                 (A") (A') (A') (A") (A') (A") (A') (A') (A') (A')
                 (A") (A") (A") (A') (A") (A') (A') (A") (A') (A')
                 (A') (A") (A') (A") (A") (A') (A") (A') (A') (A")
                 (A') (A') (A') (A') (A") (A') (A') (A') (A") (A")
                 (A') (A') (A') (A") (A') (A') (A') (A") (A") (A')
                 (A") (A') (A') (A") (A') (A') (A') (A') (A') (A')
                 (A") (A') (A') (A') (A') (A") (A") (A") (A') (A')
                 (A') (A') (A') (A') (A') (A') (A") (A') (A') (A')
                 (A') (A") (A') (A") (A") (A") (A') (A") (A') (A")
                 (A') (A") (A") (A') (A") (A") (A') (A') (A') (A')
                 (A') (A') (A') (A') (A') (A') (A') (A') (A') (A')
                 (A') (A') (A') (A") (A') (A') (A') (A') (A') (A')
                 (A') (A') (A') (A') (A') (A') (A') (A') (A') (A')
                 (A') (A') (A') (A') (A') (A') (A') (A') (A') (A')
                 (A') (A')
     4 initial guesses have been made.
 Convergence on wavefunction:    0.001000000000000
 Iteration     1 Dimension     4 NMult     0 NNew      4
 CISAX will form     4 AO SS matrices at one time.
 Iteration     2 Dimension     6 NMult     4 NNew      2
 Iteration     3 Dimension     8 NMult     6 NNew      2
 Iteration     4 Dimension    10 NMult     8 NNew      2
 Iteration     5 Dimension    12 NMult    10 NNew      2
 Iteration     6 Dimension    14 NMult    12 NNew      2
 ***********************************************************************
 Excited states from <AA,BB:AA,BB> singles matrix:
 ***********************************************************************
 
 Ground to excited state transition densities written to RWF  633
 Ground to excited state transition electric dipole moments (Au):
       state          X           Y           Z        Dip. S.      Osc.
         1        -0.5537      0.3099     -0.0000      0.4026      0.0277
 Ground to excited state transition velocity dipole moments (Au):
       state          X           Y           Z        Dip. S.      Osc.
         1         0.0646     -0.0343     -0.0000      0.0053      0.0345
 Ground to excited state transition magnetic dipole moments (Au):
       state          X           Y           Z
         1        -0.0000     -0.0000     -0.0817
 Ground to excited state transition velocity quadrupole moments (Au):
       state          XX          YY          ZZ          XY          XZ          YZ
         1         0.1197      0.2033     -0.0096      0.1259     -0.0000      0.0000
 <0|del|b> * <b|rxdel|0> + <0|del|b> * <b|delr+rdel|0>
 Rotatory Strengths (R) in cgs (10**-40 erg-esu-cm/Gauss)
       state          XX          YY          ZZ    R(velocity)    E-M Angle
         1         0.0000      0.0000      0.0000      0.0000       90.00
 1/2[<0|r|b>*<b|rxdel|0> + (<0|rxdel|b>*<b|r|0>)*]
 Rotatory Strengths (R) in cgs (10**-40 erg-esu-cm/Gauss)
       state          XX          YY          ZZ     R(length)
         1        -0.0000      0.0000     -0.0000      0.0000
  1/2[<0|del|b>*<b|r|0> + (<0|r|b>*<b|del|0>)*] (Au)
       state          X           Y           Z        Dip. S.   Osc.(frdel)
         1        -0.0357     -0.0106      0.0000      0.0464      0.0309

 Excitation energies and oscillator strengths:
 
 Excited State   1:      Singlet-A'     2.8083 eV  441.49 nm  f=0.0277  <S**2>=0.000
      47 -> 48         0.70410
 This state for optimization and/or second-order correction.
 Total Energy, E(TD-HF/TD-DFT) =  -539.656500171    
 Copying the excited state density for this state as the 1-particle RhoCI density.
 SavETr:  write IOETrn=   770 NScale= 10 NData=  16 NLR=1 NState=    1 LETran=      28.

 **********************************************************************

            Population analysis using the SCF Density.

 **********************************************************************

 Orbital symmetries:
       Occupied  (A') (A') (A') (A') (A') (A') (A') (A') (A') (A')
                 (A') (A') (A') (A') (A') (A') (A') (A') (A') (A')
                 (A') (A') (A') (A') (A') (A') (A') (A') (A') (A')
                 (A') (A') (A") (A') (A') (A') (A') (A") (A") (A')
                 (A') (A') (A') (A") (A") (A") (A")
       Virtual   (A") (A") (A") (A") (A') (A') (A') (A') (A") (A')
                 (A') (A") (A') (A') (A") (A') (A") (A') (A') (A')
                 (A") (A") (A') (A') (A') (A") (A') (A") (A') (A')
                 (A") (A') (A") (A') (A') (A') (A') (A') (A") (A')
                 (A") (A') (A') (A") (A") (A') (A") (A') (A") (A')
                 (A') (A') (A') (A') (A') (A") (A') (A') (A') (A')
                 (A') (A") (A') (A') (A') (A") (A') (A') (A') (A')
                 (A') (A') (A') (A') (A') (A') (A') (A') (A') (A')
                 (A') (A') (A') (A') (A') (A') (A') (A') (A') (A')
                 (A') (A') (A') (A') (A") (A') (A") (A") (A') (A")
                 (A') (A') (A') (A') (A") (A") (A') (A") (A") (A')
                 (A') (A') (A") (A') (A') (A") (A') (A") (A') (A")
                 (A") (A') (A") (A') (A') (A') (A") (A') (A') (A')
                 (A') (A') (A') (A') (A') (A') (A') (A') (A') (A')
                 (A') (A') (A') (A") (A') (A') (A') (A') (A') (A')
                 (A') (A') (A") (A') (A") (A') (A") (A") (A') (A")
                 (A") (A') (A') (A") (A") (A") (A') (A") (A') (A')
                 (A') (A') (A') (A") (A") (A') (A') (A') (A') (A")
                 (A') (A') (A') (A") (A') (A") (A') (A') (A") (A")
                 (A") (A') (A') (A") (A') (A") (A') (A') (A') (A')
                 (A") (A") (A") (A') (A") (A') (A') (A") (A') (A')
                 (A') (A") (A') (A") (A") (A') (A") (A') (A') (A")
                 (A') (A') (A') (A') (A") (A') (A') (A') (A") (A")
                 (A') (A') (A') (A") (A') (A') (A') (A") (A") (A')
                 (A") (A') (A') (A") (A') (A') (A') (A') (A') (A')
                 (A") (A') (A') (A') (A') (A") (A") (A") (A') (A')
                 (A') (A') (A') (A') (A') (A') (A") (A') (A') (A')
                 (A') (A") (A') (A") (A") (A") (A') (A") (A') (A")
                 (A') (A") (A") (A') (A") (A") (A') (A') (A') (A')
                 (A') (A') (A') (A') (A') (A') (A') (A') (A') (A')
                 (A') (A') (A') (A") (A') (A') (A') (A') (A') (A')
                 (A') (A') (A') (A') (A') (A') (A') (A') (A') (A')
                 (A') (A') (A') (A') (A') (A') (A') (A') (A') (A')
                 (A') (A')
 The electronic state is 1-A'.
 Alpha  occ. eigenvalues --  -10.77653 -10.73357 -10.73069 -10.72541 -10.72307
 Alpha  occ. eigenvalues --  -10.71502 -10.71268 -10.71227 -10.70966 -10.70754
 Alpha  occ. eigenvalues --  -10.70036 -10.69906 -10.69705 -10.69541  -1.16475
 Alpha  occ. eigenvalues --   -1.12484  -1.06944  -1.05779  -1.01312  -1.00231
 Alpha  occ. eigenvalues --   -0.95762  -0.91064  -0.86424  -0.85909  -0.83823
 Alpha  occ. eigenvalues --   -0.78398  -0.76059  -0.74417  -0.69567  -0.69257
 Alpha  occ. eigenvalues --   -0.68497  -0.68194  -0.68093  -0.64795  -0.64287
 Alpha  occ. eigenvalues --   -0.63070  -0.61851  -0.60040  -0.59627  -0.59090
 Alpha  occ. eigenvalues --   -0.56914  -0.55217  -0.54831  -0.52435  -0.46695
 Alpha  occ. eigenvalues --   -0.46067  -0.44425
 Alpha virt. eigenvalues --   -0.26080  -0.14672  -0.14094  -0.12771  -0.11181
 Alpha virt. eigenvalues --   -0.10090  -0.09232  -0.07981  -0.07961  -0.07477
 Alpha virt. eigenvalues --   -0.07207  -0.07146  -0.05642  -0.05583  -0.05336
 Alpha virt. eigenvalues --   -0.03829  -0.03649  -0.03280  -0.03131  -0.02163
 Alpha virt. eigenvalues --   -0.01368  -0.00933   0.00187   0.00593   0.00676
 Alpha virt. eigenvalues --    0.01059   0.01511   0.01936   0.02214   0.02282
 Alpha virt. eigenvalues --    0.02450   0.02672   0.02753   0.03275   0.03378
 Alpha virt. eigenvalues --    0.04238   0.04508   0.04695   0.05029   0.05366
 Alpha virt. eigenvalues --    0.06030   0.06299   0.06597   0.07053   0.07251
 Alpha virt. eigenvalues --    0.07895   0.08161   0.08368   0.08556   0.08927
 Alpha virt. eigenvalues --    0.09541   0.09568   0.10042   0.10879   0.11048
 Alpha virt. eigenvalues --    0.11113   0.12178   0.12248   0.12896   0.13002
 Alpha virt. eigenvalues --    0.13417   0.13523   0.14023   0.14373   0.16193
 Alpha virt. eigenvalues --    0.16322   0.16362   0.17346   0.17617   0.17796
 Alpha virt. eigenvalues --    0.18130   0.19056   0.19249   0.19644   0.19761
 Alpha virt. eigenvalues --    0.21569   0.21613   0.22727   0.23123   0.23571
 Alpha virt. eigenvalues --    0.23775   0.24551   0.25282   0.26923   0.27613
 Alpha virt. eigenvalues --    0.28863   0.29303   0.29886   0.31371   0.35847
 Alpha virt. eigenvalues --    0.36453   0.38182   0.39281   0.41156   0.41395
 Alpha virt. eigenvalues --    0.41991   0.42176   0.42982   0.43703   0.44303
 Alpha virt. eigenvalues --    0.44922   0.45053   0.46063   0.46213   0.47914
 Alpha virt. eigenvalues --    0.48523   0.48881   0.49016   0.50439   0.51219
 Alpha virt. eigenvalues --    0.51556   0.51784   0.52116   0.52919   0.53988
 Alpha virt. eigenvalues --    0.54090   0.54671   0.55678   0.55775   0.57401
 Alpha virt. eigenvalues --    0.58241   0.58826   0.61455   0.62176   0.62356
 Alpha virt. eigenvalues --    0.63220   0.63494   0.65011   0.65161   0.67339
 Alpha virt. eigenvalues --    0.70393   0.70565   0.71054   0.72430   0.72884
 Alpha virt. eigenvalues --    0.75749   0.76029   0.76315   0.76888   0.77101
 Alpha virt. eigenvalues --    0.77852   0.77913   0.78263   0.79872   0.80402
 Alpha virt. eigenvalues --    0.81266   0.81627   0.82157   0.83019   0.85212
 Alpha virt. eigenvalues --    0.87171   0.88211   0.88590   0.89129   0.90443
 Alpha virt. eigenvalues --    0.91125   0.91261   0.93201   0.94639   0.96444
 Alpha virt. eigenvalues --    0.96672   1.00366   1.01306   1.01671   1.02725
 Alpha virt. eigenvalues --    1.03206   1.03764   1.04749   1.05500   1.08797
 Alpha virt. eigenvalues --    1.19573   1.23235   1.24088   1.25209   1.28170
 Alpha virt. eigenvalues --    1.29634   1.31831   1.34264   1.35785   1.36006
 Alpha virt. eigenvalues --    1.39378   1.40136   1.40962   1.42972   1.43501
 Alpha virt. eigenvalues --    1.43532   1.44887   1.45716   1.46380   1.46678
 Alpha virt. eigenvalues --    1.47644   1.48049   1.51778   1.53632   1.55810
 Alpha virt. eigenvalues --    1.55924   1.56351   1.56564   1.57806   1.61483
 Alpha virt. eigenvalues --    1.63202   1.63454   1.63811   1.66134   1.68353
 Alpha virt. eigenvalues --    1.68354   1.68670   1.69722   1.74428   1.76005
 Alpha virt. eigenvalues --    1.77209   1.78052   1.80094   1.80157   1.80742
 Alpha virt. eigenvalues --    1.83155   1.83203   1.83649   1.83820   1.84146
 Alpha virt. eigenvalues --    1.84311   1.85801   1.86136   1.88246   1.91403
 Alpha virt. eigenvalues --    1.92103   1.94143   1.95233   1.97708   1.98174
 Alpha virt. eigenvalues --    1.99773   2.02575   2.04461   2.07263   2.11820
 Alpha virt. eigenvalues --    2.12096   2.14125   2.15221   2.19155   2.21321
 Alpha virt. eigenvalues --    2.22793   2.28552   2.30307   2.34686   2.34965
 Alpha virt. eigenvalues --    2.36234   2.38679   2.39599   2.42388   2.44464
 Alpha virt. eigenvalues --    2.46182   2.46697   2.49380   2.52939   2.53819
 Alpha virt. eigenvalues --    2.54349   2.56715   2.57854   2.58307   2.59631
 Alpha virt. eigenvalues --    2.59841   2.61615   2.62161   2.63560   2.63825
 Alpha virt. eigenvalues --    2.64791   2.65134   2.65200   2.65385   2.68051
 Alpha virt. eigenvalues --    2.68601   2.70970   2.71420   2.73354   2.74828
 Alpha virt. eigenvalues --    2.76301   2.78897   2.79741   2.82993   2.83086
 Alpha virt. eigenvalues --    2.84905   2.86342   2.92135   2.96990   2.99521
 Alpha virt. eigenvalues --    3.00093   3.05314   3.11030   3.11514   3.13244
 Alpha virt. eigenvalues --    3.21092   3.23906   3.26802   3.28337   3.30744
 Alpha virt. eigenvalues --    3.32805   3.33734   3.43450   3.45942   3.46747
 Alpha virt. eigenvalues --    3.48639   3.50225   3.56576   3.65395   3.67004
 Alpha virt. eigenvalues --    3.67501   3.94165   3.94497   3.95199   3.96262
 Alpha virt. eigenvalues --    4.04020   4.06906   4.07584   4.12535   4.35660
 Alpha virt. eigenvalues --    4.61631   4.69849   4.71640  23.45324  23.60558
 Alpha virt. eigenvalues --   23.82140  23.85478  23.87780  23.89236  23.90613
 Alpha virt. eigenvalues --   23.92829  23.97475  23.98901  24.00332  24.01350
 Alpha virt. eigenvalues --   24.10614  24.10890
          Condensed to atoms (all electrons):
               1          2          3          4          5          6
     1  C    8.483156   0.438310  -0.591631   1.838585  -0.004395  -0.091791
     2  C    0.438310   7.101491   0.388186  -1.014211  -0.030880  -0.015132
     3  C   -0.591631   0.388186   6.588933   0.736762  -0.118128   0.016926
     4  C    1.838585  -1.014211   0.736762  11.010541  -0.328068  -0.125275
     5  C   -0.004395  -0.030880  -0.118128  -0.328068  10.792905   0.766078
     6  C   -0.091791  -0.015132   0.016926  -0.125275   0.766078   6.582791
     7  C   -0.026935   0.002761  -0.014514  -0.016788  -1.071517   0.341127
     8  C    0.405696  -0.018245  -0.097919  -0.025430   1.987196  -0.522104
     9  C   -1.227702  -0.798398   0.289052  -0.186244  -0.311029   0.288216
    10  C   -1.226304   0.212962  -0.332358  -2.618823  -2.509092  -0.380589
    11  C    0.271942  -0.902509   0.984887  -0.240905  -1.476679  -0.160484
    12  C   -1.841072   1.221490  -1.356780  -1.513020  -0.291016  -0.223426
    13  C    0.169418  -0.229846  -0.192743  -1.525102  -0.248491   1.050398
    14  C   -1.090177  -0.231654  -0.177628  -0.362339  -1.518898  -1.401304
    15  H    0.365347  -0.103805  -0.002352   0.026083   0.006136   0.001137
    16  H   -0.019846   0.379286  -0.017507   0.014697  -0.001596  -0.000336
    17  H   -0.021840  -0.018666   0.376307  -0.067469   0.000256   0.000399
    18  H    0.048275   0.003123  -0.084865   0.456810   0.007137  -0.004967
    19  H   -0.045981  -0.007686   0.050738  -0.073112  -0.067838   0.050868
    20  H    0.007357   0.001978  -0.005044   0.007075   0.453664  -0.084932
    21  H   -0.001299  -0.000405   0.000392   0.000370  -0.066600   0.372721
    22  H    0.000606   0.000349  -0.000320  -0.001508   0.012668  -0.014739
    23  H    0.006129  -0.002625   0.001062   0.005664   0.027484  -0.001168
    24  H    0.033535   0.014763  -0.001423  -0.012071  -0.012586  -0.001562
    25  H    0.033535   0.014763  -0.001423  -0.012071  -0.012586  -0.001562
               7          8          9         10         11         12
     1  C   -0.026935   0.405696  -1.227702  -1.226304   0.271942  -1.841072
     2  C    0.002761  -0.018245  -0.798398   0.212962  -0.902509   1.221490
     3  C   -0.014514  -0.097919   0.289052  -0.332358   0.984887  -1.356780
     4  C   -0.016788  -0.025430  -0.186244  -2.618823  -0.240905  -1.513020
     5  C   -1.071517   1.987196  -0.311029  -2.509092  -1.476679  -0.291016
     6  C    0.341127  -0.522104   0.288216  -0.380589  -0.160484  -0.223426
     7  C    7.098230   0.299241  -0.774521   0.266450  -0.253398  -0.172659
     8  C    0.299241   8.629967  -1.217081  -1.282378   0.184842  -1.054386
     9  C   -0.774521  -1.217081   9.636853   0.254505   1.724847  -2.029831
    10  C    0.266450  -1.282378   0.254505   9.221669  -0.490353   2.417783
    11  C   -0.253398   0.184842   1.724847  -0.490353  14.616207  -3.908305
    12  C   -0.172659  -1.054386  -2.029831   2.417783  -3.908305  16.104867
    13  C   -0.959272   0.267256   1.679870  -0.542707   1.089939  -4.828868
    14  C    1.410346  -2.054109  -1.924677   2.444971  -4.854590   3.006753
    15  H   -0.002777   0.005623   0.090626  -0.009111  -0.029484  -0.021095
    16  H    0.000372   0.000787   0.003811  -0.010025   0.028245  -0.034286
    17  H   -0.000392  -0.001346  -0.005630   0.020513  -0.027661   0.089386
    18  H    0.001988   0.007419  -0.024788   0.014103  -0.009608  -0.049948
    19  H   -0.007413  -0.047552   0.076160   0.422198   0.077002  -0.071093
    20  H    0.002815   0.050132  -0.025734   0.015962  -0.011824  -0.011213
    21  H   -0.014725  -0.025344  -0.006129   0.020782  -0.006350   0.005331
    22  H    0.376848  -0.019013   0.004384  -0.009387   0.002999  -0.008755
    23  H   -0.104419   0.366151   0.092919  -0.010121   0.002944   0.006330
    24  H    0.013914   0.030616   0.357402   0.005543   0.016636  -0.059639
    25  H    0.013914   0.030616   0.357402   0.005543   0.016636  -0.059639
              13         14         15         16         17         18
     1  C    0.169418  -1.090177   0.365347  -0.019846  -0.021840   0.048275
     2  C   -0.229846  -0.231654  -0.103805   0.379286  -0.018666   0.003123
     3  C   -0.192743  -0.177628  -0.002352  -0.017507   0.376307  -0.084865
     4  C   -1.525102  -0.362339   0.026083   0.014697  -0.067469   0.456810
     5  C   -0.248491  -1.518898   0.006136  -0.001596   0.000256   0.007137
     6  C    1.050398  -1.401304   0.001137  -0.000336   0.000399  -0.004967
     7  C   -0.959272   1.410346  -0.002777   0.000372  -0.000392   0.001988
     8  C    0.267256  -2.054109   0.005623   0.000787  -0.001346   0.007419
     9  C    1.679870  -1.924677   0.090626   0.003811  -0.005630  -0.024788
    10  C   -0.542707   2.444971  -0.009111  -0.010025   0.020513   0.014103
    11  C    1.089939  -4.854590  -0.029484   0.028245  -0.027661  -0.009608
    12  C   -4.828868   3.006753  -0.021095  -0.034286   0.089386  -0.049948
    13  C   14.572796  -3.714614   0.000066   0.003225  -0.006342  -0.011883
    14  C   -3.714614  16.017004   0.006987  -0.009497   0.005247  -0.014810
    15  H    0.000066   0.006987   0.437202  -0.008947   0.001522   0.000219
    16  H    0.003225  -0.009497  -0.008947   0.418363  -0.006785   0.001924
    17  H   -0.006342   0.005247   0.001522  -0.006785   0.421685  -0.010127
    18  H   -0.011883  -0.014810   0.000219   0.001924  -0.010127   0.451662
    19  H    0.078947  -0.059436   0.000324  -0.000550   0.001486  -0.005978
    20  H   -0.007837  -0.055061  -0.000115   0.000016  -0.000149   0.001281
    21  H   -0.028494   0.092958   0.000014  -0.000007   0.000010  -0.000135
    22  H    0.028621  -0.035268  -0.000125   0.000007  -0.000007   0.000013
    23  H   -0.030728  -0.027644   0.000598  -0.000127   0.000012  -0.000108
    24  H    0.010126  -0.060002  -0.000901   0.000627  -0.000139   0.000164
    25  H    0.010126  -0.060002  -0.000901   0.000627  -0.000139   0.000164
              19         20         21         22         23         24
     1  C   -0.045981   0.007357  -0.001299   0.000606   0.006129   0.033535
     2  C   -0.007686   0.001978  -0.000405   0.000349  -0.002625   0.014763
     3  C    0.050738  -0.005044   0.000392  -0.000320   0.001062  -0.001423
     4  C   -0.073112   0.007075   0.000370  -0.001508   0.005664  -0.012071
     5  C   -0.067838   0.453664  -0.066600   0.012668   0.027484  -0.012586
     6  C    0.050868  -0.084932   0.372721  -0.014739  -0.001168  -0.001562
     7  C   -0.007413   0.002815  -0.014725   0.376848  -0.104419   0.013914
     8  C   -0.047552   0.050132  -0.025344  -0.019013   0.366151   0.030616
     9  C    0.076160  -0.025734  -0.006129   0.004384   0.092919   0.357402
    10  C    0.422198   0.015962   0.020782  -0.009387  -0.010121   0.005543
    11  C    0.077002  -0.011824  -0.006350   0.002999   0.002944   0.016636
    12  C   -0.071093  -0.011213   0.005331  -0.008755   0.006330  -0.059639
    13  C    0.078947  -0.007837  -0.028494   0.028621  -0.030728   0.010126
    14  C   -0.059436  -0.055061   0.092958  -0.035268  -0.027644  -0.060002
    15  H    0.000324  -0.000115   0.000014  -0.000125   0.000598  -0.000901
    16  H   -0.000550   0.000016  -0.000007   0.000007  -0.000127   0.000627
    17  H    0.001486  -0.000149   0.000010  -0.000007   0.000012  -0.000139
    18  H   -0.005978   0.001281  -0.000135   0.000013  -0.000108   0.000164
    19  H    0.442668  -0.006277   0.001320  -0.000514   0.000268   0.000614
    20  H   -0.006277   0.454665  -0.010241   0.001900   0.000170   0.000187
    21  H    0.001320  -0.010241   0.423132  -0.006482   0.001402  -0.000144
    22  H   -0.000514   0.001900  -0.006482   0.420152  -0.008958   0.000630
    23  H    0.000268   0.000170   0.001402  -0.008958   0.440106  -0.000888
    24  H    0.000614   0.000187  -0.000144   0.000630  -0.000888   0.494505
    25  H    0.000614   0.000187  -0.000144   0.000630  -0.000888  -0.080424
              25
     1  C    0.033535
     2  C    0.014763
     3  C   -0.001423
     4  C   -0.012071
     5  C   -0.012586
     6  C   -0.001562
     7  C    0.013914
     8  C    0.030616
     9  C    0.357402
    10  C    0.005543
    11  C    0.016636
    12  C   -0.059639
    13  C    0.010126
    14  C   -0.060002
    15  H   -0.000901
    16  H    0.000627
    17  H   -0.000139
    18  H    0.000164
    19  H    0.000614
    20  H    0.000187
    21  H   -0.000144
    22  H    0.000630
    23  H   -0.000888
    24  H   -0.080424
    25  H    0.494505
 Mulliken charges:
               1
     1  C    0.087084
     2  C   -0.405399
     3  C   -0.438611
     4  C    0.025853
     5  C    0.015875
     6  C   -0.441291
     7  C   -0.408675
     8  C    0.099366
     9  C   -0.324281
    10  C    0.098263
    11  C   -0.644976
    12  C    0.683090
    13  C   -0.633862
    14  C    0.667447
    15  H    0.237731
    16  H    0.257523
    17  H    0.249866
    18  H    0.222935
    19  H    0.190223
    20  H    0.221038
    21  H    0.248068
    22  H    0.255268
    23  H    0.236435
    24  H    0.250516
    25  H    0.250516
 Sum of Mulliken charges =   1.00000
 Mulliken charges with hydrogens summed into heavy atoms:
               1
     1  C    0.324814
     2  C   -0.147876
     3  C   -0.188745
     4  C    0.248788
     5  C    0.236913
     6  C   -0.193223
     7  C   -0.153407
     8  C    0.335801
     9  C    0.176750
    10  C    0.288486
    11  C   -0.644976
    12  C    0.683090
    13  C   -0.633862
    14  C    0.667447
 Electronic spatial extent (au):  <R**2>=           2854.6301
 Charge=              1.0000 electrons
 Dipole moment (field-independent basis, Debye):
    X=              0.0297    Y=             -0.3334    Z=             -0.0000  Tot=              0.3347
 Quadrupole moment (field-independent basis, Debye-Ang):
   XX=            -50.7908   YY=            -36.5991   ZZ=            -84.1404
   XY=             10.3668   XZ=              0.0000   YZ=             -0.0000
 Traceless Quadrupole moment (field-independent basis, Debye-Ang):
   XX=              6.3860   YY=             20.5777   ZZ=            -26.9636
   XY=             10.3668   XZ=              0.0000   YZ=             -0.0000
 Octapole moment (field-independent basis, Debye-Ang**2):
  XXX=             -0.5715  YYY=              2.7511  ZZZ=             -0.0000  XYY=             -1.1320
  XXY=             -5.9271  XXZ=             -0.0000  XZZ=             -2.9005  YZZ=              1.0890
  YYZ=              0.0000  XYZ=              0.0000
 Hexadecapole moment (field-independent basis, Debye-Ang**3):
 XXXX=           -996.2382 YYYY=          -1842.2452 ZZZZ=            -99.3176 XXXY=           -350.0612
 XXXZ=             -0.0000 YYYX=           -277.2564 YYYZ=             -0.0000 ZZZX=              0.0000
 ZZZY=             -0.0000 XXYY=           -453.5995 XXZZ=           -243.6722 YYZZ=           -492.4508
 XXYZ=             -0.0000 YYXZ=             -0.0000 ZZXY=           -184.3656
 N-N= 7.813939026481D+02 E-N=-2.799137057601D+03  KE= 5.375175997584D+02
 Symmetry A'   KE= 5.228699601959D+02
 Symmetry A"   KE= 1.464763956254D+01
 Unable to Open any file for archive entry.
 1\1\GINC-GADI-CPU-CLX-0648\SP\RM062X TD-FC\6-311++G(d,p)\C14H11(1+)\TS
 1578\27-Jul-2022\0\\#n M062X/6-311++G(d,p) TD(NStates=1) EmpiricalDisp
 ersion=GD3 SP\\SP_-75\\1,1\C,0,2.48395,1.37,0.\C,0,3.692325,0.677525,0
 .\C,0,3.681,-0.7103,0.\C,0,2.4709,-1.40325,0.\C,0,-2.4553,-1.39415,0.\
 C,0,-3.6856,-0.6979,0.\C,0,-3.708775,0.684575,0.\C,0,-2.49765,1.3694,0
 .\C,0,-0.004325,1.4577,0.\C,0,0.0122,-1.4203,0.\C,0,1.263775,0.689475,
 0.\C,0,1.2429,-0.723,0.\C,0,-1.260125,0.681825,0.\C,0,-1.2329,-0.7218,
 0.\H,0,2.4838,2.453175,0.\H,0,4.627325,1.218275,0.\H,0,4.61045,-1.2622
 25,0.\H,0,2.47145,-2.485675,0.\H,0,0.01125,-2.5015,0.\H,0,-2.46415,-2.
 476825,0.\H,0,-4.60755,-1.262675,0.\H,0,-4.643975,1.224025,0.\H,0,-2.4
 88,2.452725,0.\H,0,-0.016,2.1535,-0.8585\H,0,-0.016,2.1535,0.8585\\Ver
 sion=ES64L-G16RevC.01\State=1-A'\HF=-539.759704\RMSD=5.864e-09\PG=CS [
 SG(C14H9),X(H2)]\\@
 The archive entry for this job was punched.


 TIME GOES, YOU SAY?  AH NO!
 ALAS, TIME STAYS, WE GO.
    -- A. DOBSON (1840-1921)
 Job cpu time:       0 days  0 hours 47 minutes 24.3 seconds.
 Elapsed time:       0 days  0 hours  1 minutes 31.0 seconds.
 File lengths (MBytes):  RWF=    460 Int=      0 D2E=      0 Chk=     15 Scr=      1
 Normal termination of Gaussian 16 at Wed Jul 27 10:27:56 2022.
