 Entering Gaussian System, Link 0=g16
 Initial command:
 /apps/gaussian/g16c01/g16/l1.exe "/jobfs/52826432.gadi-pbs/Gau-2809574.inp" -scrdir="/jobfs/52826432.gadi-pbs/"
 Entering Link 1 = /apps/gaussian/g16c01/g16/l1.exe PID=   2809575.
  
 Copyright (c) 1988-2019, Gaussian, Inc.  All Rights Reserved.
  
 This is part of the Gaussian(R) 16 program.  It is based on
 the Gaussian(R) 09 system (copyright 2009, Gaussian, Inc.),
 the Gaussian(R) 03 system (copyright 2003, Gaussian, Inc.),
 the Gaussian(R) 98 system (copyright 1998, Gaussian, Inc.),
 the Gaussian(R) 94 system (copyright 1995, Gaussian, Inc.),
 the Gaussian 92(TM) system (copyright 1992, Gaussian, Inc.),
 the Gaussian 90(TM) system (copyright 1990, Gaussian, Inc.),
 the Gaussian 88(TM) system (copyright 1988, Gaussian, Inc.),
 the Gaussian 86(TM) system (copyright 1986, Carnegie Mellon
 University), and the Gaussian 82(TM) system (copyright 1983,
 Carnegie Mellon University). Gaussian is a federally registered
 trademark of Gaussian, Inc.
  
 This software contains proprietary and confidential information,
 including trade secrets, belonging to Gaussian, Inc.
  
 This software is provided under written license and may be
 used, copied, transmitted, or stored only in accord with that
 written license.
  
 The following legend is applicable only to US Government
 contracts under FAR:
  
                    RESTRICTED RIGHTS LEGEND
  
 Use, reproduction and disclosure by the US Government is
 subject to restrictions as set forth in subparagraphs (a)
 and (c) of the Commercial Computer Software - Restricted
 Rights clause in FAR 52.227-19.
  
 Gaussian, Inc.
 340 Quinnipiac St., Bldg. 40, Wallingford CT 06492
  
  
 ---------------------------------------------------------------
 Warning -- This program may not be used in any manner that
 competes with the business of Gaussian, Inc. or will provide
 assistance to any competitor of Gaussian, Inc.  The licensee
 of this program is prohibited from giving any competitor of
 Gaussian, Inc. access to this program.  By using this program,
 the user acknowledges that Gaussian, Inc. is engaged in the
 business of creating and licensing software in the field of
 computational chemistry and represents and warrants to the
 licensee that it is not a competitor of Gaussian, Inc. and that
 it will not use this program in any manner prohibited above.
 ---------------------------------------------------------------
  

 Cite this work as:
 Gaussian 16, Revision C.01,
 M. J. Frisch, G. W. Trucks, H. B. Schlegel, G. E. Scuseria, 
 M. A. Robb, J. R. Cheeseman, G. Scalmani, V. Barone, 
 G. A. Petersson, H. Nakatsuji, X. Li, M. Caricato, A. V. Marenich, 
 J. Bloino, B. G. Janesko, R. Gomperts, B. Mennucci, H. P. Hratchian, 
 J. V. Ortiz, A. F. Izmaylov, J. L. Sonnenberg, D. Williams-Young, 
 F. Ding, F. Lipparini, F. Egidi, J. Goings, B. Peng, A. Petrone, 
 T. Henderson, D. Ranasinghe, V. G. Zakrzewski, J. Gao, N. Rega, 
 G. Zheng, W. Liang, M. Hada, M. Ehara, K. Toyota, R. Fukuda, 
 J. Hasegawa, M. Ishida, T. Nakajima, Y. Honda, O. Kitao, H. Nakai, 
 T. Vreven, K. Throssell, J. A. Montgomery, Jr., J. E. Peralta, 
 F. Ogliaro, M. J. Bearpark, J. J. Heyd, E. N. Brothers, K. N. Kudin, 
 V. N. Staroverov, T. A. Keith, R. Kobayashi, J. Normand, 
 K. Raghavachari, A. P. Rendell, J. C. Burant, S. S. Iyengar, 
 J. Tomasi, M. Cossi, J. M. Millam, M. Klene, C. Adamo, R. Cammi, 
 J. W. Ochterski, R. L. Martin, K. Morokuma, O. Farkas, 
 J. B. Foresman, and D. J. Fox, Gaussian, Inc., Wallingford CT, 2019.
 
 ******************************************
 Gaussian 16:  ES64L-G16RevC.01  3-Jul-2019
                27-Jul-2022 
 ******************************************
 %NProcShared=32
 Will use up to   32 processors via shared memory.
 %mem = 128GB
 ---------------------------------------------------------------
 #n M062X/6-311++G(d,p) TD(NStates=1) EmpiricalDispersion=GD3 SP
 ---------------------------------------------------------------
 1/38=1,172=1/1;
 2/12=2,17=6,18=5,40=1/2;
 3/5=4,6=6,7=1111,11=9,25=1,30=1,74=-55,124=31/1,2,3,8;
 4//1;
 5/5=2,38=5/2;
 8/6=1,10=2,108=1/1;
 9/41=1,42=1,70=2/14;
 6/7=2,8=2,9=2,10=2/1;
 99/5=1,9=1/99;
 ------
 SP_125
 ------
 Symbolic Z-matrix:
 Charge =  1 Multiplicity = 1
 C                     0.01655   2.49116   1.36043 
 C                     0.01788   3.70803   0.67199 
 C                     0.0055    3.69476  -0.71383 
 C                    -0.01545   2.47196  -1.40754 
 C                    -0.01575  -2.47256  -1.40754 
 C                     0.0037   -3.69776  -0.71383 
 C                     0.01502  -3.70908   0.67199 
 C                     0.01085  -2.49296   1.36043 
 C                     0.00868   0.0066    1.45337 
 C                    -0.0244   -0.0003   -1.42919 
 C                    -0.00343   1.25448   0.67707 
 C                    -0.0106    1.23912  -0.7308 
 C                    -0.00388  -1.25433   0.67707 
 C                    -0.0094   -1.23822  -0.7308 
 H                     0.0075    2.48665   2.44365 
 H                     0.01838   4.64138   1.21169 
 H                    -0.00245   4.60694  -1.27235 
 H                    -0.00775   2.47618  -2.49006 
 H                    -0.0225   -0.00015  -2.51027 
 H                    -0.00685  -2.47663  -2.49006 
 H                    -0.00335  -4.61069  -1.27235 
 H                     0.01493  -4.64363   1.21169 
 H                     0.0009   -2.4886    2.44365 
 H                    -0.82759   0.0015    2.14414 
 H                     0.89159   0.0015    2.14744 
 
                          Input orientation:                          
 ---------------------------------------------------------------------
 Center     Atomic      Atomic             Coordinates (Angstroms)
 Number     Number       Type             X           Y           Z
 ---------------------------------------------------------------------
      1          6           0        0.016550    2.491155    1.360431
      2          6           0        0.017875    3.708033    0.671989
      3          6           0        0.005500    3.694761   -0.713830
      4          6           0       -0.015450    2.471956   -1.407538
      5          6           0       -0.015750   -2.472556   -1.407538
      6          6           0        0.003700   -3.697761   -0.713830
      7          6           0        0.015025   -3.709083    0.671989
      8          6           0        0.010850   -2.492955    1.360431
      9          6           0        0.008675    0.006600    1.453369
     10          6           0       -0.024400   -0.000300   -1.429189
     11          6           0       -0.003425    1.254480    0.677065
     12          6           0       -0.010600    1.239121   -0.730804
     13          6           0       -0.003875   -1.254330    0.677065
     14          6           0       -0.009400   -1.238221   -0.730804
     15          1           0        0.007500    2.486646    2.443647
     16          1           0        0.018375    4.641378    1.211689
     17          1           0       -0.002450    4.606937   -1.272349
     18          1           0       -0.007750    2.476175   -2.490059
     19          1           0       -0.022500   -0.000150   -2.510266
     20          1           0       -0.006850   -2.476625   -2.490059
     21          1           0       -0.003350   -4.610687   -1.272349
     22          1           0        0.014925   -4.643628    1.211689
     23          1           0        0.000900   -2.488596    2.443647
     24          1           0       -0.827585    0.001500    2.144137
     25          1           0        0.891585    0.001500    2.147437
 ---------------------------------------------------------------------
                    Distance matrix (angstroms):
                    1          2          3          4          5
     1  C    0.000000
     2  C    1.398122   0.000000
     3  C    2.398197   1.385938   0.000000
     4  C    2.768221   2.419386   1.406030   0.000000
     5  C    5.683408   6.521138   6.206245   4.944512   0.000000
     6  C    6.527282   7.534353   7.392522   6.208623   1.408097
     7  C    6.238342   7.417117   7.532429   6.521549   2.419582
     8  C    4.984113   6.239091   6.526133   5.684425   2.768172
     9  C    2.486305   3.783021   4.277767   3.776685   3.785710
    10  C    3.740455   4.262449   3.763789   2.472367   2.472366
    11  C    1.413065   2.453651   2.808850   2.414117   4.270424
    12  C    2.437538   2.839747   2.455751   1.406369   3.772869
    13  C    3.807370   4.962413   5.140834   4.269767   2.414495
    14  C    4.275767   5.141401   4.933034   3.771395   1.407690
    15  H    1.083263   2.151898   3.380711   3.851281   6.279001
    16  H    2.155362   1.078151   2.145664   3.401160   7.580869
    17  H    3.377636   2.142170   1.069613   2.139296   7.080796
    18  H    3.850596   3.393623   2.154093   1.082557   5.065753
    19  H    4.603305   4.886614   4.108568   2.706911   2.707184
    20  H    6.285353   6.946161   6.421927   5.065608   1.082565
    21  H    7.574172   8.542950   8.324211   7.083943   2.142436
    22  H    7.136333   8.369082   8.557829   7.582401   3.402182
    23  H    5.096226   6.444942   6.942880   6.280045   3.851254
    24  H    2.743199   4.076814   4.743647   4.401944   4.403910
    25  H    2.753806   4.083957   4.755226   4.423089   4.425162
                    6          7          8          9         10
     6  C    0.000000
     7  C    1.385912   0.000000
     8  C    2.398785   1.397475   0.000000
     9  C    4.291744   3.796959   2.501283   0.000000
    10  C    3.766131   4.262813   3.741197   2.882756   0.000000
    11  C    5.143863   4.963600   3.809260   1.469693   2.451779
    12  C    4.936932   5.143268   4.278097   2.508005   1.422707
    13  C    2.811583   2.454831   1.414708   1.480794   2.451391
    14  C    2.459633   2.841405   2.438859   2.514064   1.421413
    15  H    6.943815   6.444058   5.096057   2.670446   4.602692
    16  H    8.558568   8.367884   7.135887   4.641085   5.340528
    17  H    8.323460   8.540313   7.572329   5.347220   4.609958
    18  H    6.424376   6.946689   6.286404   4.652923   2.694188
    19  H    4.110985   4.887161   4.604073   3.963763   1.081079
    20  H    2.155522   3.393815   3.850565   4.660179   2.694056
    21  H    1.070246   2.143287   3.378834   5.361811   4.613102
    22  H    2.145324   1.079190   2.155814   4.656508   5.341936
    23  H    3.381087   2.151409   1.083270   2.684532   4.603381
    24  H    4.748004   4.079907   2.745810   1.084674   3.662481
    25  H    4.760223   4.088243   2.759960   1.123070   3.692057
                   11         12         13         14         15
    11  C    0.000000
    12  C    1.407971   0.000000
    13  C    2.508810   2.863466   0.000000
    14  C    2.862811   2.477342   1.407972   0.000000
    15  H    2.153872   3.410834   4.137130   4.894084   0.000000
    16  H    3.428903   3.917840   5.919940   6.192232   2.482078
    17  H    3.878039   3.411088   6.176946   5.870195   4.278359
    18  H    3.394589   2.150648   4.893604   4.109954   4.933741
    19  H    3.425425   2.168506   3.425258   2.167828   5.543132
    20  H    4.894061   4.111175   3.394803   2.151425   6.998265
    21  H    6.180647   5.874826   3.881411   3.415675   8.011297
    22  H    5.922317   6.195213   3.431256   3.920544   7.235923
    23  H    4.139015   4.896238   2.155052   3.411844   4.975246
    24  H    2.097975   3.234881   2.099502   3.235988   2.638754
    25  H    2.129083   3.260355   2.130951   3.260821   2.654298
                   16         17         18         19         20
    16  H    0.000000
    17  H    2.484364   0.000000
    18  H    4.288557   2.454179   0.000000
    19  H    5.949656   4.770544   2.476451   0.000000
    20  H    8.023063   7.187467   4.952800   2.476607   0.000000
    21  H    9.579751   9.217624   7.190720   4.773872   2.457041
    22  H    9.285007   9.578293   8.024652   5.951154   4.289442
    23  H    7.235645   8.009696   6.999320   5.543840   4.933727
    24  H    4.807658   5.793382   5.317134   4.723519   5.318880
    25  H    4.813168   5.805539   5.332841   4.746552   5.334291
                   21         22         23         24         25
    21  H    0.000000
    22  H    2.484324   0.000000
    23  H    4.279242   2.482354   0.000000
    24  H    5.798621   4.812120   2.641339   0.000000
    25  H    5.811034   4.818856   2.661135   1.719173   0.000000
 Stoichiometry    C14H11(1+)
 Framework group  C1[X(C14H11)]
 Deg. of freedom    69
 Full point group                 C1      NOp   1
 Largest Abelian subgroup         C1      NOp   1
 Largest concise Abelian subgroup C1      NOp   1
                         Standard orientation:                         
 ---------------------------------------------------------------------
 Center     Atomic      Atomic             Coordinates (Angstroms)
 Number     Number       Type             X           Y           Z
 ---------------------------------------------------------------------
      1          6           0       -2.491335   -1.360197    0.003308
      2          6           0       -3.708126   -0.671635    0.010270
      3          6           0       -3.694674    0.714238    0.010117
      4          6           0       -2.471773    1.407944   -0.004282
      5          6           0        2.472739    1.407304   -0.002825
      6          6           0        3.697849    0.713292    0.010945
      7          6           0        3.708991   -0.672575    0.010056
      8          6           0        2.492777   -1.360795   -0.000620
      9          6           0       -0.006789   -1.453385   -0.004503
     10          6           0        0.000489    1.429352   -0.012162
     11          6           0       -1.254566   -0.676842   -0.010202
     12          6           0       -1.239026    0.731033   -0.004960
     13          6           0        1.254244   -0.677164   -0.009760
     14          6           0        1.238316    0.730701   -0.002880
     15          1           0       -2.486960   -2.443292   -0.015289
     16          1           0       -4.641539   -1.211197    0.005680
     17          1           0       -4.606776    1.272924    0.006767
     18          1           0       -2.475857    2.490356    0.012959
     19          1           0        0.000475    2.510370   -0.000732
     20          1           0        2.476942    2.489704    0.015620
     21          1           0        4.610848    1.271733    0.009143
     22          1           0        4.643467   -1.212374    0.005530
     23          1           0        2.488284   -2.443880   -0.020121
     24          1           0       -0.001478   -2.136755   -0.846818
     25          1           0       -0.002092   -2.155210    0.872256
 ---------------------------------------------------------------------
 Rotational constants (GHZ):           2.1359421           0.4429662           0.3676815
 Standard basis: 6-311++G(d,p) (5D, 7F)
 There are   399 symmetry adapted cartesian basis functions of A   symmetry.
 There are   385 symmetry adapted basis functions of A   symmetry.
   385 basis functions,   603 primitive gaussians,   399 cartesian basis functions
    47 alpha electrons       47 beta electrons
       nuclear repulsion energy       780.2612275239 Hartrees.
 NAtoms=   25 NActive=   25 NUniq=   25 SFac= 1.00D+00 NAtFMM=   60 NAOKFM=F Big=F
 Integral buffers will be    131072 words long.
 Regular integral format.
 Two-electron integral symmetry is turned on.
 Nuclear repulsion after empirical dispersion term =      780.2602477016 Hartrees.
 One-electron integrals computed using PRISM.
 NBasis=   385 RedAO= T EigKep=  1.20D-06  NBF=   385
 NBsUse=   379 1.00D-06 EigRej=  8.67D-07 NBFU=   379
 ExpMin= 3.60D-02 ExpMax= 4.56D+03 ExpMxC= 6.82D+02 IAcc=3 IRadAn=         5 AccDes= 0.00D+00
 Harris functional with IExCor= 1009 and IRadAn=       5 diagonalized for initial guess.
 HarFok:  IExCor= 1009 AccDes= 0.00D+00 IRadAn=         5 IDoV= 1 UseB2=F ITyADJ=14
 ICtDFT=  3500011 ScaDFX=  1.000000  1.000000  1.000000  1.000000
 FoFCou: FMM=F IPFlag=           0 FMFlag=      100000 FMFlg1=           0
         NFxFlg=           0 DoJE=T BraDBF=F KetDBF=T FulRan=T
         wScrn=  0.000000 ICntrl=       500 IOpCl=  0 I1Cent=   200000004 NGrid=           0
         NMat0=    1 NMatS0=      1 NMatT0=    0 NMatD0=    1 NMtDS0=    0 NMtDT0=    0
 Petite list used in FoFCou.
 Requested convergence on RMS density matrix=1.00D-08 within 128 cycles.
 Requested convergence on MAX density matrix=1.00D-06.
 Requested convergence on             energy=1.00D-06.
 No special actions if energy rises.
 SCF Done:  E(RM062X) =  -539.758620733     A.U. after   15 cycles
            NFock= 15  Conv=0.45D-08     -V/T= 2.0043
 DoSCS=F DFT=T ScalE2(SS,OS)=  1.000000  1.000000
 ExpMin= 3.60D-02 ExpMax= 4.56D+03 ExpMxC= 6.82D+02 IAcc=3 IRadAn=         5 AccDes= 0.00D+00
 HarFok:  IExCor=  205 AccDes= 0.00D+00 IRadAn=         5 IDoV=-2 UseB2=F ITyADJ=14
 ICtDFT= 12500011 ScaDFX=  1.000000  1.000000  1.000000  1.000000
 Range of M.O.s used for correlation:    15   379
 NBasis=   385 NAE=    47 NBE=    47 NFC=    14 NFV=     0
 NROrb=    365 NOA=    33 NOB=    33 NVA=   332 NVB=   332

 **** Warning!!: The largest alpha MO coefficient is  0.14977085D+03

 Orbital symmetries:
       Occupied  (A) (A) (A) (A) (A) (A) (A) (A) (A) (A) (A) (A)
                 (A) (A) (A) (A) (A) (A) (A) (A) (A) (A) (A) (A)
                 (A) (A) (A) (A) (A) (A) (A) (A) (A) (A) (A) (A)
                 (A) (A) (A) (A) (A) (A) (A) (A) (A) (A) (A)
       Virtual   (A) (A) (A) (A) (A) (A) (A) (A) (A) (A) (A) (A)
                 (A) (A) (A) (A) (A) (A) (A) (A) (A) (A) (A) (A)
                 (A) (A) (A) (A) (A) (A) (A) (A) (A) (A) (A) (A)
                 (A) (A) (A) (A) (A) (A) (A) (A) (A) (A) (A) (A)
                 (A) (A) (A) (A) (A) (A) (A) (A) (A) (A) (A) (A)
                 (A) (A) (A) (A) (A) (A) (A) (A) (A) (A) (A) (A)
                 (A) (A) (A) (A) (A) (A) (A) (A) (A) (A) (A) (A)
                 (A) (A) (A) (A) (A) (A) (A) (A) (A) (A) (A) (A)
                 (A) (A) (A) (A) (A) (A) (A) (A) (A) (A) (A) (A)
                 (A) (A) (A) (A) (A) (A) (A) (A) (A) (A) (A) (A)
                 (A) (A) (A) (A) (A) (A) (A) (A) (A) (A) (A) (A)
                 (A) (A) (A) (A) (A) (A) (A) (A) (A) (A) (A) (A)
                 (A) (A) (A) (A) (A) (A) (A) (A) (A) (A) (A) (A)
                 (A) (A) (A) (A) (A) (A) (A) (A) (A) (A) (A) (A)
                 (A) (A) (A) (A) (A) (A) (A) (A) (A) (A) (A) (A)
                 (A) (A) (A) (A) (A) (A) (A) (A) (A) (A) (A) (A)
                 (A) (A) (A) (A) (A) (A) (A) (A) (A) (A) (A) (A)
                 (A) (A) (A) (A) (A) (A) (A) (A) (A) (A) (A) (A)
                 (A) (A) (A) (A) (A) (A) (A) (A) (A) (A) (A) (A)
                 (A) (A) (A) (A) (A) (A) (A) (A) (A) (A) (A) (A)
                 (A) (A) (A) (A) (A) (A) (A) (A) (A) (A) (A) (A)
                 (A) (A) (A) (A) (A) (A) (A) (A) (A) (A) (A) (A)
                 (A) (A) (A) (A) (A) (A) (A) (A) (A) (A) (A) (A)
                 (A) (A) (A) (A) (A) (A) (A) (A) (A) (A) (A) (A)
                 (A) (A) (A) (A) (A) (A) (A) (A) (A) (A) (A) (A)
                 (A) (A) (A) (A) (A) (A) (A) (A) (A) (A) (A) (A)
                 (A) (A) (A) (A) (A) (A) (A) (A) (A) (A) (A) (A)
                 (A) (A) (A) (A) (A) (A) (A) (A)
     4 initial guesses have been made.
 Convergence on wavefunction:    0.001000000000000
 Iteration     1 Dimension     4 NMult     0 NNew      4
 CISAX will form     4 AO SS matrices at one time.
 Iteration     2 Dimension     6 NMult     4 NNew      2
 Iteration     3 Dimension     8 NMult     6 NNew      2
 Iteration     4 Dimension    10 NMult     8 NNew      2
 Iteration     5 Dimension    12 NMult    10 NNew      2
 Iteration     6 Dimension    14 NMult    12 NNew      2
 ***********************************************************************
 Excited states from <AA,BB:AA,BB> singles matrix:
 ***********************************************************************
 
 Ground to excited state transition densities written to RWF  633
 Ground to excited state transition electric dipole moments (Au):
       state          X           Y           Z        Dip. S.      Osc.
         1        -0.0089     -0.6374      0.0041      0.4064      0.0279
 Ground to excited state transition velocity dipole moments (Au):
       state          X           Y           Z        Dip. S.      Osc.
         1         0.0009      0.0734     -0.0005      0.0054      0.0349
 Ground to excited state transition magnetic dipole moments (Au):
       state          X           Y           Z
         1        -0.0052     -0.0006      0.0001
 Ground to excited state transition velocity quadrupole moments (Au):
       state          XX          YY          ZZ          XY          XZ          YZ
         1         0.3081      0.0325     -0.0096      0.0012      0.0001      0.0009
 <0|del|b> * <b|rxdel|0> + <0|del|b> * <b|delr+rdel|0>
 Rotatory Strengths (R) in cgs (10**-40 erg-esu-cm/Gauss)
       state          XX          YY          ZZ    R(velocity)    E-M Angle
         1        -0.1758     -0.0118     -0.1546     -0.1141       90.00
 1/2[<0|r|b>*<b|rxdel|0> + (<0|rxdel|b>*<b|r|0>)*]
 Rotatory Strengths (R) in cgs (10**-40 erg-esu-cm/Gauss)
       state          XX          YY          ZZ     R(length)
         1        -0.0323     -0.2760     -0.0004     -0.1029
  1/2[<0|del|b>*<b|r|0> + (<0|r|b>*<b|del|0>)*] (Au)
       state          X           Y           Z        Dip. S.   Osc.(frdel)
         1        -0.0000     -0.0468     -0.0000      0.0468      0.0312

 Excitation energies and oscillator strengths:
 
 Excited State   1:      Singlet-A      2.8051 eV  442.00 nm  f=0.0279  <S**2>=0.000
      47 -> 48         0.70427
 This state for optimization and/or second-order correction.
 Total Energy, E(TD-HF/TD-DFT) =  -539.655536080    
 Copying the excited state density for this state as the 1-particle RhoCI density.
 SavETr:  write IOETrn=   770 NScale= 10 NData=  16 NLR=1 NState=    1 LETran=      28.

 **********************************************************************

            Population analysis using the SCF Density.

 **********************************************************************

 Orbital symmetries:
       Occupied  (A) (A) (A) (A) (A) (A) (A) (A) (A) (A) (A) (A)
                 (A) (A) (A) (A) (A) (A) (A) (A) (A) (A) (A) (A)
                 (A) (A) (A) (A) (A) (A) (A) (A) (A) (A) (A) (A)
                 (A) (A) (A) (A) (A) (A) (A) (A) (A) (A) (A)
       Virtual   (A) (A) (A) (A) (A) (A) (A) (A) (A) (A) (A) (A)
                 (A) (A) (A) (A) (A) (A) (A) (A) (A) (A) (A) (A)
                 (A) (A) (A) (A) (A) (A) (A) (A) (A) (A) (A) (A)
                 (A) (A) (A) (A) (A) (A) (A) (A) (A) (A) (A) (A)
                 (A) (A) (A) (A) (A) (A) (A) (A) (A) (A) (A) (A)
                 (A) (A) (A) (A) (A) (A) (A) (A) (A) (A) (A) (A)
                 (A) (A) (A) (A) (A) (A) (A) (A) (A) (A) (A) (A)
                 (A) (A) (A) (A) (A) (A) (A) (A) (A) (A) (A) (A)
                 (A) (A) (A) (A) (A) (A) (A) (A) (A) (A) (A) (A)
                 (A) (A) (A) (A) (A) (A) (A) (A) (A) (A) (A) (A)
                 (A) (A) (A) (A) (A) (A) (A) (A) (A) (A) (A) (A)
                 (A) (A) (A) (A) (A) (A) (A) (A) (A) (A) (A) (A)
                 (A) (A) (A) (A) (A) (A) (A) (A) (A) (A) (A) (A)
                 (A) (A) (A) (A) (A) (A) (A) (A) (A) (A) (A) (A)
                 (A) (A) (A) (A) (A) (A) (A) (A) (A) (A) (A) (A)
                 (A) (A) (A) (A) (A) (A) (A) (A) (A) (A) (A) (A)
                 (A) (A) (A) (A) (A) (A) (A) (A) (A) (A) (A) (A)
                 (A) (A) (A) (A) (A) (A) (A) (A) (A) (A) (A) (A)
                 (A) (A) (A) (A) (A) (A) (A) (A) (A) (A) (A) (A)
                 (A) (A) (A) (A) (A) (A) (A) (A) (A) (A) (A) (A)
                 (A) (A) (A) (A) (A) (A) (A) (A) (A) (A) (A) (A)
                 (A) (A) (A) (A) (A) (A) (A) (A) (A) (A) (A) (A)
                 (A) (A) (A) (A) (A) (A) (A) (A) (A) (A) (A) (A)
                 (A) (A) (A) (A) (A) (A) (A) (A) (A) (A) (A) (A)
                 (A) (A) (A) (A) (A) (A) (A) (A) (A) (A) (A) (A)
                 (A) (A) (A) (A) (A) (A) (A) (A) (A) (A) (A) (A)
                 (A) (A) (A) (A) (A) (A) (A) (A) (A) (A) (A) (A)
                 (A) (A) (A) (A) (A) (A) (A) (A)
 The electronic state is 1-A.
 Alpha  occ. eigenvalues --  -10.77658 -10.73315 -10.73232 -10.72522 -10.72518
 Alpha  occ. eigenvalues --  -10.71496 -10.71451 -10.71075 -10.71060 -10.70981
 Alpha  occ. eigenvalues --  -10.70101 -10.70069 -10.69617 -10.69577  -1.16378
 Alpha  occ. eigenvalues --   -1.12253  -1.06837  -1.05798  -1.01120  -1.00197
 Alpha  occ. eigenvalues --   -0.95705  -0.91075  -0.86410  -0.85865  -0.83806
 Alpha  occ. eigenvalues --   -0.78390  -0.76010  -0.74376  -0.69579  -0.69307
 Alpha  occ. eigenvalues --   -0.68596  -0.68246  -0.68131  -0.64583  -0.64152
 Alpha  occ. eigenvalues --   -0.63170  -0.61999  -0.59921  -0.59521  -0.59145
 Alpha  occ. eigenvalues --   -0.56924  -0.55267  -0.54895  -0.52356  -0.46492
 Alpha  occ. eigenvalues --   -0.46046  -0.44406
 Alpha virt. eigenvalues --   -0.26071  -0.14789  -0.14127  -0.12902  -0.11177
 Alpha virt. eigenvalues --   -0.10081  -0.09214  -0.08005  -0.07931  -0.07469
 Alpha virt. eigenvalues --   -0.07216  -0.07147  -0.05646  -0.05582  -0.05353
 Alpha virt. eigenvalues --   -0.03794  -0.03644  -0.03283  -0.03134  -0.02158
 Alpha virt. eigenvalues --   -0.01359  -0.00912   0.00191   0.00638   0.00700
 Alpha virt. eigenvalues --    0.01043   0.01512   0.01900   0.02204   0.02294
 Alpha virt. eigenvalues --    0.02428   0.02630   0.02719   0.03287   0.03392
 Alpha virt. eigenvalues --    0.04249   0.04500   0.04687   0.04974   0.05356
 Alpha virt. eigenvalues --    0.06022   0.06287   0.06598   0.07037   0.07223
 Alpha virt. eigenvalues --    0.07864   0.08066   0.08357   0.08490   0.08934
 Alpha virt. eigenvalues --    0.09559   0.09575   0.10028   0.10790   0.11020
 Alpha virt. eigenvalues --    0.11120   0.12212   0.12274   0.12883   0.13027
 Alpha virt. eigenvalues --    0.13405   0.13534   0.14027   0.14273   0.16054
 Alpha virt. eigenvalues --    0.16336   0.16563   0.17386   0.17554   0.17693
 Alpha virt. eigenvalues --    0.18096   0.18957   0.19178   0.19595   0.19715
 Alpha virt. eigenvalues --    0.21469   0.21509   0.22709   0.23128   0.23553
 Alpha virt. eigenvalues --    0.23577   0.24552   0.25011   0.26857   0.27499
 Alpha virt. eigenvalues --    0.28834   0.29283   0.29829   0.31235   0.35802
 Alpha virt. eigenvalues --    0.36264   0.38020   0.39170   0.41161   0.41470
 Alpha virt. eigenvalues --    0.41942   0.42330   0.43023   0.43575   0.44270
 Alpha virt. eigenvalues --    0.44757   0.44850   0.45613   0.46067   0.47925
 Alpha virt. eigenvalues --    0.48592   0.48900   0.49064   0.50456   0.51167
 Alpha virt. eigenvalues --    0.51437   0.51458   0.52125   0.52618   0.54000
 Alpha virt. eigenvalues --    0.54117   0.54524   0.55734   0.55760   0.57436
 Alpha virt. eigenvalues --    0.58196   0.58779   0.61393   0.62088   0.62322
 Alpha virt. eigenvalues --    0.63015   0.63591   0.64639   0.65137   0.67110
 Alpha virt. eigenvalues --    0.70423   0.70606   0.70970   0.72237   0.72771
 Alpha virt. eigenvalues --    0.75672   0.75738   0.76183   0.76697   0.76985
 Alpha virt. eigenvalues --    0.77567   0.77729   0.78143   0.80344   0.80407
 Alpha virt. eigenvalues --    0.81177   0.81558   0.82067   0.82886   0.84954
 Alpha virt. eigenvalues --    0.86909   0.87610   0.88081   0.89516   0.90443
 Alpha virt. eigenvalues --    0.90785   0.91413   0.93078   0.94683   0.96406
 Alpha virt. eigenvalues --    0.96678   1.00468   1.01277   1.01566   1.02624
 Alpha virt. eigenvalues --    1.03047   1.03877   1.04530   1.05761   1.08768
 Alpha virt. eigenvalues --    1.19764   1.23333   1.24074   1.25334   1.27964
 Alpha virt. eigenvalues --    1.29342   1.32033   1.33847   1.35488   1.35928
 Alpha virt. eigenvalues --    1.39131   1.40199   1.40629   1.42840   1.43198
 Alpha virt. eigenvalues --    1.43398   1.45023   1.45136   1.46459   1.46756
 Alpha virt. eigenvalues --    1.47571   1.47670   1.51621   1.53595   1.55591
 Alpha virt. eigenvalues --    1.56022   1.56050   1.56416   1.57635   1.61274
 Alpha virt. eigenvalues --    1.63412   1.63891   1.64012   1.65998   1.68057
 Alpha virt. eigenvalues --    1.68480   1.68611   1.69698   1.74061   1.75936
 Alpha virt. eigenvalues --    1.77056   1.77915   1.79679   1.79969   1.80279
 Alpha virt. eigenvalues --    1.83092   1.83168   1.83442   1.83606   1.84073
 Alpha virt. eigenvalues --    1.84300   1.85791   1.85842   1.88118   1.91478
 Alpha virt. eigenvalues --    1.91811   1.94131   1.95241   1.97467   1.97768
 Alpha virt. eigenvalues --    1.99385   2.02398   2.04123   2.07510   2.11642
 Alpha virt. eigenvalues --    2.11943   2.13747   2.15125   2.18623   2.21041
 Alpha virt. eigenvalues --    2.22305   2.28427   2.29756   2.34444   2.35226
 Alpha virt. eigenvalues --    2.36043   2.39079   2.40179   2.41987   2.42829
 Alpha virt. eigenvalues --    2.46115   2.48043   2.48830   2.52655   2.53758
 Alpha virt. eigenvalues --    2.54155   2.56866   2.57779   2.58282   2.59638
 Alpha virt. eigenvalues --    2.59673   2.61662   2.61782   2.63330   2.63784
 Alpha virt. eigenvalues --    2.64490   2.64696   2.65010   2.65226   2.67823
 Alpha virt. eigenvalues --    2.68771   2.70872   2.71360   2.73352   2.74812
 Alpha virt. eigenvalues --    2.76249   2.78388   2.79574   2.82445   2.82922
 Alpha virt. eigenvalues --    2.84414   2.86272   2.92052   2.96698   2.99361
 Alpha virt. eigenvalues --    2.99744   3.05561   3.10360   3.10814   3.12054
 Alpha virt. eigenvalues --    3.20907   3.23700   3.26128   3.27830   3.30364
 Alpha virt. eigenvalues --    3.31827   3.33083   3.43334   3.45234   3.45803
 Alpha virt. eigenvalues --    3.47728   3.49526   3.56273   3.65367   3.67182
 Alpha virt. eigenvalues --    3.67624   3.94449   3.95264   3.95766   3.96696
 Alpha virt. eigenvalues --    4.04452   4.06978   4.07119   4.12473   4.35632
 Alpha virt. eigenvalues --    4.61506   4.69130   4.70862  23.45535  23.61253
 Alpha virt. eigenvalues --   23.81712  23.85888  23.87460  23.89092  23.90468
 Alpha virt. eigenvalues --   23.92231  23.96983  23.97953  23.98257  23.99381
 Alpha virt. eigenvalues --   24.09585  24.09805
          Condensed to atoms (all electrons):
               1          2          3          4          5          6
     1  C    8.436165   0.427278  -0.559227   1.788177   0.000535  -0.089624
     2  C    0.427278   7.021517   0.360723  -0.956088  -0.029006  -0.014038
     3  C   -0.559227   0.360723   6.574189   0.680459  -0.118423   0.016434
     4  C    1.788177  -0.956088   0.680459  10.661620  -0.204479  -0.116939
     5  C    0.000535  -0.029006  -0.118423  -0.204479  10.650808   0.661476
     6  C   -0.089624  -0.014038   0.016434  -0.116939   0.661476   6.569716
     7  C   -0.027156   0.004032  -0.014187  -0.030147  -0.934584   0.355963
     8  C    0.392541  -0.024703  -0.089813  -0.008518   1.808047  -0.569657
     9  C   -1.268097  -0.730771   0.287884  -0.310690  -0.303099   0.290504
    10  C   -1.190284   0.215798  -0.346104  -2.455317  -2.453138  -0.338049
    11  C    0.260612  -0.937574   1.059487  -0.473311  -1.554051  -0.150251
    12  C   -1.723441   1.211860  -1.363965  -1.152842  -0.235356  -0.208004
    13  C    0.128168  -0.225207  -0.154624  -1.560811  -0.489498   1.063695
    14  C   -1.050046  -0.203495  -0.208163  -0.236298  -1.174296  -1.346329
    15  H    0.361980  -0.104186  -0.000568   0.026254   0.005575   0.001105
    16  H   -0.021300   0.379948  -0.017786   0.013334  -0.001478  -0.000316
    17  H   -0.022221  -0.019376   0.379399  -0.064113   0.000073   0.000383
    18  H    0.046939   0.005347  -0.089009   0.450247   0.009177  -0.004847
    19  H   -0.046178  -0.008166   0.051959  -0.074840  -0.075428   0.051992
    20  H    0.007359   0.001836  -0.004875   0.009014   0.448709  -0.089834
    21  H   -0.001300  -0.000382   0.000386   0.000094  -0.063957   0.379254
    22  H    0.000708   0.000357  -0.000319  -0.001505   0.013710  -0.018160
    23  H    0.005705  -0.002688   0.001110   0.005606   0.025995  -0.000656
    24  H    0.021164   0.014448  -0.001964  -0.012222  -0.013510  -0.001553
    25  H    0.043503   0.014195  -0.000705  -0.013119  -0.011908  -0.001240
               7          8          9         10         11         12
     1  C   -0.027156   0.392541  -1.268097  -1.190284   0.260612  -1.723441
     2  C    0.004032  -0.024703  -0.730771   0.215798  -0.937574   1.211860
     3  C   -0.014187  -0.089813   0.287884  -0.346104   1.059487  -1.363965
     4  C   -0.030147  -0.008518  -0.310690  -2.455317  -0.473311  -1.152842
     5  C   -0.934584   1.808047  -0.303099  -2.453138  -1.554051  -0.235356
     6  C    0.355963  -0.569657   0.290504  -0.338049  -0.150251  -0.208004
     7  C    6.985837   0.432779  -0.715846   0.208840  -0.212992  -0.200670
     8  C    0.432779   8.423010  -1.246554  -1.189476   0.140160  -1.028435
     9  C   -0.715846  -1.246554   9.302806   0.293539   1.648908  -1.744191
    10  C    0.208840  -1.189476   0.293539   9.095163  -0.403094   2.200806
    11  C   -0.212992   0.140160   1.648908  -0.403094  14.387104  -3.669708
    12  C   -0.200670  -1.028435  -1.744191   2.200806  -3.669708  15.457896
    13  C   -0.928425   0.220148   1.636685  -0.413272   1.238062  -4.787152
    14  C    1.191091  -1.738167  -1.752159   2.205519  -4.756290   2.795939
    15  H   -0.002591   0.005620   0.089110  -0.009663  -0.024998  -0.023061
    16  H    0.000347   0.000619   0.003396  -0.009551   0.026041  -0.030568
    17  H   -0.000378  -0.001274  -0.004780   0.019709  -0.025627   0.084757
    18  H    0.001830   0.007210  -0.025896   0.019445  -0.016416  -0.044036
    19  H   -0.008299  -0.046097   0.074048   0.422847   0.084201  -0.067979
    20  H    0.006152   0.046869  -0.025809   0.020256  -0.012157  -0.009709
    21  H   -0.019813  -0.021642  -0.004758   0.019645  -0.005882   0.004769
    22  H    0.379419  -0.020073   0.003952  -0.009835   0.002840  -0.008847
    23  H   -0.102941   0.363011   0.089238  -0.009578   0.000679   0.006348
    24  H    0.015724   0.024318   0.366249   0.006112   0.007655  -0.048488
    25  H    0.012551   0.039242   0.349127   0.005427   0.019522  -0.070952
              13         14         15         16         17         18
     1  C    0.128168  -1.050046   0.361980  -0.021300  -0.022221   0.046939
     2  C   -0.225207  -0.203495  -0.104186   0.379948  -0.019376   0.005347
     3  C   -0.154624  -0.208163  -0.000568  -0.017786   0.379399  -0.089009
     4  C   -1.560811  -0.236298   0.026254   0.013334  -0.064113   0.450247
     5  C   -0.489498  -1.174296   0.005575  -0.001478   0.000073   0.009177
     6  C    1.063695  -1.346329   0.001105  -0.000316   0.000383  -0.004847
     7  C   -0.928425   1.191091  -0.002591   0.000347  -0.000378   0.001830
     8  C    0.220148  -1.738167   0.005620   0.000619  -0.001274   0.007210
     9  C    1.636685  -1.752159   0.089110   0.003396  -0.004780  -0.025896
    10  C   -0.413272   2.205519  -0.009663  -0.009551   0.019709   0.019445
    11  C    1.238062  -4.756290  -0.024998   0.026041  -0.025627  -0.016416
    12  C   -4.787152   2.795939  -0.023061  -0.030568   0.084757  -0.044036
    13  C   14.499238  -3.651854   0.000929   0.002756  -0.005987  -0.012609
    14  C   -3.651854  15.485572   0.006486  -0.008699   0.004801  -0.010369
    15  H    0.000929   0.006486   0.439997  -0.009002   0.001541   0.000144
    16  H    0.002756  -0.008699  -0.009002   0.419912  -0.006880   0.001942
    17  H   -0.005987   0.004801   0.001541  -0.006880   0.424326  -0.010504
    18  H   -0.012609  -0.010369   0.000144   0.001942  -0.010504   0.453832
    19  H    0.084118  -0.067139   0.000320  -0.000566   0.001473  -0.006394
    20  H   -0.016751  -0.044284  -0.000123   0.000016  -0.000147   0.001306
    21  H   -0.025145   0.083856   0.000017  -0.000007   0.000011  -0.000146
    22  H    0.026780  -0.032463  -0.000127   0.000007  -0.000007   0.000015
    23  H   -0.025897  -0.023500   0.000577  -0.000127   0.000016  -0.000121
    24  H    0.007003  -0.046545  -0.001414   0.000751  -0.000189   0.000177
    25  H    0.019145  -0.073187  -0.000438   0.000492  -0.000100   0.000183
              19         20         21         22         23         24
     1  C   -0.046178   0.007359  -0.001300   0.000708   0.005705   0.021164
     2  C   -0.008166   0.001836  -0.000382   0.000357  -0.002688   0.014448
     3  C    0.051959  -0.004875   0.000386  -0.000319   0.001110  -0.001964
     4  C   -0.074840   0.009014   0.000094  -0.001505   0.005606  -0.012222
     5  C   -0.075428   0.448709  -0.063957   0.013710   0.025995  -0.013510
     6  C    0.051992  -0.089834   0.379254  -0.018160  -0.000656  -0.001553
     7  C   -0.008299   0.006152  -0.019813   0.379419  -0.102941   0.015724
     8  C   -0.046097   0.046869  -0.021642  -0.020073   0.363011   0.024318
     9  C    0.074048  -0.025809  -0.004758   0.003952   0.089238   0.366249
    10  C    0.422847   0.020256   0.019645  -0.009835  -0.009578   0.006112
    11  C    0.084201  -0.012157  -0.005882   0.002840   0.000679   0.007655
    12  C   -0.067979  -0.009709   0.004769  -0.008847   0.006348  -0.048488
    13  C    0.084118  -0.016751  -0.025145   0.026780  -0.025897   0.007003
    14  C   -0.067139  -0.044284   0.083856  -0.032463  -0.023500  -0.046545
    15  H    0.000320  -0.000123   0.000017  -0.000127   0.000577  -0.001414
    16  H   -0.000566   0.000016  -0.000007   0.000007  -0.000127   0.000751
    17  H    0.001473  -0.000147   0.000011  -0.000007   0.000016  -0.000189
    18  H   -0.006394   0.001306  -0.000146   0.000015  -0.000121   0.000177
    19  H    0.445305  -0.006409   0.001460  -0.000562   0.000329   0.000620
    20  H   -0.006409   0.453941  -0.010389   0.001965   0.000127   0.000150
    21  H    0.001460  -0.010389   0.423929  -0.006847   0.001539  -0.000178
    22  H   -0.000562   0.001965  -0.006847   0.419907  -0.009021   0.000700
    23  H    0.000329   0.000127   0.001539  -0.009021   0.439596  -0.001233
    24  H    0.000620   0.000150  -0.000178   0.000700  -0.001233   0.492300
    25  H    0.000599   0.000218  -0.000114   0.000540  -0.000618  -0.078943
              25
     1  C    0.043503
     2  C    0.014195
     3  C   -0.000705
     4  C   -0.013119
     5  C   -0.011908
     6  C   -0.001240
     7  C    0.012551
     8  C    0.039242
     9  C    0.349127
    10  C    0.005427
    11  C    0.019522
    12  C   -0.070952
    13  C    0.019145
    14  C   -0.073187
    15  H   -0.000438
    16  H    0.000492
    17  H   -0.000100
    18  H    0.000183
    19  H    0.000599
    20  H    0.000218
    21  H   -0.000114
    22  H    0.000540
    23  H   -0.000618
    24  H   -0.078943
    25  H    0.492629
 Mulliken charges:
               1
     1  C    0.078040
     2  C   -0.401660
     3  C   -0.442298
     4  C    0.036435
     5  C    0.038107
     6  C   -0.441025
     7  C   -0.396538
     8  C    0.080835
     9  C   -0.302795
    10  C    0.094256
    11  C   -0.632922
    12  C    0.655027
    13  C   -0.629497
    14  C    0.650019
    15  H    0.236514
    16  H    0.256718
    17  H    0.245092
    18  H    0.222554
    19  H    0.188787
    20  H    0.222568
    21  H    0.245599
    22  H    0.256863
    23  H    0.236503
    24  H    0.248867
    25  H    0.253950
 Sum of Mulliken charges =   1.00000
 Mulliken charges with hydrogens summed into heavy atoms:
               1
     1  C    0.314554
     2  C   -0.144942
     3  C   -0.197207
     4  C    0.258989
     5  C    0.260675
     6  C   -0.195426
     7  C   -0.139675
     8  C    0.317338
     9  C    0.200023
    10  C    0.283043
    11  C   -0.632922
    12  C    0.655027
    13  C   -0.629497
    14  C    0.650019
 Electronic spatial extent (au):  <R**2>=           2863.8047
 Charge=              1.0000 electrons
 Dipole moment (field-independent basis, Debye):
    X=              0.0081    Y=              0.1909    Z=              0.0005  Tot=              0.1911
 Quadrupole moment (field-independent basis, Debye-Ang):
   XX=            -30.9421   YY=            -56.2604   ZZ=            -84.2066
   XY=              0.0045   XZ=              0.0074   YZ=              0.0952
 Traceless Quadrupole moment (field-independent basis, Debye-Ang):
   XX=             26.1943   YY=              0.8759   ZZ=            -27.0702
   XY=              0.0045   XZ=              0.0074   YZ=              0.0952
 Octapole moment (field-independent basis, Debye-Ang**2):
  XXX=              0.3318  YYY=              5.2046  ZZZ=             -0.0291  XYY=             -0.0038
  XXY=             -4.5357  XXZ=              0.1779  XZZ=             -0.0389  YZZ=             -3.0868
  YYZ=              0.1243  XYZ=              0.0372
 Hexadecapole moment (field-independent basis, Debye-Ang**3):
 XXXX=          -2125.6168 YYYY=           -609.3300 ZZZZ=            -99.5731 XXXY=              0.1863
 XXXZ=              0.2111 YYYX=             -0.0766 YYYZ=              1.0323 ZZZX=              0.0102
 ZZZY=              0.0465 XXYY=           -509.1023 XXZZ=           -592.9508 YYZZ=           -145.7890
 XXYZ=              1.0517 YYXZ=              0.0000 ZZXY=              0.0039
 N-N= 7.802602477016D+02 E-N=-2.796809178368D+03  KE= 5.374480836007D+02
 Unable to Open any file for archive entry.
 1\1\GINC-GADI-CPU-CLX-2542\SP\RM062X TD-FC\6-311++G(d,p)\C14H11(1+)\TS
 1578\27-Jul-2022\0\\#n M062X/6-311++G(d,p) TD(NStates=1) EmpiricalDisp
 ersion=GD3 SP\\SP_125\\1,1\C,0,0.01655,2.491155,1.360431\C,0,0.017875,
 3.708033,0.671989\C,0,0.0055,3.694761,-0.71383\C,0,-0.01545,2.471956,-
 1.407538\C,0,-0.01575,-2.472556,-1.407538\C,0,0.0037,-3.697761,-0.7138
 3\C,0,0.015025,-3.709083,0.671989\C,0,0.01085,-2.492955,1.360431\C,0,0
 .008675,0.0066,1.453369\C,0,-0.0244,-0.0003,-1.429189\C,0,-0.003425,1.
 25448,0.677065\C,0,-0.0106,1.239121,-0.730804\C,0,-0.003875,-1.25433,0
 .677065\C,0,-0.0094,-1.238221,-0.730804\H,0,0.0075,2.486646,2.443647\H
 ,0,0.018375,4.641378,1.211689\H,0,-0.00245,4.606937,-1.272349\H,0,-0.0
 0775,2.476175,-2.490059\H,0,-0.0225,-0.00015,-2.510266\H,0,-0.00685,-2
 .476625,-2.490059\H,0,-0.00335,-4.610687,-1.272349\H,0,0.014925,-4.643
 628,1.211689\H,0,0.0009,-2.488596,2.443647\H,0,-0.827585,0.0015,2.1441
 37\H,0,0.891585,0.0015,2.147437\\Version=ES64L-G16RevC.01\State=1-A\HF
 =-539.7586207\RMSD=4.531e-09\PG=C01 [X(C14H11)]\\@
 The archive entry for this job was punched.



 IN THIS SHORT LIFE

 THAT ONLY LASTS AN HOUR

 HOW MUCH, HOW LITTLE, IS WITHIN OUR POWER....


 EMILY DICKINSON BOLTS OF MELODY NO. 521
 Job cpu time:       0 days  1 hours 10 minutes 18.7 seconds.
 Elapsed time:       0 days  0 hours  2 minutes 12.3 seconds.
 File lengths (MBytes):  RWF=    460 Int=      0 D2E=      0 Chk=     15 Scr=      1
 Normal termination of Gaussian 16 at Wed Jul 27 13:30:00 2022.
