 Entering Gaussian System, Link 0=g16
 Initial command:
 /apps/gaussian/g16c01/g16/l1.exe "/jobfs/52804872.gadi-pbs/Gau-1193665.inp" -scrdir="/jobfs/52804872.gadi-pbs/"
 Entering Link 1 = /apps/gaussian/g16c01/g16/l1.exe PID=   1193689.
  
 Copyright (c) 1988-2019, Gaussian, Inc.  All Rights Reserved.
  
 This is part of the Gaussian(R) 16 program.  It is based on
 the Gaussian(R) 09 system (copyright 2009, Gaussian, Inc.),
 the Gaussian(R) 03 system (copyright 2003, Gaussian, Inc.),
 the Gaussian(R) 98 system (copyright 1998, Gaussian, Inc.),
 the Gaussian(R) 94 system (copyright 1995, Gaussian, Inc.),
 the Gaussian 92(TM) system (copyright 1992, Gaussian, Inc.),
 the Gaussian 90(TM) system (copyright 1990, Gaussian, Inc.),
 the Gaussian 88(TM) system (copyright 1988, Gaussian, Inc.),
 the Gaussian 86(TM) system (copyright 1986, Carnegie Mellon
 University), and the Gaussian 82(TM) system (copyright 1983,
 Carnegie Mellon University). Gaussian is a federally registered
 trademark of Gaussian, Inc.
  
 This software contains proprietary and confidential information,
 including trade secrets, belonging to Gaussian, Inc.
  
 This software is provided under written license and may be
 used, copied, transmitted, or stored only in accord with that
 written license.
  
 The following legend is applicable only to US Government
 contracts under FAR:
  
                    RESTRICTED RIGHTS LEGEND
  
 Use, reproduction and disclosure by the US Government is
 subject to restrictions as set forth in subparagraphs (a)
 and (c) of the Commercial Computer Software - Restricted
 Rights clause in FAR 52.227-19.
  
 Gaussian, Inc.
 340 Quinnipiac St., Bldg. 40, Wallingford CT 06492
  
  
 ---------------------------------------------------------------
 Warning -- This program may not be used in any manner that
 competes with the business of Gaussian, Inc. or will provide
 assistance to any competitor of Gaussian, Inc.  The licensee
 of this program is prohibited from giving any competitor of
 Gaussian, Inc. access to this program.  By using this program,
 the user acknowledges that Gaussian, Inc. is engaged in the
 business of creating and licensing software in the field of
 computational chemistry and represents and warrants to the
 licensee that it is not a competitor of Gaussian, Inc. and that
 it will not use this program in any manner prohibited above.
 ---------------------------------------------------------------
  

 Cite this work as:
 Gaussian 16, Revision C.01,
 M. J. Frisch, G. W. Trucks, H. B. Schlegel, G. E. Scuseria, 
 M. A. Robb, J. R. Cheeseman, G. Scalmani, V. Barone, 
 G. A. Petersson, H. Nakatsuji, X. Li, M. Caricato, A. V. Marenich, 
 J. Bloino, B. G. Janesko, R. Gomperts, B. Mennucci, H. P. Hratchian, 
 J. V. Ortiz, A. F. Izmaylov, J. L. Sonnenberg, D. Williams-Young, 
 F. Ding, F. Lipparini, F. Egidi, J. Goings, B. Peng, A. Petrone, 
 T. Henderson, D. Ranasinghe, V. G. Zakrzewski, J. Gao, N. Rega, 
 G. Zheng, W. Liang, M. Hada, M. Ehara, K. Toyota, R. Fukuda, 
 J. Hasegawa, M. Ishida, T. Nakajima, Y. Honda, O. Kitao, H. Nakai, 
 T. Vreven, K. Throssell, J. A. Montgomery, Jr., J. E. Peralta, 
 F. Ogliaro, M. J. Bearpark, J. J. Heyd, E. N. Brothers, K. N. Kudin, 
 V. N. Staroverov, T. A. Keith, R. Kobayashi, J. Normand, 
 K. Raghavachari, A. P. Rendell, J. C. Burant, S. S. Iyengar, 
 J. Tomasi, M. Cossi, J. M. Millam, M. Klene, C. Adamo, R. Cammi, 
 J. W. Ochterski, R. L. Martin, K. Morokuma, O. Farkas, 
 J. B. Foresman, and D. J. Fox, Gaussian, Inc., Wallingford CT, 2019.
 
 ******************************************
 Gaussian 16:  ES64L-G16RevC.01  3-Jul-2019
                27-Jul-2022 
 ******************************************
 %NProcShared=32
 Will use up to   32 processors via shared memory.
 %mem = 128GB
 ---------------------------------------------------------------
 #n M062X/6-311++G(d,p) TD(NStates=1) EmpiricalDispersion=GD3 SP
 ---------------------------------------------------------------
 1/38=1,172=1/1;
 2/12=2,17=6,18=5,40=1/2;
 3/5=4,6=6,7=1111,11=9,25=1,30=1,74=-55,124=31/1,2,3,8;
 4//1;
 5/5=2,38=5/2;
 8/6=1,10=2,108=1/1;
 9/41=1,42=1,70=2/14;
 6/7=2,8=2,9=2,10=2/1;
 99/5=1,9=1/99;
 -------
 SP_-100
 -------
 Symbolic Z-matrix:
 Charge =  1 Multiplicity = 1
 C                     2.4889    1.3703    0. 
 C                     3.6996    0.6814    0. 
 C                     3.6827   -0.7031    0. 
 C                     2.463    -1.3985    0. 
 C                    -2.463    -1.3985    0. 
 C                    -3.6827   -0.7031    0. 
 C                    -3.6996    0.6814    0. 
 C                    -2.4889    1.3703    0. 
 C                     0.0001    1.4533    0. 
 C                     0.       -1.4201    0. 
 C                     1.2618    0.6856    0. 
 C                     1.2383   -0.7227    0. 
 C                    -1.2618    0.6856    0. 
 C                    -1.2383   -0.7227    0. 
 H                     2.4837    2.4536    0. 
 H                     4.6345    1.2219    0. 
 H                     4.6087   -1.2612    0. 
 H                     2.4681   -2.4811    0. 
 H                     0.       -2.5014    0. 
 H                    -2.4681   -2.4811    0. 
 H                    -4.6087   -1.2612    0. 
 H                    -4.6345    1.2219    0. 
 H                    -2.4837    2.4536    0. 
 H                     0.        2.1525   -0.8574 
 H                     0.        2.1525    0.8574 
 
                          Input orientation:                          
 ---------------------------------------------------------------------
 Center     Atomic      Atomic             Coordinates (Angstroms)
 Number     Number       Type             X           Y           Z
 ---------------------------------------------------------------------
      1          6           0        2.488900    1.370300    0.000000
      2          6           0        3.699600    0.681400    0.000000
      3          6           0        3.682700   -0.703100    0.000000
      4          6           0        2.463000   -1.398500    0.000000
      5          6           0       -2.463000   -1.398500    0.000000
      6          6           0       -3.682700   -0.703100    0.000000
      7          6           0       -3.699600    0.681400    0.000000
      8          6           0       -2.488900    1.370300    0.000000
      9          6           0        0.000100    1.453300    0.000000
     10          6           0        0.000000   -1.420100    0.000000
     11          6           0        1.261800    0.685600    0.000000
     12          6           0        1.238300   -0.722700    0.000000
     13          6           0       -1.261800    0.685600    0.000000
     14          6           0       -1.238300   -0.722700    0.000000
     15          1           0        2.483700    2.453600    0.000000
     16          1           0        4.634500    1.221900    0.000000
     17          1           0        4.608700   -1.261200    0.000000
     18          1           0        2.468100   -2.481100    0.000000
     19          1           0        0.000000   -2.501400    0.000000
     20          1           0       -2.468100   -2.481100    0.000000
     21          1           0       -4.608700   -1.261200    0.000000
     22          1           0       -4.634500    1.221900    0.000000
     23          1           0       -2.483700    2.453600    0.000000
     24          1           0        0.000000    2.152500   -0.857400
     25          1           0        0.000000    2.152500    0.857400
 ---------------------------------------------------------------------
                    Distance matrix (angstroms):
                    1          2          3          4          5
     1  C    0.000000
     2  C    1.392974   0.000000
     3  C    2.392519   1.384603   0.000000
     4  C    2.768921   2.419745   1.404012   0.000000
     5  C    5.673409   6.504124   6.184918   4.926000   0.000000
     6  C    6.510579   7.511005   7.365400   6.184918   1.404012
     7  C    6.226726   7.399200   7.511005   6.504124   2.419745
     8  C    4.977800   6.226726   6.510579   5.673409   2.768921
     9  C    2.490184   3.779171   4.267506   3.768108   3.768239
    10  C    3.739112   4.254802   3.751849   2.463095   2.463095
    11  C    1.405201   2.437804   2.790922   2.405484   4.268209
    12  C    2.438165   2.833636   2.444479   1.398784   3.762490
    13  C    3.812685   4.961402   5.135812   4.268209   2.405484
    14  C    4.274654   5.133649   4.921039   3.762490   1.398784
    15  H    1.083312   2.149210   3.376737   3.852156   6.269650
    16  H    2.150726   1.079897   2.147452   3.403220   7.565778
    17  H    3.379104   2.144798   1.081181   2.150088   7.073033
    18  H    3.851456   3.393818   2.153262   1.082612   5.048541
    19  H    4.602682   4.880293   4.098312   2.698658   2.698658
    20  H    6.277351   6.931229   6.402626   5.048541   1.082612
    21  H    7.569724   8.532382   8.310162   7.073033   2.150088
    22  H    7.124946   8.351608   8.537063   7.565778   3.403220
    23  H    5.089233   6.432254   6.927427   6.269650   3.852156
    24  H    2.746196   4.072629   4.738340   4.405804   4.405804
    25  H    2.746196   4.072629   4.738340   4.405804   4.405804
                    6          7          8          9         10
     6  C    0.000000
     7  C    1.384603   0.000000
     8  C    2.392519   1.392974   0.000000
     9  C    4.267678   3.779366   2.490384   0.000000
    10  C    3.751849   4.254802   3.739112   2.873400   0.000000
    11  C    5.135812   4.961402   3.812685   1.476906   2.454814
    12  C    4.921039   5.133649   4.274654   2.503620   1.421180
    13  C    2.790922   2.437804   1.405201   1.477076   2.454814
    14  C    2.444479   2.833636   2.438165   2.503719   1.421180
    15  H    6.927427   6.432254   5.089233   2.677474   4.601556
    16  H    8.537063   8.351608   7.124946   4.640173   5.334675
    17  H    8.310162   8.532382   7.569724   5.348617   4.611438
    18  H    6.402626   6.931229   6.277351   4.644408   2.686492
    19  H    4.098312   4.880293   4.602682   3.954700   1.081300
    20  H    2.153262   3.393818   3.851456   4.644514   2.686492
    21  H    1.081181   2.144798   3.379104   5.348789   4.611438
    22  H    2.147452   1.079897   2.150726   4.640373   5.334675
    23  H    3.376737   2.149210   1.083312   2.677660   4.601556
    24  H    4.738340   4.072629   2.746196   1.106352   3.674045
    25  H    4.738340   4.072629   2.746196   1.106352   3.674045
                   11         12         13         14         15
    11  C    0.000000
    12  C    1.408496   0.000000
    13  C    2.523600   2.869461   0.000000
    14  C    2.869461   2.476600   1.408496   0.000000
    15  H    2.149154   3.411730   4.141811   4.893073   0.000000
    16  H    3.415073   3.913521   5.920639   6.186376   2.478513
    17  H    3.871921   3.413148   6.184885   5.871745   4.279645
    18  H    3.388679   2.145782   4.892867   4.102362   4.934725
    19  H    3.427697   2.167293   3.427697   2.167293   5.542634
    20  H    4.892867   4.102362   3.388679   2.145782   6.990822
    21  H    6.184885   5.871745   3.871921   3.413148   8.006365
    22  H    5.920639   6.186376   3.415073   3.913521   7.223978
    23  H    4.141811   4.893073   2.149154   3.411730   4.967400
    24  H    2.116381   3.245812   2.116381   3.245812   2.644723
    25  H    2.116381   3.245812   2.116381   3.245812   2.644723
                   16         17         18         19         20
    16  H    0.000000
    17  H    2.483234   0.000000
    18  H    4.290163   2.463803   0.000000
    19  H    5.944876   4.772652   2.468183   0.000000
    20  H    8.009940   7.181174   4.936200   2.468183   0.000000
    21  H    9.570921   9.217400   7.181174   4.772652   2.463803
    22  H    9.269000   9.570921   8.009940   5.944876   4.290163
    23  H    7.223978   8.006365   6.990822   5.542634   4.934725
    24  H    4.804138   5.799017   5.319483   4.732221   5.319483
    25  H    4.804138   5.799017   5.319483   4.732221   5.319483
                   21         22         23         24         25
    21  H    0.000000
    22  H    2.483234   0.000000
    23  H    4.279645   2.478513   0.000000
    24  H    5.799017   4.804138   2.644723   0.000000
    25  H    5.799017   4.804138   2.644723   1.714800   0.000000
 Stoichiometry    C14H11(1+)
 Framework group  CS[SG(C14H9),X(H2)]
 Deg. of freedom    46
 Full point group                 CS      NOp   2
 Largest Abelian subgroup         CS      NOp   2
 Largest concise Abelian subgroup CS      NOp   2
                         Standard orientation:                         
 ---------------------------------------------------------------------
 Center     Atomic      Atomic             Coordinates (Angstroms)
 Number     Number       Type             X           Y           Z
 ---------------------------------------------------------------------
      1          6           0       -1.361614   -2.488894    0.000000
      2          6           0       -0.672714   -3.699594    0.000000
      3          6           0        0.711786   -3.682694    0.000000
      4          6           0        1.407186   -2.462994    0.000000
      5          6           0        1.407186    2.463006    0.000000
      6          6           0        0.711786    3.682706    0.000000
      7          6           0       -0.672714    3.699606    0.000000
      8          6           0       -1.361614    2.488906    0.000000
      9          6           0       -1.444614   -0.000094    0.000000
     10          6           0        1.428786    0.000006    0.000000
     11          6           0       -0.676914   -1.261794    0.000000
     12          6           0        0.731386   -1.238294    0.000000
     13          6           0       -0.676914    1.261806    0.000000
     14          6           0        0.731386    1.238306    0.000000
     15          1           0       -2.444914   -2.483694    0.000000
     16          1           0       -1.213214   -4.634494    0.000000
     17          1           0        1.269886   -4.608694    0.000000
     18          1           0        2.489786   -2.468094    0.000000
     19          1           0        2.510086    0.000006    0.000000
     20          1           0        2.489786    2.468106    0.000000
     21          1           0        1.269886    4.608706    0.000000
     22          1           0       -1.213214    4.634506    0.000000
     23          1           0       -2.444914    2.483706    0.000000
     24          1           0       -2.143814    0.000006    0.857400
     25          1           0       -2.143814    0.000006   -0.857400
 ---------------------------------------------------------------------
 Rotational constants (GHZ):           2.1390921           0.4450482           0.3691982
 Standard basis: 6-311++G(d,p) (5D, 7F)
 There are   299 symmetry adapted cartesian basis functions of A'  symmetry.
 There are   100 symmetry adapted cartesian basis functions of A"  symmetry.
 There are   285 symmetry adapted basis functions of A'  symmetry.
 There are   100 symmetry adapted basis functions of A"  symmetry.
   385 basis functions,   603 primitive gaussians,   399 cartesian basis functions
    47 alpha electrons       47 beta electrons
       nuclear repulsion energy       781.5904558257 Hartrees.
 NAtoms=   25 NActive=   25 NUniq=   24 SFac= 1.09D+00 NAtFMM=   60 NAOKFM=F Big=F
 Integral buffers will be    131072 words long.
 Regular integral format.
 Two-electron integral symmetry is turned on.
 Nuclear repulsion after empirical dispersion term =      781.5894764616 Hartrees.
 One-electron integrals computed using PRISM.
 NBasis=   385 RedAO= T EigKep=  1.11D-06  NBF=   285   100
 NBsUse=   379 1.00D-06 EigRej=  8.33D-07 NBFU=   279   100
 ExpMin= 3.60D-02 ExpMax= 4.56D+03 ExpMxC= 6.82D+02 IAcc=3 IRadAn=         5 AccDes= 0.00D+00
 Harris functional with IExCor= 1009 and IRadAn=       5 diagonalized for initial guess.
 HarFok:  IExCor= 1009 AccDes= 0.00D+00 IRadAn=         5 IDoV= 1 UseB2=F ITyADJ=14
 ICtDFT=  3500011 ScaDFX=  1.000000  1.000000  1.000000  1.000000
 FoFCou: FMM=F IPFlag=           0 FMFlag=      100000 FMFlg1=           0
         NFxFlg=           0 DoJE=T BraDBF=F KetDBF=T FulRan=T
         wScrn=  0.000000 ICntrl=       500 IOpCl=  0 I1Cent=   200000004 NGrid=           0
         NMat0=    1 NMatS0=      1 NMatT0=    0 NMatD0=    1 NMtDS0=    0 NMtDT0=    0
 Petite list used in FoFCou.
 Initial guess orbital symmetries:
       Occupied  (A') (A') (A') (A') (A') (A') (A') (A') (A') (A')
                 (A') (A') (A') (A') (A') (A') (A') (A') (A') (A')
                 (A') (A') (A') (A') (A') (A') (A') (A') (A') (A')
                 (A') (A') (A") (A') (A') (A') (A') (A') (A') (A")
                 (A") (A') (A') (A") (A") (A") (A")
       Virtual   (A") (A") (A") (A") (A") (A') (A') (A') (A') (A")
                 (A") (A') (A') (A') (A") (A') (A') (A') (A') (A")
                 (A') (A") (A') (A') (A') (A") (A') (A") (A') (A')
                 (A') (A') (A') (A") (A') (A') (A") (A') (A') (A")
                 (A') (A') (A') (A") (A') (A') (A') (A') (A') (A")
                 (A') (A') (A") (A") (A') (A') (A') (A") (A") (A')
                 (A') (A') (A') (A') (A') (A") (A') (A') (A') (A")
                 (A') (A') (A') (A') (A') (A') (A') (A') (A') (A')
                 (A') (A') (A') (A') (A') (A') (A') (A') (A') (A')
                 (A') (A') (A') (A') (A') (A') (A') (A") (A') (A")
                 (A') (A') (A") (A") (A') (A") (A") (A') (A') (A")
                 (A") (A') (A') (A') (A") (A') (A') (A") (A") (A')
                 (A") (A") (A') (A') (A') (A") (A') (A') (A') (A")
                 (A') (A') (A') (A') (A') (A') (A") (A') (A') (A')
                 (A') (A') (A') (A') (A') (A') (A') (A') (A') (A")
                 (A") (A') (A") (A") (A') (A') (A') (A") (A") (A')
                 (A") (A') (A") (A") (A") (A') (A') (A') (A') (A')
                 (A') (A") (A") (A') (A') (A') (A') (A') (A') (A")
                 (A') (A') (A') (A') (A') (A") (A") (A') (A") (A")
                 (A') (A") (A') (A") (A') (A') (A') (A") (A') (A')
                 (A") (A") (A") (A') (A') (A") (A') (A") (A') (A')
                 (A") (A") (A') (A") (A') (A") (A') (A') (A") (A')
                 (A') (A') (A') (A') (A") (A') (A') (A') (A") (A")
                 (A') (A') (A') (A") (A') (A') (A") (A') (A") (A')
                 (A") (A') (A') (A') (A') (A') (A") (A') (A') (A")
                 (A') (A') (A") (A') (A") (A') (A') (A") (A') (A')
                 (A') (A') (A") (A") (A') (A') (A') (A") (A") (A')
                 (A') (A') (A') (A') (A") (A') (A") (A') (A") (A')
                 (A") (A') (A") (A") (A") (A') (A') (A') (A') (A')
                 (A') (A') (A') (A') (A') (A') (A') (A') (A') (A')
                 (A') (A') (A') (A") (A') (A') (A') (A') (A') (A')
                 (A') (A') (A') (A') (A') (A') (A') (A') (A') (A')
                 (A') (A') (A') (A') (A') (A') (A') (A') (A') (A')
                 (A') (A')
 The electronic state of the initial guess is 1-A'.
 Requested convergence on RMS density matrix=1.00D-08 within 128 cycles.
 Requested convergence on MAX density matrix=1.00D-06.
 Requested convergence on             energy=1.00D-06.
 No special actions if energy rises.
 SCF Done:  E(RM062X) =  -539.760058126     A.U. after   15 cycles
            NFock= 15  Conv=0.44D-08     -V/T= 2.0042
 DoSCS=F DFT=T ScalE2(SS,OS)=  1.000000  1.000000
 ExpMin= 3.60D-02 ExpMax= 4.56D+03 ExpMxC= 6.82D+02 IAcc=3 IRadAn=         5 AccDes= 0.00D+00
 HarFok:  IExCor=  205 AccDes= 0.00D+00 IRadAn=         5 IDoV=-2 UseB2=F ITyADJ=14
 ICtDFT= 12500011 ScaDFX=  1.000000  1.000000  1.000000  1.000000
 Range of M.O.s used for correlation:    15   379
 NBasis=   385 NAE=    47 NBE=    47 NFC=    14 NFV=     0
 NROrb=    365 NOA=    33 NOB=    33 NVA=   332 NVB=   332

 **** Warning!!: The largest alpha MO coefficient is  0.14631270D+03

 Orbital symmetries:
       Occupied  (A') (A') (A') (A') (A') (A') (A') (A') (A') (A')
                 (A') (A') (A') (A') (A') (A') (A') (A') (A') (A')
                 (A') (A') (A') (A') (A') (A') (A') (A') (A') (A')
                 (A') (A') (A") (A') (A') (A') (A') (A") (A") (A')
                 (A') (A') (A') (A") (A") (A") (A")
       Virtual   (A") (A") (A") (A") (A') (A') (A') (A') (A") (A')
                 (A') (A") (A') (A') (A") (A') (A") (A') (A') (A')
                 (A") (A") (A') (A') (A') (A") (A') (A") (A') (A')
                 (A") (A') (A") (A') (A') (A') (A') (A') (A") (A')
                 (A") (A') (A') (A") (A") (A') (A") (A') (A") (A')
                 (A') (A') (A') (A') (A') (A") (A') (A') (A') (A')
                 (A') (A") (A') (A') (A") (A') (A') (A') (A') (A')
                 (A') (A') (A') (A') (A') (A') (A') (A') (A') (A')
                 (A') (A') (A') (A') (A') (A') (A') (A') (A') (A')
                 (A') (A') (A') (A') (A") (A') (A") (A") (A') (A")
                 (A') (A') (A') (A') (A") (A") (A') (A") (A") (A')
                 (A') (A') (A") (A') (A') (A") (A') (A") (A') (A")
                 (A") (A') (A") (A') (A') (A') (A") (A') (A') (A')
                 (A') (A') (A') (A') (A') (A') (A') (A') (A') (A')
                 (A') (A') (A') (A") (A') (A') (A') (A') (A') (A')
                 (A') (A') (A") (A') (A") (A') (A") (A") (A') (A")
                 (A") (A') (A') (A") (A") (A") (A') (A") (A') (A')
                 (A') (A') (A') (A") (A") (A') (A') (A') (A') (A")
                 (A') (A') (A') (A") (A') (A") (A') (A') (A") (A")
                 (A") (A') (A') (A") (A') (A") (A') (A') (A') (A')
                 (A") (A") (A") (A') (A") (A') (A') (A") (A') (A')
                 (A') (A") (A') (A") (A") (A") (A') (A') (A') (A")
                 (A') (A') (A') (A') (A") (A') (A') (A') (A") (A")
                 (A') (A') (A') (A") (A') (A') (A') (A") (A") (A')
                 (A") (A') (A') (A") (A') (A') (A') (A') (A') (A')
                 (A") (A') (A') (A') (A') (A") (A") (A") (A') (A')
                 (A') (A') (A') (A') (A') (A') (A") (A') (A') (A')
                 (A') (A") (A') (A") (A") (A") (A') (A") (A') (A")
                 (A') (A") (A") (A') (A") (A") (A') (A') (A') (A')
                 (A') (A') (A') (A') (A') (A') (A') (A') (A') (A')
                 (A') (A') (A') (A") (A') (A') (A') (A') (A') (A')
                 (A') (A') (A') (A') (A') (A') (A') (A') (A') (A')
                 (A') (A') (A') (A') (A') (A') (A') (A') (A') (A')
                 (A') (A')
     4 initial guesses have been made.
 Convergence on wavefunction:    0.001000000000000
 Iteration     1 Dimension     4 NMult     0 NNew      4
 CISAX will form     4 AO SS matrices at one time.
 Iteration     2 Dimension     6 NMult     4 NNew      2
 Iteration     3 Dimension     8 NMult     6 NNew      2
 Iteration     4 Dimension    10 NMult     8 NNew      2
 Iteration     5 Dimension    12 NMult    10 NNew      2
 Iteration     6 Dimension    14 NMult    12 NNew      2
 ***********************************************************************
 Excited states from <AA,BB:AA,BB> singles matrix:
 ***********************************************************************
 
 Ground to excited state transition densities written to RWF  633
 Ground to excited state transition electric dipole moments (Au):
       state          X           Y           Z        Dip. S.      Osc.
         1        -0.6490     -0.0000      0.0000      0.4212      0.0291
 Ground to excited state transition velocity dipole moments (Au):
       state          X           Y           Z        Dip. S.      Osc.
         1         0.0750     -0.0000     -0.0000      0.0056      0.0362
 Ground to excited state transition magnetic dipole moments (Au):
       state          X           Y           Z
         1        -0.0000     -0.0000      0.0001
 Ground to excited state transition velocity quadrupole moments (Au):
       state          XX          YY          ZZ          XY          XZ          YZ
         1         0.0345      0.2952     -0.0098     -0.0000     -0.0000      0.0000
 <0|del|b> * <b|rxdel|0> + <0|del|b> * <b|delr+rdel|0>
 Rotatory Strengths (R) in cgs (10**-40 erg-esu-cm/Gauss)
       state          XX          YY          ZZ    R(velocity)    E-M Angle
         1        -0.0000      0.0000     -0.0000     -0.0000       90.00
 1/2[<0|r|b>*<b|rxdel|0> + (<0|rxdel|b>*<b|r|0>)*]
 Rotatory Strengths (R) in cgs (10**-40 erg-esu-cm/Gauss)
       state          XX          YY          ZZ     R(length)
         1        -0.0000     -0.0000     -0.0000     -0.0000
  1/2[<0|del|b>*<b|r|0> + (<0|r|b>*<b|del|0>)*] (Au)
       state          X           Y           Z        Dip. S.   Osc.(frdel)
         1        -0.0487      0.0000     -0.0000      0.0487      0.0325

 Excitation energies and oscillator strengths:
 
 Excited State   1:      Singlet-A'     2.8217 eV  439.39 nm  f=0.0291  <S**2>=0.000
      47 -> 48         0.70426
 This state for optimization and/or second-order correction.
 Total Energy, E(TD-HF/TD-DFT) =  -539.656361659    
 Copying the excited state density for this state as the 1-particle RhoCI density.
 SavETr:  write IOETrn=   770 NScale= 10 NData=  16 NLR=1 NState=    1 LETran=      28.

 **********************************************************************

            Population analysis using the SCF Density.

 **********************************************************************

 Orbital symmetries:
       Occupied  (A') (A') (A') (A') (A') (A') (A') (A') (A') (A')
                 (A') (A') (A') (A') (A') (A') (A') (A') (A') (A')
                 (A') (A') (A') (A') (A') (A') (A') (A') (A') (A')
                 (A') (A') (A") (A') (A') (A') (A') (A") (A") (A')
                 (A') (A') (A') (A") (A") (A") (A")
       Virtual   (A") (A") (A") (A") (A') (A') (A') (A') (A") (A')
                 (A') (A") (A') (A') (A") (A') (A") (A') (A') (A')
                 (A") (A") (A') (A') (A') (A") (A') (A") (A') (A')
                 (A") (A') (A") (A') (A') (A') (A') (A') (A") (A')
                 (A") (A') (A') (A") (A") (A') (A") (A') (A") (A')
                 (A') (A') (A') (A') (A') (A") (A') (A') (A') (A')
                 (A') (A") (A') (A') (A") (A') (A') (A') (A') (A')
                 (A') (A') (A') (A') (A') (A') (A') (A') (A') (A')
                 (A') (A') (A') (A') (A') (A') (A') (A') (A') (A')
                 (A') (A') (A') (A') (A") (A') (A") (A") (A') (A")
                 (A') (A') (A') (A') (A") (A") (A') (A") (A") (A')
                 (A') (A') (A") (A') (A') (A") (A') (A") (A') (A")
                 (A") (A') (A") (A') (A') (A') (A") (A') (A') (A')
                 (A') (A') (A') (A') (A') (A') (A') (A') (A') (A')
                 (A') (A') (A') (A") (A') (A') (A') (A') (A') (A')
                 (A') (A') (A") (A') (A") (A') (A") (A") (A') (A")
                 (A") (A') (A') (A") (A") (A") (A') (A") (A') (A')
                 (A') (A') (A') (A") (A") (A') (A') (A') (A') (A")
                 (A') (A') (A') (A") (A') (A") (A') (A') (A") (A")
                 (A") (A') (A') (A") (A') (A") (A') (A') (A') (A')
                 (A") (A") (A") (A') (A") (A') (A') (A") (A') (A')
                 (A') (A") (A') (A") (A") (A") (A') (A') (A') (A")
                 (A') (A') (A') (A') (A") (A') (A') (A') (A") (A")
                 (A') (A') (A') (A") (A') (A') (A') (A") (A") (A')
                 (A") (A') (A') (A") (A') (A') (A') (A') (A') (A')
                 (A") (A') (A') (A') (A') (A") (A") (A") (A') (A')
                 (A') (A') (A') (A') (A') (A') (A") (A') (A') (A')
                 (A') (A") (A') (A") (A") (A") (A') (A") (A') (A")
                 (A') (A") (A") (A') (A") (A") (A') (A') (A') (A')
                 (A') (A') (A') (A') (A') (A') (A') (A') (A') (A')
                 (A') (A') (A') (A") (A') (A') (A') (A') (A') (A')
                 (A') (A') (A') (A') (A') (A') (A') (A') (A') (A')
                 (A') (A') (A') (A') (A') (A') (A') (A') (A') (A')
                 (A') (A')
 The electronic state is 1-A'.
 Alpha  occ. eigenvalues --  -10.77649 -10.73189 -10.73188 -10.72419 -10.72417
 Alpha  occ. eigenvalues --  -10.71364 -10.71364 -10.71012 -10.71012 -10.70953
 Alpha  occ. eigenvalues --  -10.69970 -10.69970 -10.69616 -10.69616  -1.16494
 Alpha  occ. eigenvalues --   -1.12500  -1.06945  -1.05812  -1.01315  -1.00244
 Alpha  occ. eigenvalues --   -0.95774  -0.91077  -0.86426  -0.85919  -0.83834
 Alpha  occ. eigenvalues --   -0.78407  -0.76075  -0.74424  -0.69537  -0.69258
 Alpha  occ. eigenvalues --   -0.68521  -0.68214  -0.68087  -0.64751  -0.64307
 Alpha  occ. eigenvalues --   -0.63140  -0.61872  -0.59944  -0.59703  -0.59078
 Alpha  occ. eigenvalues --   -0.56924  -0.55201  -0.54875  -0.52432  -0.46656
 Alpha  occ. eigenvalues --   -0.46057  -0.44472
 Alpha virt. eigenvalues --   -0.26069  -0.14675  -0.14094  -0.12770  -0.11182
 Alpha virt. eigenvalues --   -0.10093  -0.09230  -0.07984  -0.07960  -0.07477
 Alpha virt. eigenvalues --   -0.07210  -0.07149  -0.05640  -0.05585  -0.05336
 Alpha virt. eigenvalues --   -0.03827  -0.03648  -0.03281  -0.03129  -0.02163
 Alpha virt. eigenvalues --   -0.01371  -0.00931   0.00183   0.00592   0.00692
 Alpha virt. eigenvalues --    0.01057   0.01510   0.01933   0.02224   0.02268
 Alpha virt. eigenvalues --    0.02450   0.02674   0.02753   0.03248   0.03372
 Alpha virt. eigenvalues --    0.04237   0.04513   0.04690   0.05026   0.05364
 Alpha virt. eigenvalues --    0.06029   0.06304   0.06599   0.07060   0.07247
 Alpha virt. eigenvalues --    0.07895   0.08173   0.08374   0.08557   0.08928
 Alpha virt. eigenvalues --    0.09555   0.09559   0.10055   0.10896   0.11075
 Alpha virt. eigenvalues --    0.11107   0.12197   0.12248   0.12922   0.13011
 Alpha virt. eigenvalues --    0.13413   0.13520   0.14034   0.14371   0.16287
 Alpha virt. eigenvalues --    0.16306   0.16308   0.17350   0.17629   0.17793
 Alpha virt. eigenvalues --    0.18139   0.19047   0.19228   0.19659   0.19758
 Alpha virt. eigenvalues --    0.21597   0.21618   0.22732   0.23136   0.23584
 Alpha virt. eigenvalues --    0.23712   0.24533   0.25227   0.26924   0.27620
 Alpha virt. eigenvalues --    0.28875   0.29316   0.29902   0.31385   0.35880
 Alpha virt. eigenvalues --    0.36472   0.38179   0.39286   0.41169   0.41402
 Alpha virt. eigenvalues --    0.42016   0.42161   0.42981   0.43721   0.44299
 Alpha virt. eigenvalues --    0.44946   0.45036   0.46096   0.46193   0.47890
 Alpha virt. eigenvalues --    0.48536   0.48907   0.49006   0.50439   0.51287
 Alpha virt. eigenvalues --    0.51689   0.51717   0.52113   0.52955   0.53976
 Alpha virt. eigenvalues --    0.54085   0.54708   0.55682   0.55765   0.57321
 Alpha virt. eigenvalues --    0.58245   0.58817   0.61460   0.62150   0.62355
 Alpha virt. eigenvalues --    0.63236   0.63498   0.65058   0.65167   0.67396
 Alpha virt. eigenvalues --    0.70378   0.70553   0.71053   0.72435   0.72893
 Alpha virt. eigenvalues --    0.75763   0.76023   0.76320   0.76907   0.77101
 Alpha virt. eigenvalues --    0.77856   0.77931   0.78283   0.79856   0.80408
 Alpha virt. eigenvalues --    0.81287   0.81629   0.82126   0.83028   0.85230
 Alpha virt. eigenvalues --    0.87199   0.88245   0.88653   0.89106   0.90435
 Alpha virt. eigenvalues --    0.91169   0.91240   0.93196   0.94655   0.96498
 Alpha virt. eigenvalues --    0.96628   1.00362   1.01330   1.01679   1.02719
 Alpha virt. eigenvalues --    1.03206   1.03908   1.04742   1.05349   1.08810
 Alpha virt. eigenvalues --    1.19585   1.23249   1.24103   1.25332   1.28162
 Alpha virt. eigenvalues --    1.29642   1.31818   1.34224   1.35803   1.36015
 Alpha virt. eigenvalues --    1.39407   1.40194   1.40990   1.42934   1.43513
 Alpha virt. eigenvalues --    1.43553   1.45251   1.45361   1.46396   1.46691
 Alpha virt. eigenvalues --    1.47640   1.48061   1.51819   1.53629   1.55806
 Alpha virt. eigenvalues --    1.56077   1.56357   1.56557   1.57830   1.61517
 Alpha virt. eigenvalues --    1.63174   1.63530   1.63707   1.66160   1.68358
 Alpha virt. eigenvalues --    1.68387   1.68653   1.69697   1.74463   1.76018
 Alpha virt. eigenvalues --    1.77248   1.78047   1.80199   1.80204   1.80749
 Alpha virt. eigenvalues --    1.83199   1.83214   1.83683   1.83798   1.84126
 Alpha virt. eigenvalues --    1.84304   1.85869   1.86082   1.88246   1.91415
 Alpha virt. eigenvalues --    1.92125   1.94167   1.95249   1.97713   1.98195
 Alpha virt. eigenvalues --    1.99795   2.02726   2.04495   2.07261   2.11843
 Alpha virt. eigenvalues --    2.12117   2.14120   2.15214   2.19211   2.21398
 Alpha virt. eigenvalues --    2.22799   2.28502   2.30431   2.34752   2.35006
 Alpha virt. eigenvalues --    2.36224   2.38689   2.39592   2.42412   2.44283
 Alpha virt. eigenvalues --    2.46207   2.46887   2.49419   2.52964   2.53839
 Alpha virt. eigenvalues --    2.54454   2.56637   2.57856   2.58296   2.59673
 Alpha virt. eigenvalues --    2.59830   2.61637   2.62184   2.63577   2.63865
 Alpha virt. eigenvalues --    2.64795   2.65161   2.65239   2.65366   2.68150
 Alpha virt. eigenvalues --    2.68683   2.70988   2.71420   2.73360   2.74839
 Alpha virt. eigenvalues --    2.76302   2.79072   2.79772   2.83082   2.83090
 Alpha virt. eigenvalues --    2.84933   2.86396   2.92157   2.96958   2.99546
 Alpha virt. eigenvalues --    3.00112   3.05532   3.11313   3.11642   3.13138
 Alpha virt. eigenvalues --    3.21246   3.24422   3.26896   3.28318   3.30831
 Alpha virt. eigenvalues --    3.32802   3.33641   3.43415   3.45922   3.46878
 Alpha virt. eigenvalues --    3.48788   3.50325   3.56675   3.64930   3.67160
 Alpha virt. eigenvalues --    3.67498   3.94188   3.94614   3.95103   3.96273
 Alpha virt. eigenvalues --    4.04042   4.06983   4.07634   4.12527   4.35820
 Alpha virt. eigenvalues --    4.61954   4.69965   4.71713  23.45325  23.60657
 Alpha virt. eigenvalues --   23.82373  23.86094  23.88085  23.89459  23.90424
 Alpha virt. eigenvalues --   23.92331  23.98134  23.99709  23.99844  24.00378
 Alpha virt. eigenvalues --   24.10630  24.10723
          Condensed to atoms (all electrons):
               1          2          3          4          5          6
     1  C    8.518805   0.425640  -0.573063   1.841592   0.000976  -0.094308
     2  C    0.425640   7.058414   0.376425  -1.006484  -0.029634  -0.015175
     3  C   -0.573063   0.376425   6.582895   0.736470  -0.119150   0.016960
     4  C    1.841592  -1.006484   0.736470  10.770854  -0.291068  -0.119127
     5  C    0.000976  -0.029634  -0.119150  -0.291068  10.771181   0.736440
     6  C   -0.094308  -0.015175   0.016960  -0.119127   0.736440   6.582895
     7  C   -0.026280   0.004055  -0.015176  -0.029655  -1.006395   0.376357
     8  C    0.406157  -0.026243  -0.094303   0.000835   1.841863  -0.573073
     9  C   -1.281712  -0.768457   0.283494  -0.280586  -0.280172   0.283501
    10  C   -1.222522   0.229746  -0.359004  -2.542755  -2.542771  -0.358880
    11  C    0.232459  -0.951724   1.026292  -0.214646  -1.493209  -0.179540
    12  C   -1.798101   1.275430  -1.356195  -1.425413  -0.318472  -0.201011
    13  C    0.142550  -0.237794  -0.179517  -1.493109  -0.214602   1.026154
    14  C   -1.064261  -0.208717  -0.201021  -0.318151  -1.426253  -1.356070
    15  H    0.363926  -0.102097  -0.002120   0.026095   0.006056   0.001097
    16  H   -0.019823   0.377424  -0.015601   0.013751  -0.001559  -0.000328
    17  H   -0.022189  -0.017187   0.374223  -0.066164   0.000305   0.000392
    18  H    0.048204   0.002985  -0.085342   0.452256   0.007892  -0.004932
    19  H   -0.046916  -0.007458   0.050550  -0.070378  -0.070408   0.050544
    20  H    0.007598   0.001934  -0.004932   0.007888   0.452259  -0.085344
    21  H   -0.001332  -0.000397   0.000392   0.000305  -0.066164   0.374221
    22  H    0.000690   0.000357  -0.000328  -0.001559   0.013757  -0.015608
    23  H    0.005949  -0.002740   0.001097   0.006055   0.026094  -0.002120
    24  H    0.031359   0.014201  -0.001437  -0.012363  -0.012364  -0.001438
    25  H    0.031359   0.014201  -0.001437  -0.012363  -0.012364  -0.001438
               7          8          9         10         11         12
     1  C   -0.026280   0.406157  -1.281712  -1.222522   0.232459  -1.798101
     2  C    0.004055  -0.026243  -0.768457   0.229746  -0.951724   1.275430
     3  C   -0.015176  -0.094303   0.283494  -0.359004   1.026292  -1.356195
     4  C   -0.029655   0.000835  -0.280586  -2.542755  -0.214646  -1.425413
     5  C   -1.006395   1.841863  -0.280172  -2.542771  -1.493209  -0.318472
     6  C    0.376357  -0.573073   0.283501  -0.358880  -0.179540  -0.201011
     7  C    7.058042   0.425616  -0.768367   0.229649  -0.237609  -0.208645
     8  C    0.425616   8.518493  -1.281256  -1.222576   0.142873  -1.064012
     9  C   -0.768367  -1.281256   9.670099   0.249795   1.792929  -2.010859
    10  C    0.229649  -1.222576   0.249795   9.278951  -0.588737   2.430847
    11  C   -0.237609   0.142873   1.792929  -0.588737  14.699011  -3.853259
    12  C   -0.208645  -1.064012  -2.010859   2.430847  -3.853259  16.038416
    13  C   -0.951542   0.232054   1.792593  -0.588563   1.091022  -4.876758
    14  C    1.275369  -1.798606  -2.011239   2.431149  -4.876417   2.920355
    15  H   -0.002739   0.005949   0.092061  -0.009581  -0.029507  -0.024158
    16  H    0.000357   0.000688   0.004739  -0.010019   0.030205  -0.036430
    17  H   -0.000397  -0.001332  -0.005997   0.020820  -0.028713   0.090248
    18  H    0.001934   0.007595  -0.025727   0.017726  -0.010772  -0.050396
    19  H   -0.007459  -0.046913   0.076695   0.422339   0.077497  -0.064841
    20  H    0.002991   0.048206  -0.025720   0.017716  -0.011630  -0.011841
    21  H   -0.017191  -0.022183  -0.005998   0.020819  -0.006385   0.005265
    22  H    0.377419  -0.019806   0.004748  -0.010021   0.003195  -0.009161
    23  H   -0.102089   0.363939   0.092072  -0.009580   0.001458   0.006782
    24  H    0.014198   0.031350   0.358306   0.005664   0.013141  -0.059409
    25  H    0.014198   0.031350   0.358306   0.005664   0.013141  -0.059409
              13         14         15         16         17         18
     1  C    0.142550  -1.064261   0.363926  -0.019823  -0.022189   0.048204
     2  C   -0.237794  -0.208717  -0.102097   0.377424  -0.017187   0.002985
     3  C   -0.179517  -0.201021  -0.002120  -0.015601   0.374223  -0.085342
     4  C   -1.493109  -0.318151   0.026095   0.013751  -0.066164   0.452256
     5  C   -0.214602  -1.426253   0.006056  -0.001559   0.000305   0.007892
     6  C    1.026154  -1.356070   0.001097  -0.000328   0.000392  -0.004932
     7  C   -0.951542   1.275369  -0.002739   0.000357  -0.000397   0.001934
     8  C    0.232054  -1.798606   0.005949   0.000688  -0.001332   0.007595
     9  C    1.792593  -2.011239   0.092061   0.004739  -0.005997  -0.025727
    10  C   -0.588563   2.431149  -0.009581  -0.010019   0.020820   0.017726
    11  C    1.091022  -4.876417  -0.029507   0.030205  -0.028713  -0.010772
    12  C   -4.876758   2.920355  -0.024158  -0.036430   0.090248  -0.050396
    13  C   14.699993  -3.853119   0.001461   0.003193  -0.006386  -0.011631
    14  C   -3.853119  16.039431   0.006782  -0.009159   0.005265  -0.011832
    15  H    0.001461   0.006782   0.438262  -0.008913   0.001459   0.000214
    16  H    0.003193  -0.009159  -0.008913   0.419126  -0.006648   0.001902
    17  H   -0.006386   0.005265   0.001459  -0.006648   0.422399  -0.010109
    18  H   -0.011631  -0.011832   0.000214   0.001902  -0.010109   0.452718
    19  H    0.077469  -0.064853   0.000287  -0.000526   0.001394  -0.006061
    20  H   -0.010751  -0.050415  -0.000110   0.000014  -0.000141   0.001300
    21  H   -0.028710   0.090247   0.000013  -0.000007   0.000010  -0.000141
    22  H    0.030216  -0.036461  -0.000125   0.000007  -0.000007   0.000014
    23  H   -0.029521  -0.024169   0.000618  -0.000125   0.000013  -0.000110
    24  H    0.013126  -0.059411  -0.000879   0.000626  -0.000140   0.000171
    25  H    0.013126  -0.059411  -0.000879   0.000626  -0.000140   0.000171
              19         20         21         22         23         24
     1  C   -0.046916   0.007598  -0.001332   0.000690   0.005949   0.031359
     2  C   -0.007458   0.001934  -0.000397   0.000357  -0.002740   0.014201
     3  C    0.050550  -0.004932   0.000392  -0.000328   0.001097  -0.001437
     4  C   -0.070378   0.007888   0.000305  -0.001559   0.006055  -0.012363
     5  C   -0.070408   0.452259  -0.066164   0.013757   0.026094  -0.012364
     6  C    0.050544  -0.085344   0.374221  -0.015608  -0.002120  -0.001438
     7  C   -0.007459   0.002991  -0.017191   0.377419  -0.102089   0.014198
     8  C   -0.046913   0.048206  -0.022183  -0.019806   0.363939   0.031350
     9  C    0.076695  -0.025720  -0.005998   0.004748   0.092072   0.358306
    10  C    0.422339   0.017716   0.020819  -0.010021  -0.009580   0.005664
    11  C    0.077497  -0.011630  -0.006385   0.003195   0.001458   0.013141
    12  C   -0.064841  -0.011841   0.005265  -0.009161   0.006782  -0.059409
    13  C    0.077469  -0.010751  -0.028710   0.030216  -0.029521   0.013126
    14  C   -0.064853  -0.050415   0.090247  -0.036461  -0.024169  -0.059411
    15  H    0.000287  -0.000110   0.000013  -0.000125   0.000618  -0.000879
    16  H   -0.000526   0.000014  -0.000007   0.000007  -0.000125   0.000626
    17  H    0.001394  -0.000141   0.000010  -0.000007   0.000013  -0.000140
    18  H   -0.006061   0.001300  -0.000141   0.000014  -0.000110   0.000171
    19  H    0.442510  -0.006061   0.001394  -0.000526   0.000287   0.000631
    20  H   -0.006061   0.452720  -0.010109   0.001902   0.000214   0.000171
    21  H    0.001394  -0.010109   0.422398  -0.006648   0.001459  -0.000140
    22  H   -0.000526   0.001902  -0.006648   0.419126  -0.008914   0.000626
    23  H    0.000287   0.000214   0.001459  -0.008914   0.438263  -0.000880
    24  H    0.000631   0.000171  -0.000140   0.000626  -0.000880   0.495162
    25  H    0.000631   0.000171  -0.000140   0.000626  -0.000880  -0.081271
              25
     1  C    0.031359
     2  C    0.014201
     3  C   -0.001437
     4  C   -0.012363
     5  C   -0.012364
     6  C   -0.001438
     7  C    0.014198
     8  C    0.031350
     9  C    0.358306
    10  C    0.005664
    11  C    0.013141
    12  C   -0.059409
    13  C    0.013126
    14  C   -0.059411
    15  H   -0.000879
    16  H    0.000626
    17  H   -0.000140
    18  H    0.000171
    19  H    0.000631
    20  H    0.000171
    21  H   -0.000140
    22  H    0.000626
    23  H   -0.000880
    24  H   -0.081271
    25  H    0.495162
 Mulliken charges:
               1
     1  C    0.093244
     2  C   -0.406703
     3  C   -0.440172
     4  C    0.027719
     5  C    0.027763
     6  C   -0.440170
     7  C   -0.406641
     8  C    0.093334
     9  C   -0.313250
    10  C    0.104125
    11  C   -0.641075
    12  C    0.661025
    13  C   -0.640954
    14  C    0.660965
    15  H    0.236831
    16  H    0.256481
    17  H    0.249023
    18  H    0.221971
    19  H    0.190172
    20  H    0.221971
    21  H    0.249024
    22  H    0.256481
    23  H    0.236829
    24  H    0.251004
    25  H    0.251004
 Sum of Mulliken charges =   1.00000
 Mulliken charges with hydrogens summed into heavy atoms:
               1
     1  C    0.330075
     2  C   -0.150222
     3  C   -0.191149
     4  C    0.249690
     5  C    0.249735
     6  C   -0.191146
     7  C   -0.150160
     8  C    0.330163
     9  C    0.188758
    10  C    0.294297
    11  C   -0.641075
    12  C    0.661025
    13  C   -0.640954
    14  C    0.660965
 Electronic spatial extent (au):  <R**2>=           2853.2710
 Charge=              1.0000 electrons
 Dipole moment (field-independent basis, Debye):
    X=              0.1807    Y=              0.0000    Z=              0.0000  Tot=              0.1807
 Quadrupole moment (field-independent basis, Debye-Ang):
   XX=            -56.2490   YY=            -31.1639   ZZ=            -84.1403
   XY=             -0.0001   XZ=             -0.0000   YZ=             -0.0000
 Traceless Quadrupole moment (field-independent basis, Debye-Ang):
   XX=              0.9354   YY=             26.0205   ZZ=            -26.9559
   XY=             -0.0001   XZ=             -0.0000   YZ=             -0.0000
 Octapole moment (field-independent basis, Debye-Ang**2):
  XXX=              5.1301  YYY=              0.0012  ZZZ=              0.0000  XYY=             -5.1687
  XXY=              0.0003  XXZ=             -0.0000  XZZ=             -3.0540  YZZ=             -0.0001
  YYZ=              0.0000  XYZ=              0.0000
 Hexadecapole moment (field-independent basis, Debye-Ang**3):
 XXXX=           -608.3293 YYYY=          -2121.6742 ZZZZ=            -99.3083 XXXY=             -0.0027
 XXXZ=             -0.0000 YYYX=             -0.0028 YYYZ=             -0.0000 ZZZX=              0.0000
 ZZZY=              0.0000 XXYY=           -507.1623 XXZZ=           -145.6115 YYZZ=           -590.1739
 XXYZ=              0.0000 YYXZ=             -0.0000 ZZXY=             -0.0007
 N-N= 7.815894764616D+02 E-N=-2.799533911777D+03  KE= 5.375265116062D+02
 Symmetry A'   KE= 5.228793048850D+02
 Symmetry A"   KE= 1.464720672119D+01
 Unable to Open any file for archive entry.
 1\1\GINC-GADI-CPU-CLX-0648\SP\RM062X TD-FC\6-311++G(d,p)\C14H11(1+)\TS
 1578\27-Jul-2022\0\\#n M062X/6-311++G(d,p) TD(NStates=1) EmpiricalDisp
 ersion=GD3 SP\\SP_-100\\1,1\C,0,2.4889,1.3703,0.\C,0,3.6996,0.6814,0.\
 C,0,3.6827,-0.7031,0.\C,0,2.463,-1.3985,0.\C,0,-2.463,-1.3985,0.\C,0,-
 3.6827,-0.7031,0.\C,0,-3.6996,0.6814,0.\C,0,-2.4889,1.3703,0.\C,0,0.00
 01,1.4533,0.\C,0,0.,-1.4201,0.\C,0,1.2618,0.6856,0.\C,0,1.2383,-0.7227
 ,0.\C,0,-1.2618,0.6856,0.\C,0,-1.2383,-0.7227,0.\H,0,2.4837,2.4536,0.\
 H,0,4.6345,1.2219,0.\H,0,4.6087,-1.2612,0.\H,0,2.4681,-2.4811,0.\H,0,0
 .,-2.5014,0.\H,0,-2.4681,-2.4811,0.\H,0,-4.6087,-1.2612,0.\H,0,-4.6345
 ,1.2219,0.\H,0,-2.4837,2.4536,0.\H,0,0.,2.1525,-0.8574\H,0,0.,2.1525,0
 .8574\\Version=ES64L-G16RevC.01\State=1-A'\HF=-539.7600581\RMSD=4.377e
 -09\PG=CS [SG(C14H9),X(H2)]\\@
 The archive entry for this job was punched.


 Happiness is a conscious choice, not an automatic response.
 -- Mildred Barthel
 Job cpu time:       0 days  0 hours 46 minutes 38.8 seconds.
 Elapsed time:       0 days  0 hours  1 minutes 28.7 seconds.
 File lengths (MBytes):  RWF=    460 Int=      0 D2E=      0 Chk=     15 Scr=      1
 Normal termination of Gaussian 16 at Wed Jul 27 10:07:06 2022.
