 Entering Gaussian System, Link 0=g16
 Initial command:
 /apps/gaussian/g16c01/g16/l1.exe "/jobfs/52804872.gadi-pbs/Gau-1572406.inp" -scrdir="/jobfs/52804872.gadi-pbs/"
 Entering Link 1 = /apps/gaussian/g16c01/g16/l1.exe PID=   1572429.
  
 Copyright (c) 1988-2019, Gaussian, Inc.  All Rights Reserved.
  
 This is part of the Gaussian(R) 16 program.  It is based on
 the Gaussian(R) 09 system (copyright 2009, Gaussian, Inc.),
 the Gaussian(R) 03 system (copyright 2003, Gaussian, Inc.),
 the Gaussian(R) 98 system (copyright 1998, Gaussian, Inc.),
 the Gaussian(R) 94 system (copyright 1995, Gaussian, Inc.),
 the Gaussian 92(TM) system (copyright 1992, Gaussian, Inc.),
 the Gaussian 90(TM) system (copyright 1990, Gaussian, Inc.),
 the Gaussian 88(TM) system (copyright 1988, Gaussian, Inc.),
 the Gaussian 86(TM) system (copyright 1986, Carnegie Mellon
 University), and the Gaussian 82(TM) system (copyright 1983,
 Carnegie Mellon University). Gaussian is a federally registered
 trademark of Gaussian, Inc.
  
 This software contains proprietary and confidential information,
 including trade secrets, belonging to Gaussian, Inc.
  
 This software is provided under written license and may be
 used, copied, transmitted, or stored only in accord with that
 written license.
  
 The following legend is applicable only to US Government
 contracts under FAR:
  
                    RESTRICTED RIGHTS LEGEND
  
 Use, reproduction and disclosure by the US Government is
 subject to restrictions as set forth in subparagraphs (a)
 and (c) of the Commercial Computer Software - Restricted
 Rights clause in FAR 52.227-19.
  
 Gaussian, Inc.
 340 Quinnipiac St., Bldg. 40, Wallingford CT 06492
  
  
 ---------------------------------------------------------------
 Warning -- This program may not be used in any manner that
 competes with the business of Gaussian, Inc. or will provide
 assistance to any competitor of Gaussian, Inc.  The licensee
 of this program is prohibited from giving any competitor of
 Gaussian, Inc. access to this program.  By using this program,
 the user acknowledges that Gaussian, Inc. is engaged in the
 business of creating and licensing software in the field of
 computational chemistry and represents and warrants to the
 licensee that it is not a competitor of Gaussian, Inc. and that
 it will not use this program in any manner prohibited above.
 ---------------------------------------------------------------
  

 Cite this work as:
 Gaussian 16, Revision C.01,
 M. J. Frisch, G. W. Trucks, H. B. Schlegel, G. E. Scuseria, 
 M. A. Robb, J. R. Cheeseman, G. Scalmani, V. Barone, 
 G. A. Petersson, H. Nakatsuji, X. Li, M. Caricato, A. V. Marenich, 
 J. Bloino, B. G. Janesko, R. Gomperts, B. Mennucci, H. P. Hratchian, 
 J. V. Ortiz, A. F. Izmaylov, J. L. Sonnenberg, D. Williams-Young, 
 F. Ding, F. Lipparini, F. Egidi, J. Goings, B. Peng, A. Petrone, 
 T. Henderson, D. Ranasinghe, V. G. Zakrzewski, J. Gao, N. Rega, 
 G. Zheng, W. Liang, M. Hada, M. Ehara, K. Toyota, R. Fukuda, 
 J. Hasegawa, M. Ishida, T. Nakajima, Y. Honda, O. Kitao, H. Nakai, 
 T. Vreven, K. Throssell, J. A. Montgomery, Jr., J. E. Peralta, 
 F. Ogliaro, M. J. Bearpark, J. J. Heyd, E. N. Brothers, K. N. Kudin, 
 V. N. Staroverov, T. A. Keith, R. Kobayashi, J. Normand, 
 K. Raghavachari, A. P. Rendell, J. C. Burant, S. S. Iyengar, 
 J. Tomasi, M. Cossi, J. M. Millam, M. Klene, C. Adamo, R. Cammi, 
 J. W. Ochterski, R. L. Martin, K. Morokuma, O. Farkas, 
 J. B. Foresman, and D. J. Fox, Gaussian, Inc., Wallingford CT, 2019.
 
 ******************************************
 Gaussian 16:  ES64L-G16RevC.01  3-Jul-2019
                27-Jul-2022 
 ******************************************
 %NProcShared=32
 Will use up to   32 processors via shared memory.
 %mem = 128GB
 ---------------------------------------------------------------
 #n M062X/6-311++G(d,p) TD(NStates=1) EmpiricalDispersion=GD3 SP
 ---------------------------------------------------------------
 1/38=1,172=1/1;
 2/12=2,17=6,18=5,40=1/2;
 3/5=4,6=6,7=1111,11=9,25=1,30=1,74=-55,124=31/1,2,3,8;
 4//1;
 5/5=2,38=5/2;
 8/6=1,10=2,108=1/1;
 9/41=1,42=1,70=2/14;
 6/7=2,8=2,9=2,10=2/1;
 99/5=1,9=1/99;
 ----
 SP_0
 ----
 Symbolic Z-matrix:
 Charge =  1 Multiplicity = 1
 C                     2.50155   1.3691    0. 
 C                     3.71313   0.68625   0. 
 C                     3.6869   -0.69505   0. 
 C                     2.45143  -1.39193   0. 
 C                    -2.47483  -1.40558   0. 
 C                    -3.68     -0.71365   0. 
 C                    -3.68845   0.67568   0. 
 C                    -2.481     1.37      0. 
 C                     0.0066    1.4588    0. 
 C                    -0.0183   -1.42035   0. 
 C                     1.25925   0.67993   0. 
 C                     1.2303   -0.72143   0. 
 C                    -1.26473   0.6914    0. 
 C                    -1.2453   -0.72323   0. 
 H                     2.4896    2.45245   0. 
 H                     4.64843   1.22528   0. 
 H                     4.6069   -1.2631    0. 
 H                     2.46225  -2.47465   0. 
 H                    -0.01688  -2.50152   0. 
 H                    -2.4732   -2.48793   0. 
 H                    -4.61125  -1.26243   0. 
 H                    -4.62345   1.21665   0. 
 H                    -2.4833    2.45312   0. 
 H                     0.024     2.15375  -0.85878 
 H                     0.024     2.15375   0.85878 
 
                          Input orientation:                          
 ---------------------------------------------------------------------
 Center     Atomic      Atomic             Coordinates (Angstroms)
 Number     Number       Type             X           Y           Z
 ---------------------------------------------------------------------
      1          6           0        2.501550    1.369100    0.000000
      2          6           0        3.713125    0.686250    0.000000
      3          6           0        3.686900   -0.695050    0.000000
      4          6           0        2.451425   -1.391925    0.000000
      5          6           0       -2.474825   -1.405575    0.000000
      6          6           0       -3.680000   -0.713650    0.000000
      7          6           0       -3.688450    0.675675    0.000000
      8          6           0       -2.481000    1.370000    0.000000
      9          6           0        0.006600    1.458800    0.000000
     10          6           0       -0.018300   -1.420350    0.000000
     11          6           0        1.259250    0.679925    0.000000
     12          6           0        1.230300   -0.721425    0.000000
     13          6           0       -1.264725    0.691400    0.000000
     14          6           0       -1.245300   -0.723225    0.000000
     15          1           0        2.489600    2.452450    0.000000
     16          1           0        4.648425    1.225275    0.000000
     17          1           0        4.606900   -1.263100    0.000000
     18          1           0        2.462250   -2.474650    0.000000
     19          1           0       -0.016875   -2.501525    0.000000
     20          1           0       -2.473200   -2.487925    0.000000
     21          1           0       -4.611250   -1.262425    0.000000
     22          1           0       -4.623450    1.216650    0.000000
     23          1           0       -2.483300    2.453125    0.000000
     24          1           0        0.024000    2.153750   -0.858775
     25          1           0        0.024000    2.153750    0.858775
 ---------------------------------------------------------------------
                    Distance matrix (angstroms):
                    1          2          3          4          5
     1  C    0.000000
     2  C    1.390755   0.000000
     3  C    2.380288   1.381549   0.000000
     4  C    2.761480   2.431193   1.418462   0.000000
     5  C    5.697642   6.531957   6.202556   4.926269   0.000000
     6  C    6.522991   7.524494   7.366923   6.168827   1.389679
     7  C    6.228719   7.401583   7.501645   6.478660   2.409250
     8  C    4.982550   6.231749   6.504416   5.653056   2.775582
     9  C    2.496562   3.786180   4.264232   3.755503   3.789738
    10  C    3.759079   4.285008   3.775522   2.469889   2.456569
    11  C    1.420659   2.453883   2.789989   2.390365   4.276988
    12  C    2.446706   2.854114   2.456742   1.393096   3.767760
    13  C    3.826762   4.977853   5.142065   4.260283   2.421084
    14  C    4.291469   5.154862   4.932280   3.756719   1.406177
    15  H    1.083416   2.148599   3.367534   3.844565   6.287279
    16  H    2.151687   1.079506   2.147598   3.417096   7.593554
    17  H    3.370605   2.144481   1.081240   2.159321   7.083158
    18  H    3.843951   3.399408   2.160265   1.082779   5.051498
    19  H    4.617814   4.906609   4.120837   2.706237   2.691212
    20  H    6.294822   6.953129   6.415702   5.045111   1.082351
    21  H    7.583986   8.549418   8.317524   7.063862   2.141215
    22  H    7.126631   8.353431   8.527398   7.540459   3.390082
    23  H    5.101357   6.443410   6.926931   6.255871   3.858709
    24  H    2.737047   4.062105   4.719109   4.381974   4.432879
    25  H    2.737047   4.062105   4.719109   4.381974   4.432879
                    6          7          8          9         10
     6  C    0.000000
     7  C    1.389351   0.000000
     8  C    2.403996   1.392847   0.000000
     9  C    4.279084   3.777126   2.489184   0.000000
    10  C    3.729272   4.226502   3.721686   2.879258   0.000000
    11  C    5.132080   4.947702   3.803377   1.475052   2.458310
    12  C    4.910306   5.113315   4.260024   2.500165   1.430908
    13  C    2.794230   2.423776   1.392775   1.484981   2.452155
    14  C    2.434719   2.815298   2.430750   2.515648   1.411210
    15  H    6.934562   6.428470   5.087098   2.674440   4.613907
    16  H    8.551146   8.354971   7.130894   4.647695   5.364481
    17  H    8.305095   8.518901   7.561187   5.345231   4.627872
    18  H    6.389707   6.910547   6.262352   4.637051   2.695306
    19  H    4.076148   4.855416   4.589185   3.960395   1.081176
    20  H    2.145791   3.388982   3.857933   4.661121   2.676985
    21  H    1.080917   2.146577   3.386388   5.360000   4.595664
    22  H    2.148524   1.080222   2.147931   4.636378   5.306710
    23  H    3.385344   2.147490   1.083127   2.681098   4.591300
    24  H    4.762257   4.087112   2.761663   1.104877   3.676068
    25  H    4.762257   4.087112   2.761663   1.104877   3.676068
                   11         12         13         14         15
    11  C    0.000000
    12  C    1.401649   0.000000
    13  C    2.524001   2.867268   0.000000
    14  C    2.870819   2.475601   1.414758   0.000000
    15  H    2.157685   3.414574   4.146837   4.902488   0.000000
    16  H    3.432771   3.933601   5.937202   6.207467   2.483241
    17  H    3.870673   3.419772   6.188380   5.877049   4.276479
    18  H    3.376174   2.142778   4.890216   4.100417   4.927176
    19  H    3.427845   2.173523   3.428104   2.161337   5.551962
    20  H    4.895555   4.103222   3.401253   2.149862   7.002620
    21  H    6.183486   5.866548   3.875134   3.408864   8.013886
    22  H    5.907134   6.166241   3.399547   3.895512   7.219604
    23  H    4.141367   4.885549   2.142102   3.409082   4.972900
    24  H    2.106062   3.234082   2.129970   3.259694   2.627908
    25  H    2.106062   3.234082   2.129970   3.259694   2.627908
                   16         17         18         19         20
    16  H    0.000000
    17  H    2.488721   0.000000
    18  H    4.297535   2.463205   0.000000
    19  H    5.971102   4.786752   2.479271   0.000000
    20  H    8.031525   7.185264   4.935468   2.456363   0.000000
    21  H    9.588025   9.218150   7.176621   4.758534   2.464368
    22  H    9.271879   9.557642   7.989546   5.919912   4.283392
    23  H    7.236651   8.005077   6.981506   5.534601   4.941060
    24  H    4.794254   5.780600   5.301381   4.733999   5.340285
    25  H    4.794254   5.780600   5.301381   4.733999   5.340285
                   21         22         23         24         25
    21  H    0.000000
    22  H    2.479105   0.000000
    23  H    4.281762   2.471662   0.000000
    24  H    5.821794   4.818137   2.667147   0.000000
    25  H    5.821794   4.818137   2.667147   1.717550   0.000000
 Stoichiometry    C14H11(1+)
 Framework group  CS[SG(C14H9),X(H2)]
 Deg. of freedom    46
 Full point group                 CS      NOp   2
 Largest Abelian subgroup         CS      NOp   2
 Largest concise Abelian subgroup CS      NOp   2
                         Standard orientation:                         
 ---------------------------------------------------------------------
 Center     Atomic      Atomic             Coordinates (Angstroms)
 Number     Number       Type             X           Y           Z
 ---------------------------------------------------------------------
      1          6           0        0.023670    2.847197    0.000000
      2          6           0       -1.148900    3.595046    0.000000
      3          6           0       -2.355441    2.922041    0.000000
      4          6           0       -2.389116    1.503979    0.000000
      5          6           0       -0.083495   -2.849438    0.000000
      6          6           0        1.094071   -3.587370    0.000000
      7          6           0        2.324007   -2.941187    0.000000
      8          6           0        2.368618   -1.549054    0.000000
      9          6           0        1.276628    0.687818    0.000000
     10          6           0       -1.252261   -0.688715    0.000000
     11          6           0        0.000000    1.426735    0.000000
     12          6           0       -1.222951    0.741893    0.000000
     13          6           0        1.197587   -0.795058    0.000000
     14          6           0       -0.059838   -1.443460    0.000000
     15          1           0        0.985256    3.346339    0.000000
     16          1           0       -1.113289    4.673965    0.000000
     17          1           0       -3.289531    3.466610    0.000000
     18          1           0       -3.349622    1.004139    0.000000
     19          1           0       -2.206976   -1.196121    0.000000
     20          1           0       -1.039341   -3.357220    0.000000
     21          1           0        1.047952   -4.667302    0.000000
     22          1           0        3.241263   -3.511730    0.000000
     23          1           0        3.325465   -1.041503    0.000000
     24          1           0        1.881676    1.030127    0.858775
     25          1           0        1.881676    1.030127   -0.858775
 ---------------------------------------------------------------------
 Rotational constants (GHZ):           2.1373554           0.4447680           0.3689563
 Standard basis: 6-311++G(d,p) (5D, 7F)
 There are   299 symmetry adapted cartesian basis functions of A'  symmetry.
 There are   100 symmetry adapted cartesian basis functions of A"  symmetry.
 There are   285 symmetry adapted basis functions of A'  symmetry.
 There are   100 symmetry adapted basis functions of A"  symmetry.
   385 basis functions,   603 primitive gaussians,   399 cartesian basis functions
    47 alpha electrons       47 beta electrons
       nuclear repulsion energy       781.3493982289 Hartrees.
 NAtoms=   25 NActive=   25 NUniq=   24 SFac= 1.09D+00 NAtFMM=   60 NAOKFM=F Big=F
 Integral buffers will be    131072 words long.
 Regular integral format.
 Two-electron integral symmetry is turned on.
 Nuclear repulsion after empirical dispersion term =      781.3484188450 Hartrees.
 One-electron integrals computed using PRISM.
 NBasis=   385 RedAO= T EigKep=  1.12D-06  NBF=   285   100
 NBsUse=   379 1.00D-06 EigRej=  8.36D-07 NBFU=   279   100
 ExpMin= 3.60D-02 ExpMax= 4.56D+03 ExpMxC= 6.82D+02 IAcc=3 IRadAn=         5 AccDes= 0.00D+00
 Harris functional with IExCor= 1009 and IRadAn=       5 diagonalized for initial guess.
 HarFok:  IExCor= 1009 AccDes= 0.00D+00 IRadAn=         5 IDoV= 1 UseB2=F ITyADJ=14
 ICtDFT=  3500011 ScaDFX=  1.000000  1.000000  1.000000  1.000000
 FoFCou: FMM=F IPFlag=           0 FMFlag=      100000 FMFlg1=           0
         NFxFlg=           0 DoJE=T BraDBF=F KetDBF=T FulRan=T
         wScrn=  0.000000 ICntrl=       500 IOpCl=  0 I1Cent=   200000004 NGrid=           0
         NMat0=    1 NMatS0=      1 NMatT0=    0 NMatD0=    1 NMtDS0=    0 NMtDT0=    0
 Petite list used in FoFCou.
 Initial guess orbital symmetries:
       Occupied  (A') (A') (A') (A') (A') (A') (A') (A') (A') (A')
                 (A') (A') (A') (A') (A') (A') (A') (A') (A') (A')
                 (A') (A') (A') (A') (A') (A') (A') (A') (A') (A')
                 (A') (A') (A") (A') (A') (A') (A') (A') (A') (A")
                 (A") (A') (A') (A") (A") (A") (A")
       Virtual   (A") (A") (A") (A") (A") (A') (A') (A') (A') (A")
                 (A") (A') (A') (A') (A") (A') (A') (A') (A') (A")
                 (A') (A") (A') (A') (A') (A") (A') (A") (A') (A')
                 (A') (A') (A') (A") (A') (A') (A") (A') (A') (A")
                 (A') (A') (A') (A") (A') (A') (A') (A') (A') (A")
                 (A') (A') (A") (A") (A') (A') (A') (A") (A") (A')
                 (A') (A') (A') (A') (A') (A') (A") (A') (A') (A")
                 (A') (A') (A') (A') (A') (A') (A') (A') (A') (A')
                 (A') (A') (A') (A') (A') (A') (A') (A') (A') (A')
                 (A') (A') (A') (A') (A') (A') (A') (A") (A') (A")
                 (A') (A') (A") (A") (A') (A") (A') (A") (A') (A")
                 (A") (A') (A') (A') (A") (A') (A') (A") (A") (A')
                 (A") (A") (A') (A') (A') (A") (A') (A') (A') (A")
                 (A') (A') (A') (A') (A') (A') (A") (A') (A') (A')
                 (A') (A') (A') (A') (A') (A') (A') (A') (A') (A")
                 (A") (A') (A") (A") (A') (A') (A') (A") (A") (A')
                 (A") (A') (A") (A") (A") (A') (A') (A') (A') (A')
                 (A') (A") (A') (A") (A') (A') (A') (A') (A') (A")
                 (A') (A') (A') (A') (A") (A') (A") (A') (A") (A")
                 (A') (A") (A') (A") (A') (A') (A') (A") (A') (A')
                 (A") (A") (A") (A') (A') (A") (A') (A") (A') (A')
                 (A") (A") (A') (A") (A') (A") (A') (A') (A') (A")
                 (A') (A') (A') (A') (A") (A') (A') (A') (A") (A")
                 (A') (A') (A') (A") (A') (A') (A") (A') (A") (A')
                 (A") (A') (A') (A') (A') (A") (A') (A') (A') (A")
                 (A') (A') (A") (A') (A") (A') (A') (A") (A') (A')
                 (A') (A") (A') (A") (A') (A') (A') (A") (A') (A")
                 (A') (A') (A') (A') (A") (A') (A") (A') (A") (A')
                 (A") (A') (A") (A") (A") (A') (A') (A') (A') (A')
                 (A') (A') (A') (A') (A') (A') (A') (A') (A') (A')
                 (A') (A') (A') (A') (A") (A') (A') (A') (A') (A')
                 (A') (A') (A') (A') (A') (A') (A') (A') (A') (A')
                 (A') (A') (A') (A') (A') (A') (A') (A') (A') (A')
                 (A') (A')
 The electronic state of the initial guess is 1-A'.
 Requested convergence on RMS density matrix=1.00D-08 within 128 cycles.
 Requested convergence on MAX density matrix=1.00D-06.
 Requested convergence on             energy=1.00D-06.
 No special actions if energy rises.
 SCF Done:  E(RM062X) =  -539.759182285     A.U. after   15 cycles
            NFock= 15  Conv=0.67D-08     -V/T= 2.0042
 DoSCS=F DFT=T ScalE2(SS,OS)=  1.000000  1.000000
 ExpMin= 3.60D-02 ExpMax= 4.56D+03 ExpMxC= 6.82D+02 IAcc=3 IRadAn=         5 AccDes= 0.00D+00
 HarFok:  IExCor=  205 AccDes= 0.00D+00 IRadAn=         5 IDoV=-2 UseB2=F ITyADJ=14
 ICtDFT= 12500011 ScaDFX=  1.000000  1.000000  1.000000  1.000000
 Range of M.O.s used for correlation:    15   379
 NBasis=   385 NAE=    47 NBE=    47 NFC=    14 NFV=     0
 NROrb=    365 NOA=    33 NOB=    33 NVA=   332 NVB=   332

 **** Warning!!: The largest alpha MO coefficient is  0.14319511D+03

 Orbital symmetries:
       Occupied  (A') (A') (A') (A') (A') (A') (A') (A') (A') (A')
                 (A') (A') (A') (A') (A') (A') (A') (A') (A') (A')
                 (A') (A') (A') (A') (A') (A') (A') (A') (A') (A')
                 (A') (A') (A") (A') (A') (A') (A') (A") (A") (A')
                 (A') (A') (A') (A") (A") (A") (A")
       Virtual   (A") (A") (A") (A") (A') (A') (A') (A') (A") (A')
                 (A') (A") (A') (A') (A") (A') (A") (A') (A') (A')
                 (A") (A") (A') (A') (A') (A") (A') (A") (A') (A')
                 (A") (A') (A") (A') (A') (A') (A') (A') (A") (A')
                 (A") (A') (A') (A") (A") (A') (A") (A') (A") (A')
                 (A') (A') (A') (A') (A') (A") (A') (A') (A') (A')
                 (A') (A") (A') (A') (A') (A") (A') (A') (A') (A')
                 (A') (A') (A') (A') (A') (A') (A') (A') (A') (A')
                 (A') (A') (A') (A') (A') (A') (A') (A') (A') (A')
                 (A') (A') (A') (A') (A") (A') (A") (A") (A') (A")
                 (A') (A') (A') (A') (A") (A") (A') (A") (A") (A')
                 (A') (A') (A") (A') (A') (A") (A') (A") (A') (A")
                 (A") (A') (A") (A') (A') (A') (A") (A') (A') (A')
                 (A') (A') (A') (A') (A') (A') (A') (A') (A') (A')
                 (A') (A') (A') (A") (A') (A') (A') (A') (A') (A')
                 (A') (A') (A") (A') (A") (A') (A") (A") (A') (A")
                 (A") (A') (A') (A") (A") (A") (A') (A") (A') (A')
                 (A') (A') (A') (A") (A") (A') (A') (A') (A') (A")
                 (A') (A') (A') (A") (A') (A") (A') (A') (A") (A")
                 (A") (A') (A') (A") (A') (A") (A') (A') (A') (A')
                 (A") (A") (A") (A') (A") (A') (A') (A") (A') (A')
                 (A') (A") (A') (A") (A") (A') (A") (A') (A') (A")
                 (A') (A') (A') (A') (A") (A') (A') (A') (A") (A")
                 (A') (A') (A') (A") (A') (A') (A') (A") (A") (A')
                 (A") (A') (A') (A") (A') (A') (A') (A') (A') (A')
                 (A") (A') (A') (A') (A') (A") (A") (A") (A') (A')
                 (A') (A') (A') (A') (A') (A') (A") (A') (A') (A')
                 (A') (A") (A') (A") (A") (A") (A') (A") (A') (A")
                 (A') (A") (A") (A') (A") (A") (A') (A') (A') (A')
                 (A') (A') (A') (A') (A') (A') (A') (A') (A') (A')
                 (A') (A') (A') (A") (A') (A') (A') (A') (A') (A')
                 (A') (A') (A') (A') (A') (A') (A') (A') (A') (A')
                 (A') (A') (A') (A') (A') (A') (A') (A') (A') (A')
                 (A') (A')
     4 initial guesses have been made.
 Convergence on wavefunction:    0.001000000000000
 Iteration     1 Dimension     4 NMult     0 NNew      4
 CISAX will form     4 AO SS matrices at one time.
 Iteration     2 Dimension     6 NMult     4 NNew      2
 Iteration     3 Dimension     8 NMult     6 NNew      2
 Iteration     4 Dimension    10 NMult     8 NNew      2
 Iteration     5 Dimension    12 NMult    10 NNew      2
 Iteration     6 Dimension    14 NMult    12 NNew      2
 ***********************************************************************
 Excited states from <AA,BB:AA,BB> singles matrix:
 ***********************************************************************
 
 Ground to excited state transition densities written to RWF  633
 Ground to excited state transition electric dipole moments (Au):
       state          X           Y           Z        Dip. S.      Osc.
         1         0.5389      0.3087     -0.0000      0.3857      0.0264
 Ground to excited state transition velocity dipole moments (Au):
       state          X           Y           Z        Dip. S.      Osc.
         1        -0.0629     -0.0334     -0.0000      0.0051      0.0329
 Ground to excited state transition magnetic dipole moments (Au):
       state          X           Y           Z
         1         0.0000      0.0000      0.1142
 Ground to excited state transition velocity quadrupole moments (Au):
       state          XX          YY          ZZ          XY          XZ          YZ
         1         0.1289      0.1856     -0.0094     -0.1314      0.0000     -0.0000
 <0|del|b> * <b|rxdel|0> + <0|del|b> * <b|delr+rdel|0>
 Rotatory Strengths (R) in cgs (10**-40 erg-esu-cm/Gauss)
       state          XX          YY          ZZ    R(velocity)    E-M Angle
         1         0.0000     -0.0000     -0.0000     -0.0000       90.00
 1/2[<0|r|b>*<b|rxdel|0> + (<0|rxdel|b>*<b|r|0>)*]
 Rotatory Strengths (R) in cgs (10**-40 erg-esu-cm/Gauss)
       state          XX          YY          ZZ     R(length)
         1        -0.0000     -0.0000      0.0000      0.0000
  1/2[<0|del|b>*<b|r|0> + (<0|r|b>*<b|del|0>)*] (Au)
       state          X           Y           Z        Dip. S.   Osc.(frdel)
         1        -0.0339     -0.0103      0.0000      0.0442      0.0295

 Excitation energies and oscillator strengths:
 
 Excited State   1:      Singlet-A'     2.7920 eV  444.07 nm  f=0.0264  <S**2>=0.000
      47 -> 48         0.70395
 This state for optimization and/or second-order correction.
 Total Energy, E(TD-HF/TD-DFT) =  -539.656577654    
 Copying the excited state density for this state as the 1-particle RhoCI density.
 SavETr:  write IOETrn=   770 NScale= 10 NData=  16 NLR=1 NState=    1 LETran=      28.

 **********************************************************************

            Population analysis using the SCF Density.

 **********************************************************************

 Orbital symmetries:
       Occupied  (A') (A') (A') (A') (A') (A') (A') (A') (A') (A')
                 (A') (A') (A') (A') (A') (A') (A') (A') (A') (A')
                 (A') (A') (A') (A') (A') (A') (A') (A') (A') (A')
                 (A') (A') (A") (A') (A') (A') (A') (A") (A") (A')
                 (A') (A') (A') (A") (A") (A") (A")
       Virtual   (A") (A") (A") (A") (A') (A') (A') (A') (A") (A')
                 (A') (A") (A') (A') (A") (A') (A") (A') (A') (A')
                 (A") (A") (A') (A') (A') (A") (A') (A") (A') (A')
                 (A") (A') (A") (A') (A') (A') (A') (A') (A") (A')
                 (A") (A') (A') (A") (A") (A') (A") (A') (A") (A')
                 (A') (A') (A') (A') (A') (A") (A') (A') (A') (A')
                 (A') (A") (A') (A') (A') (A") (A') (A') (A') (A')
                 (A') (A') (A') (A') (A') (A') (A') (A') (A') (A')
                 (A') (A') (A') (A') (A') (A') (A') (A') (A') (A')
                 (A') (A') (A') (A') (A") (A') (A") (A") (A') (A")
                 (A') (A') (A') (A') (A") (A") (A') (A") (A") (A')
                 (A') (A') (A") (A') (A') (A") (A') (A") (A') (A")
                 (A") (A') (A") (A') (A') (A') (A") (A') (A') (A')
                 (A') (A') (A') (A') (A') (A') (A') (A') (A') (A')
                 (A') (A') (A') (A") (A') (A') (A') (A') (A') (A')
                 (A') (A') (A") (A') (A") (A') (A") (A") (A') (A")
                 (A") (A') (A') (A") (A") (A") (A') (A") (A') (A')
                 (A') (A') (A') (A") (A") (A') (A') (A') (A') (A")
                 (A') (A') (A') (A") (A') (A") (A') (A') (A") (A")
                 (A") (A') (A') (A") (A') (A") (A') (A') (A') (A')
                 (A") (A") (A") (A') (A") (A') (A') (A") (A') (A')
                 (A') (A") (A') (A") (A") (A') (A") (A') (A') (A")
                 (A') (A') (A') (A') (A") (A') (A') (A') (A") (A")
                 (A') (A') (A') (A") (A') (A') (A') (A") (A") (A')
                 (A") (A') (A') (A") (A') (A') (A') (A') (A') (A')
                 (A") (A') (A') (A') (A') (A") (A") (A") (A') (A')
                 (A') (A') (A') (A') (A') (A') (A") (A') (A') (A')
                 (A') (A") (A') (A") (A") (A") (A') (A") (A') (A")
                 (A') (A") (A") (A') (A") (A") (A') (A') (A') (A')
                 (A') (A') (A') (A') (A') (A') (A') (A') (A') (A')
                 (A') (A') (A') (A") (A') (A') (A') (A') (A') (A')
                 (A') (A') (A') (A') (A') (A') (A') (A') (A') (A')
                 (A') (A') (A') (A') (A') (A') (A') (A') (A') (A')
                 (A') (A')
 The electronic state is 1-A'.
 Alpha  occ. eigenvalues --  -10.77648 -10.73435 -10.73003 -10.72598 -10.72248
 Alpha  occ. eigenvalues --  -10.71569 -10.71399 -10.71157 -10.70970 -10.70627
 Alpha  occ. eigenvalues --  -10.70069 -10.69874 -10.69748 -10.69501  -1.16477
 Alpha  occ. eigenvalues --   -1.12480  -1.06944  -1.05779  -1.01310  -1.00245
 Alpha  occ. eigenvalues --   -0.95743  -0.91060  -0.86425  -0.85906  -0.83817
 Alpha  occ. eigenvalues --   -0.78392  -0.76063  -0.74412  -0.69592  -0.69262
 Alpha  occ. eigenvalues --   -0.68476  -0.68179  -0.68093  -0.64850  -0.64276
 Alpha  occ. eigenvalues --   -0.63025  -0.61828  -0.60106  -0.59567  -0.59099
 Alpha  occ. eigenvalues --   -0.56915  -0.55228  -0.54796  -0.52436  -0.46757
 Alpha  occ. eigenvalues --   -0.46077  -0.44355
 Alpha virt. eigenvalues --   -0.26083  -0.14671  -0.14093  -0.12771  -0.11181
 Alpha virt. eigenvalues --   -0.10090  -0.09235  -0.07979  -0.07959  -0.07478
 Alpha virt. eigenvalues --   -0.07207  -0.07145  -0.05642  -0.05582  -0.05337
 Alpha virt. eigenvalues --   -0.03831  -0.03650  -0.03279  -0.03132  -0.02163
 Alpha virt. eigenvalues --   -0.01366  -0.00935   0.00188   0.00593   0.00670
 Alpha virt. eigenvalues --    0.01059   0.01510   0.01936   0.02205   0.02287
 Alpha virt. eigenvalues --    0.02450   0.02672   0.02756   0.03274   0.03389
 Alpha virt. eigenvalues --    0.04236   0.04506   0.04698   0.05030   0.05369
 Alpha virt. eigenvalues --    0.06029   0.06298   0.06595   0.07052   0.07254
 Alpha virt. eigenvalues --    0.07896   0.08152   0.08365   0.08564   0.08925
 Alpha virt. eigenvalues --    0.09533   0.09573   0.10034   0.10872   0.11038
 Alpha virt. eigenvalues --    0.11115   0.12167   0.12250   0.12869   0.13007
 Alpha virt. eigenvalues --    0.13424   0.13523   0.14017   0.14368   0.16138
 Alpha virt. eigenvalues --    0.16331   0.16390   0.17344   0.17603   0.17796
 Alpha virt. eigenvalues --    0.18128   0.19055   0.19269   0.19638   0.19777
 Alpha virt. eigenvalues --    0.21552   0.21620   0.22722   0.23123   0.23568
 Alpha virt. eigenvalues --    0.23802   0.24552   0.25303   0.26924   0.27613
 Alpha virt. eigenvalues --    0.28860   0.29296   0.29887   0.31367   0.35835
 Alpha virt. eigenvalues --    0.36451   0.38186   0.39280   0.41146   0.41384
 Alpha virt. eigenvalues --    0.41985   0.42172   0.42982   0.43702   0.44312
 Alpha virt. eigenvalues --    0.44896   0.45071   0.46033   0.46244   0.47916
 Alpha virt. eigenvalues --    0.48510   0.48868   0.49020   0.50447   0.51199
 Alpha virt. eigenvalues --    0.51495   0.51833   0.52118   0.52898   0.54005
 Alpha virt. eigenvalues --    0.54093   0.54659   0.55673   0.55793   0.57428
 Alpha virt. eigenvalues --    0.58239   0.58840   0.61459   0.62186   0.62363
 Alpha virt. eigenvalues --    0.63211   0.63491   0.64997   0.65160   0.67342
 Alpha virt. eigenvalues --    0.70391   0.70554   0.71071   0.72437   0.72885
 Alpha virt. eigenvalues --    0.75726   0.76036   0.76326   0.76869   0.77106
 Alpha virt. eigenvalues --    0.77854   0.77920   0.78262   0.79878   0.80400
 Alpha virt. eigenvalues --    0.81261   0.81612   0.82190   0.83015   0.85212
 Alpha virt. eigenvalues --    0.87155   0.88202   0.88536   0.89150   0.90466
 Alpha virt. eigenvalues --    0.91112   0.91279   0.93211   0.94633   0.96412
 Alpha virt. eigenvalues --    0.96710   1.00354   1.01297   1.01655   1.02738
 Alpha virt. eigenvalues --    1.03212   1.03635   1.04762   1.05640   1.08803
 Alpha virt. eigenvalues --    1.19572   1.23204   1.24096   1.25093   1.28256
 Alpha virt. eigenvalues --    1.29593   1.31880   1.34271   1.35780   1.36001
 Alpha virt. eigenvalues --    1.39370   1.40078   1.40950   1.42974   1.43514
 Alpha virt. eigenvalues --    1.43519   1.44706   1.45932   1.46376   1.46669
 Alpha virt. eigenvalues --    1.47650   1.48061   1.51772   1.53637   1.55806
 Alpha virt. eigenvalues --    1.55888   1.56344   1.56567   1.57805   1.61477
 Alpha virt. eigenvalues --    1.63200   1.63400   1.63882   1.66126   1.68346
 Alpha virt. eigenvalues --    1.68350   1.68677   1.69737   1.74423   1.76006
 Alpha virt. eigenvalues --    1.77201   1.78055   1.80055   1.80134   1.80756
 Alpha virt. eigenvalues --    1.83110   1.83202   1.83642   1.83832   1.84152
 Alpha virt. eigenvalues --    1.84337   1.85739   1.86189   1.88257   1.91403
 Alpha virt. eigenvalues --    1.92105   1.94131   1.95242   1.97715   1.98170
 Alpha virt. eigenvalues --    1.99773   2.02539   2.04464   2.07268   2.11808
 Alpha virt. eigenvalues --    2.12101   2.14139   2.15226   2.19140   2.21301
 Alpha virt. eigenvalues --    2.22787   2.28551   2.30289   2.34658   2.34943
 Alpha virt. eigenvalues --    2.36248   2.38668   2.39609   2.42379   2.44498
 Alpha virt. eigenvalues --    2.46173   2.46652   2.49358   2.52938   2.53813
 Alpha virt. eigenvalues --    2.54328   2.56739   2.57860   2.58320   2.59600
 Alpha virt. eigenvalues --    2.59857   2.61605   2.62156   2.63559   2.63811
 Alpha virt. eigenvalues --    2.64795   2.65125   2.65170   2.65420   2.68028
 Alpha virt. eigenvalues --    2.68571   2.70964   2.71425   2.73355   2.74825
 Alpha virt. eigenvalues --    2.76299   2.78828   2.79728   2.82993   2.83098
 Alpha virt. eigenvalues --    2.84898   2.86328   2.92130   2.97005   2.99507
 Alpha virt. eigenvalues --    3.00096   3.05253   3.10809   3.11468   3.13387
 Alpha virt. eigenvalues --    3.21028   3.23643   3.26757   3.28405   3.30686
 Alpha virt. eigenvalues --    3.32806   3.33871   3.43497   3.45972   3.46737
 Alpha virt. eigenvalues --    3.48584   3.50196   3.56548   3.65496   3.66976
 Alpha virt. eigenvalues --    3.67542   3.94130   3.94394   3.95260   3.96280
 Alpha virt. eigenvalues --    4.04009   4.06851   4.07592   4.12536   4.35604
 Alpha virt. eigenvalues --    4.61522   4.69772   4.71588  23.45315  23.60499
 Alpha virt. eigenvalues --   23.81912  23.85033  23.87422  23.89193  23.90796
 Alpha virt. eigenvalues --   23.93336  23.97044  23.98486  24.00805  24.02086
 Alpha virt. eigenvalues --   24.10675  24.11105
          Condensed to atoms (all electrons):
               1          2          3          4          5          6
     1  C    8.686067   0.245265  -0.498198   2.043007  -0.035970  -0.099585
     2  C    0.245265   7.112413   0.324458  -1.096262  -0.011300  -0.014260
     3  C   -0.498198   0.324458   6.583794   0.777772  -0.127955   0.016921
     4  C    2.043007  -1.096262   0.777772  10.773522  -0.338384  -0.117064
     5  C   -0.035970  -0.011300  -0.127955  -0.338384  11.103448   0.733172
     6  C   -0.099585  -0.014260   0.016921  -0.117064   0.733172   6.592223
     7  C   -0.015043   0.002349  -0.015176  -0.032701  -1.009928   0.395696
     8  C    0.405996  -0.028066  -0.090450  -0.003871   1.820995  -0.603816
     9  C   -1.199266  -0.774633   0.289370  -0.332621  -0.144325   0.290507
    10  C   -1.304469   0.282604  -0.391853  -2.485971  -2.651164  -0.319261
    11  C    0.275689  -0.967373   1.063820  -0.260237  -1.538740  -0.199710
    12  C   -2.153144   1.471737  -1.420413  -1.543751  -0.382420  -0.166015
    13  C    0.200591  -0.261676  -0.151285  -1.465943  -0.250889   0.966163
    14  C   -1.050416  -0.155330  -0.235080  -0.276192  -1.537576  -1.352962
    15  H    0.366872  -0.105165  -0.000736   0.027982   0.005479   0.001045
    16  H   -0.018639   0.376335  -0.014194   0.012151  -0.001479  -0.000316
    17  H   -0.026673  -0.013491   0.371860  -0.066590   0.000396   0.000391
    18  H    0.050877   0.002697  -0.084823   0.453732   0.006854  -0.005086
    19  H   -0.047834  -0.007396   0.051006  -0.066570  -0.074544   0.050809
    20  H    0.007368   0.002009  -0.004972   0.006935   0.458536  -0.084702
    21  H   -0.001357  -0.000388   0.000402   0.000230  -0.067938   0.377267
    22  H    0.000837   0.000378  -0.000340  -0.001615   0.015179  -0.018329
    23  H    0.005478  -0.002804   0.001157   0.006201   0.025895  -0.002534
    24  H    0.030085   0.013731  -0.001608  -0.012701  -0.011920  -0.001401
    25  H    0.030085   0.013731  -0.001608  -0.012701  -0.011920  -0.001401
               7          8          9         10         11         12
     1  C   -0.015043   0.405996  -1.199266  -1.304469   0.275689  -2.153144
     2  C    0.002349  -0.028066  -0.774633   0.282604  -0.967373   1.471737
     3  C   -0.015176  -0.090450   0.289370  -0.391853   1.063820  -1.420413
     4  C   -0.032701  -0.003871  -0.332621  -2.485971  -0.260237  -1.543751
     5  C   -1.009928   1.820995  -0.144325  -2.651164  -1.538740  -0.382420
     6  C    0.395696  -0.603816   0.290507  -0.319261  -0.199710  -0.166015
     7  C    7.115439   0.456013  -0.810086   0.202368  -0.225545  -0.244259
     8  C    0.456013   8.458674  -1.213446  -1.220887   0.175557  -1.101474
     9  C   -0.810086  -1.213446   9.631452   0.254544   1.642151  -1.887897
    10  C    0.202368  -1.220887   0.254544   9.204252  -0.535564   2.451177
    11  C   -0.225545   0.175557   1.642151  -0.535564  14.528339  -3.649504
    12  C   -0.244259  -1.101474  -1.887897   2.451177  -3.649504  15.998161
    13  C   -0.882174   0.283463   1.708429  -0.458221   1.088056  -4.850400
    14  C    1.186553  -1.831508  -2.046290   2.411775  -4.809939   3.028827
    15  H   -0.002570   0.006236   0.093435  -0.010359  -0.031237  -0.029353
    16  H    0.000344   0.000564   0.004329  -0.009129   0.028162  -0.034967
    17  H   -0.000408  -0.001286  -0.006206   0.020762  -0.028414   0.093994
    18  H    0.001989   0.007280  -0.025824   0.015702  -0.006836  -0.056981
    19  H   -0.007794  -0.045534   0.075959   0.422188   0.079557  -0.056706
    20  H    0.003205   0.048074  -0.024390   0.012860  -0.011957  -0.016042
    21  H   -0.019461  -0.021391  -0.005467   0.020405  -0.006331   0.005236
    22  H    0.380026  -0.019911   0.003468  -0.010096   0.003261  -0.009673
    23  H   -0.104211   0.365648   0.090007  -0.008857  -0.000616   0.007110
    24  H    0.014998   0.034413   0.357171   0.005511   0.008557  -0.060136
    25  H    0.014998   0.034413   0.357171   0.005511   0.008557  -0.060136
              13         14         15         16         17         18
     1  C    0.200591  -1.050416   0.366872  -0.018639  -0.026673   0.050877
     2  C   -0.261676  -0.155330  -0.105165   0.376335  -0.013491   0.002697
     3  C   -0.151285  -0.235080  -0.000736  -0.014194   0.371860  -0.084823
     4  C   -1.465943  -0.276192   0.027982   0.012151  -0.066590   0.453732
     5  C   -0.250889  -1.537576   0.005479  -0.001479   0.000396   0.006854
     6  C    0.966163  -1.352962   0.001045  -0.000316   0.000391  -0.005086
     7  C   -0.882174   1.186553  -0.002570   0.000344  -0.000408   0.001989
     8  C    0.283463  -1.831508   0.006236   0.000564  -0.001286   0.007280
     9  C    1.708429  -2.046290   0.093435   0.004329  -0.006206  -0.025824
    10  C   -0.458221   2.411775  -0.010359  -0.009129   0.020762   0.015702
    11  C    1.088056  -4.809939  -0.031237   0.028162  -0.028414  -0.006836
    12  C   -4.850400   3.028827  -0.029353  -0.034967   0.093994  -0.056981
    13  C   14.602270  -3.944756   0.003731   0.002911  -0.006337  -0.011868
    14  C   -3.944756  16.137877   0.006082  -0.008550   0.005347  -0.010632
    15  H    0.003731   0.006082   0.440957  -0.008961   0.001371   0.000150
    16  H    0.002911  -0.008550  -0.008961   0.420610  -0.006392   0.001897
    17  H   -0.006337   0.005347   0.001371  -0.006392   0.423479  -0.010284
    18  H   -0.011868  -0.010632   0.000150   0.001897  -0.010284   0.455535
    19  H    0.076747  -0.074115   0.000258  -0.000507   0.001282  -0.006380
    20  H   -0.009488  -0.049372  -0.000106   0.000013  -0.000132   0.001276
    21  H   -0.027239   0.088709   0.000012  -0.000007   0.000010  -0.000152
    22  H    0.027635  -0.033540  -0.000128   0.000007  -0.000007   0.000016
    23  H   -0.029407  -0.019511   0.000592  -0.000125   0.000015  -0.000117
    24  H    0.018271  -0.059646  -0.000887   0.000631  -0.000145   0.000195
    25  H    0.018271  -0.059646  -0.000887   0.000631  -0.000145   0.000195
              19         20         21         22         23         24
     1  C   -0.047834   0.007368  -0.001357   0.000837   0.005478   0.030085
     2  C   -0.007396   0.002009  -0.000388   0.000378  -0.002804   0.013731
     3  C    0.051006  -0.004972   0.000402  -0.000340   0.001157  -0.001608
     4  C   -0.066570   0.006935   0.000230  -0.001615   0.006201  -0.012701
     5  C   -0.074544   0.458536  -0.067938   0.015179   0.025895  -0.011920
     6  C    0.050809  -0.084702   0.377267  -0.018329  -0.002534  -0.001401
     7  C   -0.007794   0.003205  -0.019461   0.380026  -0.104211   0.014998
     8  C   -0.045534   0.048074  -0.021391  -0.019911   0.365648   0.034413
     9  C    0.075959  -0.024390  -0.005467   0.003468   0.090007   0.357171
    10  C    0.422188   0.012860   0.020405  -0.010096  -0.008857   0.005511
    11  C    0.079557  -0.011957  -0.006331   0.003261  -0.000616   0.008557
    12  C   -0.056706  -0.016042   0.005236  -0.009673   0.007110  -0.060136
    13  C    0.076747  -0.009488  -0.027239   0.027635  -0.029407   0.018271
    14  C   -0.074115  -0.049372   0.088709  -0.033540  -0.019511  -0.059646
    15  H    0.000258  -0.000106   0.000012  -0.000128   0.000592  -0.000887
    16  H   -0.000507   0.000013  -0.000007   0.000007  -0.000125   0.000631
    17  H    0.001282  -0.000132   0.000010  -0.000007   0.000015  -0.000145
    18  H   -0.006380   0.001276  -0.000152   0.000016  -0.000117   0.000195
    19  H    0.442797  -0.005932   0.001532  -0.000561   0.000342   0.000610
    20  H   -0.005932   0.451044  -0.010118   0.001933   0.000224   0.000160
    21  H    0.001532  -0.010118   0.421320  -0.006849   0.001551  -0.000138
    22  H   -0.000561   0.001933  -0.006849   0.417933  -0.008946   0.000627
    23  H    0.000342   0.000224   0.001551  -0.008946   0.436603  -0.000908
    24  H    0.000610   0.000160  -0.000138   0.000627  -0.000908   0.494313
    25  H    0.000610   0.000160  -0.000138   0.000627  -0.000908  -0.080201
              25
     1  C    0.030085
     2  C    0.013731
     3  C   -0.001608
     4  C   -0.012701
     5  C   -0.011920
     6  C   -0.001401
     7  C    0.014998
     8  C    0.034413
     9  C    0.357171
    10  C    0.005511
    11  C    0.008557
    12  C   -0.060136
    13  C    0.018271
    14  C   -0.059646
    15  H   -0.000887
    16  H    0.000631
    17  H   -0.000145
    18  H    0.000195
    19  H    0.000610
    20  H    0.000160
    21  H   -0.000138
    22  H    0.000627
    23  H   -0.000908
    24  H   -0.080201
    25  H    0.494313
 Mulliken charges:
               1
     1  C    0.102378
     2  C   -0.409562
     3  C   -0.441866
     4  C    0.011642
     5  C    0.026498
     6  C   -0.437752
     7  C   -0.404621
     8  C    0.084313
     9  C   -0.327541
    10  C    0.096172
    11  C   -0.629703
    12  C    0.667027
    13  C   -0.646855
    14  C    0.689892
    15  H    0.236189
    16  H    0.254682
    17  H    0.247605
    18  H    0.220587
    19  H    0.190176
    20  H    0.223414
    21  H    0.250299
    22  H    0.258066
    23  H    0.238122
    24  H    0.250419
    25  H    0.250419
 Sum of Mulliken charges =   1.00000
 Mulliken charges with hydrogens summed into heavy atoms:
               1
     1  C    0.338566
     2  C   -0.154880
     3  C   -0.194261
     4  C    0.232229
     5  C    0.249912
     6  C   -0.187452
     7  C   -0.146555
     8  C    0.322436
     9  C    0.173297
    10  C    0.286347
    11  C   -0.629703
    12  C    0.667027
    13  C   -0.646855
    14  C    0.689892
 Electronic spatial extent (au):  <R**2>=           2854.9843
 Charge=              1.0000 electrons
 Dipole moment (field-independent basis, Debye):
    X=              0.0363    Y=             -0.4565    Z=             -0.0000  Tot=              0.4579
 Quadrupole moment (field-independent basis, Debye-Ang):
   XX=            -50.8638   YY=            -36.5141   ZZ=            -84.1397
   XY=            -10.3245   XZ=             -0.0000   YZ=              0.0000
 Traceless Quadrupole moment (field-independent basis, Debye-Ang):
   XX=              6.3088   YY=             20.6584   ZZ=            -26.9672
   XY=            -10.3245   XZ=             -0.0000   YZ=              0.0000
 Octapole moment (field-independent basis, Debye-Ang**2):
  XXX=              1.0914  YYY=              1.5557  ZZZ=              0.0000  XYY=              1.4544
  XXY=             -6.3230  XXZ=             -0.0000  XZZ=              3.0008  YZZ=              0.9096
  YYZ=             -0.0000  XYZ=              0.0000
 Hexadecapole moment (field-independent basis, Debye-Ang**3):
 XXXX=           -993.7932 YYYY=          -1844.2859 ZZZZ=            -99.3189 XXXY=            349.4192
 XXXZ=              0.0000 YYYX=            276.3105 YYYZ=              0.0000 ZZZX=             -0.0000
 ZZZY=             -0.0000 XXYY=           -453.9320 XXZZ=           -243.0045 YYZZ=           -493.1986
 XXYZ=              0.0000 YYXZ=             -0.0000 ZZXY=            183.9204
 N-N= 7.813484188450D+02 E-N=-2.799045750721D+03  KE= 5.375171780636D+02
 Symmetry A'   KE= 5.228689793821D+02
 Symmetry A"   KE= 1.464819868160D+01
 Unable to Open any file for archive entry.
 1\1\GINC-GADI-CPU-CLX-0648\SP\RM062X TD-FC\6-311++G(d,p)\C14H11(1+)\TS
 1578\27-Jul-2022\0\\#n M062X/6-311++G(d,p) TD(NStates=1) EmpiricalDisp
 ersion=GD3 SP\\SP_0\\1,1\C,0,2.50155,1.3691,0.\C,0,3.713125,0.68625,0.
 \C,0,3.6869,-0.69505,0.\C,0,2.451425,-1.391925,0.\C,0,-2.474825,-1.405
 575,0.\C,0,-3.68,-0.71365,0.\C,0,-3.68845,0.675675,0.\C,0,-2.481,1.37,
 0.\C,0,0.0066,1.4588,0.\C,0,-0.0183,-1.42035,0.\C,0,1.25925,0.679925,0
 .\C,0,1.2303,-0.721425,0.\C,0,-1.264725,0.6914,0.\C,0,-1.2453,-0.72322
 5,0.\H,0,2.4896,2.45245,0.\H,0,4.648425,1.225275,0.\H,0,4.6069,-1.2631
 ,0.\H,0,2.46225,-2.47465,0.\H,0,-0.016875,-2.501525,0.\H,0,-2.4732,-2.
 487925,0.\H,0,-4.61125,-1.262425,0.\H,0,-4.62345,1.21665,0.\H,0,-2.483
 3,2.453125,0.\H,0,0.024,2.15375,-0.858775\H,0,0.024,2.15375,0.858775\\
 Version=ES64L-G16RevC.01\State=1-A'\HF=-539.7591823\RMSD=6.728e-09\PG=
 CS [SG(C14H9),X(H2)]\\@
 The archive entry for this job was punched.


 I MET A TRAVELLER FROM AN ANTIQUE LAND
 WHO SAID... TWO VAST AND TRUNKLESS LEGS OF STONE
 STAND IN THE DESERT..... NEAR THEM,  ON THE SAND,
 HALF SUNK,  A SHATTERED VISAGE LIES,  WHOSE FROWN,
 AND WRINKLED LIP,  AND SNEER OF COLD COMMAND
 TELL THAT ITS SCULPTOR WELL THOSE PASSIONS READ
 WHICH YET SURVIVE,  STAMPED ON THESE LIFELESS THINGS
 THE HAND THAT MOCKED THEM,  AND THE HEART THAT FED-
 AND ON THE PEDESTAL THESE WORDS APPEAR 
 MY NAME IS OZYMANDIAS, KING OF KINGS--   
 LOOK ON MY WORKS YE MIGHTY AND DESPAIR. 
 NOTHING BESIDE REMAINS,  ROUND THE DECAY 
 OF THAT COLOSSAL WRECK,  BOUNDLESS AND BARE
 THE LONE AND LEVEL SANDS STRETCH FAR AWAY.
                                    SHELLEY
 Job cpu time:       0 days  0 hours 47 minutes  3.2 seconds.
 Elapsed time:       0 days  0 hours  1 minutes 31.0 seconds.
 File lengths (MBytes):  RWF=    460 Int=      0 D2E=      0 Chk=     15 Scr=      1
 Normal termination of Gaussian 16 at Wed Jul 27 11:14:49 2022.
