 Entering Gaussian System, Link 0=g16
 Initial command:
 /apps/gaussian/g16c01/g16/l1.exe "/jobfs/52804872.gadi-pbs/Gau-1712338.inp" -scrdir="/jobfs/52804872.gadi-pbs/"
 Entering Link 1 = /apps/gaussian/g16c01/g16/l1.exe PID=   1712339.
  
 Copyright (c) 1988-2019, Gaussian, Inc.  All Rights Reserved.
  
 This is part of the Gaussian(R) 16 program.  It is based on
 the Gaussian(R) 09 system (copyright 2009, Gaussian, Inc.),
 the Gaussian(R) 03 system (copyright 2003, Gaussian, Inc.),
 the Gaussian(R) 98 system (copyright 1998, Gaussian, Inc.),
 the Gaussian(R) 94 system (copyright 1995, Gaussian, Inc.),
 the Gaussian 92(TM) system (copyright 1992, Gaussian, Inc.),
 the Gaussian 90(TM) system (copyright 1990, Gaussian, Inc.),
 the Gaussian 88(TM) system (copyright 1988, Gaussian, Inc.),
 the Gaussian 86(TM) system (copyright 1986, Carnegie Mellon
 University), and the Gaussian 82(TM) system (copyright 1983,
 Carnegie Mellon University). Gaussian is a federally registered
 trademark of Gaussian, Inc.
  
 This software contains proprietary and confidential information,
 including trade secrets, belonging to Gaussian, Inc.
  
 This software is provided under written license and may be
 used, copied, transmitted, or stored only in accord with that
 written license.
  
 The following legend is applicable only to US Government
 contracts under FAR:
  
                    RESTRICTED RIGHTS LEGEND
  
 Use, reproduction and disclosure by the US Government is
 subject to restrictions as set forth in subparagraphs (a)
 and (c) of the Commercial Computer Software - Restricted
 Rights clause in FAR 52.227-19.
  
 Gaussian, Inc.
 340 Quinnipiac St., Bldg. 40, Wallingford CT 06492
  
  
 ---------------------------------------------------------------
 Warning -- This program may not be used in any manner that
 competes with the business of Gaussian, Inc. or will provide
 assistance to any competitor of Gaussian, Inc.  The licensee
 of this program is prohibited from giving any competitor of
 Gaussian, Inc. access to this program.  By using this program,
 the user acknowledges that Gaussian, Inc. is engaged in the
 business of creating and licensing software in the field of
 computational chemistry and represents and warrants to the
 licensee that it is not a competitor of Gaussian, Inc. and that
 it will not use this program in any manner prohibited above.
 ---------------------------------------------------------------
  

 Cite this work as:
 Gaussian 16, Revision C.01,
 M. J. Frisch, G. W. Trucks, H. B. Schlegel, G. E. Scuseria, 
 M. A. Robb, J. R. Cheeseman, G. Scalmani, V. Barone, 
 G. A. Petersson, H. Nakatsuji, X. Li, M. Caricato, A. V. Marenich, 
 J. Bloino, B. G. Janesko, R. Gomperts, B. Mennucci, H. P. Hratchian, 
 J. V. Ortiz, A. F. Izmaylov, J. L. Sonnenberg, D. Williams-Young, 
 F. Ding, F. Lipparini, F. Egidi, J. Goings, B. Peng, A. Petrone, 
 T. Henderson, D. Ranasinghe, V. G. Zakrzewski, J. Gao, N. Rega, 
 G. Zheng, W. Liang, M. Hada, M. Ehara, K. Toyota, R. Fukuda, 
 J. Hasegawa, M. Ishida, T. Nakajima, Y. Honda, O. Kitao, H. Nakai, 
 T. Vreven, K. Throssell, J. A. Montgomery, Jr., J. E. Peralta, 
 F. Ogliaro, M. J. Bearpark, J. J. Heyd, E. N. Brothers, K. N. Kudin, 
 V. N. Staroverov, T. A. Keith, R. Kobayashi, J. Normand, 
 K. Raghavachari, A. P. Rendell, J. C. Burant, S. S. Iyengar, 
 J. Tomasi, M. Cossi, J. M. Millam, M. Klene, C. Adamo, R. Cammi, 
 J. W. Ochterski, R. L. Martin, K. Morokuma, O. Farkas, 
 J. B. Foresman, and D. J. Fox, Gaussian, Inc., Wallingford CT, 2019.
 
 ******************************************
 Gaussian 16:  ES64L-G16RevC.01  3-Jul-2019
                27-Jul-2022 
 ******************************************
 %NProcShared=32
 Will use up to   32 processors via shared memory.
 %mem = 128GB
 ---------------------------------------------------------------
 #n M062X/6-311++G(d,p) TD(NStates=1) EmpiricalDispersion=GD3 SP
 ---------------------------------------------------------------
 1/38=1,172=1/1;
 2/12=2,17=6,18=5,40=1/2;
 3/5=4,6=6,7=1111,11=9,25=1,30=1,74=-55,124=31/1,2,3,8;
 4//1;
 5/5=2,38=5/2;
 8/6=1,10=2,108=1/1;
 9/41=1,42=1,70=2/14;
 6/7=2,8=2,9=2,10=2/1;
 99/5=1,9=1/99;
 -----
 SP_75
 -----
 Symbolic Z-matrix:
 Charge =  1 Multiplicity = 1
 C                     2.50735   1.3682    0. 
 C                     3.71843   0.68758   0. 
 C                     3.6888   -0.6932    0. 
 C                     2.44765  -1.3899    0. 
 C                    -2.47885  -1.4081    0. 
 C                    -3.6796   -0.718     0. 
 C                    -3.68553   0.67348   0. 
 C                    -2.47995   1.3694    0. 
 C                     0.00873   1.4643    0. 
 C                    -0.0244   -1.4206    0. 
 C                     1.25853   0.67808   0. 
 C                     1.2273   -0.72075   0. 
 C                    -1.26582   0.69338   0. 
 C                    -1.2473   -0.72315   0. 
 H                     2.4934    2.45153   0. 
 H                     4.65403   1.22578   0. 
 H                     4.60655  -1.26478   0. 
 H                     2.46005  -2.47263   0. 
 H                    -0.0225   -2.50165   0. 
 H                    -2.47465  -2.49033   0. 
 H                    -4.61235  -1.26388   0. 
 H                    -4.62072   1.21427   0. 
 H                    -2.485     2.45243   0. 
 H                     0.032     2.155    -0.86015 
 H                     0.032     2.155     0.86015 
 
                          Input orientation:                          
 ---------------------------------------------------------------------
 Center     Atomic      Atomic             Coordinates (Angstroms)
 Number     Number       Type             X           Y           Z
 ---------------------------------------------------------------------
      1          6           0        2.507350    1.368200    0.000000
      2          6           0        3.718425    0.687575    0.000000
      3          6           0        3.688800   -0.693200    0.000000
      4          6           0        2.447650   -1.389900    0.000000
      5          6           0       -2.478850   -1.408100    0.000000
      6          6           0       -3.679600   -0.718000    0.000000
      7          6           0       -3.685525    0.673475    0.000000
      8          6           0       -2.479950    1.369400    0.000000
      9          6           0        0.008725    1.464300    0.000000
     10          6           0       -0.024400   -1.420600    0.000000
     11          6           0        1.258525    0.678075    0.000000
     12          6           0        1.227300   -0.720750    0.000000
     13          6           0       -1.265825    0.693375    0.000000
     14          6           0       -1.247300   -0.723150    0.000000
     15          1           0        2.493400    2.451525    0.000000
     16          1           0        4.654025    1.225775    0.000000
     17          1           0        4.606550   -1.264775    0.000000
     18          1           0        2.460050   -2.472625    0.000000
     19          1           0       -0.022500   -2.501650    0.000000
     20          1           0       -2.474650   -2.490325    0.000000
     21          1           0       -4.612350   -1.263875    0.000000
     22          1           0       -4.620725    1.214275    0.000000
     23          1           0       -2.485000    2.452425    0.000000
     24          1           0        0.032000    2.155000   -0.860150
     25          1           0        0.032000    2.155000    0.860150
 ---------------------------------------------------------------------
                    Distance matrix (angstroms):
                    1          2          3          4          5
     1  C    0.000000
     2  C    1.389227   0.000000
     3  C    2.375962   1.381093   0.000000
     4  C    2.758746   2.435318   1.423322   0.000000
     5  C    5.707016   6.542023   6.208944   4.926534   0.000000
     6  C    6.529210   7.530366   7.368442   6.163979   1.384933
     7  C    6.231721   7.403963   7.499898   6.470962   2.406038
     8  C    4.987300   6.235763   6.504444   5.647564   2.777500
     9  C    2.500472   3.790142   4.265883   3.754306   3.799830
    10  C    3.766585   4.295712   3.783777   2.472241   2.454482
    11  C    1.426827   2.459918   2.790454   2.385485   4.280198
    12  C    2.449947   2.861657   2.461654   1.391767   3.769350
    13  C    3.833046   4.984253   5.144988   4.257926   2.426443
    14  C    4.297807   5.162225   4.936191   3.754625   1.409210
    15  H    1.083415   2.147605   3.364265   3.841697   6.294440
    16  H    2.151395   1.079355   2.148051   3.421965   7.603631
    17  H    3.367373   2.144863   1.081186   2.162523   7.086849
    18  H    3.841116   3.401525   2.162448   1.082796   5.052321
    19  H    4.623406   4.915860   4.128467   2.708806   2.688774
    20  H    6.301471   6.960835   6.420107   5.043805   1.082233
    21  H    7.590649   8.556282   8.320743   7.061125   2.138369
    22  H    7.129737   8.355767   8.525648   7.532838   3.385924
    23  H    5.108728   6.449587   6.928980   6.252559   3.860530
    24  H    2.736105   4.059917   4.714264   4.375104   4.442962
    25  H    2.736105   4.059917   4.714264   4.375104   4.442962
                    6          7          8          9         10
     6  C    0.000000
     7  C    1.391488   0.000000
     8  C    2.407571   1.392021   0.000000
     9  C    4.285578   3.777947   2.490484   0.000000
    10  C    3.722114   4.217699   3.716696   2.885090   0.000000
    11  C    5.131677   4.944052   3.801858   1.476533   2.459743
    12  C    4.906901   5.106830   4.255870   2.501873   1.434065
    13  C    2.796120   2.419782   1.389644   1.489565   2.451536
    14  C    2.432305   2.809894   2.428619   2.522407   1.407807
    15  H    6.939151   6.429664   5.089716   2.673616   4.618730
    16  H    8.557311   8.357818   7.135421   4.651420   5.375031
    17  H    8.304170   8.515593   7.560249   5.346760   4.633571
    18  H    6.385453   6.904059   6.258175   4.637712   2.698008
    19  H    4.068880   4.847594   4.585203   3.966073   1.081052
    20  H    2.143138   3.387602   3.859729   4.669712   2.673581
    21  H    1.080741   2.147633   3.388402   5.366309   4.590626
    22  H    2.149280   1.080307   2.146388   4.636197   5.297997
    23  H    3.388018   2.146142   1.083037   2.682360   4.588559
    24  H    4.771788   4.093259   2.768920   1.103389   3.678037
    25  H    4.771788   4.093259   2.768920   1.103389   3.678037
                   11         12         13         14         15
    11  C    0.000000
    12  C    1.399173   0.000000
    13  C    2.524396   2.866256   0.000000
    14  C    2.870991   2.474601   1.416646   0.000000
    15  H    2.161028   3.415602   4.150044   4.906261   0.000000
    16  H    3.439389   3.940990   5.943742   6.214817   2.484102
    17  H    3.870909   3.422761   6.190246   5.878853   4.275078
    18  H    3.372028   2.142134   4.889346   4.099403   4.924263
    19  H    3.428072   2.175685   3.428417   2.159444   5.555510
    20  H    4.896463   4.103149   3.405467   2.151580   7.007382
    21  H    6.183716   5.864853   3.876862   3.408217   8.018471
    22  H    5.903651   6.159847   3.395098   3.890194   7.220911
    23  H    4.142740   4.883668   2.140244   3.408251   4.978400
    24  H    2.103694   3.230873   2.135546   3.264998   2.624171
    25  H    2.103694   3.230873   2.135546   3.264998   2.624171
                   16         17         18         19         20
    16  H    0.000000
    17  H    2.491002   0.000000
    18  H    4.300196   2.462999   0.000000
    19  H    5.980266   4.791447   2.482720   0.000000
    20  H    8.039117   7.186471   4.934732   2.452176   0.000000
    21  H    9.595002   9.218900   7.174951   4.753821   2.464537
    22  H    9.274757   9.554491   7.983145   5.912002   4.281320
    23  H    7.243642   8.006726   6.979229   5.532338   4.942761
    24  H    4.792331   5.775918   5.296244   4.735738   5.348102
    25  H    4.792331   5.775918   5.296244   4.735738   5.348102
                   21         22         23         24         25
    21  H    0.000000
    22  H    2.478164   0.000000
    23  H    4.282114   2.468671   0.000000
    24  H    5.830828   4.824176   2.676492   0.000000
    25  H    5.830828   4.824176   2.676492   1.720300   0.000000
 Stoichiometry    C14H11(1+)
 Framework group  CS[SG(C14H9),X(H2)]
 Deg. of freedom    46
 Full point group                 CS      NOp   2
 Largest Abelian subgroup         CS      NOp   2
 Largest concise Abelian subgroup CS      NOp   2
                         Standard orientation:                         
 ---------------------------------------------------------------------
 Center     Atomic      Atomic             Coordinates (Angstroms)
 Number     Number       Type             X           Y           Z
 ---------------------------------------------------------------------
      1          6           0        0.022689    2.851796    0.000000
      2          6           0       -1.147026    3.601276    0.000000
      3          6           0       -2.352096    2.926573    0.000000
      4          6           0       -2.384194    1.503614    0.000000
      5          6           0       -0.086288   -2.854180    0.000000
      6          6           0        1.086941   -3.590094    0.000000
      7          6           0        2.318155   -2.941750    0.000000
      8          6           0        2.366279   -1.550561    0.000000
      9          6           0        1.281130    0.691082    0.000000
     10          6           0       -1.250177   -0.693197    0.000000
     11          6           0        0.000000    1.425149    0.000000
     12          6           0       -1.220253    0.740556    0.000000
     13          6           0        1.199192   -0.796228    0.000000
     14          6           0       -0.060055   -1.445214    0.000000
     15          1           0        0.985629    3.348317    0.000000
     16          1           0       -1.111340    4.680041    0.000000
     17          1           0       -3.287764    3.468319    0.000000
     18          1           0       -3.345877    1.006006    0.000000
     19          1           0       -2.205449   -1.199288    0.000000
     20          1           0       -1.043678   -3.358792    0.000000
     21          1           0        1.043140   -4.669948    0.000000
     22          1           0        3.234851   -3.513356    0.000000
     23          1           0        3.324774   -1.046323    0.000000
     24          1           0        1.879966    1.036051    0.860150
     25          1           0        1.879966    1.036051   -0.860150
 ---------------------------------------------------------------------
 Rotational constants (GHZ):           2.1356001           0.4444906           0.3687156
 Standard basis: 6-311++G(d,p) (5D, 7F)
 There are   299 symmetry adapted cartesian basis functions of A'  symmetry.
 There are   100 symmetry adapted cartesian basis functions of A"  symmetry.
 There are   285 symmetry adapted basis functions of A'  symmetry.
 There are   100 symmetry adapted basis functions of A"  symmetry.
   385 basis functions,   603 primitive gaussians,   399 cartesian basis functions
    47 alpha electrons       47 beta electrons
       nuclear repulsion energy       781.1066367309 Hartrees.
 NAtoms=   25 NActive=   25 NUniq=   24 SFac= 1.09D+00 NAtFMM=   60 NAOKFM=F Big=F
 Integral buffers will be    131072 words long.
 Regular integral format.
 Two-electron integral symmetry is turned on.
 Nuclear repulsion after empirical dispersion term =      781.1056573138 Hartrees.
 One-electron integrals computed using PRISM.
 NBasis=   385 RedAO= T EigKep=  1.13D-06  NBF=   285   100
 NBsUse=   379 1.00D-06 EigRej=  8.40D-07 NBFU=   279   100
 ExpMin= 3.60D-02 ExpMax= 4.56D+03 ExpMxC= 6.82D+02 IAcc=3 IRadAn=         5 AccDes= 0.00D+00
 Harris functional with IExCor= 1009 and IRadAn=       5 diagonalized for initial guess.
 HarFok:  IExCor= 1009 AccDes= 0.00D+00 IRadAn=         5 IDoV= 1 UseB2=F ITyADJ=14
 ICtDFT=  3500011 ScaDFX=  1.000000  1.000000  1.000000  1.000000
 FoFCou: FMM=F IPFlag=           0 FMFlag=      100000 FMFlg1=           0
         NFxFlg=           0 DoJE=T BraDBF=F KetDBF=T FulRan=T
         wScrn=  0.000000 ICntrl=       500 IOpCl=  0 I1Cent=   200000004 NGrid=           0
         NMat0=    1 NMatS0=      1 NMatT0=    0 NMatD0=    1 NMtDS0=    0 NMtDT0=    0
 Petite list used in FoFCou.
 Initial guess orbital symmetries:
       Occupied  (A') (A') (A') (A') (A') (A') (A') (A') (A') (A')
                 (A') (A') (A') (A') (A') (A') (A') (A') (A') (A')
                 (A') (A') (A') (A') (A') (A') (A') (A') (A') (A')
                 (A') (A') (A") (A') (A') (A') (A') (A') (A") (A')
                 (A") (A') (A') (A") (A") (A") (A")
       Virtual   (A") (A") (A") (A") (A") (A') (A') (A') (A') (A")
                 (A") (A') (A') (A') (A") (A') (A') (A') (A') (A")
                 (A') (A") (A') (A') (A') (A") (A') (A") (A') (A')
                 (A') (A') (A') (A') (A") (A') (A") (A') (A') (A')
                 (A") (A') (A') (A") (A') (A') (A') (A') (A') (A")
                 (A') (A') (A") (A") (A') (A') (A') (A") (A") (A')
                 (A') (A') (A') (A') (A') (A') (A") (A') (A') (A")
                 (A') (A') (A') (A') (A') (A') (A') (A') (A') (A')
                 (A') (A') (A') (A') (A') (A') (A') (A') (A') (A')
                 (A') (A') (A') (A') (A') (A') (A') (A") (A') (A")
                 (A') (A') (A") (A") (A') (A") (A') (A") (A') (A")
                 (A") (A') (A') (A') (A") (A') (A') (A") (A") (A')
                 (A") (A") (A') (A') (A') (A") (A') (A') (A') (A")
                 (A') (A') (A') (A') (A') (A') (A") (A') (A') (A')
                 (A') (A') (A') (A') (A') (A') (A') (A') (A') (A")
                 (A") (A') (A") (A") (A') (A') (A') (A") (A") (A')
                 (A") (A') (A") (A") (A") (A') (A') (A') (A') (A')
                 (A') (A") (A') (A") (A') (A') (A') (A') (A') (A")
                 (A') (A') (A') (A') (A") (A') (A") (A') (A") (A")
                 (A') (A") (A') (A") (A') (A') (A') (A") (A') (A')
                 (A") (A") (A") (A') (A') (A") (A') (A") (A') (A')
                 (A") (A") (A') (A") (A') (A") (A') (A') (A') (A")
                 (A') (A') (A') (A') (A") (A') (A') (A') (A") (A")
                 (A') (A') (A') (A") (A') (A') (A") (A') (A") (A')
                 (A") (A') (A') (A') (A') (A") (A') (A') (A') (A")
                 (A') (A') (A") (A') (A") (A') (A') (A") (A') (A')
                 (A') (A") (A') (A") (A') (A') (A') (A") (A') (A")
                 (A') (A') (A') (A') (A") (A') (A") (A') (A") (A')
                 (A") (A') (A") (A") (A") (A') (A') (A') (A') (A')
                 (A') (A') (A') (A') (A') (A') (A') (A') (A') (A')
                 (A') (A') (A') (A') (A') (A") (A') (A') (A') (A')
                 (A') (A') (A') (A') (A') (A') (A') (A') (A') (A')
                 (A') (A') (A') (A') (A') (A') (A') (A') (A') (A')
                 (A') (A')
 The electronic state of the initial guess is 1-A'.
 Requested convergence on RMS density matrix=1.00D-08 within 128 cycles.
 Requested convergence on MAX density matrix=1.00D-06.
 Requested convergence on             energy=1.00D-06.
 No special actions if energy rises.
 SCF Done:  E(RM062X) =  -539.758499633     A.U. after   15 cycles
            NFock= 15  Conv=0.75D-08     -V/T= 2.0042
 DoSCS=F DFT=T ScalE2(SS,OS)=  1.000000  1.000000
 ExpMin= 3.60D-02 ExpMax= 4.56D+03 ExpMxC= 6.82D+02 IAcc=3 IRadAn=         5 AccDes= 0.00D+00
 HarFok:  IExCor=  205 AccDes= 0.00D+00 IRadAn=         5 IDoV=-2 UseB2=F ITyADJ=14
 ICtDFT= 12500011 ScaDFX=  1.000000  1.000000  1.000000  1.000000
 Range of M.O.s used for correlation:    15   379
 NBasis=   385 NAE=    47 NBE=    47 NFC=    14 NFV=     0
 NROrb=    365 NOA=    33 NOB=    33 NVA=   332 NVB=   332

 **** Warning!!: The largest alpha MO coefficient is  0.13388934D+03

 Orbital symmetries:
       Occupied  (A') (A') (A') (A') (A') (A') (A') (A') (A') (A')
                 (A') (A') (A') (A') (A') (A') (A') (A') (A') (A')
                 (A') (A') (A') (A') (A') (A') (A') (A') (A') (A')
                 (A') (A') (A") (A') (A') (A') (A') (A") (A") (A')
                 (A') (A') (A') (A") (A") (A") (A")
       Virtual   (A") (A") (A") (A") (A') (A') (A') (A') (A") (A')
                 (A') (A") (A') (A') (A") (A') (A") (A') (A') (A')
                 (A") (A") (A') (A') (A') (A") (A') (A") (A') (A')
                 (A") (A') (A") (A') (A') (A') (A') (A') (A") (A')
                 (A") (A') (A') (A") (A") (A') (A") (A') (A") (A')
                 (A') (A') (A') (A') (A') (A") (A') (A') (A') (A')
                 (A') (A") (A') (A') (A') (A") (A') (A') (A') (A')
                 (A') (A') (A') (A') (A') (A') (A') (A') (A') (A')
                 (A') (A') (A') (A') (A') (A') (A') (A') (A') (A')
                 (A') (A') (A') (A') (A") (A') (A") (A") (A') (A")
                 (A') (A') (A') (A') (A") (A") (A') (A") (A") (A')
                 (A') (A') (A") (A') (A') (A") (A') (A") (A') (A")
                 (A") (A') (A") (A') (A') (A') (A") (A') (A') (A')
                 (A') (A') (A') (A') (A') (A') (A') (A') (A') (A')
                 (A') (A') (A') (A") (A') (A') (A') (A') (A') (A')
                 (A') (A') (A") (A') (A") (A') (A") (A") (A') (A")
                 (A") (A') (A') (A") (A") (A") (A') (A") (A') (A')
                 (A') (A') (A') (A") (A") (A') (A') (A') (A') (A")
                 (A') (A') (A') (A") (A") (A') (A') (A') (A") (A")
                 (A") (A') (A') (A") (A") (A') (A') (A') (A') (A')
                 (A") (A") (A") (A') (A') (A") (A') (A") (A') (A')
                 (A') (A") (A') (A") (A") (A') (A") (A') (A') (A")
                 (A') (A') (A') (A') (A") (A') (A') (A') (A") (A")
                 (A') (A') (A') (A") (A') (A') (A') (A") (A") (A')
                 (A") (A') (A') (A") (A') (A') (A') (A') (A') (A')
                 (A") (A') (A') (A') (A') (A") (A") (A") (A') (A')
                 (A') (A') (A') (A') (A') (A') (A") (A') (A') (A')
                 (A') (A") (A') (A") (A") (A") (A') (A") (A') (A")
                 (A') (A") (A") (A') (A") (A") (A') (A') (A') (A')
                 (A') (A') (A') (A') (A') (A') (A') (A') (A') (A')
                 (A') (A') (A') (A") (A') (A') (A') (A') (A') (A')
                 (A') (A') (A') (A') (A') (A') (A') (A') (A') (A')
                 (A') (A') (A') (A') (A') (A') (A') (A') (A') (A')
                 (A') (A')
     4 initial guesses have been made.
 Convergence on wavefunction:    0.001000000000000
 Iteration     1 Dimension     4 NMult     0 NNew      4
 CISAX will form     4 AO SS matrices at one time.
 Iteration     2 Dimension     6 NMult     4 NNew      2
 Iteration     3 Dimension     8 NMult     6 NNew      2
 Iteration     4 Dimension    10 NMult     8 NNew      2
 Iteration     5 Dimension    12 NMult    10 NNew      2
 Iteration     6 Dimension    14 NMult    12 NNew      2
 ***********************************************************************
 Excited states from <AA,BB:AA,BB> singles matrix:
 ***********************************************************************
 
 Ground to excited state transition densities written to RWF  633
 Ground to excited state transition electric dipole moments (Au):
       state          X           Y           Z        Dip. S.      Osc.
         1         0.5194      0.3044      0.0000      0.3625      0.0246
 Ground to excited state transition velocity dipole moments (Au):
       state          X           Y           Z        Dip. S.      Osc.
         1        -0.0606     -0.0322      0.0000      0.0047      0.0308
 Ground to excited state transition magnetic dipole moments (Au):
       state          X           Y           Z
         1         0.0000      0.0000      0.1440
 Ground to excited state transition velocity quadrupole moments (Au):
       state          XX          YY          ZZ          XY          XZ          YZ
         1         0.1363      0.1688     -0.0092     -0.1355     -0.0000     -0.0000
 <0|del|b> * <b|rxdel|0> + <0|del|b> * <b|delr+rdel|0>
 Rotatory Strengths (R) in cgs (10**-40 erg-esu-cm/Gauss)
       state          XX          YY          ZZ    R(velocity)    E-M Angle
         1        -0.0000      0.0000      0.0000     -0.0000       90.00
 1/2[<0|r|b>*<b|rxdel|0> + (<0|rxdel|b>*<b|r|0>)*]
 Rotatory Strengths (R) in cgs (10**-40 erg-esu-cm/Gauss)
       state          XX          YY          ZZ     R(length)
         1        -0.0000     -0.0000     -0.0000     -0.0000
  1/2[<0|del|b>*<b|r|0> + (<0|r|b>*<b|del|0>)*] (Au)
       state          X           Y           Z        Dip. S.   Osc.(frdel)
         1        -0.0315     -0.0098      0.0000      0.0413      0.0275

 Excitation energies and oscillator strengths:
 
 Excited State   1:      Singlet-A'     2.7704 eV  447.53 nm  f=0.0246  <S**2>=0.000
      47 -> 48         0.70382
 This state for optimization and/or second-order correction.
 Total Energy, E(TD-HF/TD-DFT) =  -539.656689912    
 Copying the excited state density for this state as the 1-particle RhoCI density.
 SavETr:  write IOETrn=   770 NScale= 10 NData=  16 NLR=1 NState=    1 LETran=      28.

 **********************************************************************

            Population analysis using the SCF Density.

 **********************************************************************

 Orbital symmetries:
       Occupied  (A') (A') (A') (A') (A') (A') (A') (A') (A') (A')
                 (A') (A') (A') (A') (A') (A') (A') (A') (A') (A')
                 (A') (A') (A') (A') (A') (A') (A') (A') (A') (A')
                 (A') (A') (A") (A') (A') (A') (A') (A") (A") (A')
                 (A') (A') (A') (A") (A") (A") (A")
       Virtual   (A") (A") (A") (A") (A') (A') (A') (A') (A") (A')
                 (A') (A") (A') (A') (A") (A') (A") (A') (A') (A')
                 (A") (A") (A') (A') (A') (A") (A') (A") (A') (A')
                 (A") (A') (A") (A') (A') (A') (A') (A') (A") (A')
                 (A") (A') (A') (A") (A") (A') (A") (A') (A") (A')
                 (A') (A') (A') (A') (A') (A") (A') (A') (A') (A')
                 (A') (A") (A') (A') (A') (A") (A') (A') (A') (A')
                 (A') (A') (A') (A') (A') (A') (A') (A') (A') (A')
                 (A') (A') (A') (A') (A') (A') (A') (A') (A') (A')
                 (A') (A') (A') (A') (A") (A') (A") (A") (A') (A")
                 (A') (A') (A') (A') (A") (A") (A') (A") (A") (A')
                 (A') (A') (A") (A') (A') (A") (A') (A") (A') (A")
                 (A") (A') (A") (A') (A') (A') (A") (A') (A') (A')
                 (A') (A') (A') (A') (A') (A') (A') (A') (A') (A')
                 (A') (A') (A') (A") (A') (A') (A') (A') (A') (A')
                 (A') (A') (A") (A') (A") (A') (A") (A") (A') (A")
                 (A") (A') (A') (A") (A") (A") (A') (A") (A') (A')
                 (A') (A') (A') (A") (A") (A') (A') (A') (A') (A")
                 (A') (A') (A') (A") (A") (A') (A') (A') (A") (A")
                 (A") (A') (A') (A") (A") (A') (A') (A') (A') (A')
                 (A") (A") (A") (A') (A') (A") (A') (A") (A') (A')
                 (A') (A") (A') (A") (A") (A') (A") (A') (A') (A")
                 (A') (A') (A') (A') (A") (A') (A') (A') (A") (A")
                 (A') (A') (A') (A") (A') (A') (A') (A") (A") (A')
                 (A") (A') (A') (A") (A') (A') (A') (A') (A') (A')
                 (A") (A') (A') (A') (A') (A") (A") (A") (A') (A')
                 (A') (A') (A') (A') (A') (A') (A") (A') (A') (A')
                 (A') (A") (A') (A") (A") (A") (A') (A") (A') (A")
                 (A') (A") (A") (A') (A") (A") (A') (A') (A') (A')
                 (A') (A') (A') (A') (A') (A') (A') (A') (A') (A')
                 (A') (A') (A') (A") (A') (A') (A') (A') (A') (A')
                 (A') (A') (A') (A') (A') (A') (A') (A') (A') (A')
                 (A') (A') (A') (A') (A') (A') (A') (A') (A') (A')
                 (A') (A')
 The electronic state is 1-A'.
 Alpha  occ. eigenvalues --  -10.77649 -10.73539 -10.72961 -10.72662 -10.72196
 Alpha  occ. eigenvalues --  -10.71637 -10.71527 -10.71089 -10.70988 -10.70498
 Alpha  occ. eigenvalues --  -10.70103 -10.69842 -10.69797 -10.69469  -1.16457
 Alpha  occ. eigenvalues --   -1.12460  -1.06943  -1.05742  -1.01306  -1.00236
 Alpha  occ. eigenvalues --   -0.95721  -0.91044  -0.86424  -0.85894  -0.83803
 Alpha  occ. eigenvalues --   -0.78378  -0.76048  -0.74402  -0.69633  -0.69264
 Alpha  occ. eigenvalues --   -0.68440  -0.68150  -0.68101  -0.64912  -0.64255
 Alpha  occ. eigenvalues --   -0.62938  -0.61788  -0.60196  -0.59503  -0.59115
 Alpha  occ. eigenvalues --   -0.56906  -0.55242  -0.54738  -0.52440  -0.46828
 Alpha  occ. eigenvalues --   -0.46090  -0.44276
 Alpha virt. eigenvalues --   -0.26098  -0.14667  -0.14092  -0.12772  -0.11181
 Alpha virt. eigenvalues --   -0.10087  -0.09238  -0.07976  -0.07960  -0.07478
 Alpha virt. eigenvalues --   -0.07204  -0.07141  -0.05645  -0.05579  -0.05337
 Alpha virt. eigenvalues --   -0.03833  -0.03651  -0.03277  -0.03134  -0.02163
 Alpha virt. eigenvalues --   -0.01361  -0.00937   0.00193   0.00593   0.00650
 Alpha virt. eigenvalues --    0.01059   0.01511   0.01940   0.02194   0.02298
 Alpha virt. eigenvalues --    0.02450   0.02670   0.02759   0.03295   0.03411
 Alpha virt. eigenvalues --    0.04236   0.04500   0.04705   0.05034   0.05372
 Alpha virt. eigenvalues --    0.06031   0.06292   0.06591   0.07043   0.07261
 Alpha virt. eigenvalues --    0.07895   0.08134   0.08357   0.08566   0.08923
 Alpha virt. eigenvalues --    0.09521   0.09575   0.10015   0.10849   0.11001
 Alpha virt. eigenvalues --    0.11122   0.12145   0.12246   0.12827   0.13002
 Alpha virt. eigenvalues --    0.13428   0.13525   0.14003   0.14367   0.16059
 Alpha virt. eigenvalues --    0.16374   0.16392   0.17339   0.17576   0.17797
 Alpha virt. eigenvalues --    0.18119   0.19069   0.19295   0.19621   0.19787
 Alpha virt. eigenvalues --    0.21517   0.21612   0.22704   0.23123   0.23555
 Alpha virt. eigenvalues --    0.23865   0.24571   0.25385   0.26926   0.27605
 Alpha virt. eigenvalues --    0.28843   0.29278   0.29870   0.31351   0.35791
 Alpha virt. eigenvalues --    0.36430   0.38193   0.39276   0.41124   0.41371
 Alpha virt. eigenvalues --    0.41956   0.42184   0.42983   0.43680   0.44322
 Alpha virt. eigenvalues --    0.44872   0.45079   0.45999   0.46267   0.47943
 Alpha virt. eigenvalues --    0.48489   0.48833   0.49034   0.50451   0.51109
 Alpha virt. eigenvalues --    0.51395   0.51850   0.52123   0.52850   0.54024
 Alpha virt. eigenvalues --    0.54100   0.54619   0.55669   0.55815   0.57531
 Alpha virt. eigenvalues --    0.58234   0.58854   0.61455   0.62223   0.62365
 Alpha virt. eigenvalues --    0.63192   0.63485   0.64935   0.65152   0.67287
 Alpha virt. eigenvalues --    0.70404   0.70562   0.71080   0.72435   0.72876
 Alpha virt. eigenvalues --    0.75704   0.76035   0.76330   0.76843   0.77107
 Alpha virt. eigenvalues --    0.77848   0.77908   0.78240   0.79898   0.80392
 Alpha virt. eigenvalues --    0.81236   0.81607   0.82236   0.83002   0.85191
 Alpha virt. eigenvalues --    0.87117   0.88158   0.88443   0.89185   0.90484
 Alpha virt. eigenvalues --    0.91054   0.91309   0.93222   0.94613   0.96363
 Alpha virt. eigenvalues --    0.96750   1.00346   1.01270   1.01639   1.02750
 Alpha virt. eigenvalues --    1.03216   1.03469   1.04776   1.05820   1.08791
 Alpha virt. eigenvalues --    1.19556   1.23170   1.24089   1.24908   1.28298
 Alpha virt. eigenvalues --    1.29569   1.31914   1.34318   1.35755   1.35989
 Alpha virt. eigenvalues --    1.39332   1.39984   1.40921   1.43014   1.43492
 Alpha virt. eigenvalues --    1.43506   1.44515   1.46130   1.46357   1.46649
 Alpha virt. eigenvalues --    1.47658   1.48054   1.51723   1.53636   1.55703
 Alpha virt. eigenvalues --    1.55808   1.56327   1.56581   1.57779   1.61435
 Alpha virt. eigenvalues --    1.63194   1.63390   1.63968   1.66092   1.68302
 Alpha virt. eigenvalues --    1.68338   1.68708   1.69773   1.74381   1.75990
 Alpha virt. eigenvalues --    1.77155   1.78060   1.79922   1.80076   1.80751
 Alpha virt. eigenvalues --    1.83038   1.83206   1.83598   1.83829   1.84179
 Alpha virt. eigenvalues --    1.84371   1.85674   1.86236   1.88262   1.91389
 Alpha virt. eigenvalues --    1.92083   1.94097   1.95228   1.97714   1.98144
 Alpha virt. eigenvalues --    1.99746   2.02354   2.04427   2.07274   2.11774
 Alpha virt. eigenvalues --    2.12079   2.14151   2.15236   2.19070   2.21203
 Alpha virt. eigenvalues --    2.22774   2.28597   2.30143   2.34570   2.34887
 Alpha virt. eigenvalues --    2.36263   2.38652   2.39620   2.42347   2.44722
 Alpha virt. eigenvalues --    2.46141   2.46423   2.49301   2.52909   2.53788
 Alpha virt. eigenvalues --    2.54202   2.56840   2.57859   2.58338   2.59551
 Alpha virt. eigenvalues --    2.59863   2.61574   2.62128   2.63539   2.63759
 Alpha virt. eigenvalues --    2.64792   2.65091   2.65132   2.65442   2.67906
 Alpha virt. eigenvalues --    2.68465   2.70941   2.71429   2.73349   2.74812
 Alpha virt. eigenvalues --    2.76297   2.78601   2.79688   2.82889   2.83098
 Alpha virt. eigenvalues --    2.84862   2.86261   2.92103   2.97045   2.99472
 Alpha virt. eigenvalues --    3.00077   3.04976   3.10430   3.11326   3.13496
 Alpha virt. eigenvalues --    3.20828   3.23023   3.26579   3.28390   3.30618
 Alpha virt. eigenvalues --    3.32787   3.34030   3.43560   3.46002   3.46592
 Alpha virt. eigenvalues --    3.48395   3.50068   3.56422   3.66059   3.66797
 Alpha virt. eigenvalues --    3.67561   3.94081   3.94278   3.95327   3.96284
 Alpha virt. eigenvalues --    4.03978   4.06737   4.07537   4.12544   4.35384
 Alpha virt. eigenvalues --    4.61098   4.69599   4.71481  23.45308  23.60360
 Alpha virt. eigenvalues --   23.81528  23.84331  23.86839  23.89076  23.91071
 Alpha virt. eigenvalues --   23.93831  23.96557  23.98076  24.01245  24.02788
 Alpha virt. eigenvalues --   24.10749  24.11343
          Condensed to atoms (all electrons):
               1          2          3          4          5          6
     1  C    8.804321   0.128483  -0.456441   2.166086  -0.063909  -0.101702
     2  C    0.128483   7.169872   0.294913  -1.157283   0.000448  -0.013708
     3  C   -0.456441   0.294913   6.590032   0.802803  -0.133409   0.016914
     4  C    2.166086  -1.157283   0.802803  10.861916  -0.384110  -0.117982
     5  C   -0.063909   0.000448  -0.133409  -0.384110  11.320836   0.740693
     6  C   -0.101702  -0.013708   0.016914  -0.117982   0.740693   6.596845
     7  C   -0.007708   0.000680  -0.014873  -0.029293  -1.039736   0.393350
     8  C    0.404504  -0.025257  -0.090010  -0.017253   1.875797  -0.604146
     9  C   -1.130420  -0.791129   0.295422  -0.325673  -0.072722   0.296263
    10  C   -1.351603   0.307307  -0.399685  -2.473757  -2.699347  -0.302738
    11  C    0.305709  -0.953596   1.066377  -0.300727  -1.557546  -0.203902
    12  C   -2.395438   1.574376  -1.459831  -1.647696  -0.405693  -0.152669
    13  C    0.254760  -0.273479  -0.139520  -1.458873  -0.300529   0.939933
    14  C   -1.060401  -0.130112  -0.246945  -0.269873  -1.647790  -1.367288
    15  H    0.369432  -0.107834   0.000126   0.029073   0.005084   0.001031
    16  H   -0.018017   0.376476  -0.014250   0.011571  -0.001431  -0.000311
    17  H   -0.029352  -0.011698   0.371210  -0.067274   0.000414   0.000392
    18  H    0.052671   0.002398  -0.084521   0.456401   0.005927  -0.005197
    19  H   -0.047872  -0.007521   0.051497  -0.065012  -0.075834   0.051222
    20  H    0.007111   0.002093  -0.005055   0.005964   0.463223  -0.084212
    21  H   -0.001362  -0.000386   0.000408   0.000217  -0.069270   0.378628
    22  H    0.000900   0.000389  -0.000345  -0.001630   0.015506  -0.019615
    23  H    0.005193  -0.002796   0.001177   0.006121   0.026377  -0.002380
    24  H    0.030368   0.013681  -0.001706  -0.012757  -0.011686  -0.001428
    25  H    0.030368   0.013681  -0.001706  -0.012757  -0.011686  -0.001428
               7          8          9         10         11         12
     1  C   -0.007708   0.404504  -1.130420  -1.351603   0.305709  -2.395438
     2  C    0.000680  -0.025257  -0.791129   0.307307  -0.953596   1.574376
     3  C   -0.014873  -0.090010   0.295422  -0.399685   1.066377  -1.459831
     4  C   -0.029293  -0.017253  -0.325673  -2.473757  -0.300727  -1.647696
     5  C   -1.039736   1.875797  -0.072722  -2.699347  -1.557546  -0.405693
     6  C    0.393350  -0.604146   0.296263  -0.302738  -0.203902  -0.152669
     7  C    7.167048   0.421809  -0.837911   0.201021  -0.222280  -0.251375
     8  C    0.421809   8.467042  -1.143403  -1.244628   0.208607  -1.116498
     9  C   -0.837911  -1.143403   9.588134   0.259703   1.518093  -1.809486
    10  C    0.201021  -1.244628   0.259703   9.126459  -0.458284   2.449790
    11  C   -0.222280   0.208607   1.518093  -0.458284  14.366223  -3.530229
    12  C   -0.251375  -1.116498  -1.809486   2.449790  -3.530229  15.968920
    13  C   -0.842029   0.322226   1.601502  -0.362471   1.091483  -4.809629
    14  C    1.184290  -1.953584  -2.022238   2.402186  -4.749796   3.126998
    15  H   -0.002463   0.006205   0.093476  -0.010565  -0.032114  -0.031236
    16  H    0.000341   0.000541   0.003686  -0.008557   0.026087  -0.033080
    17  H   -0.000412  -0.001266  -0.006113   0.020444  -0.027420   0.095565
    18  H    0.002051   0.007048  -0.025502   0.013325  -0.004121  -0.061007
    19  H   -0.008016  -0.045159   0.075224   0.422005   0.079920  -0.054475
    20  H    0.003321   0.048863  -0.023565   0.009296  -0.012161  -0.018263
    21  H   -0.019973  -0.022181  -0.005173   0.020195  -0.006290   0.005267
    22  H    0.381648  -0.019913   0.002461  -0.009891   0.003261  -0.009827
    23  H   -0.106504   0.367555   0.089053  -0.008642  -0.001350   0.007181
    24  H    0.015365   0.035935   0.355912   0.005322   0.007285  -0.060470
    25  H    0.015365   0.035935   0.355912   0.005322   0.007285  -0.060470
              13         14         15         16         17         18
     1  C    0.254760  -1.060401   0.369432  -0.018017  -0.029352   0.052671
     2  C   -0.273479  -0.130112  -0.107834   0.376476  -0.011698   0.002398
     3  C   -0.139520  -0.246945   0.000126  -0.014250   0.371210  -0.084521
     4  C   -1.458873  -0.269873   0.029073   0.011571  -0.067274   0.456401
     5  C   -0.300529  -1.647790   0.005084  -0.001431   0.000414   0.005927
     6  C    0.939933  -1.367288   0.001031  -0.000311   0.000392  -0.005197
     7  C   -0.842029   1.184290  -0.002463   0.000341  -0.000412   0.002051
     8  C    0.322226  -1.953584   0.006205   0.000541  -0.001266   0.007048
     9  C    1.601502  -2.022238   0.093476   0.003686  -0.006113  -0.025502
    10  C   -0.362471   2.402186  -0.010565  -0.008557   0.020444   0.013325
    11  C    1.091483  -4.749796  -0.032114   0.026087  -0.027420  -0.004121
    12  C   -4.809629   3.126998  -0.031236  -0.033080   0.095565  -0.061007
    13  C   14.503845  -3.948493   0.004580   0.002737  -0.006264  -0.011995
    14  C   -3.948493  16.192889   0.005601  -0.008285   0.005345  -0.010999
    15  H    0.004580   0.005601   0.442192  -0.009007   0.001340   0.000109
    16  H    0.002737  -0.008285  -0.009007   0.421216  -0.006282   0.001904
    17  H   -0.006264   0.005345   0.001340  -0.006282   0.423816  -0.010383
    18  H   -0.011995  -0.010999   0.000109   0.001904  -0.010383   0.456837
    19  H    0.076879  -0.077195   0.000261  -0.000507   0.001256  -0.006564
    20  H   -0.007744  -0.050996  -0.000107   0.000013  -0.000131   0.001255
    21  H   -0.026281   0.088883   0.000012  -0.000007   0.000010  -0.000157
    22  H    0.025476  -0.031241  -0.000129   0.000008  -0.000007   0.000018
    23  H   -0.029693  -0.018025   0.000567  -0.000126   0.000016  -0.000120
    24  H    0.019998  -0.060100  -0.000897   0.000634  -0.000147   0.000207
    25  H    0.019998  -0.060100  -0.000897   0.000634  -0.000147   0.000207
              19         20         21         22         23         24
     1  C   -0.047872   0.007111  -0.001362   0.000900   0.005193   0.030368
     2  C   -0.007521   0.002093  -0.000386   0.000389  -0.002796   0.013681
     3  C    0.051497  -0.005055   0.000408  -0.000345   0.001177  -0.001706
     4  C   -0.065012   0.005964   0.000217  -0.001630   0.006121  -0.012757
     5  C   -0.075834   0.463223  -0.069270   0.015506   0.026377  -0.011686
     6  C    0.051222  -0.084212   0.378628  -0.019615  -0.002380  -0.001428
     7  C   -0.008016   0.003321  -0.019973   0.381648  -0.106504   0.015365
     8  C   -0.045159   0.048863  -0.022181  -0.019913   0.367555   0.035935
     9  C    0.075224  -0.023565  -0.005173   0.002461   0.089053   0.355912
    10  C    0.422005   0.009296   0.020195  -0.009891  -0.008642   0.005322
    11  C    0.079920  -0.012161  -0.006290   0.003261  -0.001350   0.007285
    12  C   -0.054475  -0.018263   0.005267  -0.009827   0.007181  -0.060470
    13  C    0.076879  -0.007744  -0.026281   0.025476  -0.029693   0.019998
    14  C   -0.077195  -0.050996   0.088883  -0.031241  -0.018025  -0.060100
    15  H    0.000261  -0.000107   0.000012  -0.000129   0.000567  -0.000897
    16  H   -0.000507   0.000013  -0.000007   0.000008  -0.000126   0.000634
    17  H    0.001256  -0.000131   0.000010  -0.000007   0.000016  -0.000147
    18  H   -0.006564   0.001255  -0.000157   0.000018  -0.000120   0.000207
    19  H    0.443071  -0.005957   0.001590  -0.000579   0.000367   0.000588
    20  H   -0.005957   0.450878  -0.010193   0.001951   0.000211   0.000161
    21  H    0.001590  -0.010193   0.420991  -0.006909   0.001586  -0.000138
    22  H   -0.000579   0.001951  -0.006909   0.417669  -0.008996   0.000630
    23  H    0.000367   0.000211   0.001586  -0.008996   0.436361  -0.000932
    24  H    0.000588   0.000161  -0.000138   0.000630  -0.000932   0.493468
    25  H    0.000588   0.000161  -0.000138   0.000630  -0.000932  -0.079156
              25
     1  C    0.030368
     2  C    0.013681
     3  C   -0.001706
     4  C   -0.012757
     5  C   -0.011686
     6  C   -0.001428
     7  C    0.015365
     8  C    0.035935
     9  C    0.355912
    10  C    0.005322
    11  C    0.007285
    12  C   -0.060470
    13  C    0.019998
    14  C   -0.060100
    15  H   -0.000897
    16  H    0.000634
    17  H   -0.000147
    18  H    0.000207
    19  H    0.000588
    20  H    0.000161
    21  H   -0.000138
    22  H    0.000630
    23  H   -0.000932
    24  H   -0.079156
    25  H    0.493468
 Mulliken charges:
               1
     1  C    0.104319
     2  C   -0.409997
     3  C   -0.442581
     4  C    0.001794
     5  C    0.020392
     6  C   -0.436569
     7  C   -0.403717
     8  C    0.081229
     9  C   -0.341508
    10  C    0.087795
    11  C   -0.620514
    12  C    0.679275
    13  C   -0.646416
    14  C    0.707267
    15  H    0.236161
    16  H    0.254013
    17  H    0.247088
    18  H    0.220208
    19  H    0.190223
    20  H    0.223880
    21  H    0.250670
    22  H    0.258535
    23  H    0.238729
    24  H    0.249862
    25  H    0.249862
 Sum of Mulliken charges =   1.00000
 Mulliken charges with hydrogens summed into heavy atoms:
               1
     1  C    0.340479
     2  C   -0.155984
     3  C   -0.195493
     4  C    0.222003
     5  C    0.244272
     6  C   -0.185899
     7  C   -0.145181
     8  C    0.319957
     9  C    0.158216
    10  C    0.278018
    11  C   -0.620514
    12  C    0.679275
    13  C   -0.646416
    14  C    0.707267
 Electronic spatial extent (au):  <R**2>=           2856.6932
 Charge=              1.0000 electrons
 Dipole moment (field-independent basis, Debye):
    X=              0.0994    Y=             -0.5812    Z=              0.0000  Tot=              0.5896
 Quadrupole moment (field-independent basis, Debye-Ang):
   XX=            -50.9366   YY=            -36.4096   ZZ=            -84.1396
   XY=            -10.2958   XZ=             -0.0000   YZ=              0.0000
 Traceless Quadrupole moment (field-independent basis, Debye-Ang):
   XX=              6.2253   YY=             20.7523   ZZ=            -26.9777
   XY=            -10.2958   XZ=             -0.0000   YZ=              0.0000
 Octapole moment (field-independent basis, Debye-Ang**2):
  XXX=              1.5826  YYY=              0.3637  ZZZ=             -0.0000  XYY=              1.7700
  XXY=             -6.7376  XXZ=             -0.0000  XZZ=              3.1165  YZZ=              0.7377
  YYZ=              0.0000  XYZ=              0.0000
 Hexadecapole moment (field-independent basis, Debye-Ang**3):
 XXXX=           -991.9141 YYYY=          -1846.8842 ZZZZ=            -99.3306 XXXY=            348.8427
 XXXZ=              0.0000 YYYX=            275.2449 YYYZ=              0.0000 ZZZX=             -0.0000
 ZZZY=             -0.0000 XXYY=           -454.4065 XXZZ=           -242.4334 YYZZ=           -494.1903
 XXYZ=              0.0000 YYXZ=             -0.0000 ZZXY=            183.5706
 N-N= 7.811056573138D+02 E-N=-2.798553645496D+03  KE= 5.375070586398D+02
 Symmetry A'   KE= 5.228580875647D+02
 Symmetry A"   KE= 1.464897107509D+01
 Unable to Open any file for archive entry.
 1\1\GINC-GADI-CPU-CLX-0648\SP\RM062X TD-FC\6-311++G(d,p)\C14H11(1+)\TS
 1578\27-Jul-2022\0\\#n M062X/6-311++G(d,p) TD(NStates=1) EmpiricalDisp
 ersion=GD3 SP\\SP_75\\1,1\C,0,2.50735,1.3682,0.\C,0,3.718425,0.687575,
 0.\C,0,3.6888,-0.6932,0.\C,0,2.44765,-1.3899,0.\C,0,-2.47885,-1.4081,0
 .\C,0,-3.6796,-0.718,0.\C,0,-3.685525,0.673475,0.\C,0,-2.47995,1.3694,
 0.\C,0,0.008725,1.4643,0.\C,0,-0.0244,-1.4206,0.\C,0,1.258525,0.678075
 ,0.\C,0,1.2273,-0.72075,0.\C,0,-1.265825,0.693375,0.\C,0,-1.2473,-0.72
 315,0.\H,0,2.4934,2.451525,0.\H,0,4.654025,1.225775,0.\H,0,4.60655,-1.
 264775,0.\H,0,2.46005,-2.472625,0.\H,0,-0.0225,-2.50165,0.\H,0,-2.4746
 5,-2.490325,0.\H,0,-4.61235,-1.263875,0.\H,0,-4.620725,1.214275,0.\H,0
 ,-2.485,2.452425,0.\H,0,0.032,2.155,-0.86015\H,0,0.032,2.155,0.86015\\
 Version=ES64L-G16RevC.01\State=1-A'\HF=-539.7584996\RMSD=7.455e-09\PG=
 CS [SG(C14H9),X(H2)]\\@
 The archive entry for this job was punched.


 LIFE IS A CONTINUAL STRUGGLE AGAINST THE TENDENCY TO PRODUCE ENTROPY.
 Job cpu time:       0 days  0 hours 46 minutes 29.1 seconds.
 Elapsed time:       0 days  0 hours  1 minutes 30.0 seconds.
 File lengths (MBytes):  RWF=    460 Int=      0 D2E=      0 Chk=     15 Scr=      1
 Normal termination of Gaussian 16 at Wed Jul 27 12:04:15 2022.
