 Entering Gaussian System, Link 0=g16
 Initial command:
 /apps/gaussian/g16c01/g16/l1.exe "/jobfs/52804872.gadi-pbs/Gau-1415372.inp" -scrdir="/jobfs/52804872.gadi-pbs/"
 Entering Link 1 = /apps/gaussian/g16c01/g16/l1.exe PID=   1415373.
  
 Copyright (c) 1988-2019, Gaussian, Inc.  All Rights Reserved.
  
 This is part of the Gaussian(R) 16 program.  It is based on
 the Gaussian(R) 09 system (copyright 2009, Gaussian, Inc.),
 the Gaussian(R) 03 system (copyright 2003, Gaussian, Inc.),
 the Gaussian(R) 98 system (copyright 1998, Gaussian, Inc.),
 the Gaussian(R) 94 system (copyright 1995, Gaussian, Inc.),
 the Gaussian 92(TM) system (copyright 1992, Gaussian, Inc.),
 the Gaussian 90(TM) system (copyright 1990, Gaussian, Inc.),
 the Gaussian 88(TM) system (copyright 1988, Gaussian, Inc.),
 the Gaussian 86(TM) system (copyright 1986, Carnegie Mellon
 University), and the Gaussian 82(TM) system (copyright 1983,
 Carnegie Mellon University). Gaussian is a federally registered
 trademark of Gaussian, Inc.
  
 This software contains proprietary and confidential information,
 including trade secrets, belonging to Gaussian, Inc.
  
 This software is provided under written license and may be
 used, copied, transmitted, or stored only in accord with that
 written license.
  
 The following legend is applicable only to US Government
 contracts under FAR:
  
                    RESTRICTED RIGHTS LEGEND
  
 Use, reproduction and disclosure by the US Government is
 subject to restrictions as set forth in subparagraphs (a)
 and (c) of the Commercial Computer Software - Restricted
 Rights clause in FAR 52.227-19.
  
 Gaussian, Inc.
 340 Quinnipiac St., Bldg. 40, Wallingford CT 06492
  
  
 ---------------------------------------------------------------
 Warning -- This program may not be used in any manner that
 competes with the business of Gaussian, Inc. or will provide
 assistance to any competitor of Gaussian, Inc.  The licensee
 of this program is prohibited from giving any competitor of
 Gaussian, Inc. access to this program.  By using this program,
 the user acknowledges that Gaussian, Inc. is engaged in the
 business of creating and licensing software in the field of
 computational chemistry and represents and warrants to the
 licensee that it is not a competitor of Gaussian, Inc. and that
 it will not use this program in any manner prohibited above.
 ---------------------------------------------------------------
  

 Cite this work as:
 Gaussian 16, Revision C.01,
 M. J. Frisch, G. W. Trucks, H. B. Schlegel, G. E. Scuseria, 
 M. A. Robb, J. R. Cheeseman, G. Scalmani, V. Barone, 
 G. A. Petersson, H. Nakatsuji, X. Li, M. Caricato, A. V. Marenich, 
 J. Bloino, B. G. Janesko, R. Gomperts, B. Mennucci, H. P. Hratchian, 
 J. V. Ortiz, A. F. Izmaylov, J. L. Sonnenberg, D. Williams-Young, 
 F. Ding, F. Lipparini, F. Egidi, J. Goings, B. Peng, A. Petrone, 
 T. Henderson, D. Ranasinghe, V. G. Zakrzewski, J. Gao, N. Rega, 
 G. Zheng, W. Liang, M. Hada, M. Ehara, K. Toyota, R. Fukuda, 
 J. Hasegawa, M. Ishida, T. Nakajima, Y. Honda, O. Kitao, H. Nakai, 
 T. Vreven, K. Throssell, J. A. Montgomery, Jr., J. E. Peralta, 
 F. Ogliaro, M. J. Bearpark, J. J. Heyd, E. N. Brothers, K. N. Kudin, 
 V. N. Staroverov, T. A. Keith, R. Kobayashi, J. Normand, 
 K. Raghavachari, A. P. Rendell, J. C. Burant, S. S. Iyengar, 
 J. Tomasi, M. Cossi, J. M. Millam, M. Klene, C. Adamo, R. Cammi, 
 J. W. Ochterski, R. L. Martin, K. Morokuma, O. Farkas, 
 J. B. Foresman, and D. J. Fox, Gaussian, Inc., Wallingford CT, 2019.
 
 ******************************************
 Gaussian 16:  ES64L-G16RevC.01  3-Jul-2019
                27-Jul-2022 
 ******************************************
 %NProcShared=32
 Will use up to   32 processors via shared memory.
 %mem = 128GB
 ---------------------------------------------------------------
 #n M062X/6-311++G(d,p) TD(NStates=1) EmpiricalDispersion=GD3 SP
 ---------------------------------------------------------------
 1/38=1,172=1/1;
 2/12=2,17=6,18=5,40=1/2;
 3/5=4,6=6,7=1111,11=9,25=1,30=1,74=-55,124=31/1,2,3,8;
 4//1;
 5/5=2,38=5/2;
 8/6=1,10=2,108=1/1;
 9/41=1,42=1,70=2/14;
 6/7=2,8=2,9=2,10=2/1;
 99/5=1,9=1/99;
 ------
 SP_-75
 ------
 Symbolic Z-matrix:
 Charge =  1 Multiplicity = 1
 C                     2.4751    1.37      0. 
 C                     3.6807    0.67198   0. 
 C                     3.678    -0.72035   0. 
 C                     2.48268  -1.41023   0. 
 C                    -2.44368  -1.38748   0. 
 C                    -3.6895   -0.68935   0. 
 C                    -3.72183   0.6896    0. 
 C                    -2.50935   1.3685    0. 
 C                    -0.01093   1.461     0. 
 C                     0.0305   -1.42045   0. 
 C                     1.26663   0.69525   0. 
 C                     1.2501   -0.72368   0. 
 C                    -1.2575    0.67613   0. 
 C                    -1.2251   -0.72068   0. 
 H                     2.4823    2.45303   0. 
 H                     4.6157    1.2134    0. 
 H                     4.61285  -1.26283   0. 
 H                     2.4767   -2.49243   0. 
 H                     0.02813  -2.50158   0. 
 H                    -2.45845  -2.4703    0. 
 H                    -4.6056   -1.26395   0. 
 H                    -4.65733   1.22778   0. 
 H                    -2.4928    2.4519    0. 
 H                    -0.04      2.15425  -0.85933 
 H                    -0.04      2.15425   0.85933 
 
                          Input orientation:                          
 ---------------------------------------------------------------------
 Center     Atomic      Atomic             Coordinates (Angstroms)
 Number     Number       Type             X           Y           Z
 ---------------------------------------------------------------------
      1          6           0        2.475100    1.370000    0.000000
      2          6           0        3.680700    0.671975    0.000000
      3          6           0        3.678000   -0.720350    0.000000
      4          6           0        2.482675   -1.410225    0.000000
      5          6           0       -2.443675   -1.387475    0.000000
      6          6           0       -3.689500   -0.689350    0.000000
      7          6           0       -3.721825    0.689600    0.000000
      8          6           0       -2.509350    1.368500    0.000000
      9          6           0       -0.010925    1.461000    0.000000
     10          6           0        0.030500   -1.420450    0.000000
     11          6           0        1.266625    0.695250    0.000000
     12          6           0        1.250100   -0.723675    0.000000
     13          6           0       -1.257500    0.676125    0.000000
     14          6           0       -1.225100   -0.720675    0.000000
     15          1           0        2.482300    2.453025    0.000000
     16          1           0        4.615700    1.213400    0.000000
     17          1           0        4.612850   -1.262825    0.000000
     18          1           0        2.476700   -2.492425    0.000000
     19          1           0        0.028125   -2.501575    0.000000
     20          1           0       -2.458450   -2.470300    0.000000
     21          1           0       -4.605600   -1.263950    0.000000
     22          1           0       -4.657325    1.227775    0.000000
     23          1           0       -2.492800    2.451900    0.000000
     24          1           0       -0.040000    2.154250   -0.859325
     25          1           0       -0.040000    2.154250    0.859325
 ---------------------------------------------------------------------
                    Distance matrix (angstroms):
                    1          2          3          4          5
     1  C    0.000000
     2  C    1.393094   0.000000
     3  C    2.411749   1.392328   0.000000
     4  C    2.780235   2.402253   1.380119   0.000000
     5  C    5.638973   6.461370   6.157919   4.926403   0.000000
     6  C    6.499478   7.494868   7.367565   6.214129   1.428096
     7  C    6.234166   7.402546   7.532952   6.550197   2.438833
     8  C    4.984450   6.229114   6.530436   5.713285   2.756757
     9  C    2.487690   3.775004   4.285610   3.802890   3.745942
    10  C    3.709809   4.207399   3.714081   2.452196   2.474395
    11  C    1.384088   2.414187   2.796185   2.431420   4.254888
    12  C    2.425716   2.802794   2.427902   1.410883   3.752946
    13  C    3.796546   4.938202   5.129259   4.282729   2.380222
    14  C    4.249988   5.099642   4.903100   3.771349   1.389081
    15  H    1.083049   2.146696   3.391166   3.863250   6.246172
    16  H    2.146321   1.080447   2.149109   3.381302   7.523252
    17  H    3.391422   2.147639   1.080844   2.135269   7.057626
    18  H    3.862425   3.385712   2.140881   1.082216   5.042916
    19  H    4.580041   4.838670   4.061324   2.686235   2.711275
    20  H    6.252025   6.896597   6.381093   5.053561   1.082926
    21  H    7.554734   8.509440   8.301417   7.089784   2.165451
    22  H    7.133843   8.356529   8.559955   7.611744   3.426336
    23  H    5.084342   6.424970   6.938440   6.298521   3.839689
    24  H    2.771140   4.096241   4.777582   4.450597   4.365766
    25  H    2.771140   4.096241   4.777582   4.450597   4.365766
                    6          7          8          9         10
     6  C    0.000000
     7  C    1.379329   0.000000
     8  C    2.372235   1.389605   0.000000
     9  C    4.260976   3.790229   2.500137   0.000000
    10  C    3.791162   4.304910   3.772145   2.881748   0.000000
    11  C    5.145901   4.988453   3.835525   1.489465   2.450345
    12  C    4.939719   5.168886   4.302402   2.522497   1.404607
    13  C    2.789112   2.464362   1.430563   1.473085   2.460604
    14  C    2.464599   2.867492   2.452336   2.496783   1.437434
    15  H    6.925723   6.449871   5.108108   2.683335   4.584226
    16  H    8.520376   8.353963   7.126738   4.633246   5.287837
    17  H    8.322132   8.560302   7.592734   5.366425   4.585060
    18  H    6.424415   6.967567   6.306143   4.670958   2.670772
    19  H    4.135806   4.923995   4.627771   3.962767   1.081128
    20  H    2.165010   3.403099   3.839137   4.630928   2.701307
    21  H    1.081390   2.144159   3.365124   5.341946   4.638741
    22  H    2.147569   1.079256   2.152580   4.652250   5.384125
    23  H    3.361479   2.148535   1.083526   2.672375   4.621919
    24  H    4.705672   4.054562   2.730116   1.104482   3.677212
    25  H    4.705672   4.054562   2.730116   1.104482   3.677212
                   11         12         13         14         15
    11  C    0.000000
    12  C    1.419021   0.000000
    13  C    2.524197   2.871846   0.000000
    14  C    2.865927   2.475202   1.397176   0.000000
    15  H    2.137203   3.407307   4.140468   4.880285   0.000000
    16  H    3.388921   3.883236   5.897724   6.152690   2.467401
    17  H    3.877019   3.405697   6.182276   5.863070   4.283315
    18  H    3.409627   2.152446   4.897342   4.103952   4.945453
    19  H    3.428348   2.157348   3.427916   2.177654   5.529108
    20  H    4.888445   4.099273   3.367829   2.140640   6.974965
    21  H    6.190435   5.880571   3.869582   3.423876   8.003389
    22  H    5.947837   6.221401   3.444289   3.946723   7.243996
    23  H    4.149590   4.908521   2.163179   3.416474   4.975100
    24  H    2.138782   3.268830   2.098952   3.226158   2.681362
    25  H    2.138782   3.268830   2.098952   3.226158   2.681362
                   16         17         18         19         20
    16  H    0.000000
    17  H    2.476227   0.000000
    18  H    4.278839   2.464762   0.000000
    19  H    5.903125   4.749127   2.448592   0.000000
    20  H    7.975791   7.173652   4.935200   2.486772   0.000000
    21  H    9.548279   9.218450   7.188054   4.796157   2.462830
    22  H    9.273036   9.598918   8.045757   5.988447   4.302419
    23  H    7.215584   8.018070   7.010155   5.558055   4.922320
    24  H    4.826922   5.836425   5.353859   4.734954   5.289027
    25  H    4.826922   5.836425   5.353859   4.734954   5.289027
                   21         22         23         24         25
    21  H    0.000000
    22  H    2.492262   0.000000
    23  H    4.274513   2.486695   0.000000
    24  H    5.767775   4.787117   2.615963   0.000000
    25  H    5.767775   4.787117   2.615963   1.718650   0.000000
 Stoichiometry    C14H11(1+)
 Framework group  CS[SG(C14H9),X(H2)]
 Deg. of freedom    46
 Full point group                 CS      NOp   2
 Largest Abelian subgroup         CS      NOp   2
 Largest concise Abelian subgroup CS      NOp   2
                         Standard orientation:                         
 ---------------------------------------------------------------------
 Center     Atomic      Atomic             Coordinates (Angstroms)
 Number     Number       Type             X           Y           Z
 ---------------------------------------------------------------------
      1          6           0       -2.363272   -1.548068    0.000000
      2          6           0       -2.312135   -2.940223    0.000000
      3          6           0       -1.081138   -3.590778    0.000000
      4          6           0        0.088730   -2.858563    0.000000
      5          6           0        2.378880    1.503163    0.000000
      6          6           0        2.346519    2.930892    0.000000
      7          6           0        1.143760    3.606110    0.000000
      8          6           0       -0.024457    2.853601    0.000000
      9          6           0       -1.277808    0.690317    0.000000
     10          6           0        1.247724   -0.697545    0.000000
     11          6           0       -1.200596   -0.797146    0.000000
     12          6           0        0.060378   -1.447965    0.000000
     13          6           0        0.000000    1.423246    0.000000
     14          6           0        1.218489    0.739592    0.000000
     15          1           0       -3.323199   -1.046536    0.000000
     16          1           0       -3.228807   -3.512130    0.000000
     17          1           0       -1.040416   -4.670855    0.000000
     18          1           0        1.047354   -3.360790    0.000000
     19          1           0        2.203710   -1.202448    0.000000
     20          1           0        3.342183    1.008415    0.000000
     21          1           0        3.283629    3.470549    0.000000
     22          1           0        1.107141    4.684744    0.000000
     23          1           0       -0.989100    3.347051    0.000000
     24          1           0       -1.876466    1.041101    0.859325
     25          1           0       -1.876466    1.041101   -0.859325
 ---------------------------------------------------------------------
 Rotational constants (GHZ):           2.1367410           0.4446403           0.3688511
 Standard basis: 6-311++G(d,p) (5D, 7F)
 There are   299 symmetry adapted cartesian basis functions of A'  symmetry.
 There are   100 symmetry adapted cartesian basis functions of A"  symmetry.
 There are   285 symmetry adapted basis functions of A'  symmetry.
 There are   100 symmetry adapted basis functions of A"  symmetry.
   385 basis functions,   603 primitive gaussians,   399 cartesian basis functions
    47 alpha electrons       47 beta electrons
       nuclear repulsion energy       781.2635060701 Hartrees.
 NAtoms=   25 NActive=   25 NUniq=   24 SFac= 1.09D+00 NAtFMM=   60 NAOKFM=F Big=F
 Integral buffers will be    131072 words long.
 Regular integral format.
 Two-electron integral symmetry is turned on.
 Nuclear repulsion after empirical dispersion term =      781.2625267631 Hartrees.
 One-electron integrals computed using PRISM.
 NBasis=   385 RedAO= T EigKep=  1.12D-06  NBF=   285   100
 NBsUse=   379 1.00D-06 EigRej=  8.37D-07 NBFU=   279   100
 ExpMin= 3.60D-02 ExpMax= 4.56D+03 ExpMxC= 6.82D+02 IAcc=3 IRadAn=         5 AccDes= 0.00D+00
 Harris functional with IExCor= 1009 and IRadAn=       5 diagonalized for initial guess.
 HarFok:  IExCor= 1009 AccDes= 0.00D+00 IRadAn=         5 IDoV= 1 UseB2=F ITyADJ=14
 ICtDFT=  3500011 ScaDFX=  1.000000  1.000000  1.000000  1.000000
 FoFCou: FMM=F IPFlag=           0 FMFlag=      100000 FMFlg1=           0
         NFxFlg=           0 DoJE=T BraDBF=F KetDBF=T FulRan=T
         wScrn=  0.000000 ICntrl=       500 IOpCl=  0 I1Cent=   200000004 NGrid=           0
         NMat0=    1 NMatS0=      1 NMatT0=    0 NMatD0=    1 NMtDS0=    0 NMtDT0=    0
 Petite list used in FoFCou.
 Initial guess orbital symmetries:
       Occupied  (A') (A') (A') (A') (A') (A') (A') (A') (A') (A')
                 (A') (A') (A') (A') (A') (A') (A') (A') (A') (A')
                 (A') (A') (A') (A') (A') (A') (A') (A') (A') (A')
                 (A') (A') (A") (A') (A') (A') (A') (A') (A") (A')
                 (A") (A') (A') (A") (A") (A") (A")
       Virtual   (A") (A") (A") (A") (A") (A') (A') (A') (A') (A")
                 (A") (A') (A') (A') (A") (A') (A') (A') (A') (A")
                 (A') (A") (A') (A') (A') (A") (A') (A") (A') (A')
                 (A') (A') (A') (A') (A") (A') (A") (A') (A') (A')
                 (A") (A') (A') (A") (A') (A') (A') (A') (A') (A")
                 (A') (A') (A") (A") (A') (A') (A') (A") (A") (A')
                 (A') (A') (A') (A') (A') (A') (A") (A') (A') (A")
                 (A') (A') (A') (A') (A') (A') (A') (A') (A') (A')
                 (A') (A') (A') (A') (A') (A') (A') (A') (A') (A')
                 (A') (A') (A') (A') (A') (A') (A') (A") (A') (A")
                 (A') (A') (A") (A") (A') (A") (A') (A") (A") (A')
                 (A") (A') (A') (A') (A") (A') (A') (A") (A") (A')
                 (A") (A") (A') (A') (A') (A") (A') (A') (A') (A")
                 (A') (A') (A') (A') (A') (A') (A") (A') (A') (A')
                 (A') (A') (A') (A') (A') (A') (A') (A') (A') (A")
                 (A") (A') (A") (A") (A') (A') (A') (A") (A") (A')
                 (A") (A') (A") (A") (A") (A') (A') (A') (A') (A')
                 (A') (A") (A') (A") (A') (A') (A') (A') (A') (A")
                 (A') (A') (A') (A') (A") (A') (A") (A') (A") (A")
                 (A') (A") (A') (A") (A') (A') (A') (A") (A') (A')
                 (A") (A") (A") (A') (A') (A") (A') (A") (A') (A')
                 (A") (A") (A') (A") (A') (A") (A') (A') (A') (A")
                 (A') (A') (A') (A') (A") (A') (A') (A') (A") (A")
                 (A') (A') (A') (A") (A') (A') (A") (A') (A") (A')
                 (A") (A') (A') (A') (A') (A") (A') (A') (A') (A")
                 (A') (A') (A") (A') (A") (A') (A') (A") (A') (A')
                 (A') (A") (A') (A") (A') (A') (A') (A") (A') (A")
                 (A') (A') (A') (A') (A") (A') (A") (A') (A") (A')
                 (A") (A') (A") (A") (A") (A') (A') (A') (A') (A')
                 (A') (A') (A') (A') (A') (A') (A') (A') (A') (A')
                 (A') (A') (A') (A') (A") (A') (A') (A') (A') (A')
                 (A') (A') (A') (A') (A') (A') (A') (A') (A') (A')
                 (A') (A') (A') (A') (A') (A') (A') (A') (A') (A')
                 (A') (A')
 The electronic state of the initial guess is 1-A'.
 Requested convergence on RMS density matrix=1.00D-08 within 128 cycles.
 Requested convergence on MAX density matrix=1.00D-06.
 Requested convergence on             energy=1.00D-06.
 No special actions if energy rises.
 SCF Done:  E(RM062X) =  -539.757482571     A.U. after   15 cycles
            NFock= 15  Conv=0.82D-08     -V/T= 2.0042
 DoSCS=F DFT=T ScalE2(SS,OS)=  1.000000  1.000000
 ExpMin= 3.60D-02 ExpMax= 4.56D+03 ExpMxC= 6.82D+02 IAcc=3 IRadAn=         5 AccDes= 0.00D+00
 HarFok:  IExCor=  205 AccDes= 0.00D+00 IRadAn=         5 IDoV=-2 UseB2=F ITyADJ=14
 ICtDFT= 12500011 ScaDFX=  1.000000  1.000000  1.000000  1.000000
 Range of M.O.s used for correlation:    15   379
 NBasis=   385 NAE=    47 NBE=    47 NFC=    14 NFV=     0
 NROrb=    365 NOA=    33 NOB=    33 NVA=   332 NVB=   332

 **** Warning!!: The largest alpha MO coefficient is  0.13668521D+03

 Orbital symmetries:
       Occupied  (A') (A') (A') (A') (A') (A') (A') (A') (A') (A')
                 (A') (A') (A') (A') (A') (A') (A') (A') (A') (A')
                 (A') (A') (A') (A') (A') (A') (A') (A') (A') (A')
                 (A') (A') (A") (A') (A') (A') (A') (A") (A") (A')
                 (A') (A') (A') (A") (A") (A") (A")
       Virtual   (A") (A") (A") (A") (A') (A') (A') (A') (A") (A')
                 (A') (A") (A') (A') (A") (A') (A") (A') (A') (A')
                 (A") (A") (A') (A') (A') (A") (A') (A") (A') (A')
                 (A") (A') (A") (A') (A') (A') (A') (A') (A") (A')
                 (A") (A') (A') (A") (A") (A') (A") (A') (A") (A')
                 (A') (A') (A') (A') (A') (A") (A') (A') (A') (A')
                 (A') (A") (A') (A') (A') (A") (A') (A') (A') (A')
                 (A') (A') (A') (A') (A') (A') (A') (A') (A') (A')
                 (A') (A') (A') (A') (A') (A') (A') (A') (A') (A')
                 (A') (A') (A') (A') (A") (A') (A") (A") (A') (A")
                 (A') (A') (A') (A') (A") (A") (A') (A") (A") (A')
                 (A') (A') (A") (A') (A') (A") (A') (A") (A') (A")
                 (A") (A') (A") (A') (A') (A') (A") (A') (A') (A')
                 (A') (A') (A') (A') (A') (A') (A') (A') (A') (A')
                 (A') (A') (A') (A") (A') (A') (A') (A') (A') (A')
                 (A') (A') (A") (A') (A") (A') (A") (A") (A') (A")
                 (A") (A') (A') (A") (A") (A") (A') (A") (A') (A')
                 (A') (A') (A') (A") (A") (A') (A') (A') (A') (A")
                 (A') (A') (A') (A") (A") (A') (A') (A") (A') (A")
                 (A") (A') (A') (A") (A') (A") (A') (A') (A') (A')
                 (A") (A") (A") (A') (A") (A') (A') (A") (A') (A')
                 (A') (A") (A') (A") (A") (A') (A") (A') (A') (A")
                 (A') (A') (A') (A') (A") (A') (A') (A') (A") (A")
                 (A') (A') (A') (A") (A') (A') (A') (A") (A") (A')
                 (A") (A') (A') (A") (A') (A') (A') (A') (A') (A')
                 (A") (A') (A') (A') (A') (A") (A") (A") (A') (A')
                 (A') (A') (A') (A') (A') (A') (A") (A') (A') (A')
                 (A') (A") (A') (A") (A") (A") (A') (A") (A') (A")
                 (A') (A") (A") (A') (A") (A") (A') (A') (A') (A')
                 (A') (A') (A') (A') (A') (A') (A') (A') (A') (A')
                 (A') (A') (A') (A") (A') (A') (A') (A') (A') (A')
                 (A') (A') (A') (A') (A') (A') (A') (A') (A') (A')
                 (A') (A') (A') (A') (A') (A') (A') (A') (A') (A')
                 (A') (A')
     4 initial guesses have been made.
 Convergence on wavefunction:    0.001000000000000
 Iteration     1 Dimension     4 NMult     0 NNew      4
 CISAX will form     4 AO SS matrices at one time.
 Iteration     2 Dimension     6 NMult     4 NNew      2
 Iteration     3 Dimension     8 NMult     6 NNew      2
 Iteration     4 Dimension    10 NMult     8 NNew      2
 Iteration     5 Dimension    12 NMult    10 NNew      2
 Iteration     6 Dimension    14 NMult    12 NNew      2
 ***********************************************************************
 Excited states from <AA,BB:AA,BB> singles matrix:
 ***********************************************************************
 
 Ground to excited state transition densities written to RWF  633
 Ground to excited state transition electric dipole moments (Au):
       state          X           Y           Z        Dip. S.      Osc.
         1        -0.5042      0.3045      0.0000      0.3469      0.0233
 Ground to excited state transition velocity dipole moments (Au):
       state          X           Y           Z        Dip. S.      Osc.
         1         0.0586     -0.0315     -0.0000      0.0044      0.0293
 Ground to excited state transition magnetic dipole moments (Au):
       state          X           Y           Z
         1         0.0000      0.0000     -0.1564
 Ground to excited state transition velocity quadrupole moments (Au):
       state          XX          YY          ZZ          XY          XZ          YZ
         1         0.1390      0.1542     -0.0089      0.1366     -0.0000      0.0000
 <0|del|b> * <b|rxdel|0> + <0|del|b> * <b|delr+rdel|0>
 Rotatory Strengths (R) in cgs (10**-40 erg-esu-cm/Gauss)
       state          XX          YY          ZZ    R(velocity)    E-M Angle
         1        -0.0000      0.0000     -0.0000      0.0000       90.00
 1/2[<0|r|b>*<b|rxdel|0> + (<0|rxdel|b>*<b|r|0>)*]
 Rotatory Strengths (R) in cgs (10**-40 erg-esu-cm/Gauss)
       state          XX          YY          ZZ     R(length)
         1         0.0000     -0.0000      0.0000      0.0000
  1/2[<0|del|b>*<b|r|0> + (<0|r|b>*<b|del|0>)*] (Au)
       state          X           Y           Z        Dip. S.   Osc.(frdel)
         1        -0.0296     -0.0096     -0.0000      0.0392      0.0261

 Excitation energies and oscillator strengths:
 
 Excited State   1:      Singlet-A'     2.7454 eV  451.60 nm  f=0.0233  <S**2>=0.000
      47 -> 48         0.70369
 This state for optimization and/or second-order correction.
 Total Energy, E(TD-HF/TD-DFT) =  -539.656589270    
 Copying the excited state density for this state as the 1-particle RhoCI density.
 SavETr:  write IOETrn=   770 NScale= 10 NData=  16 NLR=1 NState=    1 LETran=      28.

 **********************************************************************

            Population analysis using the SCF Density.

 **********************************************************************

 Orbital symmetries:
       Occupied  (A') (A') (A') (A') (A') (A') (A') (A') (A') (A')
                 (A') (A') (A') (A') (A') (A') (A') (A') (A') (A')
                 (A') (A') (A') (A') (A') (A') (A') (A') (A') (A')
                 (A') (A') (A") (A') (A') (A') (A') (A") (A") (A')
                 (A') (A') (A') (A") (A") (A") (A")
       Virtual   (A") (A") (A") (A") (A') (A') (A') (A') (A") (A')
                 (A') (A") (A') (A') (A") (A') (A") (A') (A') (A')
                 (A") (A") (A') (A') (A') (A") (A') (A") (A') (A')
                 (A") (A') (A") (A') (A') (A') (A') (A') (A") (A')
                 (A") (A') (A') (A") (A") (A') (A") (A') (A") (A')
                 (A') (A') (A') (A') (A') (A") (A') (A') (A') (A')
                 (A') (A") (A') (A') (A') (A") (A') (A') (A') (A')
                 (A') (A') (A') (A') (A') (A') (A') (A') (A') (A')
                 (A') (A') (A') (A') (A') (A') (A') (A') (A') (A')
                 (A') (A') (A') (A') (A") (A') (A") (A") (A') (A")
                 (A') (A') (A') (A') (A") (A") (A') (A") (A") (A')
                 (A') (A') (A") (A') (A') (A") (A') (A") (A') (A")
                 (A") (A') (A") (A') (A') (A') (A") (A') (A') (A')
                 (A') (A') (A') (A') (A') (A') (A') (A') (A') (A')
                 (A') (A') (A') (A") (A') (A') (A') (A') (A') (A')
                 (A') (A') (A") (A') (A") (A') (A") (A") (A') (A")
                 (A") (A') (A') (A") (A") (A") (A') (A") (A') (A')
                 (A') (A') (A') (A") (A") (A') (A') (A') (A') (A")
                 (A') (A') (A') (A") (A") (A') (A') (A") (A') (A")
                 (A") (A') (A') (A") (A') (A") (A') (A') (A') (A')
                 (A") (A") (A") (A') (A") (A') (A') (A") (A') (A')
                 (A') (A") (A') (A") (A") (A') (A") (A') (A') (A")
                 (A') (A') (A') (A') (A") (A') (A') (A') (A") (A")
                 (A') (A') (A') (A") (A') (A') (A') (A") (A") (A')
                 (A") (A') (A') (A") (A') (A') (A') (A') (A') (A')
                 (A") (A') (A') (A') (A') (A") (A") (A") (A') (A')
                 (A') (A') (A') (A') (A') (A') (A") (A') (A') (A')
                 (A') (A") (A') (A") (A") (A") (A') (A") (A') (A")
                 (A') (A") (A") (A') (A") (A") (A') (A') (A') (A')
                 (A') (A') (A') (A') (A') (A') (A') (A') (A') (A')
                 (A') (A') (A') (A") (A') (A') (A') (A') (A') (A')
                 (A') (A') (A') (A') (A') (A') (A') (A') (A') (A')
                 (A') (A') (A') (A') (A') (A') (A') (A') (A') (A')
                 (A') (A')
 The electronic state is 1-A'.
 Alpha  occ. eigenvalues --  -10.77629 -10.73588 -10.72869 -10.72707 -10.72125
 Alpha  occ. eigenvalues --  -10.71699 -10.71664 -10.71015 -10.70978 -10.70379
 Alpha  occ. eigenvalues --  -10.70135 -10.69832 -10.69809 -10.69423  -1.16492
 Alpha  occ. eigenvalues --   -1.12474  -1.06941  -1.05793  -1.01302  -1.00295
 Alpha  occ. eigenvalues --   -0.95685  -0.91048  -0.86430  -0.85899  -0.83803
 Alpha  occ. eigenvalues --   -0.78372  -0.76083  -0.74396  -0.69661  -0.69280
 Alpha  occ. eigenvalues --   -0.68416  -0.68138  -0.68094  -0.65002  -0.64255
 Alpha  occ. eigenvalues --   -0.62911  -0.61751  -0.60252  -0.59437  -0.59122
 Alpha  occ. eigenvalues --   -0.56922  -0.55249  -0.54704  -0.52438  -0.46946
 Alpha  occ. eigenvalues --   -0.46099  -0.44155
 Alpha virt. eigenvalues --   -0.26093  -0.14669  -0.14088  -0.12768  -0.11184
 Alpha virt. eigenvalues --   -0.10090  -0.09242  -0.07973  -0.07949  -0.07480
 Alpha virt. eigenvalues --   -0.07208  -0.07142  -0.05644  -0.05579  -0.05342
 Alpha virt. eigenvalues --   -0.03837  -0.03655  -0.03277  -0.03132  -0.02161
 Alpha virt. eigenvalues --   -0.01360  -0.00942   0.00189   0.00593   0.00658
 Alpha virt. eigenvalues --    0.01061   0.01508   0.01935   0.02182   0.02298
 Alpha virt. eigenvalues --    0.02449   0.02672   0.02769   0.03264   0.03416
 Alpha virt. eigenvalues --    0.04231   0.04502   0.04707   0.05034   0.05376
 Alpha virt. eigenvalues --    0.06028   0.06294   0.06589   0.07051   0.07260
 Alpha virt. eigenvalues --    0.07899   0.08124   0.08359   0.08590   0.08920
 Alpha virt. eigenvalues --    0.09514   0.09581   0.10010   0.10851   0.11010
 Alpha virt. eigenvalues --    0.11120   0.12141   0.12251   0.12799   0.13018
 Alpha virt. eigenvalues --    0.13442   0.13523   0.14003   0.14353   0.16024
 Alpha virt. eigenvalues --    0.16349   0.16438   0.17337   0.17555   0.17794
 Alpha virt. eigenvalues --    0.18125   0.19056   0.19316   0.19635   0.19823
 Alpha virt. eigenvalues --    0.21520   0.21633   0.22703   0.23135   0.23564
 Alpha virt. eigenvalues --    0.23863   0.24549   0.25354   0.26931   0.27613
 Alpha virt. eigenvalues --    0.28857   0.29280   0.29898   0.31360   0.35808
 Alpha virt. eigenvalues --    0.36453   0.38196   0.39280   0.41113   0.41351
 Alpha virt. eigenvalues --    0.41975   0.42154   0.42983   0.43703   0.44340
 Alpha virt. eigenvalues --    0.44840   0.45104   0.45969   0.46311   0.47912
 Alpha virt. eigenvalues --    0.48470   0.48836   0.49028   0.50473   0.51153
 Alpha virt. eigenvalues --    0.51376   0.51933   0.52127   0.52845   0.54057
 Alpha virt. eigenvalues --    0.54104   0.54632   0.55659   0.55851   0.57489
 Alpha virt. eigenvalues --    0.58232   0.58882   0.61473   0.62215   0.62386
 Alpha virt. eigenvalues --    0.63190   0.63485   0.64966   0.65159   0.67372
 Alpha virt. eigenvalues --    0.70376   0.70521   0.71126   0.72463   0.72892
 Alpha virt. eigenvalues --    0.75663   0.76050   0.76364   0.76816   0.77116
 Alpha virt. eigenvalues --    0.77861   0.77949   0.78267   0.79894   0.80398
 Alpha virt. eigenvalues --    0.81251   0.81575   0.82281   0.83005   0.85220
 Alpha virt. eigenvalues --    0.87110   0.88185   0.88384   0.89212   0.90531
 Alpha virt. eigenvalues --    0.91084   0.91335   0.93243   0.94618   0.96344
 Alpha virt. eigenvalues --    0.96799   1.00301   1.01281   1.01604   1.02777
 Alpha virt. eigenvalues --    1.03233   1.03331   1.04803   1.05983   1.08828
 Alpha virt. eigenvalues --    1.19575   1.23109   1.24124   1.24768   1.28518
 Alpha virt. eigenvalues --    1.29473   1.32026   1.34280   1.35768   1.35987
 Alpha virt. eigenvalues --    1.39351   1.39910   1.40912   1.42969   1.43481
 Alpha virt. eigenvalues --    1.43541   1.44413   1.46369   1.46370   1.46641
 Alpha virt. eigenvalues --    1.47670   1.48107   1.51769   1.53652   1.55791
 Alpha virt. eigenvalues --    1.55819   1.56323   1.56575   1.57808   1.61472
 Alpha virt. eigenvalues --    1.63136   1.63349   1.64029   1.66108   1.68327
 Alpha virt. eigenvalues --    1.68351   1.68695   1.69778   1.74417   1.76011
 Alpha virt. eigenvalues --    1.77187   1.78067   1.79961   1.80077   1.80800
 Alpha virt. eigenvalues --    1.82994   1.83199   1.83628   1.83840   1.84166
 Alpha virt. eigenvalues --    1.84429   1.85604   1.86301   1.88297   1.91409
 Alpha virt. eigenvalues --    1.92119   1.94102   1.95277   1.97741   1.98162
 Alpha virt. eigenvalues --    1.99782   2.02469   2.04487   2.07285   2.11772
 Alpha virt. eigenvalues --    2.12124   2.14184   2.15243   2.19108   2.21258
 Alpha virt. eigenvalues --    2.22769   2.28529   2.30272   2.34584   2.34883
 Alpha virt. eigenvalues --    2.36290   2.38636   2.39639   2.42359   2.44549
 Alpha virt. eigenvalues --    2.46149   2.46568   2.49295   2.52941   2.53798
 Alpha virt. eigenvalues --    2.54294   2.56791   2.57880   2.58359   2.59524
 Alpha virt. eigenvalues --    2.59890   2.61578   2.62147   2.63562   2.63776
 Alpha virt. eigenvalues --    2.64809   2.65103   2.65112   2.65501   2.67984
 Alpha virt. eigenvalues --    2.68497   2.70950   2.71441   2.73361   2.74818
 Alpha virt. eigenvalues --    2.76293   2.78651   2.79695   2.83025   2.83139
 Alpha virt. eigenvalues --    2.84881   2.86300   2.92123   2.97048   2.99471
 Alpha virt. eigenvalues --    3.00115   3.05123   3.10251   3.11363   3.13733
 Alpha virt. eigenvalues --    3.20859   3.23006   3.26580   3.28584   3.30603
 Alpha virt. eigenvalues --    3.32809   3.34239   3.43650   3.46070   3.46744
 Alpha virt. eigenvalues --    3.48456   3.50130   3.56491   3.65677   3.66944
 Alpha virt. eigenvalues --    3.67673   3.93977   3.94201   3.95351   3.96354
 Alpha virt. eigenvalues --    4.03976   4.06701   4.07625   4.12536   4.35468
 Alpha virt. eigenvalues --    4.61262   4.69545   4.71436  23.45284  23.60336
 Alpha virt. eigenvalues --   23.81225  23.83923  23.86456  23.89189  23.91300
 Alpha virt. eigenvalues --   23.94464  23.96228  23.97868  24.01906  24.03729
 Alpha virt. eigenvalues --   24.10915  24.11779
          Condensed to atoms (all electrons):
               1          2          3          4          5          6
     1  C    8.412991   0.487945  -0.626754   1.789512  -0.003438  -0.087868
     2  C    0.487945   7.147366   0.409330  -1.002515  -0.036071  -0.015226
     3  C   -0.626754   0.409330   6.599537   0.726050  -0.114975   0.016905
     4  C    1.789512  -1.002515   0.726050  11.299806  -0.360044  -0.133700
     5  C   -0.003438  -0.036071  -0.114975  -0.360044  10.738328   0.802350
     6  C   -0.087868  -0.015226   0.016905  -0.133700   0.802350   6.588632
     7  C   -0.030330   0.001384  -0.013732   0.000426  -1.147832   0.287872
     8  C    0.406868  -0.008438  -0.102812  -0.059486   2.156479  -0.445877
     9  C   -1.182682  -0.834946   0.292997  -0.058455  -0.373237   0.291718
    10  C   -1.211413   0.181673  -0.292634  -2.716484  -2.438419  -0.413946
    11  C    0.308099  -0.840046   0.928511  -0.280196  -1.444497  -0.132388
    12  C   -1.819003   1.118731  -1.347458  -1.589687  -0.248409  -0.259026
    13  C    0.187376  -0.218084  -0.212964  -1.565790  -0.288051   1.088273
    14  C   -1.123972  -0.269140  -0.142519  -0.421581  -1.594473  -1.461478
    15  H    0.366310  -0.105079  -0.002871   0.025539   0.006319   0.001196
    16  H   -0.020026   0.381479  -0.019935   0.016107  -0.001651  -0.000349
    17  H   -0.020587  -0.020965   0.379188  -0.068904   0.000181   0.000407
    18  H    0.047702   0.003387  -0.084261   0.462336   0.006503  -0.004991
    19  H   -0.044646  -0.008020   0.050976  -0.077607  -0.064181   0.051304
    20  H    0.007120   0.002012  -0.005174   0.006414   0.454020  -0.084574
    21  H   -0.001260  -0.000414   0.000388   0.000440  -0.066514   0.370061
    22  H    0.000484   0.000332  -0.000307  -0.001413   0.011130  -0.013140
    23  H    0.006455  -0.002450   0.001011   0.005064   0.028968   0.000205
    24  H    0.036115   0.015458  -0.001354  -0.011609  -0.012943  -0.001703
    25  H    0.036115   0.015458  -0.001354  -0.011609  -0.012943  -0.001703
               7          8          9         10         11         12
     1  C   -0.030330   0.406868  -1.182682  -1.211413   0.308099  -1.819003
     2  C    0.001384  -0.008438  -0.834946   0.181673  -0.840046   1.118731
     3  C   -0.013732  -0.102812   0.292997  -0.292634   0.928511  -1.347458
     4  C    0.000426  -0.059486  -0.058455  -2.716484  -0.280196  -1.589687
     5  C   -1.147832   2.156479  -0.373237  -2.438419  -1.444497  -0.248409
     6  C    0.287872  -0.445877   0.291718  -0.413946  -0.132388  -0.259026
     7  C    7.147620   0.127794  -0.776679   0.315100  -0.280244  -0.118986
     8  C    0.127794   8.815626  -1.162330  -1.348311   0.238110  -1.047005
     9  C   -0.776679  -1.162330   9.624849   0.253741   1.669323  -2.076942
    10  C    0.315100  -1.348311   0.253741   9.165298  -0.391511   2.398770
    11  C   -0.280244   0.238110   1.669323  -0.391511  14.578590  -4.016746
    12  C   -0.118986  -1.047005  -2.076942   2.398770  -4.016746  16.212326
    13  C   -0.980314   0.290053   1.561897  -0.515379   1.081535  -4.766620
    14  C    1.600631  -2.364529  -1.812585   2.461180  -4.838796   3.072891
    15  H   -0.002854   0.005189   0.088757  -0.008354  -0.029371  -0.016298
    16  H    0.000390   0.000936   0.002709  -0.010227   0.026323  -0.031878
    17  H   -0.000381  -0.001379  -0.005132   0.020197  -0.026360   0.087336
    18  H    0.002057   0.007234  -0.023543   0.010210  -0.009230  -0.048465
    19  H   -0.007388  -0.048250   0.075483   0.422235   0.076608  -0.080161
    20  H    0.002380   0.052433  -0.025947   0.015107  -0.011977  -0.009513
    21  H   -0.010831  -0.029454  -0.006336   0.020633  -0.006303   0.005358
    22  H    0.375171  -0.017767   0.004189  -0.008585   0.002708  -0.008121
    23  H   -0.106751   0.368521   0.094460  -0.010812   0.005383   0.005491
    24  H    0.013357   0.029028   0.356747   0.005465   0.021478  -0.059694
    25  H    0.013357   0.029028   0.356747   0.005465   0.021478  -0.059694
              13         14         15         16         17         18
     1  C    0.187376  -1.123972   0.366310  -0.020026  -0.020587   0.047702
     2  C   -0.218084  -0.269140  -0.105079   0.381479  -0.020965   0.003387
     3  C   -0.212964  -0.142519  -0.002871  -0.019935   0.379188  -0.084261
     4  C   -1.565790  -0.421581   0.025539   0.016107  -0.068904   0.462336
     5  C   -0.288051  -1.594473   0.006319  -0.001651   0.000181   0.006503
     6  C    1.088273  -1.461478   0.001196  -0.000349   0.000407  -0.004991
     7  C   -0.980314   1.600631  -0.002854   0.000390  -0.000381   0.002057
     8  C    0.290053  -2.364529   0.005189   0.000936  -0.001379   0.007234
     9  C    1.561897  -1.812585   0.088757   0.002709  -0.005132  -0.023543
    10  C   -0.515379   2.461180  -0.008354  -0.010227   0.020197   0.010210
    11  C    1.081535  -4.838796  -0.029371   0.026323  -0.026360  -0.009230
    12  C   -4.766620   3.072891  -0.016298  -0.031878   0.087336  -0.048465
    13  C   14.427830  -3.506586  -0.001972   0.003332  -0.006316  -0.012144
    14  C   -3.506586  15.954732   0.007353  -0.010025   0.005224  -0.018567
    15  H   -0.001972   0.007353   0.435431  -0.008932   0.001608   0.000231
    16  H    0.003332  -0.010025  -0.008932   0.417050  -0.006966   0.001951
    17  H   -0.006316   0.005224   0.001608  -0.006966   0.420582  -0.010102
    18  H   -0.012144  -0.018567   0.000231   0.001951  -0.010102   0.449827
    19  H    0.080792  -0.051439   0.000375  -0.000583   0.001625  -0.005849
    20  H   -0.004745  -0.061031  -0.000121   0.000018  -0.000159   0.001267
    21  H   -0.028022   0.095870   0.000016  -0.000007   0.000010  -0.000126
    22  H    0.027127  -0.034204  -0.000124   0.000007  -0.000007   0.000012
    23  H   -0.032422  -0.032826   0.000579  -0.000130   0.000011  -0.000104
    24  H    0.005426  -0.060313  -0.000923   0.000627  -0.000136   0.000152
    25  H    0.005426  -0.060313  -0.000923   0.000627  -0.000136   0.000152
              19         20         21         22         23         24
     1  C   -0.044646   0.007120  -0.001260   0.000484   0.006455   0.036115
     2  C   -0.008020   0.002012  -0.000414   0.000332  -0.002450   0.015458
     3  C    0.050976  -0.005174   0.000388  -0.000307   0.001011  -0.001354
     4  C   -0.077607   0.006414   0.000440  -0.001413   0.005064  -0.011609
     5  C   -0.064181   0.454020  -0.066514   0.011130   0.028968  -0.012943
     6  C    0.051304  -0.084574   0.370061  -0.013140   0.000205  -0.001703
     7  C   -0.007388   0.002380  -0.010831   0.375171  -0.106751   0.013357
     8  C   -0.048250   0.052433  -0.029454  -0.017767   0.368521   0.029028
     9  C    0.075483  -0.025947  -0.006336   0.004189   0.094460   0.356747
    10  C    0.422235   0.015107   0.020633  -0.008585  -0.010812   0.005465
    11  C    0.076608  -0.011977  -0.006303   0.002708   0.005383   0.021478
    12  C   -0.080161  -0.009513   0.005358  -0.008121   0.005491  -0.059694
    13  C    0.080792  -0.004745  -0.028022   0.027127  -0.032422   0.005426
    14  C   -0.051439  -0.061031   0.095870  -0.034204  -0.032826  -0.060313
    15  H    0.000375  -0.000121   0.000016  -0.000124   0.000579  -0.000923
    16  H   -0.000583   0.000018  -0.000007   0.000007  -0.000130   0.000627
    17  H    0.001625  -0.000159   0.000010  -0.000007   0.000011  -0.000136
    18  H   -0.005849   0.001267  -0.000126   0.000012  -0.000104   0.000152
    19  H    0.443174  -0.006598   0.001208  -0.000494   0.000241   0.000602
    20  H   -0.006598   0.457284  -0.010356   0.001892   0.000106   0.000209
    21  H    0.001208  -0.010356   0.424143  -0.006195   0.001305  -0.000148
    22  H   -0.000494   0.001892  -0.006195   0.421482  -0.008953   0.000633
    23  H    0.000241   0.000106   0.001305  -0.008953   0.442699  -0.000883
    24  H    0.000602   0.000209  -0.000148   0.000633  -0.000883   0.493880
    25  H    0.000602   0.000209  -0.000148   0.000633  -0.000883  -0.079726
              25
     1  C    0.036115
     2  C    0.015458
     3  C   -0.001354
     4  C   -0.011609
     5  C   -0.012943
     6  C   -0.001703
     7  C    0.013357
     8  C    0.029028
     9  C    0.356747
    10  C    0.005465
    11  C    0.021478
    12  C   -0.059694
    13  C    0.005426
    14  C   -0.060313
    15  H   -0.000923
    16  H    0.000627
    17  H   -0.000136
    18  H    0.000152
    19  H    0.000602
    20  H    0.000209
    21  H   -0.000148
    22  H    0.000633
    23  H   -0.000883
    24  H   -0.079726
    25  H    0.493880
 Mulliken charges:
               1
     1  C    0.078888
     2  C   -0.403159
     3  C   -0.435788
     4  C    0.027386
     5  C    0.003403
     6  C   -0.442954
     7  C   -0.411217
     8  C    0.108345
     9  C   -0.334804
    10  C    0.091002
    11  C   -0.650481
    12  C    0.702803
    13  C   -0.619656
    14  C    0.666498
    15  H    0.238917
    16  H    0.259150
    17  H    0.251163
    18  H    0.224364
    19  H    0.189991
    20  H    0.219724
    21  H    0.246685
    22  H    0.253512
    23  H    0.235716
    24  H    0.250257
    25  H    0.250257
 Sum of Mulliken charges =   1.00000
 Mulliken charges with hydrogens summed into heavy atoms:
               1
     1  C    0.317805
     2  C   -0.144010
     3  C   -0.184625
     4  C    0.251750
     5  C    0.223127
     6  C   -0.196269
     7  C   -0.157706
     8  C    0.344060
     9  C    0.165710
    10  C    0.280994
    11  C   -0.650481
    12  C    0.702803
    13  C   -0.619656
    14  C    0.666498
 Electronic spatial extent (au):  <R**2>=           2855.7144
 Charge=              1.0000 electrons
 Dipole moment (field-independent basis, Debye):
    X=             -0.1688    Y=             -0.7017    Z=             -0.0000  Tot=              0.7218
 Quadrupole moment (field-independent basis, Debye-Ang):
   XX=            -51.0085   YY=            -36.3359   ZZ=            -84.1373
   XY=             10.2445   XZ=              0.0000   YZ=             -0.0000
 Traceless Quadrupole moment (field-independent basis, Debye-Ang):
   XX=              6.1521   YY=             20.8247   ZZ=            -26.9767
   XY=             10.2445   XZ=              0.0000   YZ=             -0.0000
 Octapole moment (field-independent basis, Debye-Ang**2):
  XXX=             -2.1263  YYY=             -0.8202  ZZZ=             -0.0000  XYY=             -2.0975
  XXY=             -7.1186  XXZ=              0.0000  XZZ=             -3.2004  YZZ=              0.5503
  YYZ=             -0.0000  XYZ=              0.0000
 Hexadecapole moment (field-independent basis, Debye-Ang**3):
 XXXX=           -988.9063 YYYY=          -1848.2664 ZZZZ=            -99.3200 XXXY=           -348.0959
 XXXZ=              0.0000 YYYX=           -274.3788 YYYZ=             -0.0000 ZZZX=             -0.0000
 ZZZY=             -0.0000 XXYY=           -454.5868 XXZZ=           -241.6705 YYZZ=           -494.6864
 XXYZ=             -0.0000 YYXZ=              0.0000 ZZXY=           -183.0176
 N-N= 7.812625267631D+02 E-N=-2.798874930565D+03  KE= 5.375190330644D+02
 Symmetry A'   KE= 5.228690423730D+02
 Symmetry A"   KE= 1.464999069148D+01
 Unable to Open any file for archive entry.
 1\1\GINC-GADI-CPU-CLX-0648\SP\RM062X TD-FC\6-311++G(d,p)\C14H11(1+)\TS
 1578\27-Jul-2022\0\\#n M062X/6-311++G(d,p) TD(NStates=1) EmpiricalDisp
 ersion=GD3 SP\\SP_-75\\1,1\C,0,2.4751,1.37,0.\C,0,3.6807,0.671975,0.\C
 ,0,3.678,-0.72035,0.\C,0,2.482675,-1.410225,0.\C,0,-2.443675,-1.387475
 ,0.\C,0,-3.6895,-0.68935,0.\C,0,-3.721825,0.6896,0.\C,0,-2.50935,1.368
 5,0.\C,0,-0.010925,1.461,0.\C,0,0.0305,-1.42045,0.\C,0,1.266625,0.6952
 5,0.\C,0,1.2501,-0.723675,0.\C,0,-1.2575,0.676125,0.\C,0,-1.2251,-0.72
 0675,0.\H,0,2.4823,2.453025,0.\H,0,4.6157,1.2134,0.\H,0,4.61285,-1.262
 825,0.\H,0,2.4767,-2.492425,0.\H,0,0.028125,-2.501575,0.\H,0,-2.45845,
 -2.4703,0.\H,0,-4.6056,-1.26395,0.\H,0,-4.657325,1.227775,0.\H,0,-2.49
 28,2.4519,0.\H,0,-0.04,2.15425,-0.859325\H,0,-0.04,2.15425,0.859325\\V
 ersion=ES64L-G16RevC.01\State=1-A'\HF=-539.7574826\RMSD=8.167e-09\PG=C
 S [SG(C14H9),X(H2)]\\@
 The archive entry for this job was punched.


 IT IS A QUALITY OF REVOLUTIONS NOT TO GO BY OLD LINES OR OLD LAWS,
 BUT TO BREAK UP BOTH, AND MAKE NEW ONES.
                                              -- A. LINCOLN (1848)
 Job cpu time:       0 days  0 hours 47 minutes 41.4 seconds.
 Elapsed time:       0 days  0 hours  1 minutes 31.1 seconds.
 File lengths (MBytes):  RWF=    460 Int=      0 D2E=      0 Chk=     15 Scr=      1
 Normal termination of Gaussian 16 at Wed Jul 27 10:32:27 2022.
