 Entering Gaussian System, Link 0=g16
 Initial command:
 /apps/gaussian/g16c01/g16/l1.exe "/jobfs/52804872.gadi-pbs/Gau-1425279.inp" -scrdir="/jobfs/52804872.gadi-pbs/"
 Entering Link 1 = /apps/gaussian/g16c01/g16/l1.exe PID=   1425280.
  
 Copyright (c) 1988-2019, Gaussian, Inc.  All Rights Reserved.
  
 This is part of the Gaussian(R) 16 program.  It is based on
 the Gaussian(R) 09 system (copyright 2009, Gaussian, Inc.),
 the Gaussian(R) 03 system (copyright 2003, Gaussian, Inc.),
 the Gaussian(R) 98 system (copyright 1998, Gaussian, Inc.),
 the Gaussian(R) 94 system (copyright 1995, Gaussian, Inc.),
 the Gaussian 92(TM) system (copyright 1992, Gaussian, Inc.),
 the Gaussian 90(TM) system (copyright 1990, Gaussian, Inc.),
 the Gaussian 88(TM) system (copyright 1988, Gaussian, Inc.),
 the Gaussian 86(TM) system (copyright 1986, Carnegie Mellon
 University), and the Gaussian 82(TM) system (copyright 1983,
 Carnegie Mellon University). Gaussian is a federally registered
 trademark of Gaussian, Inc.
  
 This software contains proprietary and confidential information,
 including trade secrets, belonging to Gaussian, Inc.
  
 This software is provided under written license and may be
 used, copied, transmitted, or stored only in accord with that
 written license.
  
 The following legend is applicable only to US Government
 contracts under FAR:
  
                    RESTRICTED RIGHTS LEGEND
  
 Use, reproduction and disclosure by the US Government is
 subject to restrictions as set forth in subparagraphs (a)
 and (c) of the Commercial Computer Software - Restricted
 Rights clause in FAR 52.227-19.
  
 Gaussian, Inc.
 340 Quinnipiac St., Bldg. 40, Wallingford CT 06492
  
  
 ---------------------------------------------------------------
 Warning -- This program may not be used in any manner that
 competes with the business of Gaussian, Inc. or will provide
 assistance to any competitor of Gaussian, Inc.  The licensee
 of this program is prohibited from giving any competitor of
 Gaussian, Inc. access to this program.  By using this program,
 the user acknowledges that Gaussian, Inc. is engaged in the
 business of creating and licensing software in the field of
 computational chemistry and represents and warrants to the
 licensee that it is not a competitor of Gaussian, Inc. and that
 it will not use this program in any manner prohibited above.
 ---------------------------------------------------------------
  

 Cite this work as:
 Gaussian 16, Revision C.01,
 M. J. Frisch, G. W. Trucks, H. B. Schlegel, G. E. Scuseria, 
 M. A. Robb, J. R. Cheeseman, G. Scalmani, V. Barone, 
 G. A. Petersson, H. Nakatsuji, X. Li, M. Caricato, A. V. Marenich, 
 J. Bloino, B. G. Janesko, R. Gomperts, B. Mennucci, H. P. Hratchian, 
 J. V. Ortiz, A. F. Izmaylov, J. L. Sonnenberg, D. Williams-Young, 
 F. Ding, F. Lipparini, F. Egidi, J. Goings, B. Peng, A. Petrone, 
 T. Henderson, D. Ranasinghe, V. G. Zakrzewski, J. Gao, N. Rega, 
 G. Zheng, W. Liang, M. Hada, M. Ehara, K. Toyota, R. Fukuda, 
 J. Hasegawa, M. Ishida, T. Nakajima, Y. Honda, O. Kitao, H. Nakai, 
 T. Vreven, K. Throssell, J. A. Montgomery, Jr., J. E. Peralta, 
 F. Ogliaro, M. J. Bearpark, J. J. Heyd, E. N. Brothers, K. N. Kudin, 
 V. N. Staroverov, T. A. Keith, R. Kobayashi, J. Normand, 
 K. Raghavachari, A. P. Rendell, J. C. Burant, S. S. Iyengar, 
 J. Tomasi, M. Cossi, J. M. Millam, M. Klene, C. Adamo, R. Cammi, 
 J. W. Ochterski, R. L. Martin, K. Morokuma, O. Farkas, 
 J. B. Foresman, and D. J. Fox, Gaussian, Inc., Wallingford CT, 2019.
 
 ******************************************
 Gaussian 16:  ES64L-G16RevC.01  3-Jul-2019
                27-Jul-2022 
 ******************************************
 %NProcShared=32
 Will use up to   32 processors via shared memory.
 %mem = 128GB
 ---------------------------------------------------------------
 #n M062X/6-311++G(d,p) TD(NStates=1) EmpiricalDispersion=GD3 SP
 ---------------------------------------------------------------
 1/38=1,172=1/1;
 2/12=2,17=6,18=5,40=1/2;
 3/5=4,6=6,7=1111,11=9,25=1,30=1,74=-55,124=31/1,2,3,8;
 4//1;
 5/5=2,38=5/2;
 8/6=1,10=2,108=1/1;
 9/41=1,42=1,70=2/14;
 6/7=2,8=2,9=2,10=2/1;
 99/5=1,9=1/99;
 ------
 SP_-25
 ------
 Symbolic Z-matrix:
 Charge =  1 Multiplicity = 1
 C                     2.48585   1.3694    0. 
 C                     3.69328   0.67718   0. 
 C                     3.6816   -0.7113    0. 
 C                     2.471    -1.40345   0. 
 C                    -2.4554   -1.39435   0. 
 C                    -3.6862   -0.6989    0. 
 C                    -3.70973   0.68423   0. 
 C                    -2.49955   1.3688    0. 
 C                    -0.00438   1.4621    0. 
 C                     0.0122   -1.4205    0. 
 C                     1.26392   0.68953   0. 
 C                     1.2425   -0.7227    0. 
 C                    -1.26028   0.68188   0. 
 C                    -1.2325   -0.7215    0. 
 H                     2.486     2.45253   0. 
 H                     4.62847   1.21753   0. 
 H                     4.61075  -1.26348   0. 
 H                     2.47115  -2.48583   0. 
 H                     0.01125  -2.5016    0. 
 H                    -2.46385  -2.47698   0. 
 H                    -4.60785  -1.26392   0. 
 H                    -4.64513   1.22328   0. 
 H                    -2.4902    2.45208   0. 
 H                    -0.016     2.1545   -0.8596 
 H                    -0.016     2.1545    0.8596 
 
                          Input orientation:                          
 ---------------------------------------------------------------------
 Center     Atomic      Atomic             Coordinates (Angstroms)
 Number     Number       Type             X           Y           Z
 ---------------------------------------------------------------------
      1          6           0        2.485850    1.369400    0.000000
      2          6           0        3.693275    0.677175    0.000000
      3          6           0        3.681600   -0.711300    0.000000
      4          6           0        2.471000   -1.403450    0.000000
      5          6           0       -2.455400   -1.394350    0.000000
      6          6           0       -3.686200   -0.698900    0.000000
      7          6           0       -3.709725    0.684225    0.000000
      8          6           0       -2.499550    1.368800    0.000000
      9          6           0       -0.004375    1.462100    0.000000
     10          6           0        0.012200   -1.420500    0.000000
     11          6           0        1.263925    0.689525    0.000000
     12          6           0        1.242500   -0.722700    0.000000
     13          6           0       -1.260275    0.681875    0.000000
     14          6           0       -1.232500   -0.721500    0.000000
     15          1           0        2.486000    2.452525    0.000000
     16          1           0        4.628475    1.217525    0.000000
     17          1           0        4.610750   -1.263475    0.000000
     18          1           0        2.471150   -2.485825    0.000000
     19          1           0        0.011250   -2.501600    0.000000
     20          1           0       -2.463850   -2.476975    0.000000
     21          1           0       -4.607850   -1.263925    0.000000
     22          1           0       -4.645125    1.223275    0.000000
     23          1           0       -2.490200    2.452075    0.000000
     24          1           0       -0.016000    2.154500   -0.859600
     25          1           0       -0.016000    2.154500    0.859600
 ---------------------------------------------------------------------
                    Distance matrix (angstroms):
                    1          2          3          4          5
     1  C    0.000000
     2  C    1.391780   0.000000
     3  C    2.399819   1.388524   0.000000
     4  C    2.772890   2.413080   1.394498   0.000000
     5  C    5.661649   6.488252   6.174895   4.926408   0.000000
     6  C    6.509383   7.506679   7.367810   6.197379   1.413690
     7  C    6.233347   7.403003   7.521913   6.523783   2.427716
     8  C    4.985400   6.231326   6.521766   5.691374   2.763503
     9  C    2.491950   3.780043   4.279028   3.786668   3.763885
    10  C    3.728604   4.236809   3.737307   2.458859   2.467739
    11  C    1.398331   2.429381   2.794184   2.416107   4.263322
    12  C    2.433681   2.822401   2.439127   1.404504   3.758401
    13  C    3.808693   4.953552   5.134498   4.274458   2.395628
    14  C    4.265910   5.120503   4.914111   3.765763   1.395783
    15  H    1.083125   2.146947   3.382196   3.856004   6.262258
    16  H    2.148001   1.080082   2.148706   3.394732   7.550045
    17  H    3.383376   2.146598   1.080841   2.144323   7.067362
    18  H    3.855253   3.390893   2.148052   1.082375   5.046010
    19  H    4.594375   4.864352   4.083705   2.693753   2.703769
    20  H    6.268503   6.918009   6.394073   5.050267   1.082658
    21  H    7.566702   8.525054   8.307850   7.080225   2.156398
    22  H    7.132472   8.356264   8.548505   7.585441   3.412749
    23  H    5.092471   6.433167   6.935276   6.283198   3.846582
    24  H    2.759447   4.084131   4.756466   4.425278   4.391346
    25  H    2.759447   4.084131   4.756466   4.425278   4.391346
                    6          7          8          9         10
     6  C    0.000000
     7  C    1.383325   0.000000
     8  C    2.384014   1.390384   0.000000
     9  C    4.269163   3.786120   2.496919   0.000000
    10  C    3.768139   4.275815   3.753543   2.882648   0.000000
    11  C    5.141154   4.973653   3.824285   1.485078   2.453369
    12  C    4.928757   5.148201   4.286877   2.515561   1.414413
    13  C    2.791353   2.449451   1.416922   1.478525   2.457473
    14  C    2.453804   2.848281   2.444334   2.505274   1.427543
    15  H    6.930190   6.443128   5.101977   2.680095   4.595651
    16  H    8.532673   8.355237   7.129630   4.639301   5.316876
    17  H    8.316136   8.545399   7.581902   5.359864   4.601230
    18  H    6.411401   6.946397   6.290150   4.659864   2.679805
    19  H    4.113498   4.898483   4.613471   3.963731   1.081100
    20  H    2.157705   3.397851   3.845941   4.643849   2.692018
    21  H    1.081061   2.145208   3.372858   5.350065   4.622702
    22  H    2.148091   1.079606   2.150505   4.646891   5.355392
    23  H    3.370320   2.147681   1.083315   2.675701   4.610731
    24  H    4.727703   4.067459   2.743038   1.103841   3.677000
    25  H    4.727703   4.067459   2.743038   1.103841   3.677000
                   11         12         13         14         15
    11  C    0.000000
    12  C    1.412388   0.000000
    13  C    2.524212   2.869968   0.000000
    14  C    2.867600   2.475000   1.403650   0.000000
    15  H    2.145142   3.410036   4.143643   4.888934   0.000000
    16  H    3.405728   3.902474   5.913062   6.173398   2.472938
    17  H    3.874977   3.411385   6.184927   5.868331   4.280563
    18  H    3.397093   2.148998   4.894676   4.102422   4.938372
    19  H    3.428188   2.163437   3.428015   2.171559   5.537846
    20  H    4.891117   4.100550   3.380374   2.144275   6.985770
    21  H    6.188191   5.875331   3.872002   3.418657   8.008415
    22  H    5.933107   6.200883   3.427874   3.927870   7.236297
    23  H    4.147293   4.900229   2.155533   3.413706   4.976200
    24  H    2.126799   3.255920   2.110866   3.238852   2.662280
    25  H    2.126799   3.255920   2.110866   3.238852   2.662280
                   16         17         18         19         20
    16  H    0.000000
    17  H    2.481063   0.000000
    18  H    4.285890   2.464148   0.000000
    19  H    5.928799   4.763229   2.459951   0.000000
    20  H    7.996900   7.177921   4.935008   2.475222   0.000000
    21  H    9.563853   9.218600   7.183682   4.782042   2.463377
    22  H    9.273602   9.584109   8.024886   5.962929   4.295324
    23  H    7.224932   8.014287   6.999846   5.549428   4.929120
    24  H    4.815390   5.816208   5.334552   4.734862   5.308620
    25  H    4.815390   5.816208   5.334552   4.734862   5.308620
                   21         22         23         24         25
    21  H    0.000000
    22  H    2.487479   0.000000
    23  H    4.277043   2.480655   0.000000
    24  H    5.788750   4.799468   2.636120   0.000000
    25  H    5.788750   4.799468   2.636120   1.719200   0.000000
 Stoichiometry    C14H11(1+)
 Framework group  CS[SG(C14H9),X(H2)]
 Deg. of freedom    46
 Full point group                 CS      NOp   2
 Largest Abelian subgroup         CS      NOp   2
 Largest concise Abelian subgroup CS      NOp   2
                         Standard orientation:                         
 ---------------------------------------------------------------------
 Center     Atomic      Atomic             Coordinates (Angstroms)
 Number     Number       Type             X           Y           Z
 ---------------------------------------------------------------------
      1          6           0       -2.371625   -1.551550    0.000000
      2          6           0       -2.330019   -2.942707    0.000000
      3          6           0       -1.099854   -3.586674    0.000000
      4          6           0        0.081084   -2.845048    0.000000
      5          6           0        2.394429    1.504427    0.000000
      6          6           0        2.360994    2.917722    0.000000
      7          6           0        1.152134    3.590214    0.000000
      8          6           0       -0.021923    2.845394    0.000000
      9          6           0       -1.279968    0.688562    0.000000
     10          6           0        1.254735   -0.684369    0.000000
     11          6           0       -1.196177   -0.794151    0.000000
     12          6           0        0.059530   -1.440709    0.000000
     13          6           0        0.000000    1.428641    0.000000
     14          6           0        1.224718    0.742858    0.000000
     15          1           0       -3.327034   -1.041302    0.000000
     16          1           0       -3.247295   -3.512955    0.000000
     17          1           0       -1.050650   -4.666394    0.000000
     18          1           0        1.035691   -3.355207    0.000000
     19          1           0        2.208735   -1.192957    0.000000
     20          1           0        3.353309    1.001736    0.000000
     21          1           0        3.293649    3.464391    0.000000
     22          1           0        1.117451    4.669263    0.000000
     23          1           0       -0.981800    3.347598    0.000000
     24          1           0       -1.885201    1.025081    0.859600
     25          1           0       -1.885201    1.025081   -0.859600
 ---------------------------------------------------------------------
 Rotational constants (GHZ):           2.1362421           0.4446131           0.3688181
 Standard basis: 6-311++G(d,p) (5D, 7F)
 There are   299 symmetry adapted cartesian basis functions of A'  symmetry.
 There are   100 symmetry adapted cartesian basis functions of A"  symmetry.
 There are   285 symmetry adapted basis functions of A'  symmetry.
 There are   100 symmetry adapted basis functions of A"  symmetry.
   385 basis functions,   603 primitive gaussians,   399 cartesian basis functions
    47 alpha electrons       47 beta electrons
       nuclear repulsion energy       781.1959273240 Hartrees.
 NAtoms=   25 NActive=   25 NUniq=   24 SFac= 1.09D+00 NAtFMM=   60 NAOKFM=F Big=F
 Integral buffers will be    131072 words long.
 Regular integral format.
 Two-electron integral symmetry is turned on.
 Nuclear repulsion after empirical dispersion term =      781.1949478574 Hartrees.
 One-electron integrals computed using PRISM.
 NBasis=   385 RedAO= T EigKep=  1.12D-06  NBF=   285   100
 NBsUse=   379 1.00D-06 EigRej=  8.39D-07 NBFU=   279   100
 ExpMin= 3.60D-02 ExpMax= 4.56D+03 ExpMxC= 6.82D+02 IAcc=3 IRadAn=         5 AccDes= 0.00D+00
 Harris functional with IExCor= 1009 and IRadAn=       5 diagonalized for initial guess.
 HarFok:  IExCor= 1009 AccDes= 0.00D+00 IRadAn=         5 IDoV= 1 UseB2=F ITyADJ=14
 ICtDFT=  3500011 ScaDFX=  1.000000  1.000000  1.000000  1.000000
 FoFCou: FMM=F IPFlag=           0 FMFlag=      100000 FMFlg1=           0
         NFxFlg=           0 DoJE=T BraDBF=F KetDBF=T FulRan=T
         wScrn=  0.000000 ICntrl=       500 IOpCl=  0 I1Cent=   200000004 NGrid=           0
         NMat0=    1 NMatS0=      1 NMatT0=    0 NMatD0=    1 NMtDS0=    0 NMtDT0=    0
 Petite list used in FoFCou.
 Initial guess orbital symmetries:
       Occupied  (A') (A') (A') (A') (A') (A') (A') (A') (A') (A')
                 (A') (A') (A') (A') (A') (A') (A') (A') (A') (A')
                 (A') (A') (A') (A') (A') (A') (A') (A') (A') (A')
                 (A') (A') (A") (A') (A') (A') (A') (A') (A') (A")
                 (A") (A') (A') (A") (A") (A") (A")
       Virtual   (A") (A") (A") (A") (A") (A') (A') (A') (A') (A")
                 (A") (A') (A') (A') (A") (A') (A') (A') (A') (A")
                 (A') (A") (A') (A') (A') (A") (A') (A") (A') (A')
                 (A') (A') (A') (A") (A') (A') (A") (A') (A') (A")
                 (A') (A') (A') (A") (A') (A') (A') (A') (A') (A")
                 (A') (A') (A") (A") (A') (A') (A') (A") (A") (A')
                 (A') (A') (A') (A') (A') (A') (A") (A') (A') (A")
                 (A') (A') (A') (A') (A') (A') (A') (A') (A') (A')
                 (A') (A') (A') (A') (A') (A') (A') (A') (A') (A')
                 (A') (A') (A') (A') (A') (A') (A') (A") (A') (A")
                 (A') (A') (A") (A") (A') (A") (A') (A") (A') (A")
                 (A") (A') (A') (A') (A") (A') (A') (A") (A") (A')
                 (A") (A") (A') (A') (A') (A") (A') (A') (A') (A")
                 (A') (A') (A') (A') (A') (A') (A") (A') (A') (A')
                 (A') (A') (A') (A') (A') (A') (A') (A') (A') (A")
                 (A") (A') (A") (A") (A') (A') (A') (A") (A") (A')
                 (A") (A') (A") (A") (A") (A') (A') (A') (A') (A')
                 (A') (A") (A") (A') (A') (A') (A') (A') (A') (A")
                 (A') (A') (A') (A') (A') (A") (A") (A') (A") (A")
                 (A') (A") (A') (A") (A') (A') (A') (A") (A') (A')
                 (A") (A") (A") (A') (A') (A") (A') (A") (A') (A')
                 (A") (A") (A') (A") (A') (A") (A') (A') (A') (A")
                 (A') (A') (A') (A') (A") (A') (A') (A') (A") (A")
                 (A') (A') (A') (A") (A') (A') (A") (A') (A") (A')
                 (A") (A') (A') (A') (A') (A") (A') (A') (A') (A")
                 (A') (A') (A") (A') (A") (A') (A') (A") (A') (A')
                 (A') (A") (A') (A") (A') (A') (A') (A") (A') (A")
                 (A') (A') (A') (A') (A") (A') (A") (A') (A") (A')
                 (A") (A') (A") (A") (A") (A') (A') (A') (A') (A')
                 (A') (A') (A') (A') (A') (A') (A') (A') (A') (A')
                 (A') (A') (A') (A') (A') (A") (A') (A') (A') (A')
                 (A') (A') (A') (A') (A') (A') (A') (A') (A') (A')
                 (A') (A') (A') (A') (A') (A') (A') (A') (A') (A')
                 (A') (A')
 The electronic state of the initial guess is 1-A'.
 Requested convergence on RMS density matrix=1.00D-08 within 128 cycles.
 Requested convergence on MAX density matrix=1.00D-06.
 Requested convergence on             energy=1.00D-06.
 No special actions if energy rises.
 SCF Done:  E(RM062X) =  -539.759774418     A.U. after   15 cycles
            NFock= 15  Conv=0.58D-08     -V/T= 2.0042
 DoSCS=F DFT=T ScalE2(SS,OS)=  1.000000  1.000000
 ExpMin= 3.60D-02 ExpMax= 4.56D+03 ExpMxC= 6.82D+02 IAcc=3 IRadAn=         5 AccDes= 0.00D+00
 HarFok:  IExCor=  205 AccDes= 0.00D+00 IRadAn=         5 IDoV=-2 UseB2=F ITyADJ=14
 ICtDFT= 12500011 ScaDFX=  1.000000  1.000000  1.000000  1.000000
 Range of M.O.s used for correlation:    15   379
 NBasis=   385 NAE=    47 NBE=    47 NFC=    14 NFV=     0
 NROrb=    365 NOA=    33 NOB=    33 NVA=   332 NVB=   332

 **** Warning!!: The largest alpha MO coefficient is  0.14727740D+03

 Orbital symmetries:
       Occupied  (A') (A') (A') (A') (A') (A') (A') (A') (A') (A')
                 (A') (A') (A') (A') (A') (A') (A') (A') (A') (A')
                 (A') (A') (A') (A') (A') (A') (A') (A') (A') (A')
                 (A') (A') (A") (A') (A') (A') (A') (A") (A") (A')
                 (A') (A') (A') (A") (A") (A") (A")
       Virtual   (A") (A") (A") (A") (A') (A') (A') (A') (A") (A')
                 (A') (A") (A') (A') (A") (A') (A") (A') (A') (A')
                 (A") (A") (A') (A') (A') (A") (A') (A") (A') (A')
                 (A") (A') (A") (A') (A') (A') (A') (A') (A") (A')
                 (A") (A') (A') (A") (A") (A') (A") (A') (A") (A')
                 (A') (A') (A') (A') (A') (A") (A') (A') (A') (A')
                 (A') (A") (A') (A') (A') (A') (A") (A') (A') (A')
                 (A') (A') (A') (A') (A') (A') (A') (A') (A') (A')
                 (A') (A') (A') (A') (A') (A') (A') (A') (A') (A')
                 (A') (A') (A') (A') (A") (A') (A") (A") (A') (A")
                 (A') (A') (A') (A') (A") (A") (A') (A") (A") (A')
                 (A') (A') (A") (A') (A') (A") (A') (A") (A') (A")
                 (A") (A') (A") (A') (A') (A') (A") (A') (A') (A')
                 (A') (A') (A') (A') (A') (A') (A') (A') (A') (A')
                 (A') (A') (A') (A") (A') (A') (A') (A') (A') (A')
                 (A') (A') (A") (A') (A") (A') (A") (A") (A') (A")
                 (A") (A') (A') (A") (A") (A") (A') (A") (A') (A')
                 (A') (A') (A') (A") (A") (A') (A') (A') (A') (A")
                 (A') (A') (A') (A") (A') (A") (A') (A') (A") (A")
                 (A") (A') (A') (A") (A") (A') (A') (A') (A') (A')
                 (A") (A") (A") (A') (A') (A") (A') (A") (A') (A')
                 (A') (A") (A') (A") (A") (A') (A") (A') (A') (A")
                 (A') (A') (A') (A') (A") (A') (A') (A') (A") (A")
                 (A') (A') (A') (A") (A') (A') (A') (A") (A") (A')
                 (A") (A') (A') (A") (A') (A') (A') (A') (A') (A')
                 (A") (A') (A') (A') (A') (A") (A") (A") (A') (A')
                 (A') (A') (A') (A') (A') (A') (A") (A') (A') (A')
                 (A') (A") (A') (A") (A") (A") (A') (A") (A') (A")
                 (A') (A") (A") (A') (A") (A") (A') (A') (A') (A')
                 (A') (A') (A') (A') (A') (A') (A') (A') (A') (A')
                 (A') (A') (A') (A") (A') (A') (A') (A') (A') (A')
                 (A') (A') (A') (A') (A') (A') (A') (A') (A') (A')
                 (A') (A') (A') (A') (A') (A') (A') (A') (A') (A')
                 (A') (A')
     4 initial guesses have been made.
 Convergence on wavefunction:    0.001000000000000
 Iteration     1 Dimension     4 NMult     0 NNew      4
 CISAX will form     4 AO SS matrices at one time.
 Iteration     2 Dimension     6 NMult     4 NNew      2
 Iteration     3 Dimension     8 NMult     6 NNew      2
 Iteration     4 Dimension    10 NMult     8 NNew      2
 Iteration     5 Dimension    12 NMult    10 NNew      2
 Iteration     6 Dimension    14 NMult    12 NNew      2
 ***********************************************************************
 Excited states from <AA,BB:AA,BB> singles matrix:
 ***********************************************************************
 
 Ground to excited state transition densities written to RWF  633
 Ground to excited state transition electric dipole moments (Au):
       state          X           Y           Z        Dip. S.      Osc.
         1        -0.5514      0.3084      0.0000      0.3992      0.0275
 Ground to excited state transition velocity dipole moments (Au):
       state          X           Y           Z        Dip. S.      Osc.
         1         0.0643     -0.0341     -0.0000      0.0053      0.0343
 Ground to excited state transition magnetic dipole moments (Au):
       state          X           Y           Z
         1         0.0000      0.0000     -0.0850
 Ground to excited state transition velocity quadrupole moments (Au):
       state          XX          YY          ZZ          XY          XZ          YZ
         1         0.1207      0.2035     -0.0097      0.1266      0.0000     -0.0000
 <0|del|b> * <b|rxdel|0> + <0|del|b> * <b|delr+rdel|0>
 Rotatory Strengths (R) in cgs (10**-40 erg-esu-cm/Gauss)
       state          XX          YY          ZZ    R(velocity)    E-M Angle
         1        -0.0000     -0.0000      0.0000      0.0000       90.00
 1/2[<0|r|b>*<b|rxdel|0> + (<0|rxdel|b>*<b|r|0>)*]
 Rotatory Strengths (R) in cgs (10**-40 erg-esu-cm/Gauss)
       state          XX          YY          ZZ     R(length)
         1         0.0000     -0.0000      0.0000      0.0000
  1/2[<0|del|b>*<b|r|0> + (<0|r|b>*<b|del|0>)*] (Au)
       state          X           Y           Z        Dip. S.   Osc.(frdel)
         1        -0.0355     -0.0105     -0.0000      0.0460      0.0307

 Excitation energies and oscillator strengths:
 
 Excited State   1:      Singlet-A'     2.8085 eV  441.45 nm  f=0.0275  <S**2>=0.000
      47 -> 48         0.70410
 This state for optimization and/or second-order correction.
 Total Energy, E(TD-HF/TD-DFT) =  -539.656562439    
 Copying the excited state density for this state as the 1-particle RhoCI density.
 SavETr:  write IOETrn=   770 NScale= 10 NData=  16 NLR=1 NState=    1 LETran=      28.

 **********************************************************************

            Population analysis using the SCF Density.

 **********************************************************************

 Orbital symmetries:
       Occupied  (A') (A') (A') (A') (A') (A') (A') (A') (A') (A')
                 (A') (A') (A') (A') (A') (A') (A') (A') (A') (A')
                 (A') (A') (A') (A') (A') (A') (A') (A') (A') (A')
                 (A') (A') (A") (A') (A') (A') (A') (A") (A") (A')
                 (A') (A') (A') (A") (A") (A") (A")
       Virtual   (A") (A") (A") (A") (A') (A') (A') (A') (A") (A')
                 (A') (A") (A') (A') (A") (A') (A") (A') (A') (A')
                 (A") (A") (A') (A') (A') (A") (A') (A") (A') (A')
                 (A") (A') (A") (A') (A') (A') (A') (A') (A") (A')
                 (A") (A') (A') (A") (A") (A') (A") (A') (A") (A')
                 (A') (A') (A') (A') (A') (A") (A') (A') (A') (A')
                 (A') (A") (A') (A') (A') (A') (A") (A') (A') (A')
                 (A') (A') (A') (A') (A') (A') (A') (A') (A') (A')
                 (A') (A') (A') (A') (A') (A') (A') (A') (A') (A')
                 (A') (A') (A') (A') (A") (A') (A") (A") (A') (A")
                 (A') (A') (A') (A') (A") (A") (A') (A") (A") (A')
                 (A') (A') (A") (A') (A') (A") (A') (A") (A') (A")
                 (A") (A') (A") (A') (A') (A') (A") (A') (A') (A')
                 (A') (A') (A') (A') (A') (A') (A') (A') (A') (A')
                 (A') (A') (A') (A") (A') (A') (A') (A') (A') (A')
                 (A') (A') (A") (A') (A") (A') (A") (A") (A') (A")
                 (A") (A') (A') (A") (A") (A") (A') (A") (A') (A')
                 (A') (A') (A') (A") (A") (A') (A') (A') (A') (A")
                 (A') (A') (A') (A") (A') (A") (A') (A') (A") (A")
                 (A") (A') (A') (A") (A") (A') (A') (A') (A') (A')
                 (A") (A") (A") (A') (A') (A") (A') (A") (A') (A')
                 (A') (A") (A') (A") (A") (A') (A") (A') (A') (A")
                 (A') (A') (A') (A') (A") (A') (A') (A') (A") (A")
                 (A') (A') (A') (A") (A') (A') (A') (A") (A") (A')
                 (A") (A') (A') (A") (A') (A') (A') (A') (A') (A')
                 (A") (A') (A') (A') (A') (A") (A") (A") (A') (A')
                 (A') (A') (A') (A') (A') (A') (A") (A') (A') (A')
                 (A') (A") (A') (A") (A") (A") (A') (A") (A') (A")
                 (A') (A") (A") (A') (A") (A") (A') (A') (A') (A')
                 (A') (A') (A') (A') (A') (A') (A') (A') (A') (A')
                 (A') (A') (A') (A") (A') (A') (A') (A') (A') (A')
                 (A') (A') (A') (A') (A') (A') (A') (A') (A') (A')
                 (A') (A') (A') (A') (A') (A') (A') (A') (A') (A')
                 (A') (A')
 The electronic state is 1-A'.
 Alpha  occ. eigenvalues --  -10.77662 -10.73384 -10.73095 -10.72550 -10.72316
 Alpha  occ. eigenvalues --  -10.71505 -10.71264 -10.71230 -10.70980 -10.70749
 Alpha  occ. eigenvalues --  -10.70037 -10.69906 -10.69712 -10.69548  -1.16449
 Alpha  occ. eigenvalues --   -1.12467  -1.06945  -1.05737  -1.01312  -1.00201
 Alpha  occ. eigenvalues --   -0.95766  -0.91054  -0.86421  -0.85900  -0.83815
 Alpha  occ. eigenvalues --   -0.78394  -0.76035  -0.74415  -0.69578  -0.69250
 Alpha  occ. eigenvalues --   -0.68488  -0.68184  -0.68100  -0.64788  -0.64276
 Alpha  occ. eigenvalues --   -0.63033  -0.61848  -0.60063  -0.59621  -0.59096
 Alpha  occ. eigenvalues --   -0.56901  -0.55223  -0.54813  -0.52438  -0.46680
 Alpha  occ. eigenvalues --   -0.46068  -0.44439
 Alpha virt. eigenvalues --   -0.26090  -0.14669  -0.14095  -0.12773  -0.11179
 Alpha virt. eigenvalues --   -0.10087  -0.09232  -0.07981  -0.07967  -0.07476
 Alpha virt. eigenvalues --   -0.07203  -0.07144  -0.05643  -0.05581  -0.05334
 Alpha virt. eigenvalues --   -0.03829  -0.03648  -0.03279  -0.03133  -0.02165
 Alpha virt. eigenvalues --   -0.01366  -0.00932   0.00192   0.00592   0.00661
 Alpha virt. eigenvalues --    0.01058   0.01512   0.01940   0.02213   0.02289
 Alpha virt. eigenvalues --    0.02450   0.02670   0.02750   0.03307   0.03382
 Alpha virt. eigenvalues --    0.04239   0.04504   0.04698   0.05031   0.05367
 Alpha virt. eigenvalues --    0.06032   0.06295   0.06595   0.07045   0.07255
 Alpha virt. eigenvalues --    0.07893   0.08157   0.08362   0.08546   0.08927
 Alpha virt. eigenvalues --    0.09538   0.09566   0.10034   0.10866   0.11025
 Alpha virt. eigenvalues --    0.11117   0.12167   0.12245   0.12890   0.12987
 Alpha virt. eigenvalues --    0.13414   0.13524   0.14015   0.14378   0.16168
 Alpha virt. eigenvalues --    0.16341   0.16356   0.17345   0.17614   0.17798
 Alpha virt. eigenvalues --    0.18122   0.19069   0.19252   0.19632   0.19749
 Alpha virt. eigenvalues --    0.21549   0.21599   0.22721   0.23113   0.23560
 Alpha virt. eigenvalues --    0.23816   0.24571   0.25337   0.26921   0.27605
 Alpha virt. eigenvalues --    0.28848   0.29292   0.29865   0.31358   0.35816
 Alpha virt. eigenvalues --    0.36431   0.38184   0.39276   0.41149   0.41396
 Alpha virt. eigenvalues --    0.41966   0.42196   0.42983   0.43681   0.44300
 Alpha virt. eigenvalues --    0.44927   0.45044   0.46063   0.46200   0.47943
 Alpha virt. eigenvalues --    0.48520   0.48860   0.49026   0.50431   0.51153
 Alpha virt. eigenvalues --    0.51515   0.51753   0.52117   0.52895   0.53984
 Alpha virt. eigenvalues --    0.54092   0.54643   0.55680   0.55771   0.57476
 Alpha virt. eigenvalues --    0.58239   0.58823   0.61446   0.62198   0.62350
 Alpha virt. eigenvalues --    0.63208   0.63490   0.64964   0.65153   0.67270
 Alpha virt. eigenvalues --    0.70412   0.70590   0.71037   0.72417   0.72872
 Alpha virt. eigenvalues --    0.75757   0.76023   0.76299   0.76887   0.77097
 Alpha virt. eigenvalues --    0.77844   0.77886   0.78239   0.79884   0.80394
 Alpha virt. eigenvalues --    0.81244   0.81641   0.82160   0.83011   0.85188
 Alpha virt. eigenvalues --    0.87153   0.88176   0.88566   0.89136   0.90429
 Alpha virt. eigenvalues --    0.91081   0.91268   0.93199   0.94627   0.96427
 Alpha virt. eigenvalues --    0.96672   1.00382   1.01285   1.01678   1.02720
 Alpha virt. eigenvalues --    1.03201   1.03741   1.04745   1.05520   1.08776
 Alpha virt. eigenvalues --    1.19556   1.23246   1.24064   1.25179   1.28089
 Alpha virt. eigenvalues --    1.29666   1.31799   1.34306   1.35766   1.36000
 Alpha virt. eigenvalues --    1.39350   1.40121   1.40944   1.43014   1.43473
 Alpha virt. eigenvalues --    1.43521   1.44861   1.45694   1.46364   1.46671
 Alpha virt. eigenvalues --    1.47643   1.48024   1.51731   1.53627   1.55772
 Alpha virt. eigenvalues --    1.55818   1.56345   1.56574   1.57779   1.61444
 Alpha virt. eigenvalues --    1.63230   1.63466   1.63826   1.66109   1.68308
 Alpha virt. eigenvalues --    1.68353   1.68691   1.69740   1.74391   1.75988
 Alpha virt. eigenvalues --    1.77170   1.78052   1.80003   1.80124   1.80719
 Alpha virt. eigenvalues --    1.83133   1.83208   1.83612   1.83825   1.84166
 Alpha virt. eigenvalues --    1.84297   1.85804   1.86124   1.88233   1.91387
 Alpha virt. eigenvalues --    1.92075   1.94123   1.95204   1.97696   1.98152
 Alpha virt. eigenvalues --    1.99744   2.02424   2.04415   2.07261   2.11805
 Alpha virt. eigenvalues --    2.12063   2.14118   2.15224   2.19100   2.21245
 Alpha virt. eigenvalues --    2.22789   2.28610   2.30169   2.34633   2.34937
 Alpha virt. eigenvalues --    2.36231   2.38677   2.39597   2.42365   2.44659
 Alpha virt. eigenvalues --    2.46161   2.46508   2.49352   2.52909   2.53801
 Alpha virt. eigenvalues --    2.54240   2.56791   2.57845   2.58308   2.59617
 Alpha virt. eigenvalues --    2.59833   2.61596   2.62137   2.63540   2.63790
 Alpha virt. eigenvalues --    2.64783   2.65110   2.65195   2.65365   2.67951
 Alpha virt. eigenvalues --    2.68528   2.70954   2.71417   2.73346   2.74818
 Alpha virt. eigenvalues --    2.76301   2.78753   2.79716   2.82878   2.83069
 Alpha virt. eigenvalues --    2.84879   2.86289   2.92111   2.97011   2.99503
 Alpha virt. eigenvalues --    3.00065   3.05100   3.10913   3.11418   3.13193
 Alpha virt. eigenvalues --    3.20970   3.23557   3.26703   3.28272   3.30718
 Alpha virt. eigenvalues --    3.32799   3.33707   3.43447   3.45932   3.46598
 Alpha virt. eigenvalues --    3.48511   3.50129   3.56477   3.65867   3.66842
 Alpha virt. eigenvalues --    3.67464   3.94167   3.94492   3.95217   3.96233
 Alpha virt. eigenvalues --    4.04004   4.06865   4.07512   4.12543   4.35508
 Alpha virt. eigenvalues --    4.61331   4.69780   4.71601  23.45331  23.60492
 Alpha virt. eigenvalues --   23.82073  23.85251  23.87655  23.89161  23.90655
 Alpha virt. eigenvalues --   23.92782  23.97353  23.98837  24.00275  24.01261
 Alpha virt. eigenvalues --   24.10580  24.10843
          Condensed to atoms (all electrons):
               1          2          3          4          5          6
     1  C    8.516517   0.386308  -0.579009   1.908462  -0.018789  -0.092552
     2  C    0.386308   7.138895   0.378114  -1.048684  -0.025512  -0.014806
     3  C   -0.579009   0.378114   6.590719   0.748940  -0.120313   0.016925
     4  C    1.908462  -1.048684   0.748940  11.131531  -0.364016  -0.127831
     5  C   -0.018789  -0.025512  -0.120313  -0.364016  10.905694   0.779198
     6  C   -0.092552  -0.014806   0.016925  -0.127831   0.779198   6.586251
     7  C   -0.023000   0.001557  -0.014209  -0.010943  -1.107039   0.329855
     8  C    0.404493  -0.014266  -0.098493  -0.041244   2.054589  -0.506942
     9  C   -1.171747  -0.814787   0.293942  -0.155973  -0.281932   0.293346
    10  C   -1.255554   0.222186  -0.329275  -2.635386  -2.523359  -0.377623
    11  C    0.301988  -0.883478   0.977287  -0.271990  -1.480889  -0.158003
    12  C   -1.976484   1.256341  -1.375694  -1.600038  -0.298723  -0.223109
    13  C    0.199683  -0.231279  -0.190233  -1.530420  -0.274684   1.041645
    14  C   -1.095700  -0.225828  -0.176453  -0.368060  -1.602009  -1.421360
    15  H    0.366971  -0.105730  -0.002015   0.026725   0.005988   0.001139
    16  H   -0.019675   0.380110  -0.018016   0.014595  -0.001590  -0.000337
    17  H   -0.023101  -0.018350   0.376669  -0.068335   0.000266   0.000403
    18  H    0.049246   0.003136  -0.084577   0.459608   0.006369  -0.005042
    19  H   -0.045983  -0.007803   0.051074  -0.072898  -0.067517   0.051215
    20  H    0.007189   0.002030  -0.005115   0.006336   0.456304  -0.084702
    21  H   -0.001292  -0.000406   0.000395   0.000370  -0.067395   0.373001
    22  H    0.000621   0.000353  -0.000320  -0.001496   0.012599  -0.015301
    23  H    0.006007  -0.002581   0.001066   0.005489   0.028093  -0.000789
    24  H    0.034235   0.014897  -0.001474  -0.011995  -0.012516  -0.001612
    25  H    0.034235   0.014897  -0.001474  -0.011995  -0.012516  -0.001612
               7          8          9         10         11         12
     1  C   -0.023000   0.404493  -1.171747  -1.255554   0.301988  -1.976484
     2  C    0.001557  -0.014266  -0.814787   0.222186  -0.883478   1.256341
     3  C   -0.014209  -0.098493   0.293942  -0.329275   0.977287  -1.375694
     4  C   -0.010943  -0.041244  -0.155973  -2.635386  -0.271990  -1.600038
     5  C   -1.107039   2.054589  -0.281932  -2.523359  -1.480889  -0.298723
     6  C    0.329855  -0.506942   0.293346  -0.377623  -0.158003  -0.223109
     7  C    7.138318   0.242729  -0.791095   0.275527  -0.256168  -0.165860
     8  C    0.242729   8.676285  -1.163703  -1.309885   0.219825  -1.064654
     9  C   -0.791095  -1.163703   9.598601   0.259333   1.636355  -1.992186
    10  C    0.275527  -1.309885   0.259333   9.163488  -0.426181   2.416931
    11  C   -0.256168   0.219825   1.636355  -0.426181  14.522534  -3.873239
    12  C   -0.165860  -1.064654  -1.992186   2.416931  -3.873239  16.123257
    13  C   -0.939829   0.295716   1.593524  -0.475798   1.094192  -4.791570
    14  C    1.449158  -2.194355  -1.885903   2.441966  -4.819783   3.086642
    15  H   -0.002742   0.005500   0.090332  -0.009131  -0.029839  -0.021256
    16  H    0.000376   0.000801   0.003183  -0.009740   0.026647  -0.032782
    17  H   -0.000393  -0.001339  -0.005503   0.020386  -0.027093   0.090272
    18  H    0.002046   0.007231  -0.024366   0.011751  -0.007847  -0.052023
    19  H   -0.007543  -0.047417   0.075650   0.421996   0.077136  -0.071243
    20  H    0.002730   0.051126  -0.025328   0.013707  -0.011921  -0.012202
    21  H   -0.014277  -0.026669  -0.005982   0.020569  -0.006300   0.005336
    22  H    0.377576  -0.018778   0.003782  -0.009083   0.002931  -0.008712
    23  H   -0.106368   0.367861   0.092548  -0.010112   0.002986   0.006174
    24  H    0.014051   0.031406   0.356366   0.005374   0.016787  -0.060031
    25  H    0.014051   0.031406   0.356366   0.005374   0.016787  -0.060031
              13         14         15         16         17         18
     1  C    0.199683  -1.095700   0.366971  -0.019675  -0.023101   0.049246
     2  C   -0.231279  -0.225828  -0.105730   0.380110  -0.018350   0.003136
     3  C   -0.190233  -0.176453  -0.002015  -0.018016   0.376669  -0.084577
     4  C   -1.530420  -0.368060   0.026725   0.014595  -0.068335   0.459608
     5  C   -0.274684  -1.602009   0.005988  -0.001590   0.000266   0.006369
     6  C    1.041645  -1.421360   0.001139  -0.000337   0.000403  -0.005042
     7  C   -0.939829   1.449158  -0.002742   0.000376  -0.000393   0.002046
     8  C    0.295716  -2.194355   0.005500   0.000801  -0.001339   0.007231
     9  C    1.593524  -1.885903   0.090332   0.003183  -0.005503  -0.024366
    10  C   -0.475798   2.441966  -0.009131  -0.009740   0.020386   0.011751
    11  C    1.094192  -4.819783  -0.029839   0.026647  -0.027093  -0.007847
    12  C   -4.791570   3.086642  -0.021256  -0.032782   0.090272  -0.052023
    13  C   14.463515  -3.670496   0.000055   0.003178  -0.006304  -0.012002
    14  C   -3.670496  16.020323   0.006909  -0.009471   0.005279  -0.015825
    15  H    0.000055   0.006909   0.437565  -0.009000   0.001527   0.000200
    16  H    0.003178  -0.009471  -0.009000   0.418532  -0.006781   0.001934
    17  H   -0.006304   0.005279   0.001527  -0.006781   0.421717  -0.010208
    18  H   -0.012002  -0.015825   0.000200   0.001934  -0.010208   0.452109
    19  H    0.078838  -0.059781   0.000334  -0.000557   0.001498  -0.006049
    20  H   -0.006055  -0.057075  -0.000116   0.000016  -0.000150   0.001264
    21  H   -0.027765   0.093716   0.000015  -0.000007   0.000010  -0.000136
    22  H    0.026984  -0.033722  -0.000126   0.000007  -0.000007   0.000014
    23  H   -0.031065  -0.027826   0.000578  -0.000128   0.000013  -0.000109
    24  H    0.010379  -0.060287  -0.000916   0.000630  -0.000140   0.000170
    25  H    0.010379  -0.060287  -0.000916   0.000630  -0.000140   0.000170
              19         20         21         22         23         24
     1  C   -0.045983   0.007189  -0.001292   0.000621   0.006007   0.034235
     2  C   -0.007803   0.002030  -0.000406   0.000353  -0.002581   0.014897
     3  C    0.051074  -0.005115   0.000395  -0.000320   0.001066  -0.001474
     4  C   -0.072898   0.006336   0.000370  -0.001496   0.005489  -0.011995
     5  C   -0.067517   0.456304  -0.067395   0.012599   0.028093  -0.012516
     6  C    0.051215  -0.084702   0.373001  -0.015301  -0.000789  -0.001612
     7  C   -0.007543   0.002730  -0.014277   0.377576  -0.106368   0.014051
     8  C   -0.047417   0.051126  -0.026669  -0.018778   0.367861   0.031406
     9  C    0.075650  -0.025328  -0.005982   0.003782   0.092548   0.356366
    10  C    0.421996   0.013707   0.020569  -0.009083  -0.010112   0.005374
    11  C    0.077136  -0.011921  -0.006300   0.002931   0.002986   0.016787
    12  C   -0.071243  -0.012202   0.005336  -0.008712   0.006174  -0.060031
    13  C    0.078838  -0.006055  -0.027765   0.026984  -0.031065   0.010379
    14  C   -0.059781  -0.057075   0.093716  -0.033722  -0.027826  -0.060287
    15  H    0.000334  -0.000116   0.000015  -0.000126   0.000578  -0.000916
    16  H   -0.000557   0.000016  -0.000007   0.000007  -0.000128   0.000630
    17  H    0.001498  -0.000150   0.000010  -0.000007   0.000013  -0.000140
    18  H   -0.006049   0.001264  -0.000136   0.000014  -0.000109   0.000170
    19  H    0.442777  -0.006353   0.001331  -0.000521   0.000279   0.000596
    20  H   -0.006353   0.455102  -0.010311   0.001910   0.000150   0.000193
    21  H    0.001331  -0.010311   0.423145  -0.006471   0.001405  -0.000145
    22  H   -0.000521   0.001910  -0.006471   0.420316  -0.009007   0.000632
    23  H    0.000279   0.000150   0.001405  -0.009007   0.440480  -0.000901
    24  H    0.000596   0.000193  -0.000145   0.000632  -0.000901   0.493875
    25  H    0.000596   0.000193  -0.000145   0.000632  -0.000901  -0.079615
              25
     1  C    0.034235
     2  C    0.014897
     3  C   -0.001474
     4  C   -0.011995
     5  C   -0.012516
     6  C   -0.001612
     7  C    0.014051
     8  C    0.031406
     9  C    0.356366
    10  C    0.005374
    11  C    0.016787
    12  C   -0.060031
    13  C    0.010379
    14  C   -0.060287
    15  H   -0.000916
    16  H    0.000630
    17  H   -0.000140
    18  H    0.000170
    19  H    0.000596
    20  H    0.000193
    21  H   -0.000145
    22  H    0.000632
    23  H   -0.000901
    24  H   -0.079615
    25  H    0.493875
 Mulliken charges:
               1
     1  C    0.086930
     2  C   -0.405312
     3  C   -0.438463
     4  C    0.019244
     5  C    0.009699
     6  C   -0.441357
     7  C   -0.408509
     8  C    0.098775
     9  C   -0.334823
    10  C    0.092536
    11  C   -0.642726
    12  C    0.694883
    13  C   -0.630590
    14  C    0.680229
    15  H    0.237949
    16  H    0.257445
    17  H    0.249805
    18  H    0.222935
    19  H    0.190344
    20  H    0.221074
    21  H    0.248008
    22  H    0.255184
    23  H    0.236657
    24  H    0.250041
    25  H    0.250041
 Sum of Mulliken charges =   1.00000
 Mulliken charges with hydrogens summed into heavy atoms:
               1
     1  C    0.324879
     2  C   -0.147868
     3  C   -0.188658
     4  C    0.242179
     5  C    0.230774
     6  C   -0.193349
     7  C   -0.153325
     8  C    0.335432
     9  C    0.165258
    10  C    0.282879
    11  C   -0.642726
    12  C    0.694883
    13  C   -0.630590
    14  C    0.680229
 Electronic spatial extent (au):  <R**2>=           2855.9767
 Charge=              1.0000 electrons
 Dipole moment (field-independent basis, Debye):
    X=              0.0328    Y=             -0.3352    Z=             -0.0000  Tot=              0.3368
 Quadrupole moment (field-independent basis, Debye-Ang):
   XX=            -50.7909   YY=            -36.5823   ZZ=            -84.1413
   XY=             10.3790   XZ=              0.0000   YZ=              0.0000
 Traceless Quadrupole moment (field-independent basis, Debye-Ang):
   XX=              6.3806   YY=             20.5892   ZZ=            -26.9698
   XY=             10.3790   XZ=              0.0000   YZ=              0.0000
 Octapole moment (field-independent basis, Debye-Ang**2):
  XXX=             -0.5450  YYY=              2.7492  ZZZ=             -0.0000  XYY=             -1.1256
  XXY=             -5.9447  XXZ=             -0.0000  XZZ=             -2.9160  YZZ=              1.0971
  YYZ=             -0.0000  XYZ=             -0.0000
 Hexadecapole moment (field-independent basis, Debye-Ang**3):
 XXXX=           -996.7999 YYYY=          -1842.8380 ZZZZ=            -99.3285 XXXY=           -350.1389
 XXXZ=             -0.0000 YYYX=           -277.1497 YYYZ=             -0.0000 ZZZX=              0.0000
 ZZZY=             -0.0000 XXYY=           -453.7440 XXZZ=           -243.7681 YYZZ=           -492.6973
 XXYZ=              0.0000 YYXZ=             -0.0000 ZZXY=           -184.4652
 N-N= 7.811949478574D+02 E-N=-2.798732369903D+03  KE= 5.375069892240D+02
 Symmetry A'   KE= 5.228593706473D+02
 Symmetry A"   KE= 1.464761857680D+01
 Unable to Open any file for archive entry.
 1\1\GINC-GADI-CPU-CLX-0648\SP\RM062X TD-FC\6-311++G(d,p)\C14H11(1+)\TS
 1578\27-Jul-2022\0\\#n M062X/6-311++G(d,p) TD(NStates=1) EmpiricalDisp
 ersion=GD3 SP\\SP_-25\\1,1\C,0,2.48585,1.3694,0.\C,0,3.693275,0.677175
 ,0.\C,0,3.6816,-0.7113,0.\C,0,2.471,-1.40345,0.\C,0,-2.4554,-1.39435,0
 .\C,0,-3.6862,-0.6989,0.\C,0,-3.709725,0.684225,0.\C,0,-2.49955,1.3688
 ,0.\C,0,-0.004375,1.4621,0.\C,0,0.0122,-1.4205,0.\C,0,1.263925,0.68952
 5,0.\C,0,1.2425,-0.7227,0.\C,0,-1.260275,0.681875,0.\C,0,-1.2325,-0.72
 15,0.\H,0,2.486,2.452525,0.\H,0,4.628475,1.217525,0.\H,0,4.61075,-1.26
 3475,0.\H,0,2.47115,-2.485825,0.\H,0,0.01125,-2.5016,0.\H,0,-2.46385,-
 2.476975,0.\H,0,-4.60785,-1.263925,0.\H,0,-4.645125,1.223275,0.\H,0,-2
 .4902,2.452075,0.\H,0,-0.016,2.1545,-0.8596\H,0,-0.016,2.1545,0.8596\\
 Version=ES64L-G16RevC.01\State=1-A'\HF=-539.7597744\RMSD=5.846e-09\PG=
 CS [SG(C14H9),X(H2)]\\@
 The archive entry for this job was punched.


 LEARN FROM YESTERDAY,
 LIVE FOR TODAY,
 LOOK TO TOMORROW,
 REST THIS AFTERNOON.

           -- SNOOPY
 Job cpu time:       0 days  1 hours  5 minutes 10.5 seconds.
 Elapsed time:       0 days  0 hours  2 minutes 31.3 seconds.
 File lengths (MBytes):  RWF=    460 Int=      0 D2E=      0 Chk=     15 Scr=      1
 Normal termination of Gaussian 16 at Wed Jul 27 11:04:36 2022.
