 Entering Gaussian System, Link 0=g16
 Initial command:
 /apps/gaussian/g16c01/g16/l1.exe "/jobfs/52804872.gadi-pbs/Gau-1658259.inp" -scrdir="/jobfs/52804872.gadi-pbs/"
 Entering Link 1 = /apps/gaussian/g16c01/g16/l1.exe PID=   1658260.
  
 Copyright (c) 1988-2019, Gaussian, Inc.  All Rights Reserved.
  
 This is part of the Gaussian(R) 16 program.  It is based on
 the Gaussian(R) 09 system (copyright 2009, Gaussian, Inc.),
 the Gaussian(R) 03 system (copyright 2003, Gaussian, Inc.),
 the Gaussian(R) 98 system (copyright 1998, Gaussian, Inc.),
 the Gaussian(R) 94 system (copyright 1995, Gaussian, Inc.),
 the Gaussian 92(TM) system (copyright 1992, Gaussian, Inc.),
 the Gaussian 90(TM) system (copyright 1990, Gaussian, Inc.),
 the Gaussian 88(TM) system (copyright 1988, Gaussian, Inc.),
 the Gaussian 86(TM) system (copyright 1986, Carnegie Mellon
 University), and the Gaussian 82(TM) system (copyright 1983,
 Carnegie Mellon University). Gaussian is a federally registered
 trademark of Gaussian, Inc.
  
 This software contains proprietary and confidential information,
 including trade secrets, belonging to Gaussian, Inc.
  
 This software is provided under written license and may be
 used, copied, transmitted, or stored only in accord with that
 written license.
  
 The following legend is applicable only to US Government
 contracts under FAR:
  
                    RESTRICTED RIGHTS LEGEND
  
 Use, reproduction and disclosure by the US Government is
 subject to restrictions as set forth in subparagraphs (a)
 and (c) of the Commercial Computer Software - Restricted
 Rights clause in FAR 52.227-19.
  
 Gaussian, Inc.
 340 Quinnipiac St., Bldg. 40, Wallingford CT 06492
  
  
 ---------------------------------------------------------------
 Warning -- This program may not be used in any manner that
 competes with the business of Gaussian, Inc. or will provide
 assistance to any competitor of Gaussian, Inc.  The licensee
 of this program is prohibited from giving any competitor of
 Gaussian, Inc. access to this program.  By using this program,
 the user acknowledges that Gaussian, Inc. is engaged in the
 business of creating and licensing software in the field of
 computational chemistry and represents and warrants to the
 licensee that it is not a competitor of Gaussian, Inc. and that
 it will not use this program in any manner prohibited above.
 ---------------------------------------------------------------
  

 Cite this work as:
 Gaussian 16, Revision C.01,
 M. J. Frisch, G. W. Trucks, H. B. Schlegel, G. E. Scuseria, 
 M. A. Robb, J. R. Cheeseman, G. Scalmani, V. Barone, 
 G. A. Petersson, H. Nakatsuji, X. Li, M. Caricato, A. V. Marenich, 
 J. Bloino, B. G. Janesko, R. Gomperts, B. Mennucci, H. P. Hratchian, 
 J. V. Ortiz, A. F. Izmaylov, J. L. Sonnenberg, D. Williams-Young, 
 F. Ding, F. Lipparini, F. Egidi, J. Goings, B. Peng, A. Petrone, 
 T. Henderson, D. Ranasinghe, V. G. Zakrzewski, J. Gao, N. Rega, 
 G. Zheng, W. Liang, M. Hada, M. Ehara, K. Toyota, R. Fukuda, 
 J. Hasegawa, M. Ishida, T. Nakajima, Y. Honda, O. Kitao, H. Nakai, 
 T. Vreven, K. Throssell, J. A. Montgomery, Jr., J. E. Peralta, 
 F. Ogliaro, M. J. Bearpark, J. J. Heyd, E. N. Brothers, K. N. Kudin, 
 V. N. Staroverov, T. A. Keith, R. Kobayashi, J. Normand, 
 K. Raghavachari, A. P. Rendell, J. C. Burant, S. S. Iyengar, 
 J. Tomasi, M. Cossi, J. M. Millam, M. Klene, C. Adamo, R. Cammi, 
 J. W. Ochterski, R. L. Martin, K. Morokuma, O. Farkas, 
 J. B. Foresman, and D. J. Fox, Gaussian, Inc., Wallingford CT, 2019.
 
 ******************************************
 Gaussian 16:  ES64L-G16RevC.01  3-Jul-2019
                27-Jul-2022 
 ******************************************
 %NProcShared=32
 Will use up to   32 processors via shared memory.
 %mem = 128GB
 ---------------------------------------------------------------
 #n M062X/6-311++G(d,p) TD(NStates=1) EmpiricalDispersion=GD3 SP
 ---------------------------------------------------------------
 1/38=1,172=1/1;
 2/12=2,17=6,18=5,40=1/2;
 3/5=4,6=6,7=1111,11=9,25=1,30=1,74=-55,124=31/1,2,3,8;
 4//1;
 5/5=2,38=5/2;
 8/6=1,10=2,108=1/1;
 9/41=1,42=1,70=2/14;
 6/7=2,8=2,9=2,10=2/1;
 99/5=1,9=1/99;
 -----
 SP_50
 -----
 Symbolic Z-matrix:
 Charge =  1 Multiplicity = 1
 C                     2.4946    1.3685    0. 
 C                     3.70245   0.68035   0. 
 C                     3.6845   -0.7061    0. 
 C                     2.4633   -1.3991    0. 
 C                    -2.4633   -1.3991    0. 
 C                    -3.6845   -0.7061    0. 
 C                    -3.70245   0.68035   0. 
 C                    -2.4946    1.3685    0. 
 C                    -0.00005   1.4665    0. 
 C                     0.       -1.4207    0. 
 C                     1.26225   0.68575   0. 
 C                     1.2371   -0.7218    0. 
 C                    -1.26225   0.68575   0. 
 C                    -1.2371   -0.7218    0. 
 H                     2.4903    2.45165   0. 
 H                     4.63795   1.21965   0. 
 H                     4.6096   -1.26495   0. 
 H                     2.4672   -2.48155   0. 
 H                     0.       -2.5017    0. 
 H                    -2.4672   -2.48155   0. 
 H                    -4.6096   -1.26495   0. 
 H                    -4.63795   1.21965   0. 
 H                    -2.4903    2.45165   0. 
 H                     0.        2.1555   -0.8607 
 H                     0.        2.1555    0.8607 
 
                          Input orientation:                          
 ---------------------------------------------------------------------
 Center     Atomic      Atomic             Coordinates (Angstroms)
 Number     Number       Type             X           Y           Z
 ---------------------------------------------------------------------
      1          6           0        2.494600    1.368500    0.000000
      2          6           0        3.702450    0.680350    0.000000
      3          6           0        3.684500   -0.706100    0.000000
      4          6           0        2.463300   -1.399100    0.000000
      5          6           0       -2.463300   -1.399100    0.000000
      6          6           0       -3.684500   -0.706100    0.000000
      7          6           0       -3.702450    0.680350    0.000000
      8          6           0       -2.494600    1.368500    0.000000
      9          6           0       -0.000050    1.466500    0.000000
     10          6           0        0.000000   -1.420700    0.000000
     11          6           0        1.262250    0.685750    0.000000
     12          6           0        1.237100   -0.721800    0.000000
     13          6           0       -1.262250    0.685750    0.000000
     14          6           0       -1.237100   -0.721800    0.000000
     15          1           0        2.490300    2.451650    0.000000
     16          1           0        4.637950    1.219650    0.000000
     17          1           0        4.609600   -1.264950    0.000000
     18          1           0        2.467200   -2.481550    0.000000
     19          1           0        0.000000   -2.501700    0.000000
     20          1           0       -2.467200   -2.481550    0.000000
     21          1           0       -4.609600   -1.264950    0.000000
     22          1           0       -4.637950    1.219650    0.000000
     23          1           0       -2.490300    2.451650    0.000000
     24          1           0        0.000000    2.155500   -0.860700
     25          1           0        0.000000    2.155500    0.860700
 ---------------------------------------------------------------------
                    Distance matrix (angstroms):
                    1          2          3          4          5
     1  C    0.000000
     2  C    1.390127   0.000000
     3  C    2.391616   1.386566   0.000000
     4  C    2.767777   2.420662   1.404129   0.000000
     5  C    5.678061   6.506964   6.186735   4.926600   0.000000
     6  C    6.518070   7.515935   7.369000   6.186735   1.404129
     7  C    6.235141   7.404900   7.515935   6.506964   2.420662
     8  C    4.989200   6.235141   6.518070   5.678061   2.767777
     9  C    2.496574   3.785041   4.277394   3.778857   3.778791
    10  C    3.742014   4.257059   3.753158   2.463395   2.463395
    11  C    1.408841   2.440206   2.793661   2.406059   4.269230
    12  C    2.439398   2.836190   2.447450   1.400822   3.761874
    13  C    3.818386   4.964703   5.138831   4.269230   2.406059
    14  C    4.277258   5.134703   4.921625   3.761874   1.400822
    15  H    1.083159   2.146348   3.376018   3.850845   6.274267
    16  H    2.148512   1.079817   2.148856   3.403962   7.568725
    17  H    3.377615   2.146419   1.080798   2.150488   7.074172
    18  H    3.850147   3.394621   2.152683   1.082457   5.047923
    19  H    4.604506   4.881965   4.098746   2.698810   2.698810
    20  H    6.280314   6.932690   6.402783   5.047923   1.082457
    21  H    7.576590   8.536648   8.312906   7.074172   2.150488
    22  H    7.134103   8.357818   8.542347   7.568725   3.403962
    23  H    5.101220   6.441091   6.935383   6.274267   3.850845
    24  H    2.753762   4.077378   4.743954   4.409516   4.409516
    25  H    2.753762   4.077378   4.743954   4.409516   4.409516
                    6          7          8          9         10
     6  C    0.000000
     7  C    1.386566   0.000000
     8  C    2.391616   1.390127   0.000000
     9  C    4.277308   3.784944   2.496474   0.000000
    10  C    3.753158   4.257059   3.742014   2.887200   0.000000
    11  C    5.138831   4.964703   3.818386   1.484241   2.455689
    12  C    4.921625   5.134703   4.277258   2.513801   1.420872
    13  C    2.793661   2.440206   1.408841   1.484156   2.455689
    14  C    2.447450   2.836190   2.439398   2.513752   1.420872
    15  H    6.935383   6.441091   5.101220   2.678127   4.603986
    16  H    8.542347   8.357818   7.134103   4.644564   5.336856
    17  H    8.312906   8.536648   7.576590   5.358143   4.612231
    18  H    6.402783   6.932690   6.280314   4.655580   2.685606
    19  H    4.098746   4.881965   4.604506   3.968200   1.081000
    20  H    2.152683   3.394621   3.850147   4.655527   2.685606
    21  H    1.080798   2.146419   3.377615   5.358057   4.612231
    22  H    2.148856   1.079817   2.148512   4.644465   5.336856
    23  H    3.376018   2.146348   1.083159   2.678034   4.603986
    24  H    4.743954   4.077378   2.753762   1.102509   3.678316
    25  H    4.743954   4.077378   2.753762   1.102509   3.678316
                   11         12         13         14         15
    11  C    0.000000
    12  C    1.407775   0.000000
    13  C    2.524500   2.868440   0.000000
    14  C    2.868440   2.474200   1.407775   0.000000
    15  H    2.150932   3.411934   4.147292   4.895334   0.000000
    16  H    3.417660   3.915994   5.924307   6.187523   2.475929
    17  H    3.874272   3.415958   6.187395   5.871875   4.278381
    18  H    3.388760   2.147060   4.892912   4.101044   4.933254
    19  H    3.428281   2.167593   3.428281   2.167593   5.544120
    20  H    4.892912   4.101044   3.388760   2.147060   6.993802
    21  H    6.187395   5.871875   3.874272   3.415958   8.013844
    22  H    5.924307   6.187523   3.417660   3.915994   7.233932
    23  H    4.147292   4.895334   2.150932   3.411934   4.980600
    24  H    2.119963   3.248088   2.119963   3.248088   2.651434
    25  H    2.119963   3.248088   2.119963   3.248088   2.651434
                   16         17         18         19         20
    16  H    0.000000
    17  H    2.484762   0.000000
    18  H    4.290808   2.463736   0.000000
    19  H    5.946346   4.772626   2.467282   0.000000
    20  H    8.011369   7.180614   4.934400   2.467282   0.000000
    21  H    9.575511   9.219200   7.180614   4.772626   2.463736
    22  H    9.275900   9.575511   8.011369   5.946346   4.290808
    23  H    7.233932   8.013844   6.993802   5.544120   4.933254
    24  H    4.809075   5.804196   5.322604   4.736065   5.322604
    25  H    4.809075   5.804196   5.322604   4.736065   5.322604
                   21         22         23         24         25
    21  H    0.000000
    22  H    2.484762   0.000000
    23  H    4.278381   2.475929   0.000000
    24  H    5.804196   4.809075   2.651434   0.000000
    25  H    5.804196   4.809075   2.651434   1.721400   0.000000
 Stoichiometry    C14H11(1+)
 Framework group  CS[SG(C14H9),X(H2)]
 Deg. of freedom    46
 Full point group                 CS      NOp   2
 Largest Abelian subgroup         CS      NOp   2
 Largest concise Abelian subgroup CS      NOp   2
                         Standard orientation:                         
 ---------------------------------------------------------------------
 Center     Atomic      Atomic             Coordinates (Angstroms)
 Number     Number       Type             X           Y           Z
 ---------------------------------------------------------------------
      1          6           0        1.359817    2.494603    0.000000
      2          6           0        0.671667    3.702453    0.000000
      3          6           0       -0.714783    3.684503    0.000000
      4          6           0       -1.407783    2.463303    0.000000
      5          6           0       -1.407783   -2.463297    0.000000
      6          6           0       -0.714783   -3.684497    0.000000
      7          6           0        0.671667   -3.702447    0.000000
      8          6           0        1.359817   -2.494597    0.000000
      9          6           0        1.457817   -0.000047    0.000000
     10          6           0       -1.429383    0.000003    0.000000
     11          6           0        0.677067    1.262253    0.000000
     12          6           0       -0.730483    1.237103    0.000000
     13          6           0        0.677067   -1.262247    0.000000
     14          6           0       -0.730483   -1.237097    0.000000
     15          1           0        2.442967    2.490303    0.000000
     16          1           0        1.210967    4.637953    0.000000
     17          1           0       -1.273633    4.609603    0.000000
     18          1           0       -2.490233    2.467203    0.000000
     19          1           0       -2.510383    0.000003    0.000000
     20          1           0       -2.490233   -2.467197    0.000000
     21          1           0       -1.273633   -4.609597    0.000000
     22          1           0        1.210967   -4.637947    0.000000
     23          1           0        2.442967   -2.490297    0.000000
     24          1           0        2.146817    0.000003    0.860700
     25          1           0        2.146817    0.000003   -0.860700
 ---------------------------------------------------------------------
 Rotational constants (GHZ):           2.1347727           0.4444034           0.3686320
 Standard basis: 6-311++G(d,p) (5D, 7F)
 There are   299 symmetry adapted cartesian basis functions of A'  symmetry.
 There are   100 symmetry adapted cartesian basis functions of A"  symmetry.
 There are   285 symmetry adapted basis functions of A'  symmetry.
 There are   100 symmetry adapted basis functions of A"  symmetry.
   385 basis functions,   603 primitive gaussians,   399 cartesian basis functions
    47 alpha electrons       47 beta electrons
       nuclear repulsion energy       780.9936003296 Hartrees.
 NAtoms=   25 NActive=   25 NUniq=   24 SFac= 1.09D+00 NAtFMM=   60 NAOKFM=F Big=F
 Integral buffers will be    131072 words long.
 Regular integral format.
 Two-electron integral symmetry is turned on.
 Nuclear repulsion after empirical dispersion term =      780.9926207715 Hartrees.
 One-electron integrals computed using PRISM.
 NBasis=   385 RedAO= T EigKep=  1.13D-06  NBF=   285   100
 NBsUse=   379 1.00D-06 EigRej=  8.42D-07 NBFU=   279   100
 ExpMin= 3.60D-02 ExpMax= 4.56D+03 ExpMxC= 6.82D+02 IAcc=3 IRadAn=         5 AccDes= 0.00D+00
 Harris functional with IExCor= 1009 and IRadAn=       5 diagonalized for initial guess.
 HarFok:  IExCor= 1009 AccDes= 0.00D+00 IRadAn=         5 IDoV= 1 UseB2=F ITyADJ=14
 ICtDFT=  3500011 ScaDFX=  1.000000  1.000000  1.000000  1.000000
 FoFCou: FMM=F IPFlag=           0 FMFlag=      100000 FMFlg1=           0
         NFxFlg=           0 DoJE=T BraDBF=F KetDBF=T FulRan=T
         wScrn=  0.000000 ICntrl=       500 IOpCl=  0 I1Cent=   200000004 NGrid=           0
         NMat0=    1 NMatS0=      1 NMatT0=    0 NMatD0=    1 NMtDS0=    0 NMtDT0=    0
 Petite list used in FoFCou.
 Initial guess orbital symmetries:
       Occupied  (A') (A') (A') (A') (A') (A') (A') (A') (A') (A')
                 (A') (A') (A') (A') (A') (A') (A') (A') (A') (A')
                 (A') (A') (A') (A') (A') (A') (A') (A') (A') (A')
                 (A') (A') (A") (A') (A') (A') (A') (A') (A') (A")
                 (A") (A') (A') (A") (A") (A") (A")
       Virtual   (A") (A") (A") (A") (A") (A') (A') (A') (A') (A")
                 (A") (A') (A') (A') (A") (A') (A') (A') (A') (A")
                 (A') (A") (A') (A') (A') (A") (A') (A") (A') (A')
                 (A') (A') (A') (A") (A') (A') (A") (A') (A') (A")
                 (A') (A') (A') (A") (A') (A') (A') (A') (A') (A")
                 (A') (A') (A") (A") (A') (A') (A') (A") (A") (A')
                 (A') (A') (A') (A') (A') (A') (A") (A') (A') (A")
                 (A') (A') (A') (A') (A') (A') (A') (A') (A') (A')
                 (A') (A') (A') (A') (A') (A') (A') (A') (A') (A')
                 (A') (A') (A') (A') (A') (A') (A') (A") (A') (A")
                 (A') (A') (A") (A") (A') (A") (A") (A') (A') (A")
                 (A") (A') (A') (A') (A") (A') (A') (A") (A") (A')
                 (A") (A") (A') (A') (A') (A") (A') (A') (A') (A")
                 (A') (A') (A') (A') (A') (A') (A") (A') (A') (A')
                 (A') (A') (A') (A') (A') (A') (A') (A') (A') (A")
                 (A") (A') (A") (A") (A') (A') (A') (A") (A") (A')
                 (A") (A') (A") (A") (A") (A') (A') (A') (A') (A')
                 (A') (A") (A") (A') (A') (A') (A') (A') (A') (A")
                 (A') (A') (A') (A') (A') (A") (A") (A') (A") (A")
                 (A') (A") (A') (A") (A') (A') (A') (A") (A') (A')
                 (A") (A") (A") (A') (A') (A") (A') (A") (A') (A')
                 (A") (A") (A') (A") (A') (A") (A') (A') (A') (A")
                 (A') (A') (A') (A') (A") (A') (A') (A') (A") (A")
                 (A') (A') (A') (A") (A') (A') (A") (A') (A") (A')
                 (A") (A') (A') (A') (A') (A") (A') (A') (A') (A")
                 (A') (A') (A") (A') (A") (A') (A') (A") (A') (A')
                 (A') (A") (A') (A") (A') (A') (A') (A") (A') (A")
                 (A') (A') (A') (A') (A") (A') (A") (A') (A") (A')
                 (A") (A') (A") (A") (A") (A') (A') (A') (A') (A')
                 (A') (A') (A') (A') (A') (A') (A') (A') (A') (A')
                 (A') (A') (A') (A') (A') (A") (A') (A') (A') (A')
                 (A') (A') (A') (A') (A') (A') (A') (A') (A') (A')
                 (A') (A') (A') (A') (A') (A') (A') (A') (A') (A')
                 (A') (A')
 The electronic state of the initial guess is 1-A'.
 Requested convergence on RMS density matrix=1.00D-08 within 128 cycles.
 Requested convergence on MAX density matrix=1.00D-06.
 Requested convergence on             energy=1.00D-06.
 No special actions if energy rises.
 SCF Done:  E(RM062X) =  -539.760265127     A.U. after   15 cycles
            NFock= 15  Conv=0.44D-08     -V/T= 2.0042
 DoSCS=F DFT=T ScalE2(SS,OS)=  1.000000  1.000000
 ExpMin= 3.60D-02 ExpMax= 4.56D+03 ExpMxC= 6.82D+02 IAcc=3 IRadAn=         5 AccDes= 0.00D+00
 HarFok:  IExCor=  205 AccDes= 0.00D+00 IRadAn=         5 IDoV=-2 UseB2=F ITyADJ=14
 ICtDFT= 12500011 ScaDFX=  1.000000  1.000000  1.000000  1.000000
 Range of M.O.s used for correlation:    15   379
 NBasis=   385 NAE=    47 NBE=    47 NFC=    14 NFV=     0
 NROrb=    365 NOA=    33 NOB=    33 NVA=   332 NVB=   332

 **** Warning!!: The largest alpha MO coefficient is  0.14727354D+03

 Orbital symmetries:
       Occupied  (A') (A') (A') (A') (A') (A') (A') (A') (A') (A')
                 (A') (A') (A') (A') (A') (A') (A') (A') (A') (A')
                 (A') (A') (A') (A') (A') (A') (A') (A') (A') (A')
                 (A') (A') (A") (A') (A') (A') (A') (A") (A") (A')
                 (A') (A') (A') (A") (A") (A") (A")
       Virtual   (A") (A") (A") (A") (A') (A') (A') (A') (A") (A')
                 (A') (A") (A') (A') (A") (A') (A") (A') (A') (A')
                 (A") (A") (A') (A') (A') (A") (A') (A") (A') (A')
                 (A") (A') (A") (A') (A') (A') (A') (A') (A") (A')
                 (A") (A') (A') (A") (A") (A') (A") (A') (A") (A')
                 (A') (A') (A') (A') (A') (A") (A') (A') (A') (A')
                 (A') (A") (A') (A') (A') (A') (A") (A') (A') (A')
                 (A') (A') (A') (A') (A') (A') (A') (A') (A') (A')
                 (A') (A') (A') (A') (A') (A') (A') (A') (A') (A')
                 (A') (A') (A') (A') (A") (A') (A") (A") (A') (A")
                 (A') (A') (A') (A') (A") (A") (A') (A") (A") (A')
                 (A') (A') (A") (A') (A') (A") (A') (A") (A') (A")
                 (A") (A') (A") (A') (A') (A') (A") (A') (A') (A')
                 (A') (A') (A') (A') (A') (A') (A') (A') (A') (A')
                 (A') (A') (A') (A") (A') (A') (A') (A') (A') (A')
                 (A') (A') (A") (A') (A") (A') (A") (A") (A') (A")
                 (A") (A') (A') (A") (A") (A") (A') (A") (A') (A')
                 (A') (A') (A') (A") (A") (A') (A') (A') (A') (A")
                 (A') (A') (A') (A") (A') (A") (A') (A') (A") (A")
                 (A") (A') (A') (A") (A") (A') (A') (A') (A') (A')
                 (A") (A") (A") (A') (A') (A") (A') (A") (A') (A')
                 (A') (A") (A') (A") (A") (A') (A") (A') (A') (A")
                 (A') (A') (A') (A') (A") (A') (A') (A') (A") (A")
                 (A') (A') (A') (A") (A') (A') (A') (A") (A") (A')
                 (A") (A') (A') (A") (A') (A') (A') (A') (A') (A')
                 (A") (A') (A') (A') (A') (A") (A") (A") (A') (A')
                 (A') (A') (A') (A') (A') (A') (A") (A') (A') (A')
                 (A') (A") (A') (A") (A") (A") (A') (A") (A') (A")
                 (A') (A") (A") (A') (A") (A") (A') (A') (A') (A')
                 (A') (A') (A') (A') (A') (A') (A') (A') (A') (A')
                 (A') (A') (A') (A") (A') (A') (A') (A') (A') (A')
                 (A') (A') (A') (A') (A') (A') (A') (A') (A') (A')
                 (A') (A') (A') (A') (A') (A') (A') (A') (A') (A')
                 (A') (A')
     4 initial guesses have been made.
 Convergence on wavefunction:    0.001000000000000
 Iteration     1 Dimension     4 NMult     0 NNew      4
 CISAX will form     4 AO SS matrices at one time.
 Iteration     2 Dimension     6 NMult     4 NNew      2
 Iteration     3 Dimension     8 NMult     6 NNew      2
 Iteration     4 Dimension    10 NMult     8 NNew      2
 Iteration     5 Dimension    12 NMult    10 NNew      2
 Iteration     6 Dimension    14 NMult    12 NNew      2
 ***********************************************************************
 Excited states from <AA,BB:AA,BB> singles matrix:
 ***********************************************************************
 
 Ground to excited state transition densities written to RWF  633
 Ground to excited state transition electric dipole moments (Au):
       state          X           Y           Z        Dip. S.      Osc.
         1         0.6419     -0.0000     -0.0000      0.4120      0.0285
 Ground to excited state transition velocity dipole moments (Au):
       state          X           Y           Z        Dip. S.      Osc.
         1        -0.0743      0.0000     -0.0000      0.0055      0.0355
 Ground to excited state transition magnetic dipole moments (Au):
       state          X           Y           Z
         1         0.0000      0.0000     -0.0000
 Ground to excited state transition velocity quadrupole moments (Au):
       state          XX          YY          ZZ          XY          XZ          YZ
         1         0.0355      0.2987     -0.0099      0.0000     -0.0000     -0.0000
 <0|del|b> * <b|rxdel|0> + <0|del|b> * <b|delr+rdel|0>
 Rotatory Strengths (R) in cgs (10**-40 erg-esu-cm/Gauss)
       state          XX          YY          ZZ    R(velocity)    E-M Angle
         1         0.0000      0.0000     -0.0000     -0.0000       90.00
 1/2[<0|r|b>*<b|rxdel|0> + (<0|rxdel|b>*<b|r|0>)*]
 Rotatory Strengths (R) in cgs (10**-40 erg-esu-cm/Gauss)
       state          XX          YY          ZZ     R(length)
         1        -0.0000      0.0000     -0.0000     -0.0000
  1/2[<0|del|b>*<b|r|0> + (<0|r|b>*<b|del|0>)*] (Au)
       state          X           Y           Z        Dip. S.   Osc.(frdel)
         1        -0.0477     -0.0000      0.0000      0.0477      0.0318

 Excitation energies and oscillator strengths:
 
 Excited State   1:      Singlet-A'     2.8231 eV  439.17 nm  f=0.0285  <S**2>=0.000
      47 -> 48         0.70426
 This state for optimization and/or second-order correction.
 Total Energy, E(TD-HF/TD-DFT) =  -539.656517525    
 Copying the excited state density for this state as the 1-particle RhoCI density.
 SavETr:  write IOETrn=   770 NScale= 10 NData=  16 NLR=1 NState=    1 LETran=      28.

 **********************************************************************

            Population analysis using the SCF Density.

 **********************************************************************

 Orbital symmetries:
       Occupied  (A') (A') (A') (A') (A') (A') (A') (A') (A') (A')
                 (A') (A') (A') (A') (A') (A') (A') (A') (A') (A')
                 (A') (A') (A') (A') (A') (A') (A') (A') (A') (A')
                 (A') (A') (A") (A') (A') (A') (A') (A") (A") (A')
                 (A') (A') (A') (A") (A") (A") (A")
       Virtual   (A") (A") (A") (A") (A') (A') (A') (A') (A") (A')
                 (A') (A") (A') (A') (A") (A') (A") (A') (A') (A')
                 (A") (A") (A') (A') (A') (A") (A') (A") (A') (A')
                 (A") (A') (A") (A') (A') (A') (A') (A') (A") (A')
                 (A") (A') (A') (A") (A") (A') (A") (A') (A") (A')
                 (A') (A') (A') (A') (A') (A") (A') (A') (A') (A')
                 (A') (A") (A') (A') (A') (A') (A") (A') (A') (A')
                 (A') (A') (A') (A') (A') (A') (A') (A') (A') (A')
                 (A') (A') (A') (A') (A') (A') (A') (A') (A') (A')
                 (A') (A') (A') (A') (A") (A') (A") (A") (A') (A")
                 (A') (A') (A') (A') (A") (A") (A') (A") (A") (A')
                 (A') (A') (A") (A') (A') (A") (A') (A") (A') (A")
                 (A") (A') (A") (A') (A') (A') (A") (A') (A') (A')
                 (A') (A') (A') (A') (A') (A') (A') (A') (A') (A')
                 (A') (A') (A') (A") (A') (A') (A') (A') (A') (A')
                 (A') (A') (A") (A') (A") (A') (A") (A") (A') (A")
                 (A") (A') (A') (A") (A") (A") (A') (A") (A') (A')
                 (A') (A') (A') (A") (A") (A') (A') (A') (A') (A")
                 (A') (A') (A') (A") (A') (A") (A') (A') (A") (A")
                 (A") (A') (A') (A") (A") (A') (A') (A') (A') (A')
                 (A") (A") (A") (A') (A') (A") (A') (A") (A') (A')
                 (A') (A") (A') (A") (A") (A') (A") (A') (A') (A")
                 (A') (A') (A') (A') (A") (A') (A') (A') (A") (A")
                 (A') (A') (A') (A") (A') (A') (A') (A") (A") (A')
                 (A") (A') (A') (A") (A') (A') (A') (A') (A') (A')
                 (A") (A') (A') (A') (A') (A") (A") (A") (A') (A')
                 (A') (A') (A') (A') (A') (A') (A") (A') (A') (A')
                 (A') (A") (A') (A") (A") (A") (A') (A") (A') (A")
                 (A') (A") (A") (A') (A") (A") (A') (A') (A') (A')
                 (A') (A') (A') (A') (A') (A') (A') (A') (A') (A')
                 (A') (A') (A') (A") (A') (A') (A') (A') (A') (A')
                 (A') (A') (A') (A') (A') (A') (A') (A') (A') (A')
                 (A') (A') (A') (A') (A') (A') (A') (A') (A') (A')
                 (A') (A')
 The electronic state is 1-A'.
 Alpha  occ. eigenvalues --  -10.77676 -10.73267 -10.73266 -10.72445 -10.72444
 Alpha  occ. eigenvalues --  -10.71372 -10.71372 -10.71000 -10.71000 -10.70994
 Alpha  occ. eigenvalues --  -10.69973 -10.69972 -10.69637 -10.69637  -1.16416
 Alpha  occ. eigenvalues --   -1.12449  -1.06946  -1.05687  -1.01313  -1.00154
 Alpha  occ. eigenvalues --   -0.95785  -0.91045  -0.86415  -0.85891  -0.83809
 Alpha  occ. eigenvalues --   -0.78394  -0.76003  -0.74415  -0.69572  -0.69238
 Alpha  occ. eigenvalues --   -0.68495  -0.68183  -0.68109  -0.64733  -0.64273
 Alpha  occ. eigenvalues --   -0.63025  -0.61865  -0.60032  -0.59668  -0.59096
 Alpha  occ. eigenvalues --   -0.56885  -0.55222  -0.54818  -0.52441  -0.46610
 Alpha  occ. eigenvalues --   -0.46057  -0.44516
 Alpha virt. eigenvalues --   -0.26098  -0.14667  -0.14098  -0.12776  -0.11178
 Alpha virt. eigenvalues --   -0.10083  -0.09230  -0.07983  -0.07975  -0.07475
 Alpha virt. eigenvalues --   -0.07200  -0.07143  -0.05644  -0.05580  -0.05330
 Alpha virt. eigenvalues --   -0.03826  -0.03645  -0.03279  -0.03135  -0.02167
 Alpha virt. eigenvalues --   -0.01366  -0.00929   0.00196   0.00592   0.00647
 Alpha virt. eigenvalues --    0.01054   0.01515   0.01945   0.02216   0.02294
 Alpha virt. eigenvalues --    0.02449   0.02668   0.02743   0.03357   0.03366
 Alpha virt. eigenvalues --    0.04242   0.04501   0.04698   0.05033   0.05365
 Alpha virt. eigenvalues --    0.06036   0.06292   0.06595   0.07035   0.07259
 Alpha virt. eigenvalues --    0.07890   0.08160   0.08356   0.08527   0.08929
 Alpha virt. eigenvalues --    0.09544   0.09557   0.10031   0.10857   0.11005
 Alpha virt. eigenvalues --    0.11120   0.12164   0.12239   0.12916   0.12953
 Alpha virt. eigenvalues --    0.13405   0.13525   0.14009   0.14388   0.16200
 Alpha virt. eigenvalues --    0.16276   0.16390   0.17345   0.17621   0.17796
 Alpha virt. eigenvalues --    0.18114   0.19087   0.19238   0.19626   0.19720
 Alpha virt. eigenvalues --    0.21533   0.21581   0.22719   0.23095   0.23548
 Alpha virt. eigenvalues --    0.23843   0.24595   0.25391   0.26918   0.27596
 Alpha virt. eigenvalues --    0.28832   0.29285   0.29838   0.31346   0.35786
 Alpha virt. eigenvalues --    0.36407   0.38186   0.39272   0.41151   0.41407
 Alpha virt. eigenvalues --    0.41941   0.42219   0.42985   0.43655   0.44290
 Alpha virt. eigenvalues --    0.44976   0.45000   0.46122   0.46125   0.47976
 Alpha virt. eigenvalues --    0.48527   0.48846   0.49035   0.50416   0.51088
 Alpha virt. eigenvalues --    0.51538   0.51652   0.52116   0.52881   0.53966
 Alpha virt. eigenvalues --    0.54091   0.54623   0.55685   0.55756   0.57546
 Alpha virt. eigenvalues --    0.58239   0.58808   0.61431   0.62217   0.62336
 Alpha virt. eigenvalues --    0.63202   0.63488   0.64920   0.65145   0.67188
 Alpha virt. eigenvalues --    0.70434   0.70632   0.71000   0.72395   0.72858
 Alpha virt. eigenvalues --    0.75788   0.76009   0.76268   0.76904   0.77086
 Alpha virt. eigenvalues --    0.77835   0.77846   0.78213   0.79895   0.80387
 Alpha virt. eigenvalues --    0.81222   0.81674   0.82136   0.83006   0.85159
 Alpha virt. eigenvalues --    0.87143   0.88141   0.88581   0.89128   0.90392
 Alpha virt. eigenvalues --    0.91038   0.91263   0.93188   0.94617   0.96437
 Alpha virt. eigenvalues --    0.96639   1.00411   1.01264   1.01700   1.02703
 Alpha virt. eigenvalues --    1.03190   1.03830   1.04730   1.05418   1.08745
 Alpha virt. eigenvalues --    1.19537   1.23288   1.24025   1.25245   1.27914
 Alpha virt. eigenvalues --    1.29741   1.31717   1.34350   1.35747   1.35996
 Alpha virt. eigenvalues --    1.39322   1.40153   1.40929   1.43063   1.43426
 Alpha virt. eigenvalues --    1.43517   1.45190   1.45282   1.46348   1.46670
 Alpha virt. eigenvalues --    1.47637   1.47987   1.51679   1.53612   1.55622
 Alpha virt. eigenvalues --    1.55831   1.56337   1.56588   1.57748   1.61402
 Alpha virt. eigenvalues --    1.63265   1.63542   1.63768   1.66085   1.68252
 Alpha virt. eigenvalues --    1.68359   1.68715   1.69749   1.74350   1.75967
 Alpha virt. eigenvalues --    1.77130   1.78048   1.79925   1.80104   1.80680
 Alpha virt. eigenvalues --    1.83139   1.83216   1.83574   1.83830   1.84185
 Alpha virt. eigenvalues --    1.84252   1.85892   1.86034   1.88207   1.91368
 Alpha virt. eigenvalues --    1.92041   1.94109   1.95164   1.97675   1.98130
 Alpha virt. eigenvalues --    1.99706   2.02274   2.04358   2.07256   2.11797
 Alpha virt. eigenvalues --    2.12018   2.14098   2.15223   2.19047   2.21170
 Alpha virt. eigenvalues --    2.22788   2.28682   2.30013   2.34591   2.34920
 Alpha virt. eigenvalues --    2.36217   2.38683   2.39586   2.42345   2.44870
 Alpha virt. eigenvalues --    2.46143   2.46320   2.49337   2.52875   2.53785
 Alpha virt. eigenvalues --    2.54128   2.56864   2.57830   2.58299   2.59628
 Alpha virt. eigenvalues --    2.59807   2.61582   2.62113   2.63516   2.63758
 Alpha virt. eigenvalues --    2.64771   2.65089   2.65242   2.65284   2.67850
 Alpha virt. eigenvalues --    2.68465   2.70940   2.71410   2.73335   2.74808
 Alpha virt. eigenvalues --    2.76304   2.78636   2.79697   2.82737   2.83039
 Alpha virt. eigenvalues --    2.84855   2.86236   2.92086   2.97024   2.99493
 Alpha virt. eigenvalues --    3.00029   3.04889   3.10964   3.11338   3.13001
 Alpha virt. eigenvalues --    3.20879   3.23327   3.26623   3.28156   3.30745
 Alpha virt. eigenvalues --    3.32804   3.33539   3.43409   3.45895   3.46429
 Alpha virt. eigenvalues --    3.48403   3.50039   3.56379   3.66346   3.66674
 Alpha virt. eigenvalues --    3.67386   3.94189   3.94596   3.95171   3.96183
 Alpha virt. eigenvalues --    4.03994   4.06865   4.07414   4.12554   4.35363
 Alpha virt. eigenvalues --    4.61055   4.69760   4.71593  23.45347  23.60460
 Alpha virt. eigenvalues --   23.82178  23.85317  23.87788  23.89213  23.90541
 Alpha virt. eigenvalues --   23.92237  23.97606  23.99653  23.99814  23.99980
 Alpha virt. eigenvalues --   24.10511  24.10610
          Condensed to atoms (all electrons):
               1          2          3          4          5          6
     1  C    8.636278   0.263851  -0.531615   2.046930  -0.044279  -0.096313
     2  C    0.263851   7.174125   0.344456  -1.111199  -0.012864  -0.014231
     3  C   -0.531615   0.344456   6.590824   0.774401  -0.126263   0.016955
     4  C    2.046930  -1.111199   0.774401  11.121529  -0.398956  -0.126277
     5  C   -0.044279  -0.012864  -0.126263  -0.398956  11.121332   0.774417
     6  C   -0.096313  -0.014231   0.016955  -0.126277   0.774417   6.590823
     7  C   -0.014422   0.000451  -0.014231  -0.012852  -1.111242   0.344487
     8  C    0.402892  -0.014445  -0.096314  -0.044202   2.046755  -0.531610
     9  C   -1.117652  -0.818047   0.298663  -0.190991  -0.191218   0.298656
    10  C   -1.308044   0.257118  -0.349967  -2.589331  -2.589318  -0.350024
    11  C    0.321757  -0.894608   1.002182  -0.298833  -1.507549  -0.172085
    12  C   -2.212040   1.385992  -1.414866  -1.681488  -0.338788  -0.198848
    13  C    0.240598  -0.243954  -0.172099  -1.507607  -0.298827   1.002248
    14  C   -1.087603  -0.189808  -0.198843  -0.338962  -1.681024  -1.414925
    15  H    0.368918  -0.107915  -0.001052   0.027964   0.005575   0.001104
    16  H   -0.019171   0.379743  -0.017218   0.013516  -0.001534  -0.000329
    17  H   -0.026072  -0.016048   0.375187  -0.068672   0.000321   0.000403
    18  H    0.051136   0.002903  -0.084570   0.460392   0.005630  -0.005153
    19  H   -0.046723  -0.007835   0.051585  -0.069594  -0.069577   0.051587
    20  H    0.007066   0.002099  -0.005152   0.005632   0.460389  -0.084568
    21  H   -0.001310  -0.000401   0.000403   0.000321  -0.068671   0.375189
    22  H    0.000733   0.000369  -0.000329  -0.001533   0.013513  -0.017214
    23  H    0.005589  -0.002621   0.001104   0.005575   0.027963  -0.001052
    24  H    0.033586   0.014602  -0.001587  -0.012146  -0.012145  -0.001587
    25  H    0.033586   0.014602  -0.001587  -0.012146  -0.012145  -0.001587
               7          8          9         10         11         12
     1  C   -0.014422   0.402892  -1.117652  -1.308044   0.321757  -2.212040
     2  C    0.000451  -0.014445  -0.818047   0.257118  -0.894608   1.385992
     3  C   -0.014231  -0.096314   0.298663  -0.349967   1.002182  -1.414866
     4  C   -0.012852  -0.044202  -0.190991  -2.589331  -0.298833  -1.681488
     5  C   -1.111242   2.046755  -0.191218  -2.589318  -1.507549  -0.338788
     6  C    0.344487  -0.531610   0.298656  -0.350024  -0.172085  -0.198848
     7  C    7.174332   0.263855  -0.818092   0.257166  -0.244053  -0.189845
     8  C    0.263855   8.636372  -1.117898  -1.308020   0.240451  -1.087714
     9  C   -0.818092  -1.117898   9.556039   0.264225   1.530314  -1.896658
    10  C    0.257166  -1.308020   0.264225   9.104996  -0.392693   2.426482
    11  C   -0.244053   0.240451   1.530314  -0.392693  14.394827  -3.734998
    12  C   -0.189845  -1.087714  -1.896658   2.426482  -3.734998  16.072505
    13  C   -0.894711   0.322030   1.530493  -0.392777   1.103276  -4.768900
    14  C    1.386022  -2.211760  -1.896462   2.426331  -4.769050   3.160233
    15  H   -0.002622   0.005589   0.091105  -0.009595  -0.030545  -0.024702
    16  H    0.000369   0.000733   0.002900  -0.009140   0.025334  -0.031885
    17  H   -0.000401  -0.001311  -0.005589   0.020318  -0.026778   0.092741
    18  H    0.002099   0.007067  -0.024487   0.010782  -0.005422  -0.056491
    19  H   -0.007835  -0.046724   0.075178   0.421734   0.077493  -0.065582
    20  H    0.002900   0.051135  -0.024491   0.010787  -0.011953  -0.014846
    21  H   -0.016045  -0.026075  -0.005588   0.020318  -0.006256   0.005322
    22  H    0.379746  -0.019180   0.002896  -0.009138   0.003024  -0.009056
    23  H   -0.107919   0.368910   0.091099  -0.009596   0.001514   0.006432
    24  H    0.014604   0.033591   0.355195   0.005154   0.013736  -0.060421
    25  H    0.014604   0.033591   0.355195   0.005154   0.013736  -0.060421
              13         14         15         16         17         18
     1  C    0.240598  -1.087603   0.368918  -0.019171  -0.026072   0.051136
     2  C   -0.243954  -0.189808  -0.107915   0.379743  -0.016048   0.002903
     3  C   -0.172099  -0.198843  -0.001052  -0.017218   0.375187  -0.084570
     4  C   -1.507607  -0.338962   0.027964   0.013516  -0.068672   0.460392
     5  C   -0.298827  -1.681024   0.005575  -0.001534   0.000321   0.005630
     6  C    1.002248  -1.414925   0.001104  -0.000329   0.000403  -0.005153
     7  C   -0.894711   1.386022  -0.002622   0.000369  -0.000401   0.002099
     8  C    0.322030  -2.211760   0.005589   0.000733  -0.001311   0.007067
     9  C    1.530493  -1.896462   0.091105   0.002900  -0.005589  -0.024487
    10  C   -0.392777   2.426331  -0.009595  -0.009140   0.020318   0.010782
    11  C    1.103276  -4.769050  -0.030545   0.025334  -0.026778  -0.005422
    12  C   -4.768900   3.160233  -0.024702  -0.031885   0.092741  -0.056491
    13  C   14.394289  -3.735090   0.001513   0.003025  -0.006256  -0.011953
    14  C   -3.735090  16.071947   0.006432  -0.009057   0.005322  -0.014850
    15  H    0.001513   0.006432   0.439370  -0.009067   0.001473   0.000157
    16  H    0.003025  -0.009057  -0.009067   0.419628  -0.006627   0.001932
    17  H   -0.006256   0.005322   0.001473  -0.006627   0.422465  -0.010338
    18  H   -0.011953  -0.014850   0.000157   0.001932  -0.010338   0.454046
    19  H    0.077506  -0.065578   0.000318  -0.000547   0.001430  -0.006284
    20  H   -0.005431  -0.056481  -0.000114   0.000015  -0.000144   0.001251
    21  H   -0.026779   0.092741   0.000014  -0.000007   0.000010  -0.000144
    22  H    0.025329  -0.031870  -0.000128   0.000008  -0.000007   0.000015
    23  H   -0.030537  -0.024696   0.000560  -0.000128   0.000014  -0.000114
    24  H    0.013743  -0.060420  -0.000922   0.000634  -0.000143   0.000187
    25  H    0.013743  -0.060420  -0.000922   0.000634  -0.000143   0.000187
              19         20         21         22         23         24
     1  C   -0.046723   0.007066  -0.001310   0.000733   0.005589   0.033586
     2  C   -0.007835   0.002099  -0.000401   0.000369  -0.002621   0.014602
     3  C    0.051585  -0.005152   0.000403  -0.000329   0.001104  -0.001587
     4  C   -0.069594   0.005632   0.000321  -0.001533   0.005575  -0.012146
     5  C   -0.069577   0.460389  -0.068671   0.013513   0.027963  -0.012145
     6  C    0.051587  -0.084568   0.375189  -0.017214  -0.001052  -0.001587
     7  C   -0.007835   0.002900  -0.016045   0.379746  -0.107919   0.014604
     8  C   -0.046724   0.051135  -0.026075  -0.019180   0.368910   0.033591
     9  C    0.075178  -0.024491  -0.005588   0.002896   0.091099   0.355195
    10  C    0.421734   0.010787   0.020318  -0.009138  -0.009596   0.005154
    11  C    0.077493  -0.011953  -0.006256   0.003024   0.001514   0.013736
    12  C   -0.065582  -0.014846   0.005322  -0.009056   0.006432  -0.060421
    13  C    0.077506  -0.005431  -0.026779   0.025329  -0.030537   0.013743
    14  C   -0.065578  -0.056481   0.092741  -0.031870  -0.024696  -0.060420
    15  H    0.000318  -0.000114   0.000014  -0.000128   0.000560  -0.000922
    16  H   -0.000547   0.000015  -0.000007   0.000008  -0.000128   0.000634
    17  H    0.001430  -0.000144   0.000010  -0.000007   0.000014  -0.000143
    18  H   -0.006284   0.001251  -0.000144   0.000015  -0.000114   0.000187
    19  H    0.442848  -0.006284   0.001430  -0.000547   0.000318   0.000576
    20  H   -0.006284   0.454045  -0.010339   0.001932   0.000157   0.000186
    21  H    0.001430  -0.010339   0.422465  -0.006627   0.001473  -0.000143
    22  H   -0.000547   0.001932  -0.006627   0.419628  -0.009066   0.000633
    23  H    0.000318   0.000157   0.001473  -0.009066   0.439370  -0.000921
    24  H    0.000576   0.000186  -0.000143   0.000633  -0.000921   0.493269
    25  H    0.000576   0.000186  -0.000143   0.000633  -0.000921  -0.078843
              25
     1  C    0.033586
     2  C    0.014602
     3  C   -0.001587
     4  C   -0.012146
     5  C   -0.012145
     6  C   -0.001587
     7  C    0.014604
     8  C    0.033591
     9  C    0.355195
    10  C    0.005154
    11  C    0.013736
    12  C   -0.060421
    13  C    0.013743
    14  C   -0.060420
    15  H   -0.000922
    16  H    0.000634
    17  H   -0.000143
    18  H    0.000187
    19  H    0.000576
    20  H    0.000186
    21  H   -0.000143
    22  H    0.000633
    23  H   -0.000921
    24  H   -0.078843
    25  H    0.493269
 Mulliken charges:
               1
     1  C    0.092326
     2  C   -0.406336
     3  C   -0.440066
     4  C    0.008526
     5  C    0.008505
     6  C   -0.440067
     7  C   -0.406366
     8  C    0.092281
     9  C   -0.344786
    10  C    0.087079
    11  C   -0.632822
    12  C    0.697842
    13  C   -0.632872
    14  C    0.697871
    15  H    0.237490
    16  H    0.256238
    17  H    0.248844
    18  H    0.222023
    19  H    0.190532
    20  H    0.222023
    21  H    0.248843
    22  H    0.256238
    23  H    0.237491
    24  H    0.249581
    25  H    0.249581
 Sum of Mulliken charges =   1.00000
 Mulliken charges with hydrogens summed into heavy atoms:
               1
     1  C    0.329816
     2  C   -0.150098
     3  C   -0.191222
     4  C    0.230549
     5  C    0.230528
     6  C   -0.191224
     7  C   -0.150128
     8  C    0.329772
     9  C    0.154376
    10  C    0.277611
    11  C   -0.632822
    12  C    0.697842
    13  C   -0.632872
    14  C    0.697871
 Electronic spatial extent (au):  <R**2>=           2857.3109
 Charge=              1.0000 electrons
 Dipole moment (field-independent basis, Debye):
    X=             -0.1915    Y=              0.0000    Z=              0.0000  Tot=              0.1915
 Quadrupole moment (field-independent basis, Debye-Ang):
   XX=            -56.2684   YY=            -31.0946   ZZ=            -84.1430
   XY=              0.0000   XZ=              0.0000   YZ=             -0.0000
 Traceless Quadrupole moment (field-independent basis, Debye-Ang):
   XX=              0.9003   YY=             26.0741   ZZ=            -26.9743
   XY=              0.0000   XZ=              0.0000   YZ=             -0.0000
 Octapole moment (field-independent basis, Debye-Ang**2):
  XXX=             -5.2545  YYY=              0.0006  ZZZ=              0.0000  XYY=              5.1788
  XXY=              0.0001  XXZ=              0.0000  XZZ=              3.1064  YZZ=             -0.0001
  YYZ=              0.0000  XYZ=              0.0000
 Hexadecapole moment (field-independent basis, Debye-Ang**3):
 XXXX=           -609.7019 YYYY=          -2122.9561 ZZZZ=            -99.3411 XXXY=              0.0014
 XXXZ=              0.0000 YYYX=              0.0014 YYYZ=             -0.0000 ZZZX=             -0.0000
 ZZZY=             -0.0000 XXYY=           -508.0007 XXZZ=           -145.7511 YYZZ=           -591.0615
 XXYZ=             -0.0000 YYXZ=             -0.0000 ZZXY=              0.0004
 N-N= 7.809926207715D+02 E-N=-2.798319899845D+03  KE= 5.374947062148D+02
 Symmetry A'   KE= 5.228475623168D+02
 Symmetry A"   KE= 1.464714389798D+01
 Unable to Open any file for archive entry.
 1\1\GINC-GADI-CPU-CLX-0648\SP\RM062X TD-FC\6-311++G(d,p)\C14H11(1+)\TS
 1578\27-Jul-2022\0\\#n M062X/6-311++G(d,p) TD(NStates=1) EmpiricalDisp
 ersion=GD3 SP\\SP_50\\1,1\C,0,2.4946,1.3685,0.\C,0,3.70245,0.68035,0.\
 C,0,3.6845,-0.7061,0.\C,0,2.4633,-1.3991,0.\C,0,-2.4633,-1.3991,0.\C,0
 ,-3.6845,-0.7061,0.\C,0,-3.70245,0.68035,0.\C,0,-2.4946,1.3685,0.\C,0,
 -0.00005,1.4665,0.\C,0,0.,-1.4207,0.\C,0,1.26225,0.68575,0.\C,0,1.2371
 ,-0.7218,0.\C,0,-1.26225,0.68575,0.\C,0,-1.2371,-0.7218,0.\H,0,2.4903,
 2.45165,0.\H,0,4.63795,1.21965,0.\H,0,4.6096,-1.26495,0.\H,0,2.4672,-2
 .48155,0.\H,0,0.,-2.5017,0.\H,0,-2.4672,-2.48155,0.\H,0,-4.6096,-1.264
 95,0.\H,0,-4.63795,1.21965,0.\H,0,-2.4903,2.45165,0.\H,0,0.,2.1555,-0.
 8607\H,0,0.,2.1555,0.8607\\Version=ES64L-G16RevC.01\State=1-A'\HF=-539
 .7602651\RMSD=4.446e-09\PG=CS [SG(C14H9),X(H2)]\\@
 The archive entry for this job was punched.


 IT IS DOUBTED WHETHER A MAN EVER BRINGS HIS FACULTIES TO BEAR WITH THEIR FULL FORCE
 ON A SUBJECT UNTIL HE WRITES UPON IT.

                          -- CICERO
 Job cpu time:       0 days  0 hours 45 minutes 17.8 seconds.
 Elapsed time:       0 days  0 hours  1 minutes 25.6 seconds.
 File lengths (MBytes):  RWF=    460 Int=      0 D2E=      0 Chk=     15 Scr=      1
 Normal termination of Gaussian 16 at Wed Jul 27 11:52:34 2022.
