 Entering Gaussian System, Link 0=g16
 Initial command:
 /apps/gaussian/g16c01/g16/l1.exe "/jobfs/52804872.gadi-pbs/Gau-1137342.inp" -scrdir="/jobfs/52804872.gadi-pbs/"
 Entering Link 1 = /apps/gaussian/g16c01/g16/l1.exe PID=   1137392.
  
 Copyright (c) 1988-2019, Gaussian, Inc.  All Rights Reserved.
  
 This is part of the Gaussian(R) 16 program.  It is based on
 the Gaussian(R) 09 system (copyright 2009, Gaussian, Inc.),
 the Gaussian(R) 03 system (copyright 2003, Gaussian, Inc.),
 the Gaussian(R) 98 system (copyright 1998, Gaussian, Inc.),
 the Gaussian(R) 94 system (copyright 1995, Gaussian, Inc.),
 the Gaussian 92(TM) system (copyright 1992, Gaussian, Inc.),
 the Gaussian 90(TM) system (copyright 1990, Gaussian, Inc.),
 the Gaussian 88(TM) system (copyright 1988, Gaussian, Inc.),
 the Gaussian 86(TM) system (copyright 1986, Carnegie Mellon
 University), and the Gaussian 82(TM) system (copyright 1983,
 Carnegie Mellon University). Gaussian is a federally registered
 trademark of Gaussian, Inc.
  
 This software contains proprietary and confidential information,
 including trade secrets, belonging to Gaussian, Inc.
  
 This software is provided under written license and may be
 used, copied, transmitted, or stored only in accord with that
 written license.
  
 The following legend is applicable only to US Government
 contracts under FAR:
  
                    RESTRICTED RIGHTS LEGEND
  
 Use, reproduction and disclosure by the US Government is
 subject to restrictions as set forth in subparagraphs (a)
 and (c) of the Commercial Computer Software - Restricted
 Rights clause in FAR 52.227-19.
  
 Gaussian, Inc.
 340 Quinnipiac St., Bldg. 40, Wallingford CT 06492
  
  
 ---------------------------------------------------------------
 Warning -- This program may not be used in any manner that
 competes with the business of Gaussian, Inc. or will provide
 assistance to any competitor of Gaussian, Inc.  The licensee
 of this program is prohibited from giving any competitor of
 Gaussian, Inc. access to this program.  By using this program,
 the user acknowledges that Gaussian, Inc. is engaged in the
 business of creating and licensing software in the field of
 computational chemistry and represents and warrants to the
 licensee that it is not a competitor of Gaussian, Inc. and that
 it will not use this program in any manner prohibited above.
 ---------------------------------------------------------------
  

 Cite this work as:
 Gaussian 16, Revision C.01,
 M. J. Frisch, G. W. Trucks, H. B. Schlegel, G. E. Scuseria, 
 M. A. Robb, J. R. Cheeseman, G. Scalmani, V. Barone, 
 G. A. Petersson, H. Nakatsuji, X. Li, M. Caricato, A. V. Marenich, 
 J. Bloino, B. G. Janesko, R. Gomperts, B. Mennucci, H. P. Hratchian, 
 J. V. Ortiz, A. F. Izmaylov, J. L. Sonnenberg, D. Williams-Young, 
 F. Ding, F. Lipparini, F. Egidi, J. Goings, B. Peng, A. Petrone, 
 T. Henderson, D. Ranasinghe, V. G. Zakrzewski, J. Gao, N. Rega, 
 G. Zheng, W. Liang, M. Hada, M. Ehara, K. Toyota, R. Fukuda, 
 J. Hasegawa, M. Ishida, T. Nakajima, Y. Honda, O. Kitao, H. Nakai, 
 T. Vreven, K. Throssell, J. A. Montgomery, Jr., J. E. Peralta, 
 F. Ogliaro, M. J. Bearpark, J. J. Heyd, E. N. Brothers, K. N. Kudin, 
 V. N. Staroverov, T. A. Keith, R. Kobayashi, J. Normand, 
 K. Raghavachari, A. P. Rendell, J. C. Burant, S. S. Iyengar, 
 J. Tomasi, M. Cossi, J. M. Millam, M. Klene, C. Adamo, R. Cammi, 
 J. W. Ochterski, R. L. Martin, K. Morokuma, O. Farkas, 
 J. B. Foresman, and D. J. Fox, Gaussian, Inc., Wallingford CT, 2019.
 
 ******************************************
 Gaussian 16:  ES64L-G16RevC.01  3-Jul-2019
                27-Jul-2022 
 ******************************************
 %NProcShared=32
 Will use up to   32 processors via shared memory.
 %mem = 128GB
 ---------------------------------------------------------------
 #n M062X/6-311++G(d,p) TD(NStates=1) EmpiricalDispersion=GD3 SP
 ---------------------------------------------------------------
 1/38=1,172=1/1;
 2/12=2,17=6,18=5,40=1/2;
 3/5=4,6=6,7=1111,11=9,25=1,30=1,74=-55,124=31/1,2,3,8;
 4//1;
 5/5=2,38=5/2;
 8/6=1,10=2,108=1/1;
 9/41=1,42=1,70=2/14;
 6/7=2,8=2,9=2,10=2/1;
 99/5=1,9=1/99;
 -------
 SP_-100
 -------
 Symbolic Z-matrix:
 Charge =  1 Multiplicity = 1
 C                     2.49185   1.3703    0. 
 C                     3.70347   0.68325   0. 
 C                     3.6837   -0.69975   0. 
 C                     2.45908  -1.39618   0. 
 C                    -2.46687  -1.40073   0. 
 C                    -3.6814   -0.70595   0. 
 C                    -3.69525   0.67973   0. 
 C                    -2.485     1.3706    0. 
 C                     0.0023    1.4522    0. 
 C                    -0.0061   -1.42005   0. 
 C                     1.26085   0.68368   0. 
 C                     1.2359   -0.72248   0. 
 C                    -1.26268   0.6875    0. 
 C                    -1.2409   -0.72308   0. 
 H                     2.4842    2.45365   0. 
 H                     4.63837   1.22352   0. 
 H                     4.6079   -1.261     0. 
 H                     2.46635  -2.47885   0. 
 H                    -0.00563  -2.50137   0. 
 H                    -2.47     -2.48327   0. 
 H                    -4.60935  -1.26078   0. 
 H                    -4.63005   1.22065   0. 
 H                    -2.4821    2.45388   0. 
 H                     0.008     2.15225  -0.85713 
 H                     0.008     2.15225   0.85713 
 
                          Input orientation:                          
 ---------------------------------------------------------------------
 Center     Atomic      Atomic             Coordinates (Angstroms)
 Number     Number       Type             X           Y           Z
 ---------------------------------------------------------------------
      1          6           0        2.491850    1.370300    0.000000
      2          6           0        3.703475    0.683250    0.000000
      3          6           0        3.683700   -0.699750    0.000000
      4          6           0        2.459075   -1.396175    0.000000
      5          6           0       -2.466875   -1.400725    0.000000
      6          6           0       -3.681400   -0.705950    0.000000
      7          6           0       -3.695250    0.679725    0.000000
      8          6           0       -2.485000    1.370600    0.000000
      9          6           0        0.002300    1.452200    0.000000
     10          6           0       -0.006100   -1.420050    0.000000
     11          6           0        1.260850    0.683675    0.000000
     12          6           0        1.235900   -0.722475    0.000000
     13          6           0       -1.262675    0.687500    0.000000
     14          6           0       -1.240900   -0.723075    0.000000
     15          1           0        2.484200    2.453650    0.000000
     16          1           0        4.638375    1.223525    0.000000
     17          1           0        4.607900   -1.261000    0.000000
     18          1           0        2.466350   -2.478850    0.000000
     19          1           0       -0.005625   -2.501375    0.000000
     20          1           0       -2.470000   -2.483275    0.000000
     21          1           0       -4.609350   -1.260775    0.000000
     22          1           0       -4.630050    1.220650    0.000000
     23          1           0       -2.482100    2.453875    0.000000
     24          1           0        0.008000    2.152250   -0.857125
     25          1           0        0.008000    2.152250    0.857125
 ---------------------------------------------------------------------
                    Distance matrix (angstroms):
                    1          2          3          4          5
     1  C    0.000000
     2  C    1.392865   0.000000
     3  C    2.388643   1.383141   0.000000
     4  C    2.766669   2.423332   1.408799   0.000000
     5  C    5.680452   6.512770   6.190391   4.925952   0.000000
     6  C    6.513051   7.514403   7.365103   6.179146   1.399208
     7  C    6.225520   7.398726   7.506787   6.495004   2.416025
     8  C    4.976850   6.226530   6.506859   5.665591   2.771384
     9  C    2.490897   3.780209   4.264223   3.761513   3.773063
    10  C    3.745104   4.264366   3.759449   2.465291   2.460851
    11  C    1.409544   2.442625   2.789994   2.400316   4.270908
    12  C    2.440721   2.839892   2.447905   1.396434   3.764381
    13  C    3.816107   4.966152   5.137226   4.265340   2.410556
    14  C    4.279678   5.140486   4.924655   3.760702   1.400794
    15  H    1.083377   2.149639   3.373830   3.849907   6.274500
    16  H    2.151537   1.079785   2.147182   3.407664   7.574382
    17  H    3.376597   2.144316   1.081271   2.153072   7.076155
    18  H    3.849234   3.395490   2.155722   1.082699   5.049660
    19  H    4.607304   4.888687   4.105724   2.701150   2.696142
    20  H    6.282515   6.938204   6.406948   5.047531   1.082555
    21  H    7.572952   8.537113   8.312005   7.069722   2.147041
    22  H    7.123472   8.350835   8.532665   7.556684   3.398666
    23  H    5.090610   6.434007   6.925492   6.264032   3.854630
    24  H    2.741463   4.068066   4.730680   4.397016   4.413989
    25  H    2.741463   4.068066   4.730680   4.397016   4.413989
                    6          7          8          9         10
     6  C    0.000000
     7  C    1.385744   0.000000
     8  C    2.396546   1.393561   0.000000
     9  C    4.269339   3.777379   2.488638   0.000000
    10  C    3.744031   4.244865   3.732650   2.872262   0.000000
    11  C    5.133896   4.956102   3.808314   1.474645   2.455773
    12  C    4.917328   5.126637   4.269199   2.500196   1.424491
    13  C    2.791404   2.432587   1.400251   1.478150   2.453721
    14  C    2.440560   2.826956   2.435418   2.505468   1.417923
    15  H    6.928037   6.429029   5.085857   2.676328   4.605122
    16  H    8.540581   8.351349   7.124893   4.641711   5.344122
    17  H    8.307862   8.526940   7.565352   5.345372   4.616741
    18  H    6.398281   6.924010   6.271693   4.639472   2.689622
    19  H    4.090828   4.871625   4.597770   3.953583   1.081325
    20  H    2.150901   3.392021   3.853904   4.647605   2.683515
    21  H    1.081167   2.145022   3.381863   5.350472   4.606005
    22  H    2.147493   1.080024   2.150285   4.638133   5.324867
    23  H    3.379765   2.149265   1.083279   2.678730   4.597594
    24  H    4.745065   4.076402   2.749671   1.106691   3.673716
    25  H    4.745065   4.076402   2.749671   1.106691   3.673716
                   11         12         13         14         15
    11  C    0.000000
    12  C    1.406371   0.000000
    13  C    2.523528   2.868956   0.000000
    14  C    2.870139   2.476800   1.410743   0.000000
    15  H    2.151603   3.412627   4.142265   4.895707   0.000000
    16  H    3.420397   3.919662   5.925345   6.193152   2.480661
    17  H    3.870982   3.414732   6.185491   5.873485   4.278870
    18  H    3.384493   2.144495   4.891973   4.102005   4.932532
    19  H    3.427609   2.169302   3.427696   2.165238   5.545404
    20  H    4.893753   4.102939   3.392852   2.146856   6.994092
    21  H    6.183861   5.869984   3.872468   3.411096   8.007210
    22  H    5.915323   6.179410   3.409320   3.906969   7.220308
    23  H    4.140445   4.890064   2.146410   3.410805   4.966300
    24  H    2.112110   3.241365   2.120087   3.249909   2.637626
    25  H    2.112110   3.241365   2.120087   3.249909   2.637626
                   16         17         18         19         20
    16  H    0.000000
    17  H    2.484712   0.000000
    18  H    4.292467   2.463614   0.000000
    19  H    5.953286   4.777357   2.472078   0.000000
    20  H    8.016817   7.182661   4.936352   2.464441   0.000000
    21  H    9.575603   9.217250   7.179780   4.767953   2.464006
    22  H    9.268425   9.565475   8.002824   5.936226   4.287759
    23  H    7.225990   8.004274   6.987055   5.539624   4.937165
    24  H    4.799746   5.791720   5.312743   4.731921   5.325715
    25  H    4.799746   5.791720   5.312743   4.731921   5.325715
                   21         22         23         24         25
    21  H    0.000000
    22  H    2.481511   0.000000
    23  H    4.280633   2.476799   0.000000
    24  H    5.805456   4.807707   2.650705   0.000000
    25  H    5.805456   4.807707   2.650705   1.714250   0.000000
 Stoichiometry    C14H11(1+)
 Framework group  CS[SG(C14H9),X(H2)]
 Deg. of freedom    46
 Full point group                 CS      NOp   2
 Largest Abelian subgroup         CS      NOp   2
 Largest concise Abelian subgroup CS      NOp   2
                         Standard orientation:                         
 ---------------------------------------------------------------------
 Center     Atomic      Atomic             Coordinates (Angstroms)
 Number     Number       Type             X           Y           Z
 ---------------------------------------------------------------------
      1          6           0        2.485820   -1.372412    0.000000
      2          6           0        3.700414   -0.690625    0.000000
      3          6           0        3.686640    0.692448    0.000000
      4          6           0        2.465048    1.394180    0.000000
      5          6           0       -2.460836    1.420102    0.000000
      6          6           0       -3.678364    0.730603    0.000000
      7          6           0       -3.698226   -0.654999    0.000000
      8          6           0       -2.490985   -1.351118    0.000000
      9          6           0       -0.004062   -1.443509    0.000000
     10          6           0        0.000000    1.428750    0.000000
     11          6           0        1.257811   -0.680452    0.000000
     12          6           0        1.238962    0.725793    0.000000
     13          6           0       -1.265707   -0.673328    0.000000
     14          6           0       -1.237812    0.737139    0.000000
     15          1           0        2.473470   -2.455718    0.000000
     16          1           0        4.632962   -1.234951    0.000000
     17          1           0        4.613266    1.249683    0.000000
     18          1           0        2.477021    2.476813    0.000000
     19          1           0        0.005167    2.510063    0.000000
     20          1           0       -2.459264    2.502655    0.000000
     21          1           0       -4.603898    1.289449    0.000000
     22          1           0       -4.635364   -1.191863    0.000000
     23          1           0       -2.492785   -2.434396    0.000000
     24          1           0       -0.001399   -2.143578    0.857125
     25          1           0       -0.001399   -2.143578   -0.857125
 ---------------------------------------------------------------------
 Rotational constants (GHZ):           2.1394575           0.4451007           0.3692448
 Standard basis: 6-311++G(d,p) (5D, 7F)
 There are   299 symmetry adapted cartesian basis functions of A'  symmetry.
 There are   100 symmetry adapted cartesian basis functions of A"  symmetry.
 There are   285 symmetry adapted basis functions of A'  symmetry.
 There are   100 symmetry adapted basis functions of A"  symmetry.
   385 basis functions,   603 primitive gaussians,   399 cartesian basis functions
    47 alpha electrons       47 beta electrons
       nuclear repulsion energy       781.6410576690 Hartrees.
 NAtoms=   25 NActive=   25 NUniq=   24 SFac= 1.09D+00 NAtFMM=   60 NAOKFM=F Big=F
 Integral buffers will be    131072 words long.
 Regular integral format.
 Two-electron integral symmetry is turned on.
 Nuclear repulsion after empirical dispersion term =      781.6400783281 Hartrees.
 One-electron integrals computed using PRISM.
 NBasis=   385 RedAO= T EigKep=  1.10D-06  NBF=   285   100
 NBsUse=   379 1.00D-06 EigRej=  8.32D-07 NBFU=   279   100
 ExpMin= 3.60D-02 ExpMax= 4.56D+03 ExpMxC= 6.82D+02 IAcc=3 IRadAn=         5 AccDes= 0.00D+00
 Harris functional with IExCor= 1009 and IRadAn=       5 diagonalized for initial guess.
 HarFok:  IExCor= 1009 AccDes= 0.00D+00 IRadAn=         5 IDoV= 1 UseB2=F ITyADJ=14
 ICtDFT=  3500011 ScaDFX=  1.000000  1.000000  1.000000  1.000000
 FoFCou: FMM=F IPFlag=           0 FMFlag=      100000 FMFlg1=           0
         NFxFlg=           0 DoJE=T BraDBF=F KetDBF=T FulRan=T
         wScrn=  0.000000 ICntrl=       500 IOpCl=  0 I1Cent=   200000004 NGrid=           0
         NMat0=    1 NMatS0=      1 NMatT0=    0 NMatD0=    1 NMtDS0=    0 NMtDT0=    0
 Petite list used in FoFCou.
 Initial guess orbital symmetries:
       Occupied  (A') (A') (A') (A') (A') (A') (A') (A') (A') (A')
                 (A') (A') (A') (A') (A') (A') (A') (A') (A') (A')
                 (A') (A') (A') (A') (A') (A') (A') (A') (A') (A')
                 (A') (A') (A") (A') (A') (A') (A') (A') (A') (A")
                 (A") (A') (A') (A") (A") (A") (A")
       Virtual   (A") (A") (A") (A") (A") (A') (A') (A') (A') (A")
                 (A") (A') (A') (A') (A") (A') (A') (A') (A') (A")
                 (A') (A") (A') (A') (A') (A") (A') (A") (A') (A')
                 (A') (A') (A') (A") (A') (A') (A") (A') (A') (A")
                 (A') (A') (A') (A") (A') (A') (A') (A') (A') (A")
                 (A') (A') (A") (A") (A') (A') (A') (A") (A") (A')
                 (A') (A') (A') (A') (A') (A") (A') (A') (A') (A")
                 (A') (A') (A') (A') (A') (A') (A') (A') (A') (A')
                 (A') (A') (A') (A') (A') (A') (A') (A') (A') (A')
                 (A') (A') (A') (A') (A') (A') (A') (A") (A') (A")
                 (A') (A') (A") (A") (A') (A") (A") (A') (A') (A")
                 (A") (A') (A') (A') (A") (A') (A') (A") (A") (A')
                 (A") (A") (A') (A') (A') (A") (A') (A') (A') (A")
                 (A') (A') (A') (A') (A') (A') (A") (A') (A') (A')
                 (A') (A') (A') (A') (A') (A') (A') (A') (A') (A")
                 (A") (A') (A") (A") (A') (A') (A') (A") (A") (A')
                 (A") (A') (A") (A") (A") (A') (A') (A') (A') (A')
                 (A') (A") (A') (A") (A') (A') (A') (A') (A') (A")
                 (A') (A') (A') (A') (A") (A') (A") (A') (A") (A")
                 (A') (A") (A') (A") (A') (A') (A') (A") (A') (A')
                 (A") (A") (A") (A') (A') (A") (A') (A") (A') (A')
                 (A") (A") (A') (A") (A') (A") (A') (A') (A") (A')
                 (A') (A') (A') (A') (A") (A') (A') (A') (A") (A")
                 (A') (A') (A') (A") (A') (A') (A") (A') (A") (A')
                 (A") (A') (A') (A') (A') (A') (A") (A') (A') (A")
                 (A') (A') (A") (A') (A") (A') (A') (A") (A') (A')
                 (A') (A') (A") (A") (A') (A') (A') (A") (A") (A')
                 (A') (A') (A') (A') (A") (A') (A") (A') (A") (A')
                 (A") (A') (A") (A") (A") (A') (A') (A') (A') (A')
                 (A') (A') (A') (A') (A') (A') (A') (A') (A') (A')
                 (A') (A') (A') (A") (A') (A') (A') (A') (A') (A')
                 (A') (A') (A') (A') (A') (A') (A') (A') (A') (A')
                 (A') (A') (A') (A') (A') (A') (A') (A') (A') (A')
                 (A') (A')
 The electronic state of the initial guess is 1-A'.
 Requested convergence on RMS density matrix=1.00D-08 within 128 cycles.
 Requested convergence on MAX density matrix=1.00D-06.
 Requested convergence on             energy=1.00D-06.
 No special actions if energy rises.
 SCF Done:  E(RM062X) =  -539.759917172     A.U. after   15 cycles
            NFock= 15  Conv=0.46D-08     -V/T= 2.0041
 DoSCS=F DFT=T ScalE2(SS,OS)=  1.000000  1.000000
 ExpMin= 3.60D-02 ExpMax= 4.56D+03 ExpMxC= 6.82D+02 IAcc=3 IRadAn=         5 AccDes= 0.00D+00
 HarFok:  IExCor=  205 AccDes= 0.00D+00 IRadAn=         5 IDoV=-2 UseB2=F ITyADJ=14
 ICtDFT= 12500011 ScaDFX=  1.000000  1.000000  1.000000  1.000000
 Range of M.O.s used for correlation:    15   379
 NBasis=   385 NAE=    47 NBE=    47 NFC=    14 NFV=     0
 NROrb=    365 NOA=    33 NOB=    33 NVA=   332 NVB=   332

 **** Warning!!: The largest alpha MO coefficient is  0.15258920D+03

 Orbital symmetries:
       Occupied  (A') (A') (A') (A') (A') (A') (A') (A') (A') (A')
                 (A') (A') (A') (A') (A') (A') (A') (A') (A') (A')
                 (A') (A') (A') (A') (A') (A') (A') (A') (A') (A')
                 (A') (A') (A") (A') (A') (A') (A') (A") (A") (A')
                 (A') (A') (A') (A") (A") (A") (A")
       Virtual   (A") (A") (A") (A") (A') (A') (A') (A') (A") (A')
                 (A') (A") (A') (A') (A") (A') (A") (A') (A') (A')
                 (A") (A") (A') (A') (A') (A") (A') (A") (A') (A')
                 (A") (A') (A") (A') (A') (A') (A') (A') (A") (A')
                 (A") (A') (A') (A") (A") (A') (A") (A') (A") (A')
                 (A') (A') (A') (A') (A') (A") (A') (A') (A') (A')
                 (A') (A") (A') (A') (A') (A") (A') (A') (A') (A')
                 (A') (A') (A') (A') (A') (A') (A') (A') (A') (A')
                 (A') (A') (A') (A') (A') (A') (A') (A') (A') (A')
                 (A') (A') (A') (A') (A") (A') (A") (A") (A') (A")
                 (A') (A') (A') (A') (A") (A") (A') (A") (A") (A')
                 (A') (A') (A") (A') (A') (A") (A') (A") (A') (A")
                 (A") (A') (A") (A') (A') (A') (A") (A') (A') (A')
                 (A') (A') (A') (A') (A') (A') (A') (A') (A') (A')
                 (A') (A') (A') (A") (A') (A') (A') (A') (A') (A')
                 (A') (A') (A") (A') (A") (A') (A") (A") (A') (A")
                 (A") (A') (A') (A") (A") (A") (A') (A") (A') (A')
                 (A') (A') (A') (A") (A") (A') (A') (A') (A') (A")
                 (A') (A') (A') (A") (A') (A") (A') (A') (A") (A")
                 (A") (A') (A') (A") (A') (A") (A') (A') (A') (A')
                 (A") (A") (A") (A') (A") (A') (A') (A") (A') (A')
                 (A') (A") (A") (A') (A") (A") (A') (A') (A') (A")
                 (A') (A') (A') (A') (A") (A') (A') (A') (A") (A")
                 (A') (A') (A') (A") (A') (A') (A') (A") (A") (A')
                 (A") (A') (A') (A") (A') (A') (A') (A') (A') (A')
                 (A") (A') (A') (A') (A') (A") (A") (A") (A') (A')
                 (A') (A') (A') (A') (A') (A') (A") (A') (A') (A')
                 (A') (A") (A') (A") (A") (A") (A') (A") (A") (A')
                 (A') (A") (A") (A') (A") (A") (A') (A') (A') (A')
                 (A') (A') (A') (A') (A') (A') (A') (A') (A') (A')
                 (A') (A') (A') (A") (A') (A') (A') (A') (A') (A')
                 (A') (A') (A') (A') (A') (A') (A') (A') (A') (A')
                 (A') (A') (A') (A') (A') (A') (A') (A') (A') (A')
                 (A') (A')
     4 initial guesses have been made.
 Convergence on wavefunction:    0.001000000000000
 Iteration     1 Dimension     4 NMult     0 NNew      4
 CISAX will form     4 AO SS matrices at one time.
 Iteration     2 Dimension     6 NMult     4 NNew      2
 Iteration     3 Dimension     8 NMult     6 NNew      2
 Iteration     4 Dimension    10 NMult     8 NNew      2
 Iteration     5 Dimension    12 NMult    10 NNew      2
 Iteration     6 Dimension    14 NMult    12 NNew      2
 ***********************************************************************
 Excited states from <AA,BB:AA,BB> singles matrix:
 ***********************************************************************
 
 Ground to excited state transition densities written to RWF  633
 Ground to excited state transition electric dipole moments (Au):
       state          X           Y           Z        Dip. S.      Osc.
         1         0.0036     -0.6465     -0.0000      0.4180      0.0289
 Ground to excited state transition velocity dipole moments (Au):
       state          X           Y           Z        Dip. S.      Osc.
         1         0.0004      0.0747     -0.0000      0.0056      0.0359
 Ground to excited state transition magnetic dipole moments (Au):
       state          X           Y           Z
         1         0.0000      0.0000      0.0410
 Ground to excited state transition velocity quadrupole moments (Au):
       state          XX          YY          ZZ          XY          XZ          YZ
         1         0.2933      0.0340     -0.0098      0.0168     -0.0000     -0.0000
 <0|del|b> * <b|rxdel|0> + <0|del|b> * <b|delr+rdel|0>
 Rotatory Strengths (R) in cgs (10**-40 erg-esu-cm/Gauss)
       state          XX          YY          ZZ    R(velocity)    E-M Angle
         1         0.0000     -0.0000     -0.0000     -0.0000       90.00
 1/2[<0|r|b>*<b|rxdel|0> + (<0|rxdel|b>*<b|r|0>)*]
 Rotatory Strengths (R) in cgs (10**-40 erg-esu-cm/Gauss)
       state          XX          YY          ZZ     R(length)
         1        -0.0000      0.0000      0.0000      0.0000
  1/2[<0|del|b>*<b|r|0> + (<0|r|b>*<b|del|0>)*] (Au)
       state          X           Y           Z        Dip. S.   Osc.(frdel)
         1         0.0000     -0.0483      0.0000      0.0483      0.0322

 Excitation energies and oscillator strengths:
 
 Excited State   1:      Singlet-A'     2.8181 eV  439.96 nm  f=0.0289  <S**2>=0.000
      47 -> 48         0.70422
 This state for optimization and/or second-order correction.
 Total Energy, E(TD-HF/TD-DFT) =  -539.656353992    
 Copying the excited state density for this state as the 1-particle RhoCI density.
 SavETr:  write IOETrn=   770 NScale= 10 NData=  16 NLR=1 NState=    1 LETran=      28.

 **********************************************************************

            Population analysis using the SCF Density.

 **********************************************************************

 Orbital symmetries:
       Occupied  (A') (A') (A') (A') (A') (A') (A') (A') (A') (A')
                 (A') (A') (A') (A') (A') (A') (A') (A') (A') (A')
                 (A') (A') (A') (A') (A') (A') (A') (A') (A') (A')
                 (A') (A') (A") (A') (A') (A') (A') (A") (A") (A')
                 (A') (A') (A') (A") (A") (A") (A")
       Virtual   (A") (A") (A") (A") (A') (A') (A') (A') (A") (A')
                 (A') (A") (A') (A') (A") (A') (A") (A') (A') (A')
                 (A") (A") (A') (A') (A') (A") (A') (A") (A') (A')
                 (A") (A') (A") (A') (A') (A') (A') (A') (A") (A')
                 (A") (A') (A') (A") (A") (A') (A") (A') (A") (A')
                 (A') (A') (A') (A') (A') (A") (A') (A') (A') (A')
                 (A') (A") (A') (A') (A') (A") (A') (A') (A') (A')
                 (A') (A') (A') (A') (A') (A') (A') (A') (A') (A')
                 (A') (A') (A') (A') (A') (A') (A') (A') (A') (A')
                 (A') (A') (A') (A') (A") (A') (A") (A") (A') (A")
                 (A') (A') (A') (A') (A") (A") (A') (A") (A") (A')
                 (A') (A') (A") (A') (A') (A") (A') (A") (A') (A")
                 (A") (A') (A") (A') (A') (A') (A") (A') (A') (A')
                 (A') (A') (A') (A') (A') (A') (A') (A') (A') (A')
                 (A') (A') (A') (A") (A') (A') (A') (A') (A') (A')
                 (A') (A') (A") (A') (A") (A') (A") (A") (A') (A")
                 (A") (A') (A') (A") (A") (A") (A') (A") (A') (A')
                 (A') (A') (A') (A") (A") (A') (A') (A') (A') (A")
                 (A') (A') (A') (A") (A') (A") (A') (A') (A") (A")
                 (A") (A') (A') (A") (A') (A") (A') (A') (A') (A')
                 (A") (A") (A") (A') (A") (A') (A') (A") (A') (A')
                 (A') (A") (A") (A') (A") (A") (A') (A') (A') (A")
                 (A') (A') (A') (A') (A") (A') (A') (A') (A") (A")
                 (A') (A') (A') (A") (A') (A') (A') (A") (A") (A')
                 (A") (A') (A') (A") (A') (A') (A') (A') (A') (A')
                 (A") (A') (A') (A') (A') (A") (A") (A") (A') (A')
                 (A') (A') (A') (A') (A') (A') (A") (A') (A') (A')
                 (A') (A") (A') (A") (A") (A") (A') (A") (A") (A')
                 (A') (A") (A") (A') (A") (A") (A') (A') (A') (A')
                 (A') (A') (A') (A') (A') (A') (A') (A') (A') (A')
                 (A') (A') (A') (A") (A') (A') (A') (A') (A') (A')
                 (A') (A') (A') (A') (A') (A') (A') (A') (A') (A')
                 (A') (A') (A') (A') (A') (A') (A') (A') (A') (A')
                 (A') (A')
 The electronic state is 1-A'.
 Alpha  occ. eigenvalues --  -10.77645 -10.73254 -10.73109 -10.72473 -10.72357
 Alpha  occ. eigenvalues --  -10.71432 -10.71294 -10.71143 -10.70950 -10.70885
 Alpha  occ. eigenvalues --  -10.70002 -10.69937 -10.69656 -10.69573  -1.16502
 Alpha  occ. eigenvalues --   -1.12504  -1.06944  -1.05824  -1.01315  -1.00256
 Alpha  occ. eigenvalues --   -0.95770  -0.91079  -0.86427  -0.85922  -0.83835
 Alpha  occ. eigenvalues --   -0.78407  -0.76083  -0.74423  -0.69539  -0.69261
 Alpha  occ. eigenvalues --   -0.68519  -0.68214  -0.68085  -0.64766  -0.64307
 Alpha  occ. eigenvalues --   -0.63141  -0.61868  -0.59960  -0.59684  -0.59078
 Alpha  occ. eigenvalues --   -0.56928  -0.55202  -0.54873  -0.52431  -0.46673
 Alpha  occ. eigenvalues --   -0.46060  -0.44452
 Alpha virt. eigenvalues --   -0.26067  -0.14675  -0.14094  -0.12769  -0.11183
 Alpha virt. eigenvalues --   -0.10094  -0.09230  -0.07983  -0.07958  -0.07478
 Alpha virt. eigenvalues --   -0.07211  -0.07150  -0.05640  -0.05585  -0.05337
 Alpha virt. eigenvalues --   -0.03827  -0.03648  -0.03281  -0.03129  -0.02162
 Alpha virt. eigenvalues --   -0.01372  -0.00932   0.00182   0.00592   0.00695
 Alpha virt. eigenvalues --    0.01057   0.01509   0.01932   0.02222   0.02268
 Alpha virt. eigenvalues --    0.02450   0.02674   0.02755   0.03237   0.03374
 Alpha virt. eigenvalues --    0.04236   0.04513   0.04690   0.05026   0.05364
 Alpha virt. eigenvalues --    0.06028   0.06305   0.06599   0.07062   0.07246
 Alpha virt. eigenvalues --    0.07896   0.08172   0.08375   0.08562   0.08928
 Alpha virt. eigenvalues --    0.09551   0.09564   0.10055   0.10898   0.11079
 Alpha virt. eigenvalues --    0.11107   0.12197   0.12250   0.12917   0.13018
 Alpha virt. eigenvalues --    0.13416   0.13520   0.14035   0.14369   0.16269
 Alpha virt. eigenvalues --    0.16279   0.16354   0.17349   0.17626   0.17792
 Alpha virt. eigenvalues --    0.18140   0.19043   0.19232   0.19661   0.19765
 Alpha virt. eigenvalues --    0.21593   0.21629   0.22732   0.23138   0.23585
 Alpha virt. eigenvalues --    0.23704   0.24527   0.25217   0.26925   0.27622
 Alpha virt. eigenvalues --    0.28879   0.29317   0.29909   0.31389   0.35887
 Alpha virt. eigenvalues --    0.36478   0.38180   0.39287   0.41169   0.41399
 Alpha virt. eigenvalues --    0.42022   0.42154   0.42981   0.43728   0.44302
 Alpha virt. eigenvalues --    0.44934   0.45047   0.46084   0.46210   0.47881
 Alpha virt. eigenvalues --    0.48534   0.48911   0.49003   0.50442   0.51303
 Alpha virt. eigenvalues --    0.51657   0.51768   0.52113   0.52958   0.53981
 Alpha virt. eigenvalues --    0.54085   0.54714   0.55680   0.55770   0.57305
 Alpha virt. eigenvalues --    0.58245   0.58821   0.61464   0.62146   0.62358
 Alpha virt. eigenvalues --    0.63238   0.63498   0.65069   0.65169   0.67419
 Alpha virt. eigenvalues --    0.70371   0.70543   0.71061   0.72441   0.72897
 Alpha virt. eigenvalues --    0.75755   0.76027   0.76326   0.76903   0.77105
 Alpha virt. eigenvalues --    0.77858   0.77941   0.78289   0.79854   0.80410
 Alpha virt. eigenvalues --    0.81292   0.81621   0.82133   0.83030   0.85237
 Alpha virt. eigenvalues --    0.87201   0.88253   0.88649   0.89108   0.90444
 Alpha virt. eigenvalues --    0.91180   0.91242   0.93199   0.94658   0.96491
 Alpha virt. eigenvalues --    0.96640   1.00355   1.01334   1.01673   1.02724
 Alpha virt. eigenvalues --    1.03209   1.03881   1.04746   1.05379   1.08818
 Alpha virt. eigenvalues --    1.19589   1.23238   1.24113   1.25316   1.28205
 Alpha virt. eigenvalues --    1.29624   1.31839   1.34213   1.35808   1.36016
 Alpha virt. eigenvalues --    1.39413   1.40187   1.40994   1.42922   1.43525
 Alpha virt. eigenvalues --    1.43554   1.45103   1.45530   1.46400   1.46691
 Alpha virt. eigenvalues --    1.47641   1.48071   1.51832   1.53630   1.55803
 Alpha virt. eigenvalues --    1.56117   1.56354   1.56558   1.57838   1.61527
 Alpha virt. eigenvalues --    1.63166   1.63500   1.63732   1.66166   1.68356
 Alpha virt. eigenvalues --    1.68397   1.68651   1.69695   1.74473   1.76023
 Alpha virt. eigenvalues --    1.77259   1.78047   1.80209   1.80219   1.80758
 Alpha virt. eigenvalues --    1.83198   1.83209   1.83692   1.83800   1.84121
 Alpha virt. eigenvalues --    1.84313   1.85846   1.86106   1.88253   1.91420
 Alpha virt. eigenvalues --    1.92135   1.94171   1.95260   1.97718   1.98200
 Alpha virt. eigenvalues --    1.99802   2.02765   2.04509   2.07262   2.11845
 Alpha virt. eigenvalues --    2.12127   2.14126   2.15215   2.19225   2.21417
 Alpha virt. eigenvalues --    2.22799   2.28484   2.30467   2.34762   2.35010
 Alpha virt. eigenvalues --    2.36227   2.38687   2.39595   2.42417   2.44232
 Alpha virt. eigenvalues --    2.46211   2.46936   2.49423   2.52972   2.53844
 Alpha virt. eigenvalues --    2.54483   2.56619   2.57860   2.58298   2.59669
 Alpha virt. eigenvalues --    2.59838   2.61640   2.62189   2.63583   2.63872
 Alpha virt. eigenvalues --    2.64799   2.65167   2.65229   2.65385   2.68175
 Alpha virt. eigenvalues --    2.68699   2.70992   2.71422   2.73362   2.74841
 Alpha virt. eigenvalues --    2.76301   2.79102   2.79777   2.83098   2.83116
 Alpha virt. eigenvalues --    2.84939   2.86410   2.92163   2.96954   2.99548
 Alpha virt. eigenvalues --    3.00121   3.05583   3.11296   3.11658   3.13192
 Alpha virt. eigenvalues --    3.21272   3.24464   3.26923   3.28351   3.30825
 Alpha virt. eigenvalues --    3.32804   3.33681   3.43426   3.45931   3.46922
 Alpha virt. eigenvalues --    3.48815   3.50349   3.56698   3.64806   3.67202
 Alpha virt. eigenvalues --    3.67519   3.94180   3.94584   3.95121   3.96284
 Alpha virt. eigenvalues --    4.04044   4.06983   4.07658   4.12524   4.35851
 Alpha virt. eigenvalues --    4.62020   4.69970   4.71714  23.45321  23.60666
 Alpha virt. eigenvalues --   23.82345  23.86046  23.88077  23.89421  23.90450
 Alpha virt. eigenvalues --   23.92495  23.98010  23.99427  24.00001  24.00808
 Alpha virt. eigenvalues --   24.10638  24.10798
          Condensed to atoms (all electrons):
               1          2          3          4          5          6
     1  C    8.545902   0.404391  -0.559550   1.863286  -0.000326  -0.095749
     2  C    0.404391   7.047947   0.367419  -1.011910  -0.027583  -0.015089
     3  C   -0.559550   0.367419   6.580502   0.740188  -0.120238   0.016960
     4  C    1.863286  -1.011910   0.740188  10.690156  -0.281880  -0.116872
     5  C   -0.000326  -0.027583  -0.120238  -0.281880  10.793675   0.726096
     6  C   -0.095749  -0.015089   0.016960  -0.116872   0.726096   6.584744
     7  C   -0.025072   0.004329  -0.015409  -0.034341  -0.983911   0.390047
     8  C    0.406032  -0.029319  -0.092554   0.008937   1.787838  -0.592596
     9  C   -1.292887  -0.758213   0.281745  -0.319240  -0.256937   0.282297
    10  C   -1.229349   0.240795  -0.371633  -2.511061  -2.564451  -0.347415
    11  C    0.221936  -0.970130   1.044701  -0.214490  -1.503728  -0.188203
    12  C   -1.814947   1.312221  -1.362085  -1.405344  -0.334864  -0.190018
    13  C    0.136393  -0.242821  -0.171981  -1.480278  -0.207039   1.010879
    14  C   -1.052377  -0.195731  -0.212374  -0.297383  -1.401422  -1.340301
    15  H    0.363707  -0.101737  -0.001917   0.026307   0.005979   0.001076
    16  H   -0.019721   0.376653  -0.014758   0.013241  -0.001540  -0.000324
    17  H   -0.022726  -0.016315   0.373270  -0.065735   0.000333   0.000389
    18  H    0.048441   0.002931  -0.085398   0.450894   0.008062  -0.004934
    19  H   -0.047359  -0.007355   0.050498  -0.069189  -0.071807   0.050429
    20  H    0.007663   0.001922  -0.004894   0.008103   0.452363  -0.085420
    21  H   -0.001346  -0.000394   0.000393   0.000271  -0.066135   0.375002
    22  H    0.000733   0.000361  -0.000332  -0.001580   0.014288  -0.016191
    23  H    0.005841  -0.002784   0.001115   0.006195   0.025580  -0.002477
    24  H    0.030410   0.013955  -0.001458  -0.012511  -0.012259  -0.001391
    25  H    0.030410   0.013955  -0.001458  -0.012511  -0.012259  -0.001391
               7          8          9         10         11         12
     1  C   -0.025072   0.406032  -1.292887  -1.229349   0.221936  -1.814947
     2  C    0.004329  -0.029319  -0.758213   0.240795  -0.970130   1.312221
     3  C   -0.015409  -0.092554   0.281745  -0.371633   1.044701  -1.362085
     4  C   -0.034341   0.008937  -0.319240  -2.511061  -0.214490  -1.405344
     5  C   -0.983911   1.787838  -0.256937  -2.564451  -1.503728  -0.334864
     6  C    0.390047  -0.592596   0.282297  -0.347415  -0.188203  -0.190018
     7  C    7.050578   0.470848  -0.770116   0.213882  -0.231575  -0.224424
     8  C    0.470848   8.480498  -1.298906  -1.200408   0.132677  -1.073011
     9  C   -0.770116  -1.298906   9.679971   0.248729   1.802374  -1.992854
    10  C    0.213882  -1.200408   0.248729   9.292313  -0.618656   2.436901
    11  C   -0.231575   0.132677   1.802374  -0.618656  14.719429  -3.816178
    12  C   -0.224424  -1.073011  -1.992854   2.436901  -3.816178  16.016292
    13  C   -0.941209   0.222828   1.825573  -0.590196   1.091137  -4.890189
    14  C    1.220461  -1.713141  -2.045022   2.422477  -4.878515   2.898583
    15  H   -0.002712   0.006096   0.092689  -0.009843  -0.029742  -0.025709
    16  H    0.000350   0.000640   0.005017  -0.009937   0.030730  -0.037032
    17  H   -0.000400  -0.001323  -0.006154   0.020940  -0.029098   0.090914
    18  H    0.001920   0.007614  -0.026063   0.018777  -0.010848  -0.051241
    19  H   -0.007504  -0.046475   0.076804   0.422393   0.078130  -0.061809
    20  H    0.003022   0.047529  -0.025583   0.017886  -0.011609  -0.012472
    21  H   -0.018198  -0.021017  -0.005896   0.020751  -0.006390   0.005229
    22  H    0.377802  -0.020067   0.004766  -0.010248   0.003259  -0.009347
    23  H   -0.101435   0.363388   0.091508  -0.009314   0.000739   0.006937
    24  H    0.014375   0.031912   0.358563   0.005712   0.011441  -0.059453
    25  H    0.014375   0.031912   0.358563   0.005712   0.011441  -0.059453
              13         14         15         16         17         18
     1  C    0.136393  -1.052377   0.363707  -0.019721  -0.022726   0.048441
     2  C   -0.242821  -0.195731  -0.101737   0.376653  -0.016315   0.002931
     3  C   -0.171981  -0.212374  -0.001917  -0.014758   0.373270  -0.085398
     4  C   -1.480278  -0.297383   0.026307   0.013241  -0.065735   0.450894
     5  C   -0.207039  -1.401422   0.005979  -0.001540   0.000333   0.008062
     6  C    1.010879  -1.340301   0.001076  -0.000324   0.000389  -0.004934
     7  C   -0.941209   1.220461  -0.002712   0.000350  -0.000400   0.001920
     8  C    0.222828  -1.713141   0.006096   0.000640  -0.001323   0.007614
     9  C    1.825573  -2.045022   0.092689   0.005017  -0.006154  -0.026063
    10  C   -0.590196   2.422477  -0.009843  -0.009937   0.020940   0.018777
    11  C    1.091137  -4.878515  -0.029742   0.030730  -0.029098  -0.010848
    12  C   -4.890189   2.898583  -0.025709  -0.037032   0.090914  -0.051241
    13  C   14.731750  -3.906170   0.002147   0.003156  -0.006402  -0.011601
    14  C   -3.906170  16.051711   0.006662  -0.008985   0.005285  -0.010675
    15  H    0.002147   0.006662   0.438889  -0.008902   0.001428   0.000207
    16  H    0.003156  -0.008985  -0.008902   0.419529  -0.006574   0.001893
    17  H   -0.006402   0.005285   0.001428  -0.006574   0.422755  -0.010120
    18  H   -0.011601  -0.010675   0.000207   0.001893  -0.010120   0.453360
    19  H    0.076930  -0.067801   0.000270  -0.000515   0.001350  -0.006118
    20  H   -0.011657  -0.048684  -0.000108   0.000013  -0.000137   0.001305
    21  H   -0.028569   0.089052   0.000012  -0.000007   0.000010  -0.000144
    22  H    0.030535  -0.036570  -0.000126   0.000007  -0.000007   0.000015
    23  H   -0.029131  -0.022477   0.000623  -0.000125   0.000013  -0.000112
    24  H    0.014737  -0.059200  -0.000873   0.000626  -0.000141   0.000175
    25  H    0.014737  -0.059200  -0.000873   0.000626  -0.000141   0.000175
              19         20         21         22         23         24
     1  C   -0.047359   0.007663  -0.001346   0.000733   0.005841   0.030410
     2  C   -0.007355   0.001922  -0.000394   0.000361  -0.002784   0.013955
     3  C    0.050498  -0.004894   0.000393  -0.000332   0.001115  -0.001458
     4  C   -0.069189   0.008103   0.000271  -0.001580   0.006195  -0.012511
     5  C   -0.071807   0.452363  -0.066135   0.014288   0.025580  -0.012259
     6  C    0.050429  -0.085420   0.375002  -0.016191  -0.002477  -0.001391
     7  C   -0.007504   0.003022  -0.018198   0.377802  -0.101435   0.014375
     8  C   -0.046475   0.047529  -0.021017  -0.020067   0.363388   0.031912
     9  C    0.076804  -0.025583  -0.005896   0.004766   0.091508   0.358563
    10  C    0.422393   0.017886   0.020751  -0.010248  -0.009314   0.005712
    11  C    0.078130  -0.011609  -0.006390   0.003259   0.000739   0.011441
    12  C   -0.061809  -0.012472   0.005229  -0.009347   0.006937  -0.059453
    13  C    0.076930  -0.011657  -0.028569   0.030535  -0.029131   0.014737
    14  C   -0.067801  -0.048684   0.089052  -0.036570  -0.022477  -0.059200
    15  H    0.000270  -0.000108   0.000012  -0.000126   0.000623  -0.000873
    16  H   -0.000515   0.000013  -0.000007   0.000007  -0.000125   0.000626
    17  H    0.001350  -0.000137   0.000010  -0.000007   0.000013  -0.000141
    18  H   -0.006118   0.001305  -0.000144   0.000015  -0.000112   0.000175
    19  H    0.442503  -0.005971   0.001433  -0.000533   0.000300   0.000635
    20  H   -0.005971   0.451860  -0.010055   0.001906   0.000231   0.000164
    21  H    0.001433  -0.010055   0.422021  -0.006720   0.001486  -0.000139
    22  H   -0.000533   0.001906  -0.006720   0.418632  -0.008895   0.000624
    23  H    0.000300   0.000231   0.001486  -0.008895   0.437454  -0.000878
    24  H    0.000635   0.000164  -0.000139   0.000624  -0.000878   0.495311
    25  H    0.000635   0.000164  -0.000139   0.000624  -0.000878  -0.081467
              25
     1  C    0.030410
     2  C    0.013955
     3  C   -0.001458
     4  C   -0.012511
     5  C   -0.012259
     6  C   -0.001391
     7  C    0.014375
     8  C    0.031912
     9  C    0.358563
    10  C    0.005712
    11  C    0.011441
    12  C   -0.059453
    13  C    0.014737
    14  C   -0.059200
    15  H   -0.000873
    16  H    0.000626
    17  H   -0.000141
    18  H    0.000175
    19  H    0.000635
    20  H    0.000164
    21  H   -0.000139
    22  H    0.000624
    23  H   -0.000878
    24  H   -0.081467
    25  H    0.495311
 Mulliken charges:
               1
     1  C    0.096264
     2  C   -0.407499
     3  C   -0.440750
     4  C    0.026748
     5  C    0.032164
     6  C   -0.439550
     7  C   -0.405681
     8  C    0.090066
     9  C   -0.310729
    10  C    0.105244
    11  C   -0.638832
    12  C    0.653355
    13  C   -0.643559
    14  C    0.661795
    15  H    0.236451
    16  H    0.255939
    17  H    0.248589
    18  H    0.221486
    19  H    0.190126
    20  H    0.222460
    21  H    0.249489
    22  H    0.257065
    23  H    0.237095
    24  H    0.251131
    25  H    0.251131
 Sum of Mulliken charges =   1.00000
 Mulliken charges with hydrogens summed into heavy atoms:
               1
     1  C    0.332715
     2  C   -0.151560
     3  C   -0.192161
     4  C    0.248234
     5  C    0.254624
     6  C   -0.190061
     7  C   -0.148616
     8  C    0.327161
     9  C    0.191533
    10  C    0.295370
    11  C   -0.638832
    12  C    0.653355
    13  C   -0.643559
    14  C    0.661795
 Electronic spatial extent (au):  <R**2>=           2852.9386
 Charge=              1.0000 electrons
 Dipole moment (field-independent basis, Debye):
    X=             -0.1392    Y=              0.1801    Z=             -0.0000  Tot=              0.2276
 Quadrupole moment (field-independent basis, Debye-Ang):
   XX=            -31.1690   YY=            -56.2466   ZZ=            -84.1398
   XY=             -0.1767   XZ=             -0.0000   YZ=              0.0000
 Traceless Quadrupole moment (field-independent basis, Debye-Ang):
   XX=             26.0161   YY=              0.9385   ZZ=            -26.9547
   XY=             -0.1767   XZ=             -0.0000   YZ=              0.0000
 Octapole moment (field-independent basis, Debye-Ang**2):
  XXX=             -1.5180  YYY=              5.1241  ZZZ=              0.0000  XYY=             -0.2854
  XXY=             -5.1658  XXZ=              0.0000  XZZ=             -0.2161  YZZ=             -3.0488
  YYZ=              0.0000  XYZ=              0.0000
 Hexadecapole moment (field-independent basis, Debye-Ang**3):
 XXXX=          -2121.5169 YYYY=           -608.2703 ZZZZ=            -99.3053 XXXY=              3.1316
 XXXZ=             -0.0000 YYYX=              4.8911 YYYZ=              0.0000 ZZZX=             -0.0000
 ZZZY=             -0.0000 XXYY=           -507.0817 XXZZ=           -590.0862 YYZZ=           -145.6127
 XXYZ=             -0.0000 YYXZ=             -0.0000 ZZXY=              2.3855
 N-N= 7.816400783281D+02 E-N=-2.799637088813D+03  KE= 5.375296489107D+02
 Symmetry A'   KE= 5.228823109024D+02
 Symmetry A"   KE= 1.464733800825D+01
 Unable to Open any file for archive entry.
 1\1\GINC-GADI-CPU-CLX-0648\SP\RM062X TD-FC\6-311++G(d,p)\C14H11(1+)\TS
 1578\27-Jul-2022\0\\#n M062X/6-311++G(d,p) TD(NStates=1) EmpiricalDisp
 ersion=GD3 SP\\SP_-100\\1,1\C,0,2.49185,1.3703,0.\C,0,3.703475,0.68325
 ,0.\C,0,3.6837,-0.69975,0.\C,0,2.459075,-1.396175,0.\C,0,-2.466875,-1.
 400725,0.\C,0,-3.6814,-0.70595,0.\C,0,-3.69525,0.679725,0.\C,0,-2.485,
 1.3706,0.\C,0,0.0023,1.4522,0.\C,0,-0.0061,-1.42005,0.\C,0,1.26085,0.6
 83675,0.\C,0,1.2359,-0.722475,0.\C,0,-1.262675,0.6875,0.\C,0,-1.2409,-
 0.723075,0.\H,0,2.4842,2.45365,0.\H,0,4.638375,1.223525,0.\H,0,4.6079,
 -1.261,0.\H,0,2.46635,-2.47885,0.\H,0,-0.005625,-2.501375,0.\H,0,-2.47
 ,-2.483275,0.\H,0,-4.60935,-1.260775,0.\H,0,-4.63005,1.22065,0.\H,0,-2
 .4821,2.453875,0.\H,0,0.008,2.15225,-0.857125\H,0,0.008,2.15225,0.8571
 25\\Version=ES64L-G16RevC.01\State=1-A'\HF=-539.7599172\RMSD=4.599e-09
 \PG=CS [SG(C14H9),X(H2)]\\@
 The archive entry for this job was punched.


 NOTHING PUZZLES ME MORE THAN TIME AND SPACE; AND YET NOTHING TROUBLES ME LESS
                                                          -- CHARLES LAMB (1810)
 Job cpu time:       0 days  0 hours 46 minutes 16.2 seconds.
 Elapsed time:       0 days  0 hours  1 minutes 27.5 seconds.
 File lengths (MBytes):  RWF=    460 Int=      0 D2E=      0 Chk=     15 Scr=      1
 Normal termination of Gaussian 16 at Wed Jul 27 10:05:37 2022.
