 Entering Gaussian System, Link 0=g16
 Initial command:
 /apps/gaussian/g16c01/g16/l1.exe "/jobfs/52804872.gadi-pbs/Gau-1584135.inp" -scrdir="/jobfs/52804872.gadi-pbs/"
 Entering Link 1 = /apps/gaussian/g16c01/g16/l1.exe PID=   1584136.
  
 Copyright (c) 1988-2019, Gaussian, Inc.  All Rights Reserved.
  
 This is part of the Gaussian(R) 16 program.  It is based on
 the Gaussian(R) 09 system (copyright 2009, Gaussian, Inc.),
 the Gaussian(R) 03 system (copyright 2003, Gaussian, Inc.),
 the Gaussian(R) 98 system (copyright 1998, Gaussian, Inc.),
 the Gaussian(R) 94 system (copyright 1995, Gaussian, Inc.),
 the Gaussian 92(TM) system (copyright 1992, Gaussian, Inc.),
 the Gaussian 90(TM) system (copyright 1990, Gaussian, Inc.),
 the Gaussian 88(TM) system (copyright 1988, Gaussian, Inc.),
 the Gaussian 86(TM) system (copyright 1986, Carnegie Mellon
 University), and the Gaussian 82(TM) system (copyright 1983,
 Carnegie Mellon University). Gaussian is a federally registered
 trademark of Gaussian, Inc.
  
 This software contains proprietary and confidential information,
 including trade secrets, belonging to Gaussian, Inc.
  
 This software is provided under written license and may be
 used, copied, transmitted, or stored only in accord with that
 written license.
  
 The following legend is applicable only to US Government
 contracts under FAR:
  
                    RESTRICTED RIGHTS LEGEND
  
 Use, reproduction and disclosure by the US Government is
 subject to restrictions as set forth in subparagraphs (a)
 and (c) of the Commercial Computer Software - Restricted
 Rights clause in FAR 52.227-19.
  
 Gaussian, Inc.
 340 Quinnipiac St., Bldg. 40, Wallingford CT 06492
  
  
 ---------------------------------------------------------------
 Warning -- This program may not be used in any manner that
 competes with the business of Gaussian, Inc. or will provide
 assistance to any competitor of Gaussian, Inc.  The licensee
 of this program is prohibited from giving any competitor of
 Gaussian, Inc. access to this program.  By using this program,
 the user acknowledges that Gaussian, Inc. is engaged in the
 business of creating and licensing software in the field of
 computational chemistry and represents and warrants to the
 licensee that it is not a competitor of Gaussian, Inc. and that
 it will not use this program in any manner prohibited above.
 ---------------------------------------------------------------
  

 Cite this work as:
 Gaussian 16, Revision C.01,
 M. J. Frisch, G. W. Trucks, H. B. Schlegel, G. E. Scuseria, 
 M. A. Robb, J. R. Cheeseman, G. Scalmani, V. Barone, 
 G. A. Petersson, H. Nakatsuji, X. Li, M. Caricato, A. V. Marenich, 
 J. Bloino, B. G. Janesko, R. Gomperts, B. Mennucci, H. P. Hratchian, 
 J. V. Ortiz, A. F. Izmaylov, J. L. Sonnenberg, D. Williams-Young, 
 F. Ding, F. Lipparini, F. Egidi, J. Goings, B. Peng, A. Petrone, 
 T. Henderson, D. Ranasinghe, V. G. Zakrzewski, J. Gao, N. Rega, 
 G. Zheng, W. Liang, M. Hada, M. Ehara, K. Toyota, R. Fukuda, 
 J. Hasegawa, M. Ishida, T. Nakajima, Y. Honda, O. Kitao, H. Nakai, 
 T. Vreven, K. Throssell, J. A. Montgomery, Jr., J. E. Peralta, 
 F. Ogliaro, M. J. Bearpark, J. J. Heyd, E. N. Brothers, K. N. Kudin, 
 V. N. Staroverov, T. A. Keith, R. Kobayashi, J. Normand, 
 K. Raghavachari, A. P. Rendell, J. C. Burant, S. S. Iyengar, 
 J. Tomasi, M. Cossi, J. M. Millam, M. Klene, C. Adamo, R. Cammi, 
 J. W. Ochterski, R. L. Martin, K. Morokuma, O. Farkas, 
 J. B. Foresman, and D. J. Fox, Gaussian, Inc., Wallingford CT, 2019.
 
 ******************************************
 Gaussian 16:  ES64L-G16RevC.01  3-Jul-2019
                27-Jul-2022 
 ******************************************
 %NProcShared=32
 Will use up to   32 processors via shared memory.
 %mem = 128GB
 ---------------------------------------------------------------
 #n M062X/6-311++G(d,p) TD(NStates=1) EmpiricalDispersion=GD3 SP
 ---------------------------------------------------------------
 1/38=1,172=1/1;
 2/12=2,17=6,18=5,40=1/2;
 3/5=4,6=6,7=1111,11=9,25=1,30=1,74=-55,124=31/1,2,3,8;
 4//1;
 5/5=2,38=5/2;
 8/6=1,10=2,108=1/1;
 9/41=1,42=1,70=2/14;
 6/7=2,8=2,9=2,10=2/1;
 99/5=1,9=1/99;
 ----
 SP_0
 ----
 Symbolic Z-matrix:
 Charge =  1 Multiplicity = 1
 C                     2.4868    1.3691    0. 
 C                     3.69375   0.677     0. 
 C                     3.6819   -0.7118    0. 
 C                     2.47105  -1.40355   0. 
 C                    -2.45545  -1.39445   0. 
 C                    -3.6865   -0.6994    0. 
 C                    -3.7102    0.68405   0. 
 C                    -2.5005    1.3685    0. 
 C                    -0.0044    1.4643    0. 
 C                     0.0122   -1.4206    0. 
 C                     1.264     0.68955   0. 
 C                     1.2423   -0.72255   0. 
 C                    -1.26035   0.6819    0. 
 C                    -1.2323   -0.72135   0. 
 H                     2.4871    2.4522    0. 
 H                     4.62905   1.21715   0. 
 H                     4.6109   -1.2641    0. 
 H                     2.471    -2.4859    0. 
 H                     0.01125  -2.50165   0. 
 H                    -2.4637   -2.47705   0. 
 H                    -4.608    -1.26455   0. 
 H                    -4.6457    1.2229    0. 
 H                    -2.4913    2.45175   0. 
 H                    -0.016     2.155    -0.86015 
 H                    -0.016     2.155     0.86015 
 
                          Input orientation:                          
 ---------------------------------------------------------------------
 Center     Atomic      Atomic             Coordinates (Angstroms)
 Number     Number       Type             X           Y           Z
 ---------------------------------------------------------------------
      1          6           0        2.486800    1.369100    0.000000
      2          6           0        3.693750    0.677000    0.000000
      3          6           0        3.681900   -0.711800    0.000000
      4          6           0        2.471050   -1.403550    0.000000
      5          6           0       -2.455450   -1.394450    0.000000
      6          6           0       -3.686500   -0.699400    0.000000
      7          6           0       -3.710200    0.684050    0.000000
      8          6           0       -2.500500    1.368500    0.000000
      9          6           0       -0.004400    1.464300    0.000000
     10          6           0        0.012200   -1.420600    0.000000
     11          6           0        1.264000    0.689550    0.000000
     12          6           0        1.242300   -0.722550    0.000000
     13          6           0       -1.260350    0.681900    0.000000
     14          6           0       -1.232300   -0.721350    0.000000
     15          1           0        2.487100    2.452200    0.000000
     16          1           0        4.629050    1.217150    0.000000
     17          1           0        4.610900   -1.264100    0.000000
     18          1           0        2.471000   -2.485900    0.000000
     19          1           0        0.011250   -2.501650    0.000000
     20          1           0       -2.463700   -2.477050    0.000000
     21          1           0       -4.608000   -1.264550    0.000000
     22          1           0       -4.645700    1.222900    0.000000
     23          1           0       -2.491300    2.451750    0.000000
     24          1           0       -0.016000    2.155000   -0.860150
     25          1           0       -0.016000    2.155000    0.860150
 ---------------------------------------------------------------------
                    Distance matrix (angstroms):
                    1          2          3          4          5
     1  C    0.000000
     2  C    1.391305   0.000000
     3  C    2.399668   1.388851   0.000000
     4  C    2.772695   2.413231   1.394516   0.000000
     5  C    5.662424   6.488726   6.175198   4.926508   0.000000
     6  C    6.510632   7.507501   7.368410   6.197681   1.413711
     7  C    6.234750   7.403953   7.522735   6.524257   2.427871
     8  C    4.987300   6.232729   6.523014   5.692150   2.763317
     9  C    2.493018   3.781026   4.280680   3.788458   3.765647
    10  C    3.729085   4.237185   3.737525   2.458909   2.467789
    11  C    1.398938   2.429782   2.794642   2.416203   4.263492
    12  C    2.433882   2.822826   2.439624   1.404844   3.758298
    13  C    3.809643   4.954102   5.135001   4.274628   2.395724
    14  C    4.266343   5.120679   4.914209   3.765660   1.396123
    15  H    1.083100   2.146471   3.382077   3.855783   6.263028
    16  H    2.147632   1.080069   2.148940   3.394854   7.550536
    17  H    3.383126   2.146866   1.080776   2.144389   7.067552
    18  H    3.855032   3.391026   2.147955   1.082350   5.045907
    19  H    4.594677   4.864630   4.083777   2.693778   2.703794
    20  H    6.268997   6.918253   6.394099   5.050164   1.082631
    21  H    7.567846   8.525765   8.308308   7.080415   2.156466
    22  H    7.133998   8.357298   8.549385   7.585932   3.412875
    23  H    5.094469   6.434639   6.936602   6.283968   3.846367
    24  H    2.760707   4.084922   4.757401   4.425896   4.391966
    25  H    2.760707   4.084922   4.757401   4.425896   4.391966
                    6          7          8          9         10
     6  C    0.000000
     7  C    1.383653   0.000000
     8  C    2.383864   1.389909   0.000000
     9  C    4.270768   3.787049   2.497938   0.000000
    10  C    3.768357   4.276191   3.754030   2.884948   0.000000
    11  C    5.141657   4.974203   3.825236   1.486296   2.453515
    12  C    4.928854   5.148376   4.287312   2.517255   1.414362
    13  C    2.791808   2.449851   1.417530   1.479716   2.457619
    14  C    2.454298   2.848708   2.444546   2.506951   1.427491
    15  H    6.931516   6.444601   5.103975   2.680209   4.596054
    16  H    8.533554   8.356272   7.131156   4.640037   5.317239
    17  H    8.316594   8.546110   7.583046   5.361451   4.601362
    18  H    6.411426   6.946641   6.290645   4.661726   2.679657
    19  H    4.113570   4.898763   4.613778   3.965981   1.081050
    20  H    2.157610   3.397987   3.845726   4.645686   2.691871
    21  H    1.080998   2.145481   3.372612   5.351612   4.622835
    22  H    2.148325   1.079592   2.150135   4.647574   5.355756
    23  H    3.370200   2.147203   1.083289   2.675767   4.611139
    24  H    4.728639   4.068251   2.744300   1.103204   3.677712
    25  H    4.728639   4.068251   2.744300   1.103204   3.677712
                   11         12         13         14         15
    11  C    0.000000
    12  C    1.412267   0.000000
    13  C    2.524362   2.869797   0.000000
    14  C    2.867430   2.474600   1.403530   0.000000
    15  H    2.145439   3.410068   4.144556   4.889310   0.000000
    16  H    3.406160   3.902885   5.913673   6.173589   2.472509
    17  H    3.875369   3.411853   6.185345   5.868353   4.280352
    18  H    3.397106   2.149211   4.894684   4.102203   4.938126
    19  H    3.428285   2.163488   3.428113   2.171609   5.538092
    20  H    4.891125   4.100330   3.380387   2.144488   6.986267
    21  H    6.188610   5.875353   3.872393   3.419125   8.009661
    22  H    5.933719   6.201074   3.428305   3.928283   7.237957
    23  H    4.148208   4.900607   2.155831   3.413743   4.978400
    24  H    2.127393   3.256297   2.111466   3.239233   2.663399
    25  H    2.127393   3.256297   2.111466   3.239233   2.663399
                   16         17         18         19         20
    16  H    0.000000
    17  H    2.481316   0.000000
    18  H    4.285996   2.464136   0.000000
    19  H    5.929043   4.763225   2.459800   0.000000
    20  H    7.997138   7.177828   4.934708   2.475072   0.000000
    21  H    9.564619   9.218900   7.183588   4.782038   2.463367
    22  H    9.274752   9.584874   8.025124   5.963175   4.295434
    23  H    7.226591   8.015534   7.000343   5.549678   4.928877
    24  H    4.816213   5.817070   5.335071   4.735503   5.309141
    25  H    4.816213   5.817070   5.335071   4.735503   5.309141
                   21         22         23         24         25
    21  H    0.000000
    22  H    2.487736   0.000000
    23  H    4.276833   2.480224   0.000000
    24  H    5.789615   4.800291   2.637239   0.000000
    25  H    5.789615   4.800291   2.637239   1.720300   0.000000
 Stoichiometry    C14H11(1+)
 Framework group  CS[SG(C14H9),X(H2)]
 Deg. of freedom    46
 Full point group                 CS      NOp   2
 Largest Abelian subgroup         CS      NOp   2
 Largest concise Abelian subgroup CS      NOp   2
                         Standard orientation:                         
 ---------------------------------------------------------------------
 Center     Atomic      Atomic             Coordinates (Angstroms)
 Number     Number       Type             X           Y           Z
 ---------------------------------------------------------------------
      1          6           0       -2.371796   -1.552550    0.000000
      2          6           0       -2.330065   -2.943230    0.000000
      3          6           0       -1.099525   -3.587185    0.000000
      4          6           0        0.081171   -2.845140    0.000000
      5          6           0        2.394527    1.504443    0.000000
      6          6           0        2.361550    2.917770    0.000000
      7          6           0        1.152480    3.590560    0.000000
      8          6           0       -0.021236    2.846089    0.000000
      9          6           0       -1.281904    0.689608    0.000000
     10          6           0        1.254828   -0.684407    0.000000
     11          6           0       -1.196229   -0.794216    0.000000
     12          6           0        0.059503   -1.440462    0.000000
     13          6           0        0.000000    1.428718    0.000000
     14          6           0        1.224484    0.742762    0.000000
     15          1           0       -3.327258   -1.042455    0.000000
     16          1           0       -3.247207   -3.513667    0.000000
     17          1           0       -1.050131   -4.666831    0.000000
     18          1           0        1.035855   -3.355102    0.000000
     19          1           0        2.208788   -1.192963    0.000000
     20          1           0        3.353294    1.001596    0.000000
     21          1           0        3.294240    3.464255    0.000000
     22          1           0        1.118012    4.669601    0.000000
     23          1           0       -0.981024    3.348405    0.000000
     24          1           0       -1.885652    1.025300    0.860150
     25          1           0       -1.885652    1.025300   -0.860150
 ---------------------------------------------------------------------
 Rotational constants (GHZ):           2.1355210           0.4445057           0.3687237
 Standard basis: 6-311++G(d,p) (5D, 7F)
 There are   299 symmetry adapted cartesian basis functions of A'  symmetry.
 There are   100 symmetry adapted cartesian basis functions of A"  symmetry.
 There are   285 symmetry adapted basis functions of A'  symmetry.
 There are   100 symmetry adapted basis functions of A"  symmetry.
   385 basis functions,   603 primitive gaussians,   399 cartesian basis functions
    47 alpha electrons       47 beta electrons
       nuclear repulsion energy       781.0964580836 Hartrees.
 NAtoms=   25 NActive=   25 NUniq=   24 SFac= 1.09D+00 NAtFMM=   60 NAOKFM=F Big=F
 Integral buffers will be    131072 words long.
 Regular integral format.
 Two-electron integral symmetry is turned on.
 Nuclear repulsion after empirical dispersion term =      781.0954785848 Hartrees.
 One-electron integrals computed using PRISM.
 NBasis=   385 RedAO= T EigKep=  1.13D-06  NBF=   285   100
 NBsUse=   379 1.00D-06 EigRej=  8.40D-07 NBFU=   279   100
 ExpMin= 3.60D-02 ExpMax= 4.56D+03 ExpMxC= 6.82D+02 IAcc=3 IRadAn=         5 AccDes= 0.00D+00
 Harris functional with IExCor= 1009 and IRadAn=       5 diagonalized for initial guess.
 HarFok:  IExCor= 1009 AccDes= 0.00D+00 IRadAn=         5 IDoV= 1 UseB2=F ITyADJ=14
 ICtDFT=  3500011 ScaDFX=  1.000000  1.000000  1.000000  1.000000
 FoFCou: FMM=F IPFlag=           0 FMFlag=      100000 FMFlg1=           0
         NFxFlg=           0 DoJE=T BraDBF=F KetDBF=T FulRan=T
         wScrn=  0.000000 ICntrl=       500 IOpCl=  0 I1Cent=   200000004 NGrid=           0
         NMat0=    1 NMatS0=      1 NMatT0=    0 NMatD0=    1 NMtDS0=    0 NMtDT0=    0
 Petite list used in FoFCou.
 Initial guess orbital symmetries:
       Occupied  (A') (A') (A') (A') (A') (A') (A') (A') (A') (A')
                 (A') (A') (A') (A') (A') (A') (A') (A') (A') (A')
                 (A') (A') (A') (A') (A') (A') (A') (A') (A') (A')
                 (A') (A') (A") (A') (A') (A') (A') (A') (A') (A")
                 (A") (A') (A') (A") (A") (A") (A")
       Virtual   (A") (A") (A") (A") (A") (A') (A') (A') (A') (A")
                 (A") (A') (A') (A') (A") (A') (A') (A') (A') (A")
                 (A') (A") (A') (A') (A') (A") (A') (A") (A') (A')
                 (A') (A') (A') (A") (A') (A') (A") (A') (A') (A")
                 (A') (A') (A') (A") (A') (A') (A') (A') (A') (A")
                 (A') (A') (A") (A") (A') (A') (A') (A") (A") (A')
                 (A') (A') (A') (A') (A') (A') (A") (A') (A') (A")
                 (A') (A') (A') (A') (A') (A') (A') (A') (A') (A')
                 (A') (A') (A') (A') (A') (A') (A') (A') (A') (A')
                 (A') (A') (A') (A') (A') (A') (A') (A") (A') (A")
                 (A') (A') (A") (A") (A') (A") (A') (A") (A') (A")
                 (A") (A') (A') (A') (A") (A') (A') (A") (A") (A')
                 (A") (A") (A') (A') (A') (A") (A') (A') (A') (A")
                 (A') (A') (A') (A') (A') (A') (A") (A') (A') (A')
                 (A') (A') (A') (A') (A') (A') (A') (A') (A') (A")
                 (A") (A') (A") (A") (A') (A') (A') (A") (A") (A')
                 (A") (A') (A") (A") (A") (A') (A') (A') (A') (A')
                 (A') (A") (A") (A') (A') (A') (A') (A') (A') (A")
                 (A') (A') (A') (A') (A') (A") (A") (A') (A") (A")
                 (A') (A") (A') (A") (A') (A') (A') (A") (A') (A')
                 (A") (A") (A") (A') (A') (A") (A') (A") (A') (A')
                 (A") (A") (A') (A") (A') (A") (A') (A') (A') (A")
                 (A') (A') (A') (A') (A") (A') (A') (A') (A") (A")
                 (A') (A') (A') (A") (A') (A') (A") (A') (A") (A')
                 (A") (A') (A') (A') (A') (A") (A') (A') (A') (A")
                 (A') (A') (A") (A') (A") (A') (A') (A") (A') (A')
                 (A') (A") (A') (A") (A') (A') (A') (A") (A') (A")
                 (A') (A') (A') (A') (A") (A') (A") (A') (A") (A')
                 (A") (A') (A") (A") (A") (A') (A') (A') (A') (A')
                 (A') (A') (A') (A') (A') (A') (A') (A') (A') (A')
                 (A') (A') (A') (A') (A') (A") (A') (A') (A') (A')
                 (A') (A') (A') (A') (A') (A') (A') (A') (A') (A')
                 (A') (A') (A') (A') (A') (A') (A') (A') (A') (A')
                 (A') (A')
 The electronic state of the initial guess is 1-A'.
 Requested convergence on RMS density matrix=1.00D-08 within 128 cycles.
 Requested convergence on MAX density matrix=1.00D-06.
 Requested convergence on             energy=1.00D-06.
 No special actions if energy rises.
 SCF Done:  E(RM062X) =  -539.759796800     A.U. after   15 cycles
            NFock= 15  Conv=0.58D-08     -V/T= 2.0042
 DoSCS=F DFT=T ScalE2(SS,OS)=  1.000000  1.000000
 ExpMin= 3.60D-02 ExpMax= 4.56D+03 ExpMxC= 6.82D+02 IAcc=3 IRadAn=         5 AccDes= 0.00D+00
 HarFok:  IExCor=  205 AccDes= 0.00D+00 IRadAn=         5 IDoV=-2 UseB2=F ITyADJ=14
 ICtDFT= 12500011 ScaDFX=  1.000000  1.000000  1.000000  1.000000
 Range of M.O.s used for correlation:    15   379
 NBasis=   385 NAE=    47 NBE=    47 NFC=    14 NFV=     0
 NROrb=    365 NOA=    33 NOB=    33 NVA=   332 NVB=   332

 **** Warning!!: The largest alpha MO coefficient is  0.14545568D+03

 Orbital symmetries:
       Occupied  (A') (A') (A') (A') (A') (A') (A') (A') (A') (A')
                 (A') (A') (A') (A') (A') (A') (A') (A') (A') (A')
                 (A') (A') (A') (A') (A') (A') (A') (A') (A') (A')
                 (A') (A') (A") (A') (A') (A') (A') (A") (A") (A')
                 (A') (A') (A') (A") (A") (A") (A")
       Virtual   (A") (A") (A") (A") (A') (A') (A') (A') (A") (A')
                 (A') (A") (A') (A') (A") (A') (A") (A') (A') (A')
                 (A") (A") (A') (A') (A') (A") (A') (A") (A') (A')
                 (A") (A') (A") (A') (A') (A') (A') (A') (A") (A')
                 (A") (A') (A') (A") (A") (A') (A") (A') (A") (A')
                 (A') (A') (A') (A') (A') (A") (A') (A') (A') (A')
                 (A') (A") (A') (A') (A') (A') (A") (A') (A') (A')
                 (A') (A') (A') (A') (A') (A') (A') (A') (A') (A')
                 (A') (A') (A') (A') (A') (A') (A') (A') (A') (A')
                 (A') (A') (A') (A') (A") (A') (A") (A") (A') (A")
                 (A') (A') (A') (A') (A") (A") (A') (A") (A") (A')
                 (A') (A') (A") (A') (A') (A") (A') (A") (A') (A")
                 (A") (A') (A") (A') (A') (A') (A") (A') (A') (A')
                 (A') (A') (A') (A') (A') (A') (A') (A') (A') (A')
                 (A') (A') (A') (A") (A') (A') (A') (A') (A') (A')
                 (A') (A') (A") (A') (A") (A') (A") (A") (A') (A")
                 (A") (A') (A') (A") (A") (A") (A') (A") (A') (A')
                 (A') (A') (A') (A") (A") (A') (A') (A') (A') (A")
                 (A') (A') (A') (A") (A') (A") (A') (A') (A") (A")
                 (A") (A') (A') (A") (A") (A') (A') (A') (A') (A')
                 (A") (A") (A") (A') (A') (A") (A') (A") (A') (A')
                 (A') (A") (A') (A") (A") (A') (A") (A') (A') (A")
                 (A') (A') (A') (A') (A") (A') (A') (A') (A") (A")
                 (A') (A') (A') (A") (A') (A') (A') (A") (A") (A')
                 (A") (A') (A') (A") (A') (A') (A') (A') (A') (A')
                 (A") (A') (A') (A') (A') (A") (A") (A") (A') (A')
                 (A') (A') (A') (A') (A') (A') (A") (A') (A') (A')
                 (A') (A") (A') (A") (A") (A") (A') (A") (A') (A")
                 (A') (A") (A") (A') (A") (A") (A') (A') (A') (A')
                 (A') (A') (A') (A') (A') (A') (A') (A') (A') (A')
                 (A') (A') (A') (A") (A') (A') (A') (A') (A') (A')
                 (A') (A') (A') (A') (A') (A') (A') (A') (A') (A')
                 (A') (A') (A') (A') (A') (A') (A') (A') (A') (A')
                 (A') (A')
     4 initial guesses have been made.
 Convergence on wavefunction:    0.001000000000000
 Iteration     1 Dimension     4 NMult     0 NNew      4
 CISAX will form     4 AO SS matrices at one time.
 Iteration     2 Dimension     6 NMult     4 NNew      2
 Iteration     3 Dimension     8 NMult     6 NNew      2
 Iteration     4 Dimension    10 NMult     8 NNew      2
 Iteration     5 Dimension    12 NMult    10 NNew      2
 Iteration     6 Dimension    14 NMult    12 NNew      2
 ***********************************************************************
 Excited states from <AA,BB:AA,BB> singles matrix:
 ***********************************************************************
 
 Ground to excited state transition densities written to RWF  633
 Ground to excited state transition electric dipole moments (Au):
       state          X           Y           Z        Dip. S.      Osc.
         1        -0.5503      0.3076     -0.0000      0.3975      0.0274
 Ground to excited state transition velocity dipole moments (Au):
       state          X           Y           Z        Dip. S.      Osc.
         1         0.0642     -0.0340      0.0000      0.0053      0.0341
 Ground to excited state transition magnetic dipole moments (Au):
       state          X           Y           Z
         1        -0.0000     -0.0000     -0.0867
 Ground to excited state transition velocity quadrupole moments (Au):
       state          XX          YY          ZZ          XY          XZ          YZ
         1         0.1212      0.2036     -0.0097      0.1269      0.0000     -0.0000
 <0|del|b> * <b|rxdel|0> + <0|del|b> * <b|delr+rdel|0>
 Rotatory Strengths (R) in cgs (10**-40 erg-esu-cm/Gauss)
       state          XX          YY          ZZ    R(velocity)    E-M Angle
         1         0.0000     -0.0000      0.0000      0.0000       90.00
 1/2[<0|r|b>*<b|rxdel|0> + (<0|rxdel|b>*<b|r|0>)*]
 Rotatory Strengths (R) in cgs (10**-40 erg-esu-cm/Gauss)
       state          XX          YY          ZZ     R(length)
         1        -0.0000      0.0000     -0.0000     -0.0000
  1/2[<0|del|b>*<b|r|0> + (<0|r|b>*<b|del|0>)*] (Au)
       state          X           Y           Z        Dip. S.   Osc.(frdel)
         1        -0.0353     -0.0105     -0.0000      0.0458      0.0305

 Excitation energies and oscillator strengths:
 
 Excited State   1:      Singlet-A'     2.8086 eV  441.44 nm  f=0.0274  <S**2>=0.000
      47 -> 48         0.70410
 This state for optimization and/or second-order correction.
 Total Energy, E(TD-HF/TD-DFT) =  -539.656581670    
 Copying the excited state density for this state as the 1-particle RhoCI density.
 SavETr:  write IOETrn=   770 NScale= 10 NData=  16 NLR=1 NState=    1 LETran=      28.

 **********************************************************************

            Population analysis using the SCF Density.

 **********************************************************************

 Orbital symmetries:
       Occupied  (A') (A') (A') (A') (A') (A') (A') (A') (A') (A')
                 (A') (A') (A') (A') (A') (A') (A') (A') (A') (A')
                 (A') (A') (A') (A') (A') (A') (A') (A') (A') (A')
                 (A') (A') (A") (A') (A') (A') (A') (A") (A") (A')
                 (A') (A') (A') (A") (A") (A") (A")
       Virtual   (A") (A") (A") (A") (A') (A') (A') (A') (A") (A')
                 (A') (A") (A') (A') (A") (A') (A") (A') (A') (A')
                 (A") (A") (A') (A') (A') (A") (A') (A") (A') (A')
                 (A") (A') (A") (A') (A') (A') (A') (A') (A") (A')
                 (A") (A') (A') (A") (A") (A') (A") (A') (A") (A')
                 (A') (A') (A') (A') (A') (A") (A') (A') (A') (A')
                 (A') (A") (A') (A') (A') (A') (A") (A') (A') (A')
                 (A') (A') (A') (A') (A') (A') (A') (A') (A') (A')
                 (A') (A') (A') (A') (A') (A') (A') (A') (A') (A')
                 (A') (A') (A') (A') (A") (A') (A") (A") (A') (A")
                 (A') (A') (A') (A') (A") (A") (A') (A") (A") (A')
                 (A') (A') (A") (A') (A') (A") (A') (A") (A') (A")
                 (A") (A') (A") (A') (A') (A') (A") (A') (A') (A')
                 (A') (A') (A') (A') (A') (A') (A') (A') (A') (A')
                 (A') (A') (A') (A") (A') (A') (A') (A') (A') (A')
                 (A') (A') (A") (A') (A") (A') (A") (A") (A') (A")
                 (A") (A') (A') (A") (A") (A") (A') (A") (A') (A')
                 (A') (A') (A') (A") (A") (A') (A') (A') (A') (A")
                 (A') (A') (A') (A") (A') (A") (A') (A') (A") (A")
                 (A") (A') (A') (A") (A") (A') (A') (A') (A') (A')
                 (A") (A") (A") (A') (A') (A") (A') (A") (A') (A')
                 (A') (A") (A') (A") (A") (A') (A") (A') (A') (A")
                 (A') (A') (A') (A') (A") (A') (A') (A') (A") (A")
                 (A') (A') (A') (A") (A') (A') (A') (A") (A") (A')
                 (A") (A') (A') (A") (A') (A') (A') (A') (A') (A')
                 (A") (A') (A') (A') (A') (A") (A") (A") (A') (A')
                 (A') (A') (A') (A') (A') (A') (A") (A') (A') (A')
                 (A') (A") (A') (A") (A") (A") (A') (A") (A') (A")
                 (A') (A") (A") (A') (A") (A") (A') (A') (A') (A')
                 (A') (A') (A') (A') (A') (A') (A') (A') (A') (A')
                 (A') (A') (A') (A") (A') (A') (A') (A') (A') (A')
                 (A') (A') (A') (A') (A') (A') (A') (A') (A') (A')
                 (A') (A') (A') (A') (A') (A') (A') (A') (A') (A')
                 (A') (A')
 The electronic state is 1-A'.
 Alpha  occ. eigenvalues --  -10.77666 -10.73397 -10.73108 -10.72554 -10.72321
 Alpha  occ. eigenvalues --  -10.71506 -10.71262 -10.71232 -10.70987 -10.70747
 Alpha  occ. eigenvalues --  -10.70038 -10.69907 -10.69715 -10.69552  -1.16436
 Alpha  occ. eigenvalues --   -1.12458  -1.06945  -1.05716  -1.01312  -1.00186
 Alpha  occ. eigenvalues --   -0.95767  -0.91049  -0.86419  -0.85895  -0.83811
 Alpha  occ. eigenvalues --   -0.78392  -0.76023  -0.74413  -0.69584  -0.69247
 Alpha  occ. eigenvalues --   -0.68484  -0.68179  -0.68104  -0.64784  -0.64271
 Alpha  occ. eigenvalues --   -0.63015  -0.61846  -0.60075  -0.59618  -0.59099
 Alpha  occ. eigenvalues --   -0.56895  -0.55226  -0.54804  -0.52440  -0.46672
 Alpha  occ. eigenvalues --   -0.46068  -0.44445
 Alpha virt. eigenvalues --   -0.26094  -0.14668  -0.14096  -0.12774  -0.11178
 Alpha virt. eigenvalues --   -0.10085  -0.09232  -0.07981  -0.07969  -0.07476
 Alpha virt. eigenvalues --   -0.07202  -0.07143  -0.05644  -0.05580  -0.05333
 Alpha virt. eigenvalues --   -0.03829  -0.03648  -0.03279  -0.03134  -0.02165
 Alpha virt. eigenvalues --   -0.01365  -0.00931   0.00194   0.00592   0.00653
 Alpha virt. eigenvalues --    0.01058   0.01513   0.01942   0.02212   0.02293
 Alpha virt. eigenvalues --    0.02450   0.02669   0.02748   0.03321   0.03385
 Alpha virt. eigenvalues --    0.04240   0.04502   0.04699   0.05032   0.05367
 Alpha virt. eigenvalues --    0.06033   0.06293   0.06595   0.07040   0.07257
 Alpha virt. eigenvalues --    0.07892   0.08155   0.08359   0.08541   0.08927
 Alpha virt. eigenvalues --    0.09536   0.09565   0.10030   0.10860   0.11013
 Alpha virt. eigenvalues --    0.11119   0.12162   0.12243   0.12886   0.12980
 Alpha virt. eigenvalues --    0.13412   0.13525   0.14011   0.14381   0.16155
 Alpha virt. eigenvalues --    0.16331   0.16373   0.17344   0.17611   0.17798
 Alpha virt. eigenvalues --    0.18119   0.19076   0.19254   0.19626   0.19744
 Alpha virt. eigenvalues --    0.21537   0.21594   0.22718   0.23107   0.23554
 Alpha virt. eigenvalues --    0.23835   0.24582   0.25367   0.26920   0.27601
 Alpha virt. eigenvalues --    0.28840   0.29287   0.29854   0.31352   0.35800
 Alpha virt. eigenvalues --    0.36421   0.38186   0.39274   0.41146   0.41397
 Alpha virt. eigenvalues --    0.41954   0.42205   0.42984   0.43670   0.44299
 Alpha virt. eigenvalues --    0.44930   0.45040   0.46062   0.46195   0.47957
 Alpha virt. eigenvalues --    0.48518   0.48850   0.49031   0.50428   0.51119
 Alpha virt. eigenvalues --    0.51494   0.51738   0.52117   0.52882   0.53982
 Alpha virt. eigenvalues --    0.54093   0.54630   0.55680   0.55770   0.57513
 Alpha virt. eigenvalues --    0.58238   0.58821   0.61441   0.62209   0.62346
 Alpha virt. eigenvalues --    0.63203   0.63489   0.64941   0.65150   0.67237
 Alpha virt. eigenvalues --    0.70421   0.70603   0.71029   0.72411   0.72867
 Alpha virt. eigenvalues --    0.75761   0.76020   0.76291   0.76887   0.77095
 Alpha virt. eigenvalues --    0.77840   0.77873   0.78228   0.79891   0.80391
 Alpha virt. eigenvalues --    0.81234   0.81648   0.82162   0.83008   0.85176
 Alpha virt. eigenvalues --    0.87143   0.88158   0.88554   0.89140   0.90422
 Alpha virt. eigenvalues --    0.91059   0.91272   0.93197   0.94620   0.96419
 Alpha virt. eigenvalues --    0.96673   1.00389   1.01274   1.01681   1.02717
 Alpha virt. eigenvalues --    1.03198   1.03730   1.04743   1.05529   1.08765
 Alpha virt. eigenvalues --    1.19548   1.23252   1.24052   1.25164   1.28049
 Alpha virt. eigenvalues --    1.29682   1.31782   1.34327   1.35756   1.35997
 Alpha virt. eigenvalues --    1.39335   1.40113   1.40935   1.43035   1.43459
 Alpha virt. eigenvalues --    1.43515   1.44848   1.45683   1.46356   1.46667
 Alpha virt. eigenvalues --    1.47643   1.48012   1.51708   1.53623   1.55697
 Alpha virt. eigenvalues --    1.55823   1.56340   1.56580   1.57766   1.61425
 Alpha virt. eigenvalues --    1.63243   1.63472   1.63834   1.66096   1.68284
 Alpha virt. eigenvalues --    1.68354   1.68703   1.69749   1.74372   1.75980
 Alpha virt. eigenvalues --    1.77151   1.78052   1.79958   1.80108   1.80707
 Alpha virt. eigenvalues --    1.83122   1.83211   1.83594   1.83827   1.84176
 Alpha virt. eigenvalues --    1.84290   1.85806   1.86119   1.88226   1.91379
 Alpha virt. eigenvalues --    1.92062   1.94113   1.95191   1.97689   1.98141
 Alpha virt. eigenvalues --    1.99728   2.02350   2.04393   2.07261   2.11797
 Alpha virt. eigenvalues --    2.12047   2.14114   2.15225   2.19073   2.21207
 Alpha virt. eigenvalues --    2.22786   2.28639   2.30099   2.34606   2.34922
 Alpha virt. eigenvalues --    2.36230   2.38676   2.39596   2.42354   2.44758
 Alpha virt. eigenvalues --    2.46150   2.46415   2.49338   2.52895   2.53792
 Alpha virt. eigenvalues --    2.54186   2.56829   2.57841   2.58309   2.59610
 Alpha virt. eigenvalues --    2.59828   2.61587   2.62126   2.63530   2.63772
 Alpha virt. eigenvalues --    2.64779   2.65098   2.65191   2.65356   2.67901
 Alpha virt. eigenvalues --    2.68492   2.70946   2.71415   2.73342   2.74813
 Alpha virt. eigenvalues --    2.76302   2.78681   2.79704   2.82819   2.83060
 Alpha virt. eigenvalues --    2.84866   2.86262   2.92099   2.97022   2.99494
 Alpha virt. eigenvalues --    3.00052   3.04992   3.10853   3.11370   3.13167
 Alpha virt. eigenvalues --    3.20910   3.23381   3.26654   3.28239   3.30707
 Alpha virt. eigenvalues --    3.32795   3.33694   3.43446   3.45927   3.46525
 Alpha virt. eigenvalues --    3.48447   3.50082   3.56428   3.66101   3.66763
 Alpha virt. eigenvalues --    3.67445   3.94168   3.94489   3.95227   3.96219
 Alpha virt. eigenvalues --    4.03996   4.06844   4.07476   4.12548   4.35429
 Alpha virt. eigenvalues --    4.61180   4.69745   4.71580  23.45335  23.60459
 Alpha virt. eigenvalues --   23.82037  23.85136  23.87589  23.89126  23.90675
 Alpha virt. eigenvalues --   23.92759  23.97292  23.98806  24.00250  24.01220
 Alpha virt. eigenvalues --   24.10564  24.10822
          Condensed to atoms (all electrons):
               1          2          3          4          5          6
     1  C    8.535849   0.359886  -0.572745   1.943597  -0.026064  -0.092942
     2  C    0.359886   7.157420   0.373139  -1.065758  -0.022843  -0.014644
     3  C   -0.572745   0.373139   6.591710   0.754695  -0.121371   0.016925
     4  C    1.943597  -1.065758   0.754695  11.190185  -0.381472  -0.129072
     5  C   -0.026064  -0.022843  -0.121371  -0.381472  10.960576   0.785425
     6  C   -0.092942  -0.014644   0.016925  -0.129072   0.785425   6.588043
     7  C   -0.021001   0.000953  -0.014058  -0.008046  -1.124628   0.324306
     8  C    0.403468  -0.012255  -0.098788  -0.049166   2.088416  -0.499427
     9  C   -1.144956  -0.822546   0.296192  -0.141618  -0.268083   0.295703
    10  C   -1.269395   0.226639  -0.327632  -2.642478  -2.529348  -0.376029
    11  C    0.314495  -0.873673   0.973257  -0.289395  -1.483032  -0.156803
    12  C   -2.042275   1.273176  -1.384613  -1.641584  -0.301948  -0.222909
    13  C    0.214324  -0.231760  -0.189006  -1.533005  -0.289778   1.037016
    14  C   -1.098637  -0.222892  -0.175836  -0.370356  -1.641674  -1.430809
    15  H    0.367790  -0.106659  -0.001842   0.027049   0.005910   0.001140
    16  H   -0.019628   0.380532  -0.018273   0.014535  -0.001587  -0.000337
    17  H   -0.023717  -0.018191   0.376850  -0.068743   0.000270   0.000404
    18  H    0.049744   0.003128  -0.084450   0.460997   0.005995  -0.005079
    19  H   -0.045982  -0.007861   0.051242  -0.072791  -0.067362   0.051389
    20  H    0.007107   0.002057  -0.005149   0.005978   0.457615  -0.084600
    21  H   -0.001288  -0.000407   0.000397   0.000370  -0.067768   0.373141
    22  H    0.000629   0.000355  -0.000320  -0.001489   0.012555  -0.015584
    23  H    0.005936  -0.002558   0.001067   0.005398   0.028400  -0.000597
    24  H    0.034583   0.014964  -0.001499  -0.011958  -0.012483  -0.001637
    25  H    0.034583   0.014964  -0.001499  -0.011958  -0.012483  -0.001637
               7          8          9         10         11         12
     1  C   -0.021001   0.403468  -1.144956  -1.269395   0.314495  -2.042275
     2  C    0.000953  -0.012255  -0.822546   0.226639  -0.873673   1.273176
     3  C   -0.014058  -0.098788   0.296192  -0.327632   0.973257  -1.384613
     4  C   -0.008046  -0.049166  -0.141618  -2.642478  -0.289395  -1.641584
     5  C   -1.124628   2.088416  -0.268083  -2.529348  -1.483032  -0.301948
     6  C    0.324306  -0.499427   0.295703  -0.376029  -0.156803  -0.222909
     7  C    7.158204   0.214070  -0.798920   0.279871  -0.257283  -0.162470
     8  C    0.214070   8.701825  -1.138228  -1.322789   0.236673  -1.069855
     9  C   -0.798920  -1.138228   9.578996   0.262024   1.592548  -1.971949
    10  C    0.279871  -1.322789   0.262024   9.133999  -0.394259   2.414850
    11  C   -0.257283   0.236673   1.592548  -0.394259  14.476832  -3.854922
    12  C   -0.162470  -1.069855  -1.971949   2.414850  -3.854922  16.129512
    13  C   -0.929727   0.307370   1.550815  -0.442623   1.097881  -4.772441
    14  C    1.467818  -2.262208  -1.865195   2.438870  -4.801740   3.124470
    15  H   -0.002724   0.005428   0.090143  -0.009142  -0.029998  -0.021317
    16  H    0.000378   0.000809   0.002875  -0.009601   0.025887  -0.032038
    17  H   -0.000394  -0.001336  -0.005434   0.020312  -0.026791   0.090666
    18  H    0.002075   0.007139  -0.024162   0.010645  -0.007032  -0.053077
    19  H   -0.007607  -0.047351   0.075390   0.421891   0.077210  -0.071325
    20  H    0.002673   0.051635  -0.025132   0.012650  -0.011964  -0.012668
    21  H   -0.014057  -0.027312  -0.005904   0.020454  -0.006275   0.005337
    22  H    0.377954  -0.018703   0.003485  -0.008934   0.002898  -0.008689
    23  H   -0.107306   0.368719   0.092319  -0.010108   0.002989   0.006093
    24  H    0.014120   0.031796   0.355841   0.005293   0.016869  -0.060228
    25  H    0.014120   0.031796   0.355841   0.005293   0.016869  -0.060228
              13         14         15         16         17         18
     1  C    0.214324  -1.098637   0.367790  -0.019628  -0.023717   0.049744
     2  C   -0.231760  -0.222892  -0.106659   0.380532  -0.018191   0.003128
     3  C   -0.189006  -0.175836  -0.001842  -0.018273   0.376850  -0.084450
     4  C   -1.533005  -0.370356   0.027049   0.014535  -0.068743   0.460997
     5  C   -0.289778  -1.641674   0.005910  -0.001587   0.000270   0.005995
     6  C    1.037016  -1.430809   0.001140  -0.000337   0.000404  -0.005079
     7  C   -0.929727   1.467818  -0.002724   0.000378  -0.000394   0.002075
     8  C    0.307370  -2.262208   0.005428   0.000809  -0.001336   0.007139
     9  C    1.550815  -1.865195   0.090143   0.002875  -0.005434  -0.024162
    10  C   -0.442623   2.438870  -0.009142  -0.009601   0.020312   0.010645
    11  C    1.097881  -4.801740  -0.029998   0.025887  -0.026791  -0.007032
    12  C   -4.772441   3.124470  -0.021317  -0.032038   0.090666  -0.053077
    13  C   14.410385  -3.647889   0.000035   0.003156  -0.006285  -0.012055
    14  C   -3.647889  16.019162   0.006865  -0.009457   0.005292  -0.016304
    15  H    0.000035   0.006865   0.437742  -0.009027   0.001530   0.000191
    16  H    0.003156  -0.009457  -0.009027   0.418618  -0.006780   0.001938
    17  H   -0.006285   0.005292   0.001530  -0.006780   0.421731  -0.010247
    18  H   -0.012055  -0.016304   0.000191   0.001938  -0.010247   0.452331
    19  H    0.078795  -0.059952   0.000339  -0.000561   0.001504  -0.006085
    20  H   -0.005234  -0.058098  -0.000117   0.000016  -0.000150   0.001256
    21  H   -0.027385   0.094045   0.000015  -0.000007   0.000010  -0.000137
    22  H    0.026205  -0.032955  -0.000126   0.000008  -0.000007   0.000014
    23  H   -0.031214  -0.027893   0.000569  -0.000128   0.000013  -0.000110
    24  H    0.010513  -0.060432  -0.000924   0.000632  -0.000141   0.000172
    25  H    0.010513  -0.060432  -0.000924   0.000632  -0.000141   0.000172
              19         20         21         22         23         24
     1  C   -0.045982   0.007107  -0.001288   0.000629   0.005936   0.034583
     2  C   -0.007861   0.002057  -0.000407   0.000355  -0.002558   0.014964
     3  C    0.051242  -0.005149   0.000397  -0.000320   0.001067  -0.001499
     4  C   -0.072791   0.005978   0.000370  -0.001489   0.005398  -0.011958
     5  C   -0.067362   0.457615  -0.067768   0.012555   0.028400  -0.012483
     6  C    0.051389  -0.084600   0.373141  -0.015584  -0.000597  -0.001637
     7  C   -0.007607   0.002673  -0.014057   0.377954  -0.107306   0.014120
     8  C   -0.047351   0.051635  -0.027312  -0.018703   0.368719   0.031796
     9  C    0.075390  -0.025132  -0.005904   0.003485   0.092319   0.355841
    10  C    0.421891   0.012650   0.020454  -0.008934  -0.010108   0.005293
    11  C    0.077210  -0.011964  -0.006275   0.002898   0.002989   0.016869
    12  C   -0.071325  -0.012668   0.005337  -0.008689   0.006093  -0.060228
    13  C    0.078795  -0.005234  -0.027385   0.026205  -0.031214   0.010513
    14  C   -0.059952  -0.058098   0.094045  -0.032955  -0.027893  -0.060432
    15  H    0.000339  -0.000117   0.000015  -0.000126   0.000569  -0.000924
    16  H   -0.000561   0.000016  -0.000007   0.000008  -0.000128   0.000632
    17  H    0.001504  -0.000150   0.000010  -0.000007   0.000013  -0.000141
    18  H   -0.006085   0.001256  -0.000137   0.000014  -0.000110   0.000172
    19  H    0.442832  -0.006390   0.001337  -0.000525   0.000285   0.000587
    20  H   -0.006390   0.455318  -0.010345   0.001915   0.000141   0.000195
    21  H    0.001337  -0.010345   0.423149  -0.006466   0.001407  -0.000145
    22  H   -0.000525   0.001915  -0.006466   0.420400  -0.009031   0.000634
    23  H    0.000285   0.000141   0.001407  -0.009031   0.440662  -0.000907
    24  H    0.000587   0.000195  -0.000145   0.000634  -0.000907   0.493558
    25  H    0.000587   0.000195  -0.000145   0.000634  -0.000907  -0.079209
              25
     1  C    0.034583
     2  C    0.014964
     3  C   -0.001499
     4  C   -0.011958
     5  C   -0.012483
     6  C   -0.001637
     7  C    0.014120
     8  C    0.031796
     9  C    0.355841
    10  C    0.005293
    11  C    0.016869
    12  C   -0.060228
    13  C    0.010513
    14  C   -0.060432
    15  H   -0.000924
    16  H    0.000632
    17  H   -0.000141
    18  H    0.000172
    19  H    0.000587
    20  H    0.000195
    21  H   -0.000145
    22  H    0.000634
    23  H   -0.000907
    24  H   -0.079209
    25  H    0.493558
 Mulliken charges:
               1
     1  C    0.086641
     2  C   -0.405163
     3  C   -0.438393
     4  C    0.016087
     5  C    0.006761
     6  C   -0.441388
     7  C   -0.408324
     8  C    0.098276
     9  C   -0.340045
    10  C    0.089549
    11  C   -0.641241
    12  C    0.700435
    13  C   -0.628608
    14  C    0.686239
    15  H    0.238053
    16  H    0.257407
    17  H    0.249775
    18  H    0.222939
    19  H    0.190405
    20  H    0.221095
    21  H    0.247979
    22  H    0.255144
    23  H    0.236762
    24  H    0.249807
    25  H    0.249807
 Sum of Mulliken charges =   1.00000
 Mulliken charges with hydrogens summed into heavy atoms:
               1
     1  C    0.324694
     2  C   -0.147757
     3  C   -0.188618
     4  C    0.239026
     5  C    0.227857
     6  C   -0.193409
     7  C   -0.153180
     8  C    0.335039
     9  C    0.159569
    10  C    0.279954
    11  C   -0.641241
    12  C    0.700435
    13  C   -0.628608
    14  C    0.686239
 Electronic spatial extent (au):  <R**2>=           2856.6507
 Charge=              1.0000 electrons
 Dipole moment (field-independent basis, Debye):
    X=              0.0344    Y=             -0.3361    Z=              0.0000  Tot=              0.3378
 Quadrupole moment (field-independent basis, Debye-Ang):
   XX=            -50.7910   YY=            -36.5740   ZZ=            -84.1417
   XY=             10.3850   XZ=              0.0000   YZ=              0.0000
 Traceless Quadrupole moment (field-independent basis, Debye-Ang):
   XX=              6.3779   YY=             20.5949   ZZ=            -26.9728
   XY=             10.3850   XZ=              0.0000   YZ=              0.0000
 Octapole moment (field-independent basis, Debye-Ang**2):
  XXX=             -0.5317  YYY=              2.7482  ZZZ=              0.0000  XYY=             -1.1223
  XXY=             -5.9534  XXZ=             -0.0000  XZZ=             -2.9238  YZZ=              1.1011
  YYZ=              0.0000  XYZ=              0.0000
 Hexadecapole moment (field-independent basis, Debye-Ang**3):
 XXXX=           -997.0817 YYYY=          -1843.1358 ZZZZ=            -99.3339 XXXY=           -350.1781
 XXXZ=              0.0000 YYYX=           -277.0964 YYYZ=              0.0000 ZZZX=             -0.0000
 ZZZY=             -0.0000 XXYY=           -453.8167 XXZZ=           -243.8162 YYZZ=           -492.8206
 XXYZ=             -0.0000 YYXZ=             -0.0000 ZZXY=           -184.5150
 N-N= 7.810954785848D+02 E-N=-2.798530043711D+03  KE= 5.375017118167D+02
 Symmetry A'   KE= 5.228540927040D+02
 Symmetry A"   KE= 1.464761911265D+01
 Unable to Open any file for archive entry.
 1\1\GINC-GADI-CPU-CLX-0648\SP\RM062X TD-FC\6-311++G(d,p)\C14H11(1+)\TS
 1578\27-Jul-2022\0\\#n M062X/6-311++G(d,p) TD(NStates=1) EmpiricalDisp
 ersion=GD3 SP\\SP_0\\1,1\C,0,2.4868,1.3691,0.\C,0,3.69375,0.677,0.\C,0
 ,3.6819,-0.7118,0.\C,0,2.47105,-1.40355,0.\C,0,-2.45545,-1.39445,0.\C,
 0,-3.6865,-0.6994,0.\C,0,-3.7102,0.68405,0.\C,0,-2.5005,1.3685,0.\C,0,
 -0.0044,1.4643,0.\C,0,0.0122,-1.4206,0.\C,0,1.264,0.68955,0.\C,0,1.242
 3,-0.72255,0.\C,0,-1.26035,0.6819,0.\C,0,-1.2323,-0.72135,0.\H,0,2.487
 1,2.4522,0.\H,0,4.62905,1.21715,0.\H,0,4.6109,-1.2641,0.\H,0,2.471,-2.
 4859,0.\H,0,0.01125,-2.50165,0.\H,0,-2.4637,-2.47705,0.\H,0,-4.608,-1.
 26455,0.\H,0,-4.6457,1.2229,0.\H,0,-2.4913,2.45175,0.\H,0,-0.016,2.155
 ,-0.86015\H,0,-0.016,2.155,0.86015\\Version=ES64L-G16RevC.01\State=1-A
 '\HF=-539.7597968\RMSD=5.758e-09\PG=CS [SG(C14H9),X(H2)]\\@
 The archive entry for this job was punched.


 MARY HAD A LITTLE LAMB
      HIS FEET WERE BLACK AS SOOT,
           AND EVERYWHERE THAT MARY WENT
                HIS SOOTY FOOT HE PUT.

                    -- NONAME
 Job cpu time:       0 days  0 hours 44 minutes 25.1 seconds.
 Elapsed time:       0 days  0 hours  1 minutes 23.9 seconds.
 File lengths (MBytes):  RWF=    460 Int=      0 D2E=      0 Chk=     15 Scr=      1
 Normal termination of Gaussian 16 at Wed Jul 27 11:21:15 2022.
