 Entering Gaussian System, Link 0=g16
 Initial command:
 /apps/gaussian/g16c01/g16/l1.exe "/jobfs/52804872.gadi-pbs/Gau-1112320.inp" -scrdir="/jobfs/52804872.gadi-pbs/"
 Entering Link 1 = /apps/gaussian/g16c01/g16/l1.exe PID=   1112321.
  
 Copyright (c) 1988-2019, Gaussian, Inc.  All Rights Reserved.
  
 This is part of the Gaussian(R) 16 program.  It is based on
 the Gaussian(R) 09 system (copyright 2009, Gaussian, Inc.),
 the Gaussian(R) 03 system (copyright 2003, Gaussian, Inc.),
 the Gaussian(R) 98 system (copyright 1998, Gaussian, Inc.),
 the Gaussian(R) 94 system (copyright 1995, Gaussian, Inc.),
 the Gaussian 92(TM) system (copyright 1992, Gaussian, Inc.),
 the Gaussian 90(TM) system (copyright 1990, Gaussian, Inc.),
 the Gaussian 88(TM) system (copyright 1988, Gaussian, Inc.),
 the Gaussian 86(TM) system (copyright 1986, Carnegie Mellon
 University), and the Gaussian 82(TM) system (copyright 1983,
 Carnegie Mellon University). Gaussian is a federally registered
 trademark of Gaussian, Inc.
  
 This software contains proprietary and confidential information,
 including trade secrets, belonging to Gaussian, Inc.
  
 This software is provided under written license and may be
 used, copied, transmitted, or stored only in accord with that
 written license.
  
 The following legend is applicable only to US Government
 contracts under FAR:
  
                    RESTRICTED RIGHTS LEGEND
  
 Use, reproduction and disclosure by the US Government is
 subject to restrictions as set forth in subparagraphs (a)
 and (c) of the Commercial Computer Software - Restricted
 Rights clause in FAR 52.227-19.
  
 Gaussian, Inc.
 340 Quinnipiac St., Bldg. 40, Wallingford CT 06492
  
  
 ---------------------------------------------------------------
 Warning -- This program may not be used in any manner that
 competes with the business of Gaussian, Inc. or will provide
 assistance to any competitor of Gaussian, Inc.  The licensee
 of this program is prohibited from giving any competitor of
 Gaussian, Inc. access to this program.  By using this program,
 the user acknowledges that Gaussian, Inc. is engaged in the
 business of creating and licensing software in the field of
 computational chemistry and represents and warrants to the
 licensee that it is not a competitor of Gaussian, Inc. and that
 it will not use this program in any manner prohibited above.
 ---------------------------------------------------------------
  

 Cite this work as:
 Gaussian 16, Revision C.01,
 M. J. Frisch, G. W. Trucks, H. B. Schlegel, G. E. Scuseria, 
 M. A. Robb, J. R. Cheeseman, G. Scalmani, V. Barone, 
 G. A. Petersson, H. Nakatsuji, X. Li, M. Caricato, A. V. Marenich, 
 J. Bloino, B. G. Janesko, R. Gomperts, B. Mennucci, H. P. Hratchian, 
 J. V. Ortiz, A. F. Izmaylov, J. L. Sonnenberg, D. Williams-Young, 
 F. Ding, F. Lipparini, F. Egidi, J. Goings, B. Peng, A. Petrone, 
 T. Henderson, D. Ranasinghe, V. G. Zakrzewski, J. Gao, N. Rega, 
 G. Zheng, W. Liang, M. Hada, M. Ehara, K. Toyota, R. Fukuda, 
 J. Hasegawa, M. Ishida, T. Nakajima, Y. Honda, O. Kitao, H. Nakai, 
 T. Vreven, K. Throssell, J. A. Montgomery, Jr., J. E. Peralta, 
 F. Ogliaro, M. J. Bearpark, J. J. Heyd, E. N. Brothers, K. N. Kudin, 
 V. N. Staroverov, T. A. Keith, R. Kobayashi, J. Normand, 
 K. Raghavachari, A. P. Rendell, J. C. Burant, S. S. Iyengar, 
 J. Tomasi, M. Cossi, J. M. Millam, M. Klene, C. Adamo, R. Cammi, 
 J. W. Ochterski, R. L. Martin, K. Morokuma, O. Farkas, 
 J. B. Foresman, and D. J. Fox, Gaussian, Inc., Wallingford CT, 2019.
 
 ******************************************
 Gaussian 16:  ES64L-G16RevC.01  3-Jul-2019
                27-Jul-2022 
 ******************************************
 %NProcShared=32
 Will use up to   32 processors via shared memory.
 %mem = 128GB
 ---------------------------------------------------------------
 #n M062X/6-311++G(d,p) TD(NStates=1) EmpiricalDispersion=GD3 SP
 ---------------------------------------------------------------
 1/38=1,172=1/1;
 2/12=2,17=6,18=5,40=1/2;
 3/5=4,6=6,7=1111,11=9,25=1,30=1,74=-55,124=31/1,2,3,8;
 4//1;
 5/5=2,38=5/2;
 8/6=1,10=2,108=1/1;
 9/41=1,42=1,70=2/14;
 6/7=2,8=2,9=2,10=2/1;
 99/5=1,9=1/99;
 -------
 SP_-125
 -------
 Symbolic Z-matrix:
 Charge =  1 Multiplicity = 1
 C                     2.47615   1.3706    0. 
 C                     3.68363   0.67418   0. 
 C                     3.6784   -0.716     0. 
 C                     2.47865  -1.4077    0. 
 C                    -2.44745  -1.3895    0. 
 C                    -3.6876   -0.6912    0. 
 C                    -3.71652   0.68828   0. 
 C                    -2.50355   1.3694    0. 
 C                    -0.00868   1.4555    0. 
 C                     0.0244   -1.4202    0. 
 C                     1.26553   0.69328   0. 
 C                     1.2481   -0.72375   0. 
 C                    -1.25823   0.67798   0. 
 C                    -1.2281   -0.72135   0. 
 H                     2.4806    2.45373   0. 
 H                     4.61842   1.21578   0. 
 H                     4.61175  -1.26138   0. 
 H                     2.47525  -2.49002   0. 
 H                     0.0225   -2.50145   0. 
 H                    -2.46065  -2.47232   0. 
 H                    -4.60595  -1.26228   0. 
 H                    -4.65172   1.22728   0. 
 H                    -2.489     2.45283   0. 
 H                    -0.032     2.153    -0.85795 
 H                    -0.032     2.153     0.85795 
 
                          Input orientation:                          
 ---------------------------------------------------------------------
 Center     Atomic      Atomic             Coordinates (Angstroms)
 Number     Number       Type             X           Y           Z
 ---------------------------------------------------------------------
      1          6           0        2.476150    1.370600    0.000000
      2          6           0        3.683625    0.674175    0.000000
      3          6           0        3.678400   -0.716000    0.000000
      4          6           0        2.478650   -1.407700    0.000000
      5          6           0       -2.447450   -1.389500    0.000000
      6          6           0       -3.687600   -0.691200    0.000000
      7          6           0       -3.716525    0.688275    0.000000
      8          6           0       -2.503550    1.369400    0.000000
      9          6           0       -0.008675    1.455500    0.000000
     10          6           0        0.024400   -1.420200    0.000000
     11          6           0        1.265525    0.693275    0.000000
     12          6           0        1.248100   -0.723750    0.000000
     13          6           0       -1.258225    0.677975    0.000000
     14          6           0       -1.228100   -0.721350    0.000000
     15          1           0        2.480600    2.453725    0.000000
     16          1           0        4.618425    1.215775    0.000000
     17          1           0        4.611750   -1.261375    0.000000
     18          1           0        2.475250   -2.490025    0.000000
     19          1           0        0.022500   -2.501450    0.000000
     20          1           0       -2.460650   -2.472325    0.000000
     21          1           0       -4.605950   -1.262275    0.000000
     22          1           0       -4.651725    1.227275    0.000000
     23          1           0       -2.489000    2.452825    0.000000
     24          1           0       -0.032000    2.153000   -0.857950
     25          1           0       -0.032000    2.153000    0.857950
 ---------------------------------------------------------------------
                    Distance matrix (angstroms):
                    1          2          3          4          5
     1  C    0.000000
     2  C    1.393917   0.000000
     3  C    2.408175   1.390185   0.000000
     4  C    2.778301   2.405446   1.384864   0.000000
     5  C    5.644465   6.469068   6.162762   4.926134   0.000000
     6  C    6.499449   7.496613   7.366042   6.207738   1.423234
     7  C    6.230152   7.400163   7.527078   6.540130   2.434687
     8  C    4.979700   6.226112   6.524216   5.703911   2.759470
     9  C    2.486275   3.774063   4.279011   3.792717   3.747219
    10  C    3.714787   4.216199   3.721238   2.454282   2.472041
    11  C    1.387221   2.418175   2.794284   2.426060   4.257245
    12  C    2.427840   2.808198   2.430312   1.407850   3.755038
    13  C    3.798063   4.941851   5.129662   4.279518   2.385101
    14  C    4.254142   5.106127   4.906503   3.769758   1.390410
    15  H    1.083134   2.148038   3.388492   3.861425   6.249484
    16  H    2.147862   1.080362   2.148349   3.385448   7.530873
    17  H    3.389407   2.146572   1.081007   2.138113   7.060363
    18  H    3.860625   3.387083   2.143533   1.082330   5.044218
    19  H    4.584012   4.846486   4.068591   2.688673   2.708706
    20  H    6.256202   6.903085   6.385344   5.052733   1.082905
    21  H    7.555671   8.512749   8.302341   7.086092   2.162246
    22  H    7.129316   8.353681   8.553789   7.601667   3.421453
    23  H    5.081725   6.423776   6.933850   6.291359   3.842550
    24  H    2.763882   4.090094   4.768051   4.440498   4.372617
    25  H    2.763882   4.090094   4.768051   4.440498   4.372617
                    6          7          8          9         10
     6  C    0.000000
     7  C    1.379778   0.000000
     8  C    2.376562   1.391129   0.000000
     9  C    4.259438   3.786395   2.496360   0.000000
    10  C    3.782907   4.294204   3.764625   2.875890   0.000000
    11  C    5.142978   4.982053   3.829239   1.484780   2.450952
    12  C    4.935807   5.161523   4.296063   2.515674   1.408007
    13  C    2.788638   2.458322   1.424396   1.471707   2.459159
    14  C    2.459685   2.859948   2.449083   2.495130   1.434276
    15  H    6.923673   6.443692   5.100736   2.681966   4.586961
    16  H    8.522124   8.351625   7.123632   4.633306   5.296549
    17  H    8.318913   8.553438   7.586071   5.360013   4.590099
    18  H    6.420007   6.959861   6.299493   4.662301   2.674171
    19  H    4.128177   4.914738   4.622165   3.957073   1.081252
    20  H    2.162825   3.400973   3.841965   4.630334   2.698600
    21  H    1.081431   2.143764   3.368353   5.340528   4.633042
    22  H    2.147110   1.079407   2.152871   4.648656   5.373571
    23  H    3.364749   2.149524   1.083523   2.673326   4.617088
    24  H    4.710516   4.056750   2.731056   1.105951   3.675189
    25  H    4.710516   4.056750   2.731056   1.105951   3.675189
                   11         12         13         14         15
    11  C    0.000000
    12  C    1.417132   0.000000
    13  C    2.523796   2.871672   0.000000
    14  C    2.866937   2.476201   1.399649   0.000000
    15  H    2.139063   3.408138   4.139094   4.882167   0.000000
    16  H    3.393368   3.888553   5.901207   6.159083   2.470388
    17  H    3.875291   3.406344   6.182045   5.864766   4.282963
    18  H    3.405412   2.150727   4.896433   4.104024   4.943753
    19  H    3.428028   2.159239   3.427681   2.175490   5.531366
    20  H    4.889315   4.100285   3.371975   2.141283   6.977243
    21  H    6.188570   5.878768   3.869345   3.420887   8.001740
    22  H    5.941296   6.214051   3.437670   3.939333   7.237005
    23  H    4.146381   4.904747   2.159838   3.415444   4.969600
    24  H    2.133178   3.263499   2.101286   3.229338   2.672017
    25  H    2.133178   3.263499   2.101286   3.229338   2.672017
                   16         17         18         19         20
    16  H    0.000000
    17  H    2.477159   0.000000
    18  H    4.280906   2.464592   0.000000
    19  H    5.911031   4.753841   2.452777   0.000000
    20  H    7.982192   7.175322   4.935932   2.483321   0.000000
    21  H    9.551431   9.217700   7.186847   4.791462   2.463033
    22  H    9.270157   9.591942   8.038165   5.979278   4.299750
    23  H    7.214276   8.013484   7.005394   5.554500   4.925232
    24  H    4.820884   5.827388   5.346032   4.733176   5.294152
    25  H    4.820884   5.827388   5.346032   4.733176   5.294152
                   21         22         23         24         25
    21  H    0.000000
    22  H    2.489971   0.000000
    23  H    4.275915   2.485830   0.000000
    24  H    5.772452   4.789040   2.619699   0.000000
    25  H    5.772452   4.789040   2.619699   1.715900   0.000000
 Stoichiometry    C14H11(1+)
 Framework group  CS[SG(C14H9),X(H2)]
 Deg. of freedom    46
 Full point group                 CS      NOp   2
 Largest Abelian subgroup         CS      NOp   2
 Largest concise Abelian subgroup CS      NOp   2
                         Standard orientation:                         
 ---------------------------------------------------------------------
 Center     Atomic      Atomic             Coordinates (Angstroms)
 Number     Number       Type             X           Y           Z
 ---------------------------------------------------------------------
      1          6           0       -2.365604   -1.546559    0.000000
      2          6           0       -2.317979   -2.939662    0.000000
      3          6           0       -1.088264   -3.588056    0.000000
      4          6           0        0.085934   -2.853816    0.000000
      5          6           0        2.383803    1.503544    0.000000
      6          6           0        2.349871    2.926374    0.000000
      7          6           0        1.145644    3.599890    0.000000
      8          6           0       -0.025431    2.849007    0.000000
      9          6           0       -1.273358    0.686950    0.000000
     10          6           0        1.249803   -0.693051    0.000000
     11          6           0       -1.198987   -0.795967    0.000000
     12          6           0        0.060162   -1.446203    0.000000
     13          6           0        0.000000    1.424839    0.000000
     14          6           0        1.221188    0.740940    0.000000
     15          1           0       -3.323888   -1.041712    0.000000
     16          1           0       -3.235213   -3.510507    0.000000
     17          1           0       -1.045224   -4.668206    0.000000
     18          1           0        1.043019   -3.359215    0.000000
     19          1           0        2.205234   -1.199269    0.000000
     20          1           0        3.345932    1.006562    0.000000
     21          1           0        3.285399    3.468852    0.000000
     22          1           0        1.109100    4.678678    0.000000
     23          1           0       -0.988724    3.345080    0.000000
     24          1           0       -1.878162    1.035178    0.857950
     25          1           0       -1.878162    1.035178   -0.857950
 ---------------------------------------------------------------------
 Rotational constants (GHZ):           2.1384800           0.4449204           0.3690931
 Standard basis: 6-311++G(d,p) (5D, 7F)
 There are   299 symmetry adapted cartesian basis functions of A'  symmetry.
 There are   100 symmetry adapted cartesian basis functions of A"  symmetry.
 There are   285 symmetry adapted basis functions of A'  symmetry.
 There are   100 symmetry adapted basis functions of A"  symmetry.
   385 basis functions,   603 primitive gaussians,   399 cartesian basis functions
    47 alpha electrons       47 beta electrons
       nuclear repulsion energy       781.5045782758 Hartrees.
 NAtoms=   25 NActive=   25 NUniq=   24 SFac= 1.09D+00 NAtFMM=   60 NAOKFM=F Big=F
 Integral buffers will be    131072 words long.
 Regular integral format.
 Two-electron integral symmetry is turned on.
 Nuclear repulsion after empirical dispersion term =      781.5035989889 Hartrees.
 One-electron integrals computed using PRISM.
 NBasis=   385 RedAO= T EigKep=  1.11D-06  NBF=   285   100
 NBsUse=   379 1.00D-06 EigRej=  8.34D-07 NBFU=   279   100
 ExpMin= 3.60D-02 ExpMax= 4.56D+03 ExpMxC= 6.82D+02 IAcc=3 IRadAn=         5 AccDes= 0.00D+00
 Harris functional with IExCor= 1009 and IRadAn=       5 diagonalized for initial guess.
 HarFok:  IExCor= 1009 AccDes= 0.00D+00 IRadAn=         5 IDoV= 1 UseB2=F ITyADJ=14
 ICtDFT=  3500011 ScaDFX=  1.000000  1.000000  1.000000  1.000000
 FoFCou: FMM=F IPFlag=           0 FMFlag=      100000 FMFlg1=           0
         NFxFlg=           0 DoJE=T BraDBF=F KetDBF=T FulRan=T
         wScrn=  0.000000 ICntrl=       500 IOpCl=  0 I1Cent=   200000004 NGrid=           0
         NMat0=    1 NMatS0=      1 NMatT0=    0 NMatD0=    1 NMtDS0=    0 NMtDT0=    0
 Petite list used in FoFCou.
 Initial guess orbital symmetries:
       Occupied  (A') (A') (A') (A') (A') (A') (A') (A') (A') (A')
                 (A') (A') (A') (A') (A') (A') (A') (A') (A') (A')
                 (A') (A') (A') (A') (A') (A') (A') (A') (A') (A')
                 (A') (A') (A") (A') (A') (A') (A') (A') (A") (A')
                 (A") (A') (A') (A") (A") (A") (A")
       Virtual   (A") (A") (A") (A") (A") (A') (A') (A') (A') (A")
                 (A") (A') (A') (A') (A") (A') (A') (A') (A') (A")
                 (A') (A") (A') (A') (A') (A") (A') (A") (A') (A')
                 (A') (A') (A') (A") (A') (A') (A") (A') (A') (A')
                 (A") (A') (A') (A") (A') (A') (A') (A') (A') (A")
                 (A') (A') (A") (A") (A') (A') (A') (A") (A") (A')
                 (A') (A') (A') (A') (A') (A") (A') (A') (A') (A")
                 (A') (A') (A') (A') (A') (A') (A') (A') (A') (A')
                 (A') (A') (A') (A') (A') (A') (A') (A') (A') (A')
                 (A') (A') (A') (A') (A') (A') (A') (A") (A') (A")
                 (A') (A') (A") (A") (A') (A") (A') (A") (A") (A')
                 (A") (A') (A') (A') (A") (A') (A') (A") (A") (A')
                 (A") (A") (A') (A') (A') (A") (A') (A') (A') (A")
                 (A') (A') (A') (A') (A') (A') (A") (A') (A') (A')
                 (A') (A') (A') (A') (A') (A') (A') (A') (A') (A")
                 (A") (A') (A") (A") (A') (A') (A') (A") (A") (A')
                 (A") (A') (A") (A") (A") (A') (A') (A') (A') (A')
                 (A') (A") (A') (A") (A') (A') (A') (A') (A') (A")
                 (A') (A') (A') (A') (A") (A') (A") (A') (A") (A")
                 (A') (A") (A') (A") (A') (A') (A') (A") (A') (A')
                 (A") (A") (A") (A') (A') (A") (A') (A") (A') (A')
                 (A") (A") (A') (A") (A') (A") (A') (A') (A') (A")
                 (A') (A') (A') (A') (A") (A') (A') (A') (A") (A")
                 (A') (A') (A') (A") (A') (A') (A") (A') (A") (A')
                 (A") (A') (A') (A') (A') (A") (A') (A') (A') (A")
                 (A') (A') (A") (A') (A") (A') (A') (A") (A') (A')
                 (A') (A") (A') (A") (A') (A') (A') (A") (A") (A')
                 (A') (A') (A') (A') (A") (A') (A") (A') (A") (A')
                 (A") (A') (A") (A") (A") (A') (A') (A') (A') (A')
                 (A') (A') (A') (A') (A') (A') (A') (A') (A') (A')
                 (A') (A') (A') (A") (A') (A') (A') (A') (A') (A')
                 (A') (A') (A') (A') (A') (A') (A') (A') (A') (A')
                 (A') (A') (A') (A') (A') (A') (A') (A') (A') (A')
                 (A') (A')
 The electronic state of the initial guess is 1-A'.
 Requested convergence on RMS density matrix=1.00D-08 within 128 cycles.
 Requested convergence on MAX density matrix=1.00D-06.
 Requested convergence on             energy=1.00D-06.
 No special actions if energy rises.
 SCF Done:  E(RM062X) =  -539.758350546     A.U. after   15 cycles
            NFock= 15  Conv=0.75D-08     -V/T= 2.0041
 DoSCS=F DFT=T ScalE2(SS,OS)=  1.000000  1.000000
 ExpMin= 3.60D-02 ExpMax= 4.56D+03 ExpMxC= 6.82D+02 IAcc=3 IRadAn=         5 AccDes= 0.00D+00
 HarFok:  IExCor=  205 AccDes= 0.00D+00 IRadAn=         5 IDoV=-2 UseB2=F ITyADJ=14
 ICtDFT= 12500011 ScaDFX=  1.000000  1.000000  1.000000  1.000000
 Range of M.O.s used for correlation:    15   379
 NBasis=   385 NAE=    47 NBE=    47 NFC=    14 NFV=     0
 NROrb=    365 NOA=    33 NOB=    33 NVA=   332 NVB=   332

 **** Warning!!: The largest alpha MO coefficient is  0.13914623D+03

 Orbital symmetries:
       Occupied  (A') (A') (A') (A') (A') (A') (A') (A') (A') (A')
                 (A') (A') (A') (A') (A') (A') (A') (A') (A') (A')
                 (A') (A') (A') (A') (A') (A') (A') (A') (A') (A')
                 (A') (A') (A") (A') (A') (A') (A') (A") (A") (A')
                 (A') (A') (A') (A") (A") (A") (A")
       Virtual   (A") (A") (A") (A") (A') (A') (A') (A') (A") (A')
                 (A') (A") (A') (A') (A") (A') (A") (A') (A') (A')
                 (A") (A") (A') (A') (A') (A") (A') (A") (A') (A')
                 (A") (A') (A") (A') (A') (A') (A') (A') (A") (A')
                 (A") (A') (A') (A") (A") (A') (A") (A') (A") (A')
                 (A') (A') (A') (A') (A') (A") (A') (A') (A') (A')
                 (A') (A") (A') (A') (A') (A") (A') (A') (A') (A')
                 (A') (A') (A') (A') (A') (A') (A') (A') (A') (A')
                 (A') (A') (A') (A') (A') (A') (A') (A') (A') (A')
                 (A') (A') (A') (A') (A") (A') (A") (A") (A') (A")
                 (A') (A') (A') (A') (A") (A") (A') (A") (A") (A')
                 (A') (A') (A") (A') (A') (A") (A') (A") (A') (A")
                 (A") (A') (A") (A') (A') (A') (A") (A') (A') (A')
                 (A') (A') (A') (A') (A') (A') (A') (A') (A') (A')
                 (A') (A') (A') (A") (A') (A') (A') (A') (A') (A')
                 (A') (A') (A") (A') (A") (A') (A") (A") (A') (A")
                 (A") (A') (A') (A") (A") (A") (A') (A") (A') (A')
                 (A') (A') (A') (A") (A") (A') (A') (A') (A') (A")
                 (A') (A') (A') (A") (A") (A') (A') (A') (A") (A")
                 (A") (A') (A') (A") (A') (A") (A') (A') (A') (A')
                 (A") (A") (A") (A') (A") (A') (A') (A") (A') (A')
                 (A') (A") (A') (A") (A") (A') (A") (A') (A') (A")
                 (A') (A') (A') (A') (A") (A') (A') (A') (A") (A")
                 (A') (A') (A') (A") (A') (A') (A') (A") (A") (A')
                 (A") (A') (A') (A") (A') (A') (A') (A') (A') (A')
                 (A") (A') (A') (A') (A') (A") (A") (A") (A') (A')
                 (A') (A') (A') (A') (A') (A') (A") (A') (A') (A')
                 (A') (A") (A') (A") (A") (A") (A') (A") (A') (A")
                 (A') (A") (A") (A') (A") (A") (A') (A') (A') (A')
                 (A') (A') (A') (A') (A') (A') (A') (A') (A') (A')
                 (A') (A') (A') (A") (A') (A') (A') (A') (A') (A')
                 (A') (A') (A') (A') (A') (A') (A') (A') (A') (A')
                 (A') (A') (A') (A') (A') (A') (A') (A') (A') (A')
                 (A') (A')
     4 initial guesses have been made.
 Convergence on wavefunction:    0.001000000000000
 Iteration     1 Dimension     4 NMult     0 NNew      4
 CISAX will form     4 AO SS matrices at one time.
 Iteration     2 Dimension     6 NMult     4 NNew      2
 Iteration     3 Dimension     8 NMult     6 NNew      2
 Iteration     4 Dimension    10 NMult     8 NNew      2
 Iteration     5 Dimension    12 NMult    10 NNew      2
 Iteration     6 Dimension    14 NMult    12 NNew      2
 ***********************************************************************
 Excited states from <AA,BB:AA,BB> singles matrix:
 ***********************************************************************
 
 Ground to excited state transition densities written to RWF  633
 Ground to excited state transition electric dipole moments (Au):
       state          X           Y           Z        Dip. S.      Osc.
         1        -0.5245      0.3087      0.0000      0.3704      0.0251
 Ground to excited state transition velocity dipole moments (Au):
       state          X           Y           Z        Dip. S.      Osc.
         1         0.0611     -0.0327      0.0000      0.0048      0.0315
 Ground to excited state transition magnetic dipole moments (Au):
       state          X           Y           Z
         1         0.0000     -0.0000     -0.1340
 Ground to excited state transition velocity quadrupole moments (Au):
       state          XX          YY          ZZ          XY          XZ          YZ
         1         0.1341      0.1693     -0.0092      0.1341     -0.0000      0.0000
 <0|del|b> * <b|rxdel|0> + <0|del|b> * <b|delr+rdel|0>
 Rotatory Strengths (R) in cgs (10**-40 erg-esu-cm/Gauss)
       state          XX          YY          ZZ    R(velocity)    E-M Angle
         1        -0.0000     -0.0000      0.0000     -0.0000       90.00
 1/2[<0|r|b>*<b|rxdel|0> + (<0|rxdel|b>*<b|r|0>)*]
 Rotatory Strengths (R) in cgs (10**-40 erg-esu-cm/Gauss)
       state          XX          YY          ZZ     R(length)
         1         0.0000      0.0000      0.0000      0.0000
  1/2[<0|del|b>*<b|r|0> + (<0|r|b>*<b|del|0>)*] (Au)
       state          X           Y           Z        Dip. S.   Osc.(frdel)
         1        -0.0321     -0.0101      0.0000      0.0421      0.0281

 Excitation energies and oscillator strengths:
 
 Excited State   1:      Singlet-A'     2.7710 eV  447.44 nm  f=0.0251  <S**2>=0.000
      47 -> 48         0.70381
 This state for optimization and/or second-order correction.
 Total Energy, E(TD-HF/TD-DFT) =  -539.656519052    
 Copying the excited state density for this state as the 1-particle RhoCI density.
 SavETr:  write IOETrn=   770 NScale= 10 NData=  16 NLR=1 NState=    1 LETran=      28.

 **********************************************************************

            Population analysis using the SCF Density.

 **********************************************************************

 Orbital symmetries:
       Occupied  (A') (A') (A') (A') (A') (A') (A') (A') (A') (A')
                 (A') (A') (A') (A') (A') (A') (A') (A') (A') (A')
                 (A') (A') (A') (A') (A') (A') (A') (A') (A') (A')
                 (A') (A') (A") (A') (A') (A') (A') (A") (A") (A')
                 (A') (A') (A') (A") (A") (A") (A")
       Virtual   (A") (A") (A") (A") (A') (A') (A') (A') (A") (A')
                 (A') (A") (A') (A') (A") (A') (A") (A') (A') (A')
                 (A") (A") (A') (A') (A') (A") (A') (A") (A') (A')
                 (A") (A') (A") (A') (A') (A') (A') (A') (A") (A')
                 (A") (A') (A') (A") (A") (A') (A") (A') (A") (A')
                 (A') (A') (A') (A') (A') (A") (A') (A') (A') (A')
                 (A') (A") (A') (A') (A') (A") (A') (A') (A') (A')
                 (A') (A') (A') (A') (A') (A') (A') (A') (A') (A')
                 (A') (A') (A') (A') (A') (A') (A') (A') (A') (A')
                 (A') (A') (A') (A') (A") (A') (A") (A") (A') (A")
                 (A') (A') (A') (A') (A") (A") (A') (A") (A") (A')
                 (A') (A') (A") (A') (A') (A") (A') (A") (A') (A")
                 (A") (A') (A") (A') (A') (A') (A") (A') (A') (A')
                 (A') (A') (A') (A') (A') (A') (A') (A') (A') (A')
                 (A') (A') (A') (A") (A') (A') (A') (A') (A') (A')
                 (A') (A') (A") (A') (A") (A') (A") (A") (A') (A")
                 (A") (A') (A') (A") (A") (A") (A') (A") (A') (A')
                 (A') (A') (A') (A") (A") (A') (A') (A') (A') (A")
                 (A') (A') (A') (A") (A") (A') (A') (A') (A") (A")
                 (A") (A') (A') (A") (A') (A") (A') (A') (A') (A')
                 (A") (A") (A") (A') (A") (A') (A') (A") (A') (A')
                 (A') (A") (A') (A") (A") (A') (A") (A') (A') (A")
                 (A') (A') (A') (A') (A") (A') (A') (A') (A") (A")
                 (A') (A') (A') (A") (A') (A') (A') (A") (A") (A')
                 (A") (A') (A') (A") (A') (A') (A') (A') (A') (A')
                 (A") (A') (A') (A') (A') (A") (A") (A") (A') (A')
                 (A') (A') (A') (A') (A') (A') (A") (A') (A') (A')
                 (A') (A") (A') (A") (A") (A") (A') (A") (A') (A")
                 (A') (A") (A") (A') (A") (A") (A') (A') (A') (A')
                 (A') (A') (A') (A') (A') (A') (A') (A') (A') (A')
                 (A') (A') (A') (A") (A') (A') (A') (A') (A') (A')
                 (A') (A') (A') (A') (A') (A') (A') (A') (A') (A')
                 (A') (A') (A') (A') (A') (A') (A') (A') (A') (A')
                 (A') (A')
 The electronic state is 1-A'.
 Alpha  occ. eigenvalues --  -10.77631 -10.73484 -10.72911 -10.72644 -10.72178
 Alpha  occ. eigenvalues --  -10.71633 -10.71535 -10.71083 -10.70961 -10.70507
 Alpha  occ. eigenvalues --  -10.70100 -10.69841 -10.69784 -10.69455  -1.16509
 Alpha  occ. eigenvalues --   -1.12494  -1.06942  -1.05826  -1.01307  -1.00296
 Alpha  occ. eigenvalues --   -0.95715  -0.91065  -0.86431  -0.85912  -0.83819
 Alpha  occ. eigenvalues --   -0.78387  -0.76095  -0.74408  -0.69613  -0.69276
 Alpha  occ. eigenvalues --   -0.68457  -0.68170  -0.68087  -0.64929  -0.64276
 Alpha  occ. eigenvalues --   -0.63004  -0.61799  -0.60160  -0.59503  -0.59104
 Alpha  occ. eigenvalues --   -0.56931  -0.55235  -0.54769  -0.52434  -0.46856
 Alpha  occ. eigenvalues --   -0.46086  -0.44252
 Alpha virt. eigenvalues --   -0.26078  -0.14673  -0.14090  -0.12768  -0.11184
 Alpha virt. eigenvalues --   -0.10093  -0.09238  -0.07977  -0.07950  -0.07479
 Alpha virt. eigenvalues --   -0.07211  -0.07146  -0.05642  -0.05582  -0.05341
 Alpha virt. eigenvalues --   -0.03834  -0.03653  -0.03279  -0.03130  -0.02161
 Alpha virt. eigenvalues --   -0.01365  -0.00938   0.00184   0.00593   0.00679
 Alpha virt. eigenvalues --    0.01061   0.01508   0.01932   0.02193   0.02288
 Alpha virt. eigenvalues --    0.02450   0.02674   0.02765   0.03241   0.03395
 Alpha virt. eigenvalues --    0.04232   0.04508   0.04699   0.05030   0.05371
 Alpha virt. eigenvalues --    0.06026   0.06300   0.06594   0.07060   0.07253
 Alpha virt. eigenvalues --    0.07898   0.08143   0.08368   0.08586   0.08923
 Alpha virt. eigenvalues --    0.09526   0.09579   0.10031   0.10875   0.11048
 Alpha virt. eigenvalues --    0.11113   0.12165   0.12255   0.12844   0.13025
 Alpha virt. eigenvalues --    0.13436   0.13522   0.14019   0.14357   0.16104
 Alpha virt. eigenvalues --    0.16306   0.16440   0.17342   0.17586   0.17793
 Alpha virt. eigenvalues --    0.18134   0.19041   0.19289   0.19647   0.19808
 Alpha virt. eigenvalues --    0.21552   0.21643   0.22723   0.23127   0.23574
 Alpha virt. eigenvalues --    0.23796   0.24532   0.25274   0.26929   0.27620
 Alpha virt. eigenvalues --    0.28874   0.29299   0.29913   0.31377   0.35853
 Alpha virt. eigenvalues --    0.36473   0.38189   0.39285   0.41139   0.41368
 Alpha virt. eigenvalues --    0.42003   0.42145   0.42982   0.43723   0.44327
 Alpha virt. eigenvalues --    0.44863   0.45099   0.46003   0.46289   0.47887
 Alpha virt. eigenvalues --    0.48496   0.48873   0.49013   0.50465   0.51243
 Alpha virt. eigenvalues --    0.51474   0.51915   0.52121   0.52896   0.54033
 Alpha virt. eigenvalues --    0.54096   0.54673   0.55664   0.55823   0.57385
 Alpha virt. eigenvalues --    0.58238   0.58862   0.61474   0.62177   0.62381
 Alpha virt. eigenvalues --    0.63212   0.63492   0.65029   0.65167   0.67421
 Alpha virt. eigenvalues --    0.70365   0.70516   0.71111   0.72461   0.72899
 Alpha virt. eigenvalues --    0.75690   0.76051   0.76355   0.76846   0.77117
 Alpha virt. eigenvalues --    0.77866   0.77959   0.78286   0.79873   0.80407
 Alpha virt. eigenvalues --    0.81276   0.81581   0.82229   0.83018   0.85239
 Alpha virt. eigenvalues --    0.87152   0.88229   0.88490   0.89171   0.90507
 Alpha virt. eigenvalues --    0.91141   0.91300   0.93228   0.94639   0.96392
 Alpha virt. eigenvalues --    0.96755   1.00321   1.01307   1.01626   1.02761
 Alpha virt. eigenvalues --    1.03226   1.03504   1.04784   1.05791   1.08835
 Alpha virt. eigenvalues --    1.19588   1.23153   1.24130   1.24978   1.28452
 Alpha virt. eigenvalues --    1.29510   1.31977   1.34234   1.35794   1.36001
 Alpha virt. eigenvalues --    1.39389   1.40021   1.40947   1.42932   1.43512
 Alpha virt. eigenvalues --    1.43555   1.44577   1.46171   1.46388   1.46664
 Alpha virt. eigenvalues --    1.47660   1.48106   1.51816   1.53646   1.55791
 Alpha virt. eigenvalues --    1.56006   1.56337   1.56566   1.57832   1.61511
 Alpha virt. eigenvalues --    1.63164   1.63336   1.63944   1.66143   1.68337
 Alpha virt. eigenvalues --    1.68392   1.68668   1.69738   1.74457   1.76024
 Alpha virt. eigenvalues --    1.77234   1.78060   1.80101   1.80140   1.80799
 Alpha virt. eigenvalues --    1.83070   1.83196   1.83672   1.83847   1.84139
 Alpha virt. eigenvalues --    1.84385   1.85670   1.86255   1.88288   1.91421
 Alpha virt. eigenvalues --    1.92139   1.94138   1.95285   1.97739   1.98187
 Alpha virt. eigenvalues --    1.99804   2.02655   2.04518   2.07277   2.11807
 Alpha virt. eigenvalues --    2.12141   2.14167   2.15231   2.19179   2.21355
 Alpha virt. eigenvalues --    2.22782   2.28487   2.30410   2.34677   2.34944
 Alpha virt. eigenvalues --    2.36270   2.38654   2.39626   2.42392   2.44333
 Alpha virt. eigenvalues --    2.46183   2.46800   2.49357   2.52969   2.53824
 Alpha virt. eigenvalues --    2.54419   2.56689   2.57878   2.58336   2.59576
 Alpha virt. eigenvalues --    2.59884   2.61611   2.62174   2.63580   2.63829
 Alpha virt. eigenvalues --    2.64811   2.65139   2.65148   2.65478   2.68106
 Alpha virt. eigenvalues --    2.68608   2.70974   2.71436   2.73365   2.74832
 Alpha virt. eigenvalues --    2.76296   2.78889   2.79738   2.83120   2.83133
 Alpha virt. eigenvalues --    2.84917   2.86368   2.92150   2.97002   2.99509
 Alpha virt. eigenvalues --    3.00131   3.05400   3.10657   3.11509   3.13613
 Alpha virt. eigenvalues --    3.21077   3.23646   3.26791   3.28592   3.30653
 Alpha virt. eigenvalues --    3.32823   3.34061   3.43568   3.46026   3.46885
 Alpha virt. eigenvalues --    3.48649   3.50262   3.56615   3.65114   3.67118
 Alpha virt. eigenvalues --    3.67637   3.94060   3.94302   3.95300   3.96336
 Alpha virt. eigenvalues --    4.04009   4.06823   4.07677   4.12528   4.35688
 Alpha virt. eigenvalues --    4.61695   4.69742   4.71558  23.45294  23.60491
 Alpha virt. eigenvalues --   23.81678  23.84674  23.87079  23.89307  23.90988
 Alpha virt. eigenvalues --   23.93963  23.96679  23.98207  24.01431  24.02987
 Alpha virt. eigenvalues --   24.10811  24.11459
          Condensed to atoms (all electrons):
               1          2          3          4          5          6
     1  C    8.411507   0.522062  -0.626948   1.733910   0.009967  -0.088307
     2  C    0.522062   7.094374   0.412315  -0.972079  -0.039558  -0.015544
     3  C   -0.626948   0.412315   6.595003   0.717702  -0.113989   0.016915
     4  C    1.733910  -0.972079   0.717702  11.073367  -0.312687  -0.127986
     5  C    0.009967  -0.039558  -0.113989  -0.312687  10.645747   0.776042
     6  C   -0.088307  -0.015544   0.016915  -0.127986   0.776042   6.581552
     7  C   -0.033079   0.003095  -0.014295  -0.011671  -1.085635   0.318737
     8  C    0.407144  -0.015747  -0.100748  -0.030886   2.033582  -0.489375
     9  C   -1.257007  -0.805644   0.286879  -0.133328  -0.382358   0.285094
    10  C   -1.185219   0.182598  -0.309170  -2.664851  -2.448114  -0.405836
    11  C    0.262669  -0.880183   0.954319  -0.232226  -1.451882  -0.144484
    12  C   -1.689933   1.119111  -1.331204  -1.472420  -0.252678  -0.246807
    13  C    0.153168  -0.220582  -0.209048  -1.546632  -0.251677   1.085704
    14  C   -1.109922  -0.262089  -0.155911  -0.396889  -1.486380  -1.419439
    15  H    0.364399  -0.102689  -0.003019   0.025058   0.006393   0.001175
    16  H   -0.020146   0.379896  -0.018665   0.015764  -0.001634  -0.000344
    17  H   -0.019740  -0.020467   0.377828  -0.067500   0.000190   0.000400
    18  H    0.046939   0.003216  -0.084838   0.457500   0.007511  -0.004902
    19  H   -0.045010  -0.007796   0.050561  -0.076208  -0.065747   0.050799
    20  H    0.007360   0.001952  -0.005061   0.007363   0.451293  -0.084918
    21  H   -0.001282  -0.000410   0.000386   0.000423  -0.065785   0.370737
    22  H    0.000510   0.000334  -0.000311  -0.001462   0.011686  -0.013080
    23  H    0.006456  -0.002561   0.001023   0.005465   0.027889  -0.000678
    24  H    0.034619   0.015099  -0.001325  -0.011850  -0.012890  -0.001606
    25  H    0.034619   0.015099  -0.001325  -0.011850  -0.012890  -0.001606
               7          8          9         10         11         12
     1  C   -0.033079   0.407144  -1.257007  -1.185219   0.262669  -1.689933
     2  C    0.003095  -0.015747  -0.805644   0.182598  -0.880183   1.119111
     3  C   -0.014295  -0.100748   0.286879  -0.309170   0.954319  -1.331204
     4  C   -0.011671  -0.030886  -0.133328  -2.664851  -0.232226  -1.472420
     5  C   -1.085635   2.033582  -0.382358  -2.448114  -1.451882  -0.252678
     6  C    0.318737  -0.489375   0.285094  -0.405836  -0.144484  -0.246807
     7  C    7.087012   0.246727  -0.758251   0.289705  -0.266801  -0.144767
     8  C    0.246727   8.697443  -1.234318  -1.299088   0.180328  -1.035339
     9  C   -0.758251  -1.234318   9.665528   0.249606   1.779863  -2.097563
    10  C    0.289705  -1.299088   0.249606   9.243371  -0.488519   2.403979
    11  C   -0.266801   0.180328   1.779863  -0.488519  14.676903  -4.010964
    12  C   -0.144767  -1.035339  -2.097563   2.403979  -4.010964  16.145641
    13  C   -0.993884   0.253516   1.688462  -0.595367   1.083165  -4.827860
    14  C    1.493779  -2.112196  -1.888623   2.459610  -4.878408   2.969294
    15  H   -0.002859   0.005448   0.089594  -0.008571  -0.028982  -0.017746
    16  H    0.000380   0.000872   0.003746  -0.010440   0.028604  -0.034224
    17  H   -0.000383  -0.001375  -0.005415   0.020374  -0.027276   0.087039
    18  H    0.001971   0.007505  -0.024412   0.014017  -0.011166  -0.046784
    19  H   -0.007250  -0.048267   0.076233   0.422379   0.076387  -0.077103
    20  H    0.002674   0.050649  -0.026297   0.017681  -0.011832  -0.009068
    21  H   -0.012704  -0.026674  -0.006428   0.020960  -0.006378   0.005362
    22  H    0.375108  -0.018527   0.004859  -0.009178   0.002896  -0.008391
    23  H   -0.103941   0.365913   0.094311  -0.010614   0.004453   0.005998
    24  H    0.013408   0.028716   0.357973   0.005656   0.019803  -0.059227
    25  H    0.013408   0.028716   0.357973   0.005656   0.019803  -0.059227
              13         14         15         16         17         18
     1  C    0.153168  -1.109922   0.364399  -0.020146  -0.019740   0.046939
     2  C   -0.220582  -0.262089  -0.102689   0.379896  -0.020467   0.003216
     3  C   -0.209048  -0.155911  -0.003019  -0.018665   0.377828  -0.084838
     4  C   -1.546632  -0.396889   0.025058   0.015764  -0.067500   0.457500
     5  C   -0.251677  -1.486380   0.006393  -0.001634   0.000190   0.007511
     6  C    1.085704  -1.419439   0.001175  -0.000344   0.000400  -0.004902
     7  C   -0.993884   1.493779  -0.002859   0.000380  -0.000383   0.001971
     8  C    0.253516  -2.112196   0.005448   0.000872  -0.001375   0.007505
     9  C    1.688462  -1.888623   0.089594   0.003746  -0.005415  -0.024412
    10  C   -0.595367   2.459610  -0.008571  -0.010440   0.020374   0.014017
    11  C    1.083165  -4.878408  -0.028982   0.028604  -0.027276  -0.011166
    12  C   -4.827860   2.969294  -0.017746  -0.034224   0.087039  -0.046784
    13  C   14.599518  -3.628874  -0.001277   0.003335  -0.006355  -0.011911
    14  C   -3.628874  15.980130   0.007266  -0.009866   0.005182  -0.016244
    15  H   -0.001277   0.007266   0.435651  -0.008886   0.001572   0.000246
    16  H    0.003335  -0.009866  -0.008886   0.417326  -0.006909   0.001933
    17  H   -0.006355   0.005182   0.001572  -0.006909   0.420909  -0.010022
    18  H   -0.011911  -0.016244   0.000246   0.001933  -0.010022   0.449981
    19  H    0.080438  -0.053599   0.000350  -0.000565   0.001566  -0.005821
    20  H   -0.007656  -0.057007  -0.000118   0.000017  -0.000155   0.001288
    21  H   -0.029054   0.094233   0.000015  -0.000007   0.000010  -0.000128
    22  H    0.029354  -0.036190  -0.000124   0.000007  -0.000007   0.000012
    23  H   -0.031455  -0.030860   0.000605  -0.000128   0.000011  -0.000104
    24  H    0.006703  -0.060021  -0.000899   0.000625  -0.000136   0.000150
    25  H    0.006703  -0.060021  -0.000899   0.000625  -0.000136   0.000150
              19         20         21         22         23         24
     1  C   -0.045010   0.007360  -0.001282   0.000510   0.006456   0.034619
     2  C   -0.007796   0.001952  -0.000410   0.000334  -0.002561   0.015099
     3  C    0.050561  -0.005061   0.000386  -0.000311   0.001023  -0.001325
     4  C   -0.076208   0.007363   0.000423  -0.001462   0.005465  -0.011850
     5  C   -0.065747   0.451293  -0.065785   0.011686   0.027889  -0.012890
     6  C    0.050799  -0.084918   0.370737  -0.013080  -0.000678  -0.001606
     7  C   -0.007250   0.002674  -0.012704   0.375108  -0.103941   0.013408
     8  C   -0.048267   0.050649  -0.026674  -0.018527   0.365913   0.028716
     9  C    0.076233  -0.026297  -0.006428   0.004859   0.094311   0.357973
    10  C    0.422379   0.017681   0.020960  -0.009178  -0.010614   0.005656
    11  C    0.076387  -0.011832  -0.006378   0.002896   0.004453   0.019803
    12  C   -0.077103  -0.009068   0.005362  -0.008391   0.005998  -0.059227
    13  C    0.080438  -0.007656  -0.029054   0.029354  -0.031455   0.006703
    14  C   -0.053599  -0.057007   0.094233  -0.036190  -0.030860  -0.060021
    15  H    0.000350  -0.000118   0.000015  -0.000124   0.000605  -0.000899
    16  H   -0.000565   0.000017  -0.000007   0.000007  -0.000128   0.000625
    17  H    0.001566  -0.000155   0.000010  -0.000007   0.000011  -0.000136
    18  H   -0.005821   0.001288  -0.000128   0.000012  -0.000104   0.000150
    19  H    0.442861  -0.006410   0.001233  -0.000493   0.000237   0.000624
    20  H   -0.006410   0.455975  -0.010256   0.001885   0.000148   0.000197
    21  H    0.001233  -0.010256   0.423812  -0.006311   0.001336  -0.000146
    22  H   -0.000493   0.001885  -0.006311   0.420895  -0.008913   0.000629
    23  H    0.000237   0.000148   0.001336  -0.008913   0.441437  -0.000874
    24  H    0.000624   0.000197  -0.000146   0.000629  -0.000874   0.494732
    25  H    0.000624   0.000197  -0.000146   0.000629  -0.000874  -0.080776
              25
     1  C    0.034619
     2  C    0.015099
     3  C   -0.001325
     4  C   -0.011850
     5  C   -0.012890
     6  C   -0.001606
     7  C    0.013408
     8  C    0.028716
     9  C    0.357973
    10  C    0.005656
    11  C    0.019803
    12  C   -0.059227
    13  C    0.006703
    14  C   -0.060021
    15  H   -0.000899
    16  H    0.000625
    17  H   -0.000136
    18  H    0.000150
    19  H    0.000624
    20  H    0.000197
    21  H   -0.000146
    22  H    0.000629
    23  H   -0.000874
    24  H   -0.080776
    25  H    0.494732
 Mulliken charges:
               1
     1  C    0.081265
     2  C   -0.403805
     3  C   -0.437072
     4  C    0.033971
     5  C    0.013604
     6  C   -0.442242
     7  C   -0.410486
     8  C    0.105980
     9  C   -0.320477
    10  C    0.099374
    11  C   -0.650093
    12  C    0.684881
    13  C   -0.628435
    14  C    0.653044
    15  H    0.238297
    16  H    0.258684
    17  H    0.250793
    18  H    0.223912
    19  H    0.189975
    20  H    0.220098
    21  H    0.247203
    22  H    0.254183
    23  H    0.235719
    24  H    0.250815
    25  H    0.250815
 Sum of Mulliken charges =   1.00000
 Mulliken charges with hydrogens summed into heavy atoms:
               1
     1  C    0.319561
     2  C   -0.145121
     3  C   -0.186279
     4  C    0.257883
     5  C    0.233702
     6  C   -0.195039
     7  C   -0.156304
     8  C    0.341699
     9  C    0.181153
    10  C    0.289349
    11  C   -0.650093
    12  C    0.684881
    13  C   -0.628435
    14  C    0.653044
 Electronic spatial extent (au):  <R**2>=           2854.0000
 Charge=              1.0000 electrons
 Dipole moment (field-independent basis, Debye):
    X=             -0.1056    Y=             -0.5774    Z=              0.0000  Tot=              0.5869
 Quadrupole moment (field-independent basis, Debye-Ang):
   XX=            -50.9364   YY=            -36.4432   ZZ=            -84.1378
   XY=             10.2714   XZ=             -0.0000   YZ=              0.0000
 Traceless Quadrupole moment (field-independent basis, Debye-Ang):
   XX=              6.2361   YY=             20.7292   ZZ=            -26.9653
   XY=             10.2714   XZ=             -0.0000   YZ=              0.0000
 Octapole moment (field-independent basis, Debye-Ang**2):
  XXX=             -1.6359  YYY=              0.3680  ZZZ=              0.0000  XYY=             -1.7821
  XXY=             -6.7020  XXZ=              0.0000  XZZ=             -3.0853  YZZ=              0.7221
  YYZ=             -0.0000  XYZ=              0.0000
 Hexadecapole moment (field-independent basis, Debye-Ang**3):
 XXXX=           -990.7904 YYYY=          -1845.7014 ZZZZ=            -99.3088 XXXY=           -348.6875
 XXXZ=             -0.0000 YYYX=           -275.4589 YYYZ=              0.0000 ZZZX=              0.0000
 ZZZY=             -0.0000 XXYY=           -454.1174 XXZZ=           -242.2410 YYZZ=           -493.6979
 XXYZ=              0.0000 YYXZ=              0.0000 ZZXY=           -183.3714
 N-N= 7.815035989889D+02 E-N=-2.799363097675D+03  KE= 5.375283097954D+02
 Symmetry A'   KE= 5.228792912946D+02
 Symmetry A"   KE= 1.464901850084D+01
 Unable to Open any file for archive entry.
 1\1\GINC-GADI-CPU-CLX-0648\SP\RM062X TD-FC\6-311++G(d,p)\C14H11(1+)\TS
 1578\27-Jul-2022\0\\#n M062X/6-311++G(d,p) TD(NStates=1) EmpiricalDisp
 ersion=GD3 SP\\SP_-125\\1,1\C,0,2.47615,1.3706,0.\C,0,3.683625,0.67417
 5,0.\C,0,3.6784,-0.716,0.\C,0,2.47865,-1.4077,0.\C,0,-2.44745,-1.3895,
 0.\C,0,-3.6876,-0.6912,0.\C,0,-3.716525,0.688275,0.\C,0,-2.50355,1.369
 4,0.\C,0,-0.008675,1.4555,0.\C,0,0.0244,-1.4202,0.\C,0,1.265525,0.6932
 75,0.\C,0,1.2481,-0.72375,0.\C,0,-1.258225,0.677975,0.\C,0,-1.2281,-0.
 72135,0.\H,0,2.4806,2.453725,0.\H,0,4.618425,1.215775,0.\H,0,4.61175,-
 1.261375,0.\H,0,2.47525,-2.490025,0.\H,0,0.0225,-2.50145,0.\H,0,-2.460
 65,-2.472325,0.\H,0,-4.60595,-1.262275,0.\H,0,-4.651725,1.227275,0.\H,
 0,-2.489,2.452825,0.\H,0,-0.032,2.153,-0.85795\H,0,-0.032,2.153,0.8579
 5\\Version=ES64L-G16RevC.01\State=1-A'\HF=-539.7583505\RMSD=7.506e-09\
 PG=CS [SG(C14H9),X(H2)]\\@
 The archive entry for this job was punched.


 A FOOL CAN ASK MORE QUESTIONS THAN
 A WISE MAN CAN ANSWER.
 Job cpu time:       0 days  0 hours 50 minutes 26.9 seconds.
 Elapsed time:       0 days  0 hours  1 minutes 38.6 seconds.
 File lengths (MBytes):  RWF=    460 Int=      0 D2E=      0 Chk=     15 Scr=      1
 Normal termination of Gaussian 16 at Wed Jul 27 09:54:45 2022.
