 Entering Gaussian System, Link 0=g16
 Initial command:
 /apps/gaussian/g16c01/g16/l1.exe "/jobfs/52804872.gadi-pbs/Gau-1108499.inp" -scrdir="/jobfs/52804872.gadi-pbs/"
 Entering Link 1 = /apps/gaussian/g16c01/g16/l1.exe PID=   1108500.
  
 Copyright (c) 1988-2019, Gaussian, Inc.  All Rights Reserved.
  
 This is part of the Gaussian(R) 16 program.  It is based on
 the Gaussian(R) 09 system (copyright 2009, Gaussian, Inc.),
 the Gaussian(R) 03 system (copyright 2003, Gaussian, Inc.),
 the Gaussian(R) 98 system (copyright 1998, Gaussian, Inc.),
 the Gaussian(R) 94 system (copyright 1995, Gaussian, Inc.),
 the Gaussian 92(TM) system (copyright 1992, Gaussian, Inc.),
 the Gaussian 90(TM) system (copyright 1990, Gaussian, Inc.),
 the Gaussian 88(TM) system (copyright 1988, Gaussian, Inc.),
 the Gaussian 86(TM) system (copyright 1986, Carnegie Mellon
 University), and the Gaussian 82(TM) system (copyright 1983,
 Carnegie Mellon University). Gaussian is a federally registered
 trademark of Gaussian, Inc.
  
 This software contains proprietary and confidential information,
 including trade secrets, belonging to Gaussian, Inc.
  
 This software is provided under written license and may be
 used, copied, transmitted, or stored only in accord with that
 written license.
  
 The following legend is applicable only to US Government
 contracts under FAR:
  
                    RESTRICTED RIGHTS LEGEND
  
 Use, reproduction and disclosure by the US Government is
 subject to restrictions as set forth in subparagraphs (a)
 and (c) of the Commercial Computer Software - Restricted
 Rights clause in FAR 52.227-19.
  
 Gaussian, Inc.
 340 Quinnipiac St., Bldg. 40, Wallingford CT 06492
  
  
 ---------------------------------------------------------------
 Warning -- This program may not be used in any manner that
 competes with the business of Gaussian, Inc. or will provide
 assistance to any competitor of Gaussian, Inc.  The licensee
 of this program is prohibited from giving any competitor of
 Gaussian, Inc. access to this program.  By using this program,
 the user acknowledges that Gaussian, Inc. is engaged in the
 business of creating and licensing software in the field of
 computational chemistry and represents and warrants to the
 licensee that it is not a competitor of Gaussian, Inc. and that
 it will not use this program in any manner prohibited above.
 ---------------------------------------------------------------
  

 Cite this work as:
 Gaussian 16, Revision C.01,
 M. J. Frisch, G. W. Trucks, H. B. Schlegel, G. E. Scuseria, 
 M. A. Robb, J. R. Cheeseman, G. Scalmani, V. Barone, 
 G. A. Petersson, H. Nakatsuji, X. Li, M. Caricato, A. V. Marenich, 
 J. Bloino, B. G. Janesko, R. Gomperts, B. Mennucci, H. P. Hratchian, 
 J. V. Ortiz, A. F. Izmaylov, J. L. Sonnenberg, D. Williams-Young, 
 F. Ding, F. Lipparini, F. Egidi, J. Goings, B. Peng, A. Petrone, 
 T. Henderson, D. Ranasinghe, V. G. Zakrzewski, J. Gao, N. Rega, 
 G. Zheng, W. Liang, M. Hada, M. Ehara, K. Toyota, R. Fukuda, 
 J. Hasegawa, M. Ishida, T. Nakajima, Y. Honda, O. Kitao, H. Nakai, 
 T. Vreven, K. Throssell, J. A. Montgomery, Jr., J. E. Peralta, 
 F. Ogliaro, M. J. Bearpark, J. J. Heyd, E. N. Brothers, K. N. Kudin, 
 V. N. Staroverov, T. A. Keith, R. Kobayashi, J. Normand, 
 K. Raghavachari, A. P. Rendell, J. C. Burant, S. S. Iyengar, 
 J. Tomasi, M. Cossi, J. M. Millam, M. Klene, C. Adamo, R. Cammi, 
 J. W. Ochterski, R. L. Martin, K. Morokuma, O. Farkas, 
 J. B. Foresman, and D. J. Fox, Gaussian, Inc., Wallingford CT, 2019.
 
 ******************************************
 Gaussian 16:  ES64L-G16RevC.01  3-Jul-2019
                27-Jul-2022 
 ******************************************
 %NProcShared=32
 Will use up to   32 processors via shared memory.
 %mem = 128GB
 ---------------------------------------------------------------
 #n M062X/6-311++G(d,p) TD(NStates=1) EmpiricalDispersion=GD3 SP
 ---------------------------------------------------------------
 1/38=1,172=1/1;
 2/12=2,17=6,18=5,40=1/2;
 3/5=4,6=6,7=1111,11=9,25=1,30=1,74=-55,124=31/1,2,3,8;
 4//1;
 5/5=2,38=5/2;
 8/6=1,10=2,108=1/1;
 9/41=1,42=1,70=2/14;
 6/7=2,8=2,9=2,10=2/1;
 99/5=1,9=1/99;
 -------
 SP_-125
 -------
 Symbolic Z-matrix:
 Charge =  1 Multiplicity = 1
 C                     2.48205   1.3706    0. 
 C                     3.69137   0.67788   0. 
 C                     3.6804   -0.7093    0. 
 C                     2.4708   -1.40305   0. 
 C                    -2.4552   -1.39395   0. 
 C                    -3.685    -0.6969    0. 
 C                    -3.70783   0.68493   0. 
 C                    -2.49575   1.37      0. 
 C                    -0.00428   1.4533    0. 
 C                     0.0122   -1.4201    0. 
 C                     1.26363   0.68943   0. 
 C                     1.2433   -0.7233    0. 
 C                    -1.25998   0.68178   0. 
 C                    -1.2333   -0.7221    0. 
 H                     2.4816    2.45383   0. 
 H                     4.62617   1.21903   0. 
 H                     4.61015  -1.26098   0. 
 H                     2.47175  -2.48552   0. 
 H                     0.01125  -2.5014    0. 
 H                    -2.46445  -2.47667   0. 
 H                    -4.60725  -1.26143   0. 
 H                    -4.64283   1.22477   0. 
 H                    -2.4858    2.45338   0. 
 H                    -0.016     2.1525   -0.8574 
 H                    -0.016     2.1525    0.8574 
 
                          Input orientation:                          
 ---------------------------------------------------------------------
 Center     Atomic      Atomic             Coordinates (Angstroms)
 Number     Number       Type             X           Y           Z
 ---------------------------------------------------------------------
      1          6           0        2.482050    1.370600    0.000000
      2          6           0        3.691375    0.677875    0.000000
      3          6           0        3.680400   -0.709300    0.000000
      4          6           0        2.470800   -1.403050    0.000000
      5          6           0       -2.455200   -1.393950    0.000000
      6          6           0       -3.685000   -0.696900    0.000000
      7          6           0       -3.707825    0.684925    0.000000
      8          6           0       -2.495750    1.370000    0.000000
      9          6           0       -0.004275    1.453300    0.000000
     10          6           0        0.012200   -1.420100    0.000000
     11          6           0        1.263625    0.689425    0.000000
     12          6           0        1.243300   -0.723300    0.000000
     13          6           0       -1.259975    0.681775    0.000000
     14          6           0       -1.233300   -0.722100    0.000000
     15          1           0        2.481600    2.453825    0.000000
     16          1           0        4.626175    1.219025    0.000000
     17          1           0        4.610150   -1.260975    0.000000
     18          1           0        2.471750   -2.485525    0.000000
     19          1           0        0.011250   -2.501400    0.000000
     20          1           0       -2.464450   -2.476675    0.000000
     21          1           0       -4.607250   -1.261425    0.000000
     22          1           0       -4.642825    1.224775    0.000000
     23          1           0       -2.485800    2.453375    0.000000
     24          1           0       -0.016000    2.152500   -0.857400
     25          1           0       -0.016000    2.152500    0.857400
 ---------------------------------------------------------------------
                    Distance matrix (angstroms):
                    1          2          3          4          5
     1  C    0.000000
     2  C    1.393677   0.000000
     3  C    2.400422   1.387218   0.000000
     4  C    2.773673   2.412478   1.394425   0.000000
     5  C    5.658549   6.486358   6.173681   4.926008   0.000000
     6  C    6.504388   7.503394   7.365410   6.196170   1.413608
     7  C    6.227737   7.399203   7.518626   6.521890   2.427095
     8  C    4.977800   6.225717   6.516772   5.688271   2.764247
     9  C    2.487700   3.776124   4.272431   3.779515   3.756843
    10  C    3.726683   4.235307   3.736433   2.458659   2.467539
    11  C    1.395908   2.427777   2.792353   2.415724   4.262641
    12  C    2.432883   2.820702   2.437140   1.403145   3.758813
    13  C    3.804896   4.951352   5.132484   4.273778   2.395245
    14  C    4.264179   5.119800   4.913717   3.766172   1.394425
    15  H    1.083225   2.148849   3.382674   3.856890   6.259183
    16  H    2.149476   1.080136   2.147773   3.394248   7.548080
    17  H    3.384375   2.145527   1.081101   2.144062   7.066601
    18  H    3.856139   3.390366   2.148444   1.082475   5.046422
    19  H    4.593173   4.863241   4.083416   2.693652   2.703668
    20  H    6.266529   6.917035   6.393966   5.050679   1.082765
    21  H    7.562125   8.522210   8.306021   7.079467   2.156127
    22  H    7.126367   8.352125   8.544982   7.583477   3.412246
    23  H    5.084480   6.427277   6.929974   6.280119   3.847447
    24  H    2.754407   4.080966   4.752726   4.422810   4.388865
    25  H    2.754407   4.080966   4.752726   4.422810   4.388865
                    6          7          8          9         10
     6  C    0.000000
     7  C    1.382013   0.000000
     8  C    2.384616   1.392284   0.000000
     9  C    4.262757   3.782418   2.492867   0.000000
    10  C    3.767268   4.274309   3.751596   2.873447   0.000000
    11  C    5.139143   4.971452   3.820482   1.480228   2.452786
    12  C    4.928371   5.147498   4.285137   2.508791   1.414616
    13  C    2.789532   2.447852   1.414494   1.473782   2.456890
    14  C    2.451830   2.846576   2.443494   2.498573   1.427751
    15  H    6.924884   6.437235   5.093986   2.679669   4.594043
    16  H    8.529150   8.351097   7.123525   4.636373   5.315425
    17  H    8.314307   8.542554   7.577324   5.353523   4.600703
    18  H    6.411299   6.945423   6.288174   4.652423   2.680395
    19  H    4.113209   4.897365   4.612243   3.954730   1.081300
    20  H    2.158087   3.397307   3.846802   4.636503   2.692610
    21  H    1.081311   2.144118   3.373845   5.343885   4.622174
    22  H    2.147152   1.079659   2.151981   4.644176   5.353935
    23  H    3.370803   2.149595   1.083421   2.675466   4.609101
    24  H    4.723958   4.064294   2.737992   1.106414   3.674153
    25  H    4.723958   4.064294   2.737992   1.106414   3.674153
                   11         12         13         14         15
    11  C    0.000000
    12  C    1.412871   0.000000
    13  C    2.523612   2.870648   0.000000
    14  C    2.868281   2.476600   1.404128   0.000000
    15  H    2.143961   3.409914   4.139993   4.887431   0.000000
    16  H    3.404000   3.900829   5.910618   6.172634   2.474658
    17  H    3.873408   3.409512   6.183255   5.868245   4.281409
    18  H    3.397039   2.148145   4.894646   4.103299   4.939360
    19  H    3.427799   2.163235   3.427625   2.171362   5.536866
    20  H    4.891087   4.101431   3.380320   2.143423   6.983784
    21  H    6.186517   5.875246   3.870436   3.416784   8.003429
    22  H    5.930662   6.200118   3.426153   3.926217   7.229661
    23  H    4.143635   4.898719   2.154348   3.413561   4.967400
    24  H    2.124421   3.254412   2.108469   3.237326   2.657807
    25  H    2.124421   3.254412   2.108469   3.237326   2.657807
                   16         17         18         19         20
    16  H    0.000000
    17  H    2.480052   0.000000
    18  H    4.285468   2.464199   0.000000
    19  H    5.927824   4.763248   2.460551   0.000000
    20  H    7.995947   7.178293   4.936208   2.475823   0.000000
    21  H    9.560793   9.217400   7.184056   4.782058   2.463417
    22  H    9.269002   9.581049   8.023933   5.961946   4.294886
    23  H    7.218297   8.009301   6.997859   5.548428   4.930096
    24  H    4.812099   5.812763   5.332477   4.732300   5.306534
    25  H    4.812099   5.812763   5.332477   4.732300   5.306534
                   21         22         23         24         25
    21  H    0.000000
    22  H    2.486455   0.000000
    23  H    4.277884   2.482381   0.000000
    24  H    5.785291   4.796177   2.631648   0.000000
    25  H    5.785291   4.796177   2.631648   1.714800   0.000000
 Stoichiometry    C14H11(1+)
 Framework group  CS[SG(C14H9),X(H2)]
 Deg. of freedom    46
 Full point group                 CS      NOp   2
 Largest Abelian subgroup         CS      NOp   2
 Largest concise Abelian subgroup CS      NOp   2
                         Standard orientation:                         
 ---------------------------------------------------------------------
 Center     Atomic      Atomic             Coordinates (Angstroms)
 Number     Number       Type             X           Y           Z
 ---------------------------------------------------------------------
      1          6           0       -2.370940   -1.547548    0.000000
      2          6           0       -2.329836   -2.940618    0.000000
      3          6           0       -1.101169   -3.584631    0.000000
      4          6           0        0.080734   -2.844681    0.000000
      5          6           0        2.394038    1.504363    0.000000
      6          6           0        2.358768    2.917531    0.000000
      7          6           0        1.150747    3.588834    0.000000
      8          6           0       -0.024671    2.842613    0.000000
      9          6           0       -1.272225    0.684374    0.000000
     10          6           0        1.254364   -0.684219    0.000000
     11          6           0       -1.195969   -0.793888    0.000000
     12          6           0        0.059639   -1.441695    0.000000
     13          6           0        0.000000    1.428334    0.000000
     14          6           0        1.225654    0.743244    0.000000
     15          1           0       -3.326138   -1.036692    0.000000
     16          1           0       -3.247648   -3.510105    0.000000
     17          1           0       -1.052725   -4.664647    0.000000
     18          1           0        1.035035   -3.355625    0.000000
     19          1           0        2.208523   -1.192933    0.000000
     20          1           0        3.353365    1.002298    0.000000
     21          1           0        3.291283    3.464933    0.000000
     22          1           0        1.115207    4.667908    0.000000
     23          1           0       -0.984902    3.344367    0.000000
     24          1           0       -1.883398    1.024207    0.857400
     25          1           0       -1.883398    1.024207   -0.857400
 ---------------------------------------------------------------------
 Rotational constants (GHZ):           2.1391186           0.4450431           0.3691956
 Standard basis: 6-311++G(d,p) (5D, 7F)
 There are   299 symmetry adapted cartesian basis functions of A'  symmetry.
 There are   100 symmetry adapted cartesian basis functions of A"  symmetry.
 There are   285 symmetry adapted basis functions of A'  symmetry.
 There are   100 symmetry adapted basis functions of A"  symmetry.
   385 basis functions,   603 primitive gaussians,   399 cartesian basis functions
    47 alpha electrons       47 beta electrons
       nuclear repulsion energy       781.5938571849 Hartrees.
 NAtoms=   25 NActive=   25 NUniq=   24 SFac= 1.09D+00 NAtFMM=   60 NAOKFM=F Big=F
 Integral buffers will be    131072 words long.
 Regular integral format.
 Two-electron integral symmetry is turned on.
 Nuclear repulsion after empirical dispersion term =      781.5928778483 Hartrees.
 One-electron integrals computed using PRISM.
 NBasis=   385 RedAO= T EigKep=  1.11D-06  NBF=   285   100
 NBsUse=   379 1.00D-06 EigRej=  8.32D-07 NBFU=   279   100
 ExpMin= 3.60D-02 ExpMax= 4.56D+03 ExpMxC= 6.82D+02 IAcc=3 IRadAn=         5 AccDes= 0.00D+00
 Harris functional with IExCor= 1009 and IRadAn=       5 diagonalized for initial guess.
 HarFok:  IExCor= 1009 AccDes= 0.00D+00 IRadAn=         5 IDoV= 1 UseB2=F ITyADJ=14
 ICtDFT=  3500011 ScaDFX=  1.000000  1.000000  1.000000  1.000000
 FoFCou: FMM=F IPFlag=           0 FMFlag=      100000 FMFlg1=           0
         NFxFlg=           0 DoJE=T BraDBF=F KetDBF=T FulRan=T
         wScrn=  0.000000 ICntrl=       500 IOpCl=  0 I1Cent=   200000004 NGrid=           0
         NMat0=    1 NMatS0=      1 NMatT0=    0 NMatD0=    1 NMtDS0=    0 NMtDT0=    0
 Petite list used in FoFCou.
 Initial guess orbital symmetries:
       Occupied  (A') (A') (A') (A') (A') (A') (A') (A') (A') (A')
                 (A') (A') (A') (A') (A') (A') (A') (A') (A') (A')
                 (A') (A') (A') (A') (A') (A') (A') (A') (A') (A')
                 (A') (A') (A") (A') (A') (A') (A') (A') (A') (A")
                 (A") (A') (A') (A") (A") (A") (A")
       Virtual   (A") (A") (A") (A") (A") (A') (A') (A') (A') (A")
                 (A") (A') (A') (A') (A") (A') (A') (A') (A') (A")
                 (A') (A") (A') (A') (A') (A") (A') (A") (A') (A')
                 (A') (A') (A') (A") (A') (A') (A") (A') (A') (A")
                 (A') (A') (A') (A") (A') (A') (A') (A') (A') (A")
                 (A') (A') (A") (A") (A') (A') (A') (A") (A") (A')
                 (A') (A') (A') (A') (A') (A") (A') (A') (A') (A")
                 (A') (A') (A') (A') (A') (A') (A') (A') (A') (A')
                 (A') (A') (A') (A') (A') (A') (A') (A') (A') (A')
                 (A') (A') (A') (A') (A') (A') (A') (A") (A') (A")
                 (A') (A') (A") (A") (A') (A") (A') (A") (A') (A")
                 (A") (A') (A') (A') (A") (A') (A') (A") (A") (A')
                 (A") (A") (A') (A') (A') (A") (A') (A') (A') (A")
                 (A') (A') (A') (A') (A') (A') (A") (A') (A') (A')
                 (A') (A') (A') (A') (A') (A') (A') (A') (A') (A")
                 (A") (A') (A") (A") (A') (A') (A') (A") (A") (A')
                 (A") (A') (A") (A") (A") (A') (A') (A') (A') (A')
                 (A') (A") (A') (A") (A') (A') (A') (A') (A') (A")
                 (A') (A') (A') (A') (A") (A') (A") (A') (A") (A")
                 (A') (A") (A') (A") (A') (A') (A') (A") (A') (A')
                 (A") (A") (A") (A') (A') (A") (A') (A") (A') (A')
                 (A") (A") (A') (A") (A') (A") (A') (A') (A") (A')
                 (A') (A') (A') (A') (A") (A') (A') (A') (A") (A")
                 (A') (A') (A') (A") (A') (A') (A") (A') (A") (A')
                 (A") (A') (A') (A') (A') (A') (A") (A') (A') (A")
                 (A') (A') (A") (A') (A") (A') (A') (A") (A') (A')
                 (A') (A') (A") (A") (A') (A') (A') (A") (A") (A')
                 (A') (A') (A') (A') (A") (A') (A") (A') (A") (A')
                 (A") (A') (A") (A") (A") (A') (A') (A') (A') (A')
                 (A') (A') (A') (A') (A') (A') (A') (A') (A') (A')
                 (A') (A') (A') (A") (A') (A') (A') (A') (A') (A')
                 (A') (A') (A') (A') (A') (A') (A') (A') (A') (A')
                 (A') (A') (A') (A') (A') (A') (A') (A') (A') (A')
                 (A') (A')
 The electronic state of the initial guess is 1-A'.
 Requested convergence on RMS density matrix=1.00D-08 within 128 cycles.
 Requested convergence on MAX density matrix=1.00D-06.
 Requested convergence on             energy=1.00D-06.
 No special actions if energy rises.
 SCF Done:  E(RM062X) =  -539.759599317     A.U. after   15 cycles
            NFock= 15  Conv=0.57D-08     -V/T= 2.0042
 DoSCS=F DFT=T ScalE2(SS,OS)=  1.000000  1.000000
 ExpMin= 3.60D-02 ExpMax= 4.56D+03 ExpMxC= 6.82D+02 IAcc=3 IRadAn=         5 AccDes= 0.00D+00
 HarFok:  IExCor=  205 AccDes= 0.00D+00 IRadAn=         5 IDoV=-2 UseB2=F ITyADJ=14
 ICtDFT= 12500011 ScaDFX=  1.000000  1.000000  1.000000  1.000000
 Range of M.O.s used for correlation:    15   379
 NBasis=   385 NAE=    47 NBE=    47 NFC=    14 NFV=     0
 NROrb=    365 NOA=    33 NOB=    33 NVA=   332 NVB=   332

 **** Warning!!: The largest alpha MO coefficient is  0.15131277D+03

 Orbital symmetries:
       Occupied  (A') (A') (A') (A') (A') (A') (A') (A') (A') (A')
                 (A') (A') (A') (A') (A') (A') (A') (A') (A') (A')
                 (A') (A') (A') (A') (A') (A') (A') (A') (A') (A')
                 (A') (A') (A") (A') (A') (A') (A') (A") (A") (A')
                 (A') (A') (A') (A") (A") (A") (A")
       Virtual   (A") (A") (A") (A") (A') (A') (A') (A') (A") (A')
                 (A') (A") (A') (A') (A") (A') (A") (A') (A') (A')
                 (A") (A") (A') (A') (A') (A") (A') (A") (A') (A')
                 (A") (A') (A") (A') (A') (A') (A') (A') (A") (A')
                 (A") (A') (A') (A") (A") (A') (A") (A') (A") (A')
                 (A') (A') (A') (A') (A') (A") (A') (A') (A') (A')
                 (A') (A") (A') (A') (A') (A") (A') (A') (A') (A')
                 (A') (A') (A') (A') (A') (A') (A') (A') (A') (A')
                 (A') (A') (A') (A') (A') (A') (A') (A') (A') (A')
                 (A') (A') (A') (A') (A") (A') (A") (A") (A') (A")
                 (A') (A') (A') (A') (A") (A") (A') (A") (A") (A')
                 (A') (A') (A") (A') (A') (A") (A') (A") (A') (A")
                 (A") (A') (A") (A') (A') (A') (A") (A') (A') (A')
                 (A') (A') (A') (A') (A') (A') (A') (A') (A') (A')
                 (A') (A') (A') (A") (A') (A') (A') (A') (A') (A')
                 (A') (A') (A") (A') (A") (A') (A") (A") (A') (A")
                 (A") (A') (A') (A") (A") (A") (A') (A") (A') (A')
                 (A') (A') (A') (A") (A") (A') (A') (A') (A') (A")
                 (A') (A') (A') (A") (A') (A") (A') (A') (A") (A")
                 (A") (A') (A') (A") (A') (A") (A') (A') (A') (A')
                 (A") (A") (A") (A') (A") (A') (A') (A") (A') (A')
                 (A') (A") (A') (A") (A") (A') (A") (A') (A') (A")
                 (A') (A') (A') (A') (A") (A') (A') (A') (A") (A")
                 (A') (A') (A') (A") (A') (A') (A') (A") (A") (A')
                 (A") (A') (A') (A") (A') (A') (A') (A') (A') (A')
                 (A") (A') (A') (A') (A') (A") (A") (A") (A') (A')
                 (A') (A') (A') (A') (A') (A') (A") (A') (A') (A')
                 (A') (A") (A') (A") (A") (A") (A') (A") (A") (A')
                 (A') (A") (A") (A') (A") (A") (A') (A') (A') (A')
                 (A') (A') (A') (A') (A') (A') (A') (A') (A') (A')
                 (A') (A') (A') (A") (A') (A') (A') (A') (A') (A')
                 (A') (A') (A') (A') (A') (A') (A') (A') (A') (A')
                 (A') (A') (A') (A') (A') (A') (A') (A') (A') (A')
                 (A') (A')
     4 initial guesses have been made.
 Convergence on wavefunction:    0.001000000000000
 Iteration     1 Dimension     4 NMult     0 NNew      4
 CISAX will form     4 AO SS matrices at one time.
 Iteration     2 Dimension     6 NMult     4 NNew      2
 Iteration     3 Dimension     8 NMult     6 NNew      2
 Iteration     4 Dimension    10 NMult     8 NNew      2
 Iteration     5 Dimension    12 NMult    10 NNew      2
 Iteration     6 Dimension    14 NMult    12 NNew      2
 ***********************************************************************
 Excited states from <AA,BB:AA,BB> singles matrix:
 ***********************************************************************
 
 Ground to excited state transition densities written to RWF  633
 Ground to excited state transition electric dipole moments (Au):
       state          X           Y           Z        Dip. S.      Osc.
         1        -0.5559      0.3115     -0.0000      0.4061      0.0279
 Ground to excited state transition velocity dipole moments (Au):
       state          X           Y           Z        Dip. S.      Osc.
         1         0.0648     -0.0345     -0.0000      0.0054      0.0348
 Ground to excited state transition magnetic dipole moments (Au):
       state          X           Y           Z
         1         0.0000     -0.0000     -0.0785
 Ground to excited state transition velocity quadrupole moments (Au):
       state          XX          YY          ZZ          XY          XZ          YZ
         1         0.1187      0.2030     -0.0096      0.1252     -0.0000     -0.0000
 <0|del|b> * <b|rxdel|0> + <0|del|b> * <b|delr+rdel|0>
 Rotatory Strengths (R) in cgs (10**-40 erg-esu-cm/Gauss)
       state          XX          YY          ZZ    R(velocity)    E-M Angle
         1        -0.0000      0.0000      0.0000      0.0000       90.00
 1/2[<0|r|b>*<b|rxdel|0> + (<0|rxdel|b>*<b|r|0>)*]
 Rotatory Strengths (R) in cgs (10**-40 erg-esu-cm/Gauss)
       state          XX          YY          ZZ     R(length)
         1         0.0000      0.0000     -0.0000      0.0000
  1/2[<0|del|b>*<b|r|0> + (<0|r|b>*<b|del|0>)*] (Au)
       state          X           Y           Z        Dip. S.   Osc.(frdel)
         1        -0.0360     -0.0107      0.0000      0.0468      0.0312

 Excitation energies and oscillator strengths:
 
 Excited State   1:      Singlet-A'     2.8080 eV  441.53 nm  f=0.0279  <S**2>=0.000
      47 -> 48         0.70410
 This state for optimization and/or second-order correction.
 Total Energy, E(TD-HF/TD-DFT) =  -539.656406037    
 Copying the excited state density for this state as the 1-particle RhoCI density.
 SavETr:  write IOETrn=   770 NScale= 10 NData=  16 NLR=1 NState=    1 LETran=      28.

 **********************************************************************

            Population analysis using the SCF Density.

 **********************************************************************

 Orbital symmetries:
       Occupied  (A') (A') (A') (A') (A') (A') (A') (A') (A') (A')
                 (A') (A') (A') (A') (A') (A') (A') (A') (A') (A')
                 (A') (A') (A') (A') (A') (A') (A') (A') (A') (A')
                 (A') (A') (A") (A') (A') (A') (A') (A") (A") (A')
                 (A') (A') (A') (A") (A") (A") (A")
       Virtual   (A") (A") (A") (A") (A') (A') (A') (A') (A") (A')
                 (A') (A") (A') (A') (A") (A') (A") (A') (A') (A')
                 (A") (A") (A') (A') (A') (A") (A') (A") (A') (A')
                 (A") (A') (A") (A') (A') (A') (A') (A') (A") (A')
                 (A") (A') (A') (A") (A") (A') (A") (A') (A") (A')
                 (A') (A') (A') (A') (A') (A") (A') (A') (A') (A')
                 (A') (A") (A') (A') (A') (A") (A') (A') (A') (A')
                 (A') (A') (A') (A') (A') (A') (A') (A') (A') (A')
                 (A') (A') (A') (A') (A') (A') (A') (A') (A') (A')
                 (A') (A') (A') (A') (A") (A') (A") (A") (A') (A")
                 (A') (A') (A') (A') (A") (A") (A') (A") (A") (A')
                 (A') (A') (A") (A') (A') (A") (A') (A") (A') (A")
                 (A") (A') (A") (A') (A') (A') (A") (A') (A') (A')
                 (A') (A') (A') (A') (A') (A') (A') (A') (A') (A')
                 (A') (A') (A') (A") (A') (A') (A') (A') (A') (A')
                 (A') (A') (A") (A') (A") (A') (A") (A") (A') (A")
                 (A") (A') (A') (A") (A") (A") (A') (A") (A') (A')
                 (A') (A') (A') (A") (A") (A') (A') (A') (A') (A")
                 (A') (A') (A') (A") (A') (A") (A') (A') (A") (A")
                 (A") (A') (A') (A") (A') (A") (A') (A') (A') (A')
                 (A") (A") (A") (A') (A") (A') (A') (A") (A') (A')
                 (A') (A") (A') (A") (A") (A') (A") (A') (A') (A")
                 (A') (A') (A') (A') (A") (A') (A') (A') (A") (A")
                 (A') (A') (A') (A") (A') (A') (A') (A") (A") (A')
                 (A") (A') (A') (A") (A') (A') (A') (A') (A') (A')
                 (A") (A') (A') (A') (A') (A") (A") (A") (A') (A')
                 (A') (A') (A') (A') (A') (A') (A") (A') (A') (A')
                 (A') (A") (A') (A") (A") (A") (A') (A") (A") (A')
                 (A') (A") (A") (A') (A") (A") (A') (A') (A') (A')
                 (A') (A') (A') (A') (A') (A') (A') (A') (A') (A')
                 (A') (A') (A') (A") (A') (A') (A') (A') (A') (A')
                 (A') (A') (A') (A') (A') (A') (A') (A') (A') (A')
                 (A') (A') (A') (A') (A') (A') (A') (A') (A') (A')
                 (A') (A')
 The electronic state is 1-A'.
 Alpha  occ. eigenvalues --  -10.77644 -10.73330 -10.73044 -10.72532 -10.72298
 Alpha  occ. eigenvalues --  -10.71500 -10.71272 -10.71224 -10.70953 -10.70758
 Alpha  occ. eigenvalues --  -10.70035 -10.69905 -10.69699 -10.69534  -1.16501
 Alpha  occ. eigenvalues --   -1.12501  -1.06944  -1.05820  -1.01313  -1.00261
 Alpha  occ. eigenvalues --   -0.95759  -0.91075  -0.86427  -0.85919  -0.83831
 Alpha  occ. eigenvalues --   -0.78403  -0.76083  -0.74420  -0.69556  -0.69263
 Alpha  occ. eigenvalues --   -0.68505  -0.68204  -0.68086  -0.64802  -0.64298
 Alpha  occ. eigenvalues --   -0.63107  -0.61854  -0.60017  -0.59632  -0.59084
 Alpha  occ. eigenvalues --   -0.56927  -0.55211  -0.54849  -0.52432  -0.46710
 Alpha  occ. eigenvalues --   -0.46066  -0.44411
 Alpha virt. eigenvalues --   -0.26070  -0.14674  -0.14093  -0.12769  -0.11182
 Alpha virt. eigenvalues --   -0.10093  -0.09232  -0.07981  -0.07956  -0.07478
 Alpha virt. eigenvalues --   -0.07211  -0.07148  -0.05640  -0.05584  -0.05337
 Alpha virt. eigenvalues --   -0.03829  -0.03650  -0.03281  -0.03129  -0.02162
 Alpha virt. eigenvalues --   -0.01370  -0.00933   0.00183   0.00593   0.00690
 Alpha virt. eigenvalues --    0.01060   0.01509   0.01932   0.02215   0.02275
 Alpha virt. eigenvalues --    0.02451   0.02674   0.02756   0.03241   0.03378
 Alpha virt. eigenvalues --    0.04236   0.04512   0.04692   0.05027   0.05366
 Alpha virt. eigenvalues --    0.06027   0.06303   0.06598   0.07061   0.07247
 Alpha virt. eigenvalues --    0.07896   0.08166   0.08373   0.08566   0.08927
 Alpha virt. eigenvalues --    0.09543   0.09569   0.10050   0.10892   0.11071
 Alpha virt. eigenvalues --    0.11109   0.12188   0.12252   0.12901   0.13018
 Alpha virt. eigenvalues --    0.13420   0.13521   0.14032   0.14367   0.16216
 Alpha virt. eigenvalues --    0.16288   0.16386   0.17348   0.17618   0.17793
 Alpha virt. eigenvalues --    0.18138   0.19043   0.19246   0.19655   0.19773
 Alpha virt. eigenvalues --    0.21583   0.21632   0.22731   0.23133   0.23581
 Alpha virt. eigenvalues --    0.23730   0.24530   0.25232   0.26926   0.27621
 Alpha virt. eigenvalues --    0.28877   0.29313   0.29908   0.31385   0.35877
 Alpha virt. eigenvalues --    0.36475   0.38181   0.39286   0.41162   0.41393
 Alpha virt. eigenvalues --    0.42016   0.42156   0.42981   0.43725   0.44307
 Alpha virt. eigenvalues --    0.44915   0.45063   0.46062   0.46230   0.47885
 Alpha virt. eigenvalues --    0.48526   0.48901   0.49006   0.50446   0.51285
 Alpha virt. eigenvalues --    0.51595   0.51816   0.52115   0.52943   0.53992
 Alpha virt. eigenvalues --    0.54088   0.54700   0.55676   0.55778   0.57328
 Alpha virt. eigenvalues --    0.58243   0.58830   0.61465   0.62154   0.62362
 Alpha virt. eigenvalues --    0.63231   0.63497   0.65057   0.65168   0.67412
 Alpha virt. eigenvalues --    0.70372   0.70539   0.71071   0.72444   0.72896
 Alpha virt. eigenvalues --    0.75741   0.76033   0.76330   0.76890   0.77108
 Alpha virt. eigenvalues --    0.77859   0.77942   0.78286   0.79859   0.80409
 Alpha virt. eigenvalues --    0.81287   0.81613   0.82154   0.83026   0.85236
 Alpha virt. eigenvalues --    0.87189   0.88245   0.88613   0.89121   0.90457
 Alpha virt. eigenvalues --    0.91168   0.91254   0.93204   0.94652   0.96460
 Alpha virt. eigenvalues --    0.96672   1.00350   1.01327   1.01664   1.02731
 Alpha virt. eigenvalues --    1.03212   1.03786   1.04753   1.05480   1.08819
 Alpha virt. eigenvalues --    1.19588   1.23222   1.24114   1.25240   1.28251
 Alpha virt. eigenvalues --    1.29603   1.31865   1.34221   1.35805   1.36013
 Alpha virt. eigenvalues --    1.39405   1.40152   1.40982   1.42929   1.43530
 Alpha virt. eigenvalues --    1.43544   1.44914   1.45738   1.46396   1.46685
 Alpha virt. eigenvalues --    1.47645   1.48075   1.51824   1.53633   1.55801
 Alpha virt. eigenvalues --    1.56079   1.56352   1.56559   1.57833   1.61520
 Alpha virt. eigenvalues --    1.63173   1.63442   1.63797   1.66159   1.68352
 Alpha virt. eigenvalues --    1.68393   1.68655   1.69705   1.74466   1.76022
 Alpha virt. eigenvalues --    1.77250   1.78050   1.80185   1.80191   1.80765
 Alpha virt. eigenvalues --    1.83175   1.83198   1.83685   1.83816   1.84127
 Alpha virt. eigenvalues --    1.84325   1.85797   1.86148   1.88259   1.91419
 Alpha virt. eigenvalues --    1.92132   1.94162   1.95262   1.97721   1.98196
 Alpha virt. eigenvalues --    1.99800   2.02728   2.04506   2.07265   2.11836
 Alpha virt. eigenvalues --    2.12127   2.14133   2.15218   2.19210   2.21397
 Alpha virt. eigenvalues --    2.22795   2.28491   2.30443   2.34740   2.34994
 Alpha virt. eigenvalues --    2.36236   2.38680   2.39602   2.42410   2.44271
 Alpha virt. eigenvalues --    2.46204   2.46889   2.49407   2.52969   2.53838
 Alpha virt. eigenvalues --    2.54459   2.56640   2.57863   2.58306   2.59645
 Alpha virt. eigenvalues --    2.59850   2.61633   2.62184   2.63580   2.63860
 Alpha virt. eigenvalues --    2.64800   2.65159   2.65206   2.65408   2.68151
 Alpha virt. eigenvalues --    2.68673   2.70987   2.71425   2.73362   2.74838
 Alpha virt. eigenvalues --    2.76300   2.79043   2.79767   2.83103   2.83107
 Alpha virt. eigenvalues --    2.84932   2.86396   2.92158   2.96966   2.99539
 Alpha virt. eigenvalues --    3.00120   3.05525   3.11143   3.11610   3.13294
 Alpha virt. eigenvalues --    3.21220   3.24247   3.26903   3.28399   3.30774
 Alpha virt. eigenvalues --    3.32810   3.33763   3.43454   3.45950   3.46900
 Alpha virt. eigenvalues --    3.48768   3.50322   3.56672   3.64916   3.67168
 Alpha virt. eigenvalues --    3.67539   3.94160   3.94504   3.95180   3.96291
 Alpha virt. eigenvalues --    4.04036   4.06945   4.07657   4.12526   4.35805
 Alpha virt. eigenvalues --    4.61926   4.69918   4.71679  23.45316  23.60624
 Alpha virt. eigenvalues --   23.82203  23.85695  23.87899  23.89318  23.90568
 Alpha virt. eigenvalues --   23.92878  23.97598  23.98969  24.00396  24.01452
 Alpha virt. eigenvalues --   24.10652  24.10941
          Condensed to atoms (all electrons):
               1          2          3          4          5          6
     1  C    8.457760   0.488797  -0.604276   1.769932   0.009658  -0.091066
     2  C    0.488797   7.063730   0.398357  -0.979528  -0.036249  -0.015459
     3  C   -0.604276   0.398357   6.587415   0.723746  -0.115863   0.016930
     4  C    1.769932  -0.979528   0.723746  10.885357  -0.290975  -0.122630
     5  C    0.009658  -0.036249  -0.115863  -0.290975  10.676785   0.752144
     6  C   -0.091066  -0.015459   0.016930  -0.122630   0.752144   6.579512
     7  C   -0.030752   0.003956  -0.014821  -0.022659  -1.035777   0.352567
     8  C    0.405667  -0.022133  -0.097374  -0.009801   1.920827  -0.537323
     9  C   -1.286545  -0.780905   0.283628  -0.218567  -0.341958   0.282520
    10  C   -1.195103   0.203368  -0.335117  -2.599024  -2.491690  -0.383208
    11  C    0.234763  -0.920554   0.991725  -0.215377  -1.472468  -0.163070
    12  C   -1.701385   1.185281  -1.336433  -1.421355  -0.281589  -0.223623
    13  C    0.138006  -0.227808  -0.195322  -1.519469  -0.228204   1.058313
    14  C   -1.085239  -0.237370  -0.178712  -0.355061  -1.431301  -1.379719
    15  H    0.363755  -0.101789  -0.002674   0.025450   0.006271   0.001134
    16  H   -0.020128   0.378496  -0.017006   0.014771  -0.001599  -0.000336
    17  H   -0.020546  -0.018973   0.375946  -0.066543   0.000244   0.000395
    18  H    0.047349   0.003064  -0.085199   0.454010   0.007926  -0.004889
    19  H   -0.045974  -0.007569   0.050402  -0.073327  -0.068176   0.050519
    20  H    0.007527   0.001927  -0.004970   0.007837   0.451025  -0.085196
    21  H   -0.001309  -0.000403   0.000388   0.000366  -0.065741   0.372442
    22  H    0.000593   0.000345  -0.000320  -0.001518   0.012707  -0.014182
    23  H    0.006219  -0.002668   0.001058   0.005827   0.026886  -0.001535
    24  H    0.032827   0.014631  -0.001372  -0.012151  -0.012660  -0.001512
    25  H    0.032827   0.014631  -0.001372  -0.012151  -0.012660  -0.001512
               7          8          9         10         11         12
     1  C   -0.030752   0.405667  -1.286545  -1.195103   0.234763  -1.701385
     2  C    0.003956  -0.022133  -0.780905   0.203368  -0.920554   1.185281
     3  C   -0.014821  -0.097374   0.283628  -0.335117   0.991725  -1.336433
     4  C   -0.022659  -0.009801  -0.218567  -2.599024  -0.215377  -1.421355
     5  C   -1.035777   1.920827  -0.341958  -2.491690  -1.472468  -0.281589
     6  C    0.352567  -0.537323   0.282520  -0.383208  -0.163070  -0.223623
     7  C    7.057863   0.354236  -0.756778   0.256905  -0.249942  -0.179431
     8  C    0.354236   8.590973  -1.273439  -1.252721   0.148324  -1.044429
     9  C   -0.756778  -1.273439   9.673805   0.250497   1.814265  -2.063669
    10  C    0.256905  -1.252721   0.250497   9.278397  -0.554669   2.414079
    11  C   -0.249942   0.148324   1.814265  -0.554669  14.712762  -3.940782
    12  C   -0.179431  -1.044429  -2.063669   2.414079  -3.940782  16.078871
    13  C   -0.977453   0.231466   1.767229  -0.610072   1.089785  -4.864580
    14  C    1.369777  -1.908637  -1.959897   2.443579  -4.887388   2.921494
    15  H   -0.002810   0.005715   0.090795  -0.009092  -0.029085  -0.020877
    16  H    0.000367   0.000774   0.004449  -0.010316   0.029948  -0.035802
    17  H   -0.000390  -0.001354  -0.005745   0.020611  -0.028173   0.088371
    18  H    0.001932   0.007610  -0.025226   0.016630  -0.011539  -0.047947
    19  H   -0.007280  -0.047690   0.076660   0.422386   0.076884  -0.070961
    20  H    0.002854   0.049180  -0.026155   0.018398  -0.011714  -0.010154
    21  H   -0.015175  -0.023974  -0.006263   0.020968  -0.006398   0.005317
    22  H    0.376161  -0.019368   0.004994  -0.009697   0.003071  -0.008796
    23  H   -0.102374   0.364462   0.093160  -0.010131   0.002851   0.006476
    24  H    0.013780   0.029813   0.358418   0.005720   0.016501  -0.059249
    25  H    0.013780   0.029813   0.358418   0.005720   0.016501  -0.059249
              13         14         15         16         17         18
     1  C    0.138006  -1.085239   0.363755  -0.020128  -0.020546   0.047349
     2  C   -0.227808  -0.237370  -0.101789   0.378496  -0.018973   0.003064
     3  C   -0.195322  -0.178712  -0.002674  -0.017006   0.375946  -0.085199
     4  C   -1.519469  -0.355061   0.025450   0.014771  -0.066543   0.454010
     5  C   -0.228204  -1.431301   0.006271  -0.001599   0.000244   0.007926
     6  C    1.058313  -1.379719   0.001134  -0.000336   0.000395  -0.004889
     7  C   -0.977453   1.369777  -0.002810   0.000367  -0.000390   0.001932
     8  C    0.231466  -1.908637   0.005715   0.000774  -0.001354   0.007610
     9  C    1.767229  -1.959897   0.090795   0.004449  -0.005745  -0.025226
    10  C   -0.610072   2.443579  -0.009092  -0.010316   0.020611   0.016630
    11  C    1.089785  -4.887388  -0.029085   0.029948  -0.028173  -0.011539
    12  C   -4.864580   2.921494  -0.020877  -0.035802   0.088371  -0.047947
    13  C   14.685919  -3.756752   0.000032   0.003274  -0.006378  -0.011747
    14  C   -3.756752  16.006314   0.007051  -0.009520   0.005208  -0.013724
    15  H    0.000032   0.007051   0.436828  -0.008895   0.001516   0.000238
    16  H    0.003274  -0.009520  -0.008895   0.418198  -0.006788   0.001914
    17  H   -0.006378   0.005208   0.001516  -0.006788   0.421648  -0.010041
    18  H   -0.011747  -0.013724   0.000238   0.001914  -0.010041   0.451213
    19  H    0.079085  -0.059085   0.000315  -0.000543   0.001474  -0.005907
    20  H   -0.009798  -0.053121  -0.000114   0.000015  -0.000148   0.001298
    21  H   -0.029173   0.092067   0.000013  -0.000007   0.000010  -0.000134
    22  H    0.030362  -0.036822  -0.000124   0.000007  -0.000007   0.000013
    23  H   -0.030346  -0.027385   0.000618  -0.000127   0.000012  -0.000107
    24  H    0.009896  -0.059725  -0.000886   0.000625  -0.000138   0.000159
    25  H    0.009896  -0.059725  -0.000886   0.000625  -0.000138   0.000159
              19         20         21         22         23         24
     1  C   -0.045974   0.007527  -0.001309   0.000593   0.006219   0.032827
     2  C   -0.007569   0.001927  -0.000403   0.000345  -0.002668   0.014631
     3  C    0.050402  -0.004970   0.000388  -0.000320   0.001058  -0.001372
     4  C   -0.073327   0.007837   0.000366  -0.001518   0.005827  -0.012151
     5  C   -0.068176   0.451025  -0.065741   0.012707   0.026886  -0.012660
     6  C    0.050519  -0.085196   0.372442  -0.014182  -0.001535  -0.001512
     7  C   -0.007280   0.002854  -0.015175   0.376161  -0.102374   0.013780
     8  C   -0.047690   0.049180  -0.023974  -0.019368   0.364462   0.029813
     9  C    0.076660  -0.026155  -0.006263   0.004994   0.093160   0.358418
    10  C    0.422386   0.018398   0.020968  -0.009697  -0.010131   0.005720
    11  C    0.076884  -0.011714  -0.006398   0.003071   0.002851   0.016501
    12  C   -0.070961  -0.010154   0.005317  -0.008796   0.006476  -0.059249
    13  C    0.079085  -0.009798  -0.029173   0.030362  -0.030346   0.009896
    14  C   -0.059085  -0.053121   0.092067  -0.036822  -0.027385  -0.059725
    15  H    0.000315  -0.000114   0.000013  -0.000124   0.000618  -0.000886
    16  H   -0.000543   0.000015  -0.000007   0.000007  -0.000127   0.000625
    17  H    0.001474  -0.000148   0.000010  -0.000007   0.000012  -0.000138
    18  H   -0.005907   0.001298  -0.000134   0.000013  -0.000107   0.000159
    19  H    0.442560  -0.006201   0.001308  -0.000507   0.000257   0.000633
    20  H   -0.006201   0.454222  -0.010166   0.001890   0.000190   0.000182
    21  H    0.001308  -0.010166   0.423115  -0.006493   0.001399  -0.000143
    22  H   -0.000507   0.001890  -0.006493   0.419992  -0.008910   0.000627
    23  H    0.000257   0.000190   0.001399  -0.008910   0.439719  -0.000875
    24  H    0.000633   0.000182  -0.000143   0.000627  -0.000875   0.495130
    25  H    0.000633   0.000182  -0.000143   0.000627  -0.000875  -0.081230
              25
     1  C    0.032827
     2  C    0.014631
     3  C   -0.001372
     4  C   -0.012151
     5  C   -0.012660
     6  C   -0.001512
     7  C    0.013780
     8  C    0.029813
     9  C    0.358418
    10  C    0.005720
    11  C    0.016501
    12  C   -0.059249
    13  C    0.009896
    14  C   -0.059725
    15  H   -0.000886
    16  H    0.000625
    17  H   -0.000138
    18  H    0.000159
    19  H    0.000633
    20  H    0.000182
    21  H   -0.000143
    22  H    0.000627
    23  H   -0.000875
    24  H   -0.081230
    25  H    0.495130
 Mulliken charges:
               1
     1  C    0.086641
     2  C   -0.405174
     3  C   -0.438766
     4  C    0.032839
     5  C    0.022438
     6  C   -0.441216
     7  C   -0.408536
     8  C    0.099381
     9  C   -0.313690
    10  C    0.103585
    11  C   -0.646225
    12  C    0.670419
    13  C   -0.636159
    14  C    0.653692
    15  H    0.237499
    16  H    0.257604
    17  H    0.249927
    18  H    0.222946
    19  H    0.190103
    20  H    0.221012
    21  H    0.248129
    22  H    0.255355
    23  H    0.236199
    24  H    0.250999
    25  H    0.250999
 Sum of Mulliken charges =   1.00000
 Mulliken charges with hydrogens summed into heavy atoms:
               1
     1  C    0.324140
     2  C   -0.147570
     3  C   -0.188839
     4  C    0.255785
     5  C    0.243450
     6  C   -0.193087
     7  C   -0.153182
     8  C    0.335579
     9  C    0.188308
    10  C    0.293688
    11  C   -0.646225
    12  C    0.670419
    13  C   -0.636159
    14  C    0.653692
 Electronic spatial extent (au):  <R**2>=           2853.2852
 Charge=              1.0000 electrons
 Dipole moment (field-independent basis, Debye):
    X=              0.0265    Y=             -0.3315    Z=             -0.0000  Tot=              0.3326
 Quadrupole moment (field-independent basis, Debye-Ang):
   XX=            -50.7907   YY=            -36.6161   ZZ=            -84.1394
   XY=             10.3545   XZ=              0.0000   YZ=             -0.0000
 Traceless Quadrupole moment (field-independent basis, Debye-Ang):
   XX=              6.3914   YY=             20.5660   ZZ=            -26.9573
   XY=             10.3545   XZ=              0.0000   YZ=             -0.0000
 Octapole moment (field-independent basis, Debye-Ang**2):
  XXX=             -0.5979  YYY=              2.7526  ZZZ=             -0.0000  XYY=             -1.1383
  XXY=             -5.9091  XXZ=             -0.0000  XZZ=             -2.8851  YZZ=              1.0810
  YYZ=             -0.0000  XYZ=              0.0000
 Hexadecapole moment (field-independent basis, Debye-Ang**3):
 XXXX=           -995.6793 YYYY=          -1841.6563 ZZZZ=            -99.3066 XXXY=           -349.9840
 XXXZ=              0.0000 YYYX=           -277.3632 YYYZ=             -0.0000 ZZZX=              0.0000
 ZZZY=             -0.0000 XXYY=           -453.4560 XXZZ=           -243.5764 YYZZ=           -492.2046
 XXYZ=             -0.0000 YYXZ=              0.0000 ZZXY=           -184.2661
 N-N= 7.815928778483D+02 E-N=-2.799541789879D+03  KE= 5.375282849690D+02
 Symmetry A'   KE= 5.228805947763D+02
 Symmetry A"   KE= 1.464769019269D+01
 Unable to Open any file for archive entry.
 1\1\GINC-GADI-CPU-CLX-0648\SP\RM062X TD-FC\6-311++G(d,p)\C14H11(1+)\TS
 1578\27-Jul-2022\0\\#n M062X/6-311++G(d,p) TD(NStates=1) EmpiricalDisp
 ersion=GD3 SP\\SP_-125\\1,1\C,0,2.48205,1.3706,0.\C,0,3.691375,0.67787
 5,0.\C,0,3.6804,-0.7093,0.\C,0,2.4708,-1.40305,0.\C,0,-2.4552,-1.39395
 ,0.\C,0,-3.685,-0.6969,0.\C,0,-3.707825,0.684925,0.\C,0,-2.49575,1.37,
 0.\C,0,-0.004275,1.4533,0.\C,0,0.0122,-1.4201,0.\C,0,1.263625,0.689425
 ,0.\C,0,1.2433,-0.7233,0.\C,0,-1.259975,0.681775,0.\C,0,-1.2333,-0.722
 1,0.\H,0,2.4816,2.453825,0.\H,0,4.626175,1.219025,0.\H,0,4.61015,-1.26
 0975,0.\H,0,2.47175,-2.485525,0.\H,0,0.01125,-2.5014,0.\H,0,-2.46445,-
 2.476675,0.\H,0,-4.60725,-1.261425,0.\H,0,-4.642825,1.224775,0.\H,0,-2
 .4858,2.453375,0.\H,0,-0.016,2.1525,-0.8574\H,0,-0.016,2.1525,0.8574\\
 Version=ES64L-G16RevC.01\State=1-A'\HF=-539.7595993\RMSD=5.729e-09\PG=
 CS [SG(C14H9),X(H2)]\\@
 The archive entry for this job was punched.


 THOUGH I SPEAK WITH THE TONGUES OF MEN AND OF ANGELS, 
 AND HAVE NOT LOVE,
 I AM BECOME AS SOUNDING BRASS, A TINKLING CYMBAL.
 AND THOUGH I HAVE THE GIFT OF PROPHECY,
 AND UNDERSTAND ALL MYSTERIES, AND ALL KNOWLEDGE.
 AND THOUGH I HAVE ALL FAITH, SO THAT I COULD REMOVE MOUNTAINS,
 AND HAVE NOT LOVE, I AM NOTHING.
 AND THOUGH I BESTOW ALL MY GOODS TO FEED THE POOR,
 AND THOUGH I GIVE MY BODY TO BE BURNED,
 AND HAVE NOT LOVE IT PROFITETH ME NOTHING.
 LOVE SUFFERETH LONG, AND IS KIND,
 LOVE ENVIETH NOT,
 LOVE VAUNTETH NOT ITSELF, IS NOT PUFFED UP,
 DOTH NOT BEHAVE ITSELF UNSEEMLY, SEEKETH NOT HER OWN,
 IS NOT EASILY PROVOKED, THINKETH NO EVIL,
 REJOICETH NOT IN INIQUITY, BUT REJOICETH IN THE TRUTH,
 BEARETH ALL THINGS, BELIEVETH ALL THINGS,
 HOPETH ALL THINGS, ENDURETH ALL THINGS.
 LOVE NEVER FAILETH, BUT WHETHER THERE BE PROPHECIES, THEY SHALL FAIL, 
 WHETHER THERE BE TONGUES, THEY SHALL CEASE,
 WHETHER THERE BE KNOWLEDGE, IT SHALL VANISH AWAY.
 FOR WE KNOW IN PART, AND WE PROPHESY IN PART.
 BUT WHEN THAT WHICH IS PERFECT IS COME, THEN THAT WHICH IS IN PART 
 SHALL BE DONE AWAY. 
 WHEN I WAS A CHILD, I SPAKE AS A CHILD, I UNDERSTOOD AS A CHILD, 
 I THOUGHT AS A CHILD.
 BUT WHEN I BECAME A MAN, I PUT AWAY CHILDISH THINGS.
 FOR NOW WE SEE THROUGH A GLASS, DARKLY, BUT THEN FACE TO FACE.
 NOW I KNOW IN PART. BUT THEN SHALL I KNOW EVEN AS ALSO I AM KNOWN.
 AND NOW ABIDETH FAITH, HOPE AND LOVE, THESE THREE.
 BUT THE GREATEST OF THESE IS LOVE.

                     I CORINTHIANS 13
 Job cpu time:       0 days  0 hours 46 minutes 40.9 seconds.
 Elapsed time:       0 days  0 hours  1 minutes 29.2 seconds.
 File lengths (MBytes):  RWF=    460 Int=      0 D2E=      0 Chk=     15 Scr=      1
 Normal termination of Gaussian 16 at Wed Jul 27 09:51:21 2022.
