 Entering Gaussian System, Link 0=g16
 Initial command:
 /apps/gaussian/g16c01/g16/l1.exe "/jobfs/52676472.gadi-pbs/Gau-2715700.inp" -scrdir="/jobfs/52676472.gadi-pbs/"
 Entering Link 1 = /apps/gaussian/g16c01/g16/l1.exe PID=   2715701.
  
 Copyright (c) 1988-2019, Gaussian, Inc.  All Rights Reserved.
  
 This is part of the Gaussian(R) 16 program.  It is based on
 the Gaussian(R) 09 system (copyright 2009, Gaussian, Inc.),
 the Gaussian(R) 03 system (copyright 2003, Gaussian, Inc.),
 the Gaussian(R) 98 system (copyright 1998, Gaussian, Inc.),
 the Gaussian(R) 94 system (copyright 1995, Gaussian, Inc.),
 the Gaussian 92(TM) system (copyright 1992, Gaussian, Inc.),
 the Gaussian 90(TM) system (copyright 1990, Gaussian, Inc.),
 the Gaussian 88(TM) system (copyright 1988, Gaussian, Inc.),
 the Gaussian 86(TM) system (copyright 1986, Carnegie Mellon
 University), and the Gaussian 82(TM) system (copyright 1983,
 Carnegie Mellon University). Gaussian is a federally registered
 trademark of Gaussian, Inc.
  
 This software contains proprietary and confidential information,
 including trade secrets, belonging to Gaussian, Inc.
  
 This software is provided under written license and may be
 used, copied, transmitted, or stored only in accord with that
 written license.
  
 The following legend is applicable only to US Government
 contracts under FAR:
  
                    RESTRICTED RIGHTS LEGEND
  
 Use, reproduction and disclosure by the US Government is
 subject to restrictions as set forth in subparagraphs (a)
 and (c) of the Commercial Computer Software - Restricted
 Rights clause in FAR 52.227-19.
  
 Gaussian, Inc.
 340 Quinnipiac St., Bldg. 40, Wallingford CT 06492
  
  
 ---------------------------------------------------------------
 Warning -- This program may not be used in any manner that
 competes with the business of Gaussian, Inc. or will provide
 assistance to any competitor of Gaussian, Inc.  The licensee
 of this program is prohibited from giving any competitor of
 Gaussian, Inc. access to this program.  By using this program,
 the user acknowledges that Gaussian, Inc. is engaged in the
 business of creating and licensing software in the field of
 computational chemistry and represents and warrants to the
 licensee that it is not a competitor of Gaussian, Inc. and that
 it will not use this program in any manner prohibited above.
 ---------------------------------------------------------------
  

 Cite this work as:
 Gaussian 16, Revision C.01,
 M. J. Frisch, G. W. Trucks, H. B. Schlegel, G. E. Scuseria, 
 M. A. Robb, J. R. Cheeseman, G. Scalmani, V. Barone, 
 G. A. Petersson, H. Nakatsuji, X. Li, M. Caricato, A. V. Marenich, 
 J. Bloino, B. G. Janesko, R. Gomperts, B. Mennucci, H. P. Hratchian, 
 J. V. Ortiz, A. F. Izmaylov, J. L. Sonnenberg, D. Williams-Young, 
 F. Ding, F. Lipparini, F. Egidi, J. Goings, B. Peng, A. Petrone, 
 T. Henderson, D. Ranasinghe, V. G. Zakrzewski, J. Gao, N. Rega, 
 G. Zheng, W. Liang, M. Hada, M. Ehara, K. Toyota, R. Fukuda, 
 J. Hasegawa, M. Ishida, T. Nakajima, Y. Honda, O. Kitao, H. Nakai, 
 T. Vreven, K. Throssell, J. A. Montgomery, Jr., J. E. Peralta, 
 F. Ogliaro, M. J. Bearpark, J. J. Heyd, E. N. Brothers, K. N. Kudin, 
 V. N. Staroverov, T. A. Keith, R. Kobayashi, J. Normand, 
 K. Raghavachari, A. P. Rendell, J. C. Burant, S. S. Iyengar, 
 J. Tomasi, M. Cossi, J. M. Millam, M. Klene, C. Adamo, R. Cammi, 
 J. W. Ochterski, R. L. Martin, K. Morokuma, O. Farkas, 
 J. B. Foresman, and D. J. Fox, Gaussian, Inc., Wallingford CT, 2019.
 
 ******************************************
 Gaussian 16:  ES64L-G16RevC.01  3-Jul-2019
                26-Jul-2022 
 ******************************************
 %NProcShared=16
 Will use up to   16 processors via shared memory.
 %mem = 64GB
 ----------------------------------------------
 #n M062X/cc-pvtz TD EmpiricalDispersion=GD3 SP
 ----------------------------------------------
 1/38=1,172=1/1;
 2/12=2,17=6,18=5,40=1/2;
 3/5=16,6=1,11=9,25=1,30=1,74=-55,124=31/1,2,3,8;
 4//1;
 5/5=2,38=5/2;
 8/6=1,10=1/1;
 9/42=1,70=2/14;
 6/7=2,8=2,9=2,10=2/1;
 99/5=1,9=1/99;
 -----
 SP_-4
 -----
 Symbolic Z-matrix:
 Charge =  1 Multiplicity = 1
 C                     2.4927    1.4331    0. 
 C                     3.7015    0.7527    0.032 
 C                     3.6839   -0.6691    0.064 
 C                     2.4632   -1.4789    0.032 
 C                    -2.4632   -1.4789   -0.032 
 C                    -3.6839   -0.6691   -0.064 
 C                    -3.7015    0.7527   -0.032 
 C                    -2.4927    1.4331    0. 
 C                     0.        1.4941    0. 
 C                     0.       -1.5365    0. 
 C                     1.2621    0.6497   -0.044 
 C                     1.2375   -0.7581    0.004 
 C                    -1.2621    0.6497    0.044 
 C                    -1.2375   -0.7581   -0.004 
 H                     2.4881    2.4723    0. 
 H                     4.6368    1.2924    0.028 
 H                     4.6093   -1.2597    0.008 
 H                     2.4675   -2.5174    0.032 
 H                     0.       -2.6016    0. 
 H                    -2.4675   -2.5174   -0.032 
 H                    -4.6093   -1.2597   -0.008 
 H                    -4.6368    1.2924   -0.028 
 H                    -2.4881    2.4723    0. 
 H                     0.        2.3305   -0.8596 
 H                     0.        2.3305    0.8596 
 
                          Input orientation:                          
 ---------------------------------------------------------------------
 Center     Atomic      Atomic             Coordinates (Angstroms)
 Number     Number       Type             X           Y           Z
 ---------------------------------------------------------------------
      1          6           0        2.492700    1.433100    0.000000
      2          6           0        3.701500    0.752700    0.032000
      3          6           0        3.683900   -0.669100    0.064000
      4          6           0        2.463200   -1.478900    0.032000
      5          6           0       -2.463200   -1.478900   -0.032000
      6          6           0       -3.683900   -0.669100   -0.064000
      7          6           0       -3.701500    0.752700   -0.032000
      8          6           0       -2.492700    1.433100    0.000000
      9          6           0        0.000000    1.494100    0.000000
     10          6           0        0.000000   -1.536500    0.000000
     11          6           0        1.262100    0.649700   -0.044000
     12          6           0        1.237500   -0.758100    0.004000
     13          6           0       -1.262100    0.649700    0.044000
     14          6           0       -1.237500   -0.758100   -0.004000
     15          1           0        2.488100    2.472300    0.000000
     16          1           0        4.636800    1.292400    0.028000
     17          1           0        4.609300   -1.259700    0.008000
     18          1           0        2.467500   -2.517400    0.032000
     19          1           0        0.000000   -2.601600    0.000000
     20          1           0       -2.467500   -2.517400   -0.032000
     21          1           0       -4.609300   -1.259700   -0.008000
     22          1           0       -4.636800    1.292400   -0.028000
     23          1           0       -2.488100    2.472300    0.000000
     24          1           0        0.000000    2.330500   -0.859600
     25          1           0        0.000000    2.330500    0.859600
 ---------------------------------------------------------------------
                    Distance matrix (angstroms):
                    1          2          3          4          5
     1  C    0.000000
     2  C    1.387503   0.000000
     3  C    2.417085   1.422269   0.000000
     4  C    2.912325   2.552141   1.465233   0.000000
     5  C    5.748192   6.556498   6.200954   4.926816   0.000000
     6  C    6.524855   7.521626   7.368912   6.200954   1.465233
     7  C    6.231539   7.403277   7.521626   6.556498   2.552141
     8  C    4.985400   6.231539   6.524855   5.748192   2.912325
     9  C    2.493446   3.775156   4.272546   3.860972   3.860972
    10  C    3.877122   4.352305   3.785181   2.464081   2.464081
    11  C    1.459462   2.442756   2.759712   2.445272   4.290564
    12  C    2.525253   2.890432   2.448754   1.422209   3.770415
    13  C    3.835906   4.964683   5.118843   4.290564   2.445272
    14  C    4.326172   5.165030   4.922674   3.770415   1.422209
    15  H    1.039210   2.104849   3.361908   3.951408   6.334696
    16  H    2.148894   1.079851   2.181008   3.522025   7.621923
    17  H    3.425089   2.207811   1.099231   2.157399   7.076009
    18  H    3.950710   3.495184   2.212886   1.038509   5.039284
    19  H    4.742611   4.995343   4.160501   2.707182   2.707182
    20  H    6.341219   6.982422   6.423796   5.039284   1.038509
    21  H    7.595370   8.551067   8.314515   7.076009   2.157399
    22  H    7.130943   8.355963   8.549269   7.621923   3.522025
    23  H    5.088055   6.424111   6.925754   6.334696   3.951408
    24  H    2.785281   4.121348   4.839603   4.623184   4.611269
    25  H    2.785281   4.107977   4.816814   4.611269   4.623184
                    6          7          8          9         10
     6  C    0.000000
     7  C    1.422269   0.000000
     8  C    2.417085   1.387503   0.000000
     9  C    4.272546   3.775156   2.493446   0.000000
    10  C    3.785181   4.352305   3.877122   3.030600   0.000000
    11  C    5.118843   4.964683   3.835906   1.519159   2.524738
    12  C    4.922674   5.165030   4.326172   2.569791   1.461961
    13  C    2.759712   2.442756   1.459462   1.519159   2.524738
    14  C    2.448754   2.890432   2.525253   2.569791   1.461961
    15  H    6.925754   6.424111   5.088055   2.673484   4.718169
    16  H    8.549269   8.355963   7.130943   4.641269   5.431701
    17  H    8.314515   8.551067   7.595370   5.369276   4.617611
    18  H    6.423796   6.982422   6.341219   4.709747   2.655512
    19  H    4.160501   4.995343   4.742611   4.095700   1.065100
    20  H    2.212886   3.495184   3.950710   4.709747   2.655512
    21  H    1.099231   2.207811   3.425089   5.369276   4.617611
    22  H    2.181008   1.079851   2.148894   4.641269   5.431701
    23  H    3.361908   2.104849   1.039210   2.673484   4.718169
    24  H    4.816814   4.107977   2.785281   1.199365   3.961389
    25  H    4.839603   4.121348   2.785281   1.199365   3.961389
                   11         12         13         14         15
    11  C    0.000000
    12  C    1.408833   0.000000
    13  C    2.525733   2.869059   0.000000
    14  C    2.869059   2.475013   1.408833   0.000000
    15  H    2.197017   3.464030   4.169869   4.931085   0.000000
    16  H    3.436109   3.969933   5.933830   6.221975   2.451502
    17  H    3.853863   3.408908   6.174175   5.868289   4.292712
    18  H    3.389585   2.146816   4.892911   4.101641   4.989845
    19  H    3.487948   2.220341   3.487948   2.220341   5.651115
    20  H    4.892911   4.101641   3.389585   2.146816   7.032503
    21  H    6.174175   5.868289   3.853863   3.408908   8.018789
    22  H    5.933830   6.221975   3.436109   3.969933   7.221991
    23  H    4.169869   4.931085   2.197017   3.464030   4.976200
    24  H    2.254593   3.437537   2.287898   3.435536   2.636221
    25  H    2.287898   3.435536   2.254593   3.437537   2.636221
                   16         17         18         19         20
    16  H    0.000000
    17  H    2.552327   0.000000
    18  H    4.384114   2.483887   0.000000
    19  H    6.055075   4.800667   2.469144   0.000000
    20  H    8.061591   7.187803   4.935415   2.469144   0.000000
    21  H    9.591917   9.218614   7.187803   4.800667   2.483887
    22  H    9.273769   9.591917   8.061591   6.055075   4.384114
    23  H    7.221991   8.018789   7.032503   5.651115   4.989845
    24  H    4.833777   5.906599   5.512317   5.006448   5.502328
    25  H    4.823808   5.904270   5.502328   5.006448   5.512317
                   21         22         23         24         25
    21  H    0.000000
    22  H    2.552327   0.000000
    23  H    4.292712   2.451502   0.000000
    24  H    5.904270   4.823808   2.636221   0.000000
    25  H    5.906599   4.833777   2.636221   1.719200   0.000000
 Stoichiometry    C14H11(1+)
 Framework group  C2[C2(CCH),X(C12H10)]
 Deg. of freedom    34
 Full point group                 C2      NOp   2
 Largest Abelian subgroup         C2      NOp   2
 Largest concise Abelian subgroup C2      NOp   2
                         Standard orientation:                         
 ---------------------------------------------------------------------
 Center     Atomic      Atomic             Coordinates (Angstroms)
 Number     Number       Type             X           Y           Z
 ---------------------------------------------------------------------
      1          6           0        0.000000    2.492700   -1.423279
      2          6           0       -0.032000    3.701500   -0.742879
      3          6           0       -0.064000    3.683900    0.678921
      4          6           0       -0.032000    2.463200    1.488721
      5          6           0        0.032000   -2.463200    1.488721
      6          6           0        0.064000   -3.683900    0.678921
      7          6           0        0.032000   -3.701500   -0.742879
      8          6           0       -0.000000   -2.492700   -1.423279
      9          6           0       -0.000000   -0.000000   -1.484279
     10          6           0        0.000000    0.000000    1.546321
     11          6           0        0.044000    1.262100   -0.639879
     12          6           0       -0.004000    1.237500    0.767921
     13          6           0       -0.044000   -1.262100   -0.639879
     14          6           0        0.004000   -1.237500    0.767921
     15          1           0        0.000000    2.488100   -2.462479
     16          1           0       -0.028000    4.636800   -1.282579
     17          1           0       -0.008000    4.609300    1.269521
     18          1           0       -0.032000    2.467500    2.527221
     19          1           0        0.000000    0.000000    2.611421
     20          1           0        0.032000   -2.467500    2.527221
     21          1           0        0.008000   -4.609300    1.269521
     22          1           0        0.028000   -4.636800   -1.282579
     23          1           0       -0.000000   -2.488100   -2.462479
     24          1           0        0.859600   -0.000000   -2.320679
     25          1           0       -0.859600    0.000000   -2.320679
 ---------------------------------------------------------------------
 Rotational constants (GHZ):           1.9726055           0.4445407           0.3636225
 Standard basis: CC-pVTZ (5D, 7F)
 There are   332 symmetry adapted cartesian basis functions of A   symmetry.
 There are   323 symmetry adapted cartesian basis functions of B   symmetry.
 There are   290 symmetry adapted basis functions of A   symmetry.
 There are   284 symmetry adapted basis functions of B   symmetry.
   574 basis functions,   915 primitive gaussians,   655 cartesian basis functions
    47 alpha electrons       47 beta electrons
       nuclear repulsion energy       769.8264770952 Hartrees.
 NAtoms=   25 NActive=   25 NUniq=   14 SFac= 3.19D+00 NAtFMM=   60 NAOKFM=F Big=F
 Integral buffers will be    131072 words long.
 Regular integral format.
 Two-electron integral symmetry is turned on.
 Nuclear repulsion after empirical dispersion term =      769.8254804808 Hartrees.
 One-electron integrals computed using PRISM.
 NBasis=   574 RedAO= T EigKep=  2.81D-05  NBF=   290   284
 NBsUse=   574 1.00D-06 EigRej= -1.00D+00 NBFU=   290   284
 ExpMin= 1.03D-01 ExpMax= 8.24D+03 ExpMxC= 2.81D+02 IAcc=3 IRadAn=         5 AccDes= 0.00D+00
 Harris functional with IExCor= 1009 and IRadAn=       5 diagonalized for initial guess.
 HarFok:  IExCor= 1009 AccDes= 0.00D+00 IRadAn=         5 IDoV= 1 UseB2=F ITyADJ=14
 ICtDFT=  3500011 ScaDFX=  1.000000  1.000000  1.000000  1.000000
 FoFCou: FMM=F IPFlag=           0 FMFlag=      100000 FMFlg1=           0
         NFxFlg=           0 DoJE=T BraDBF=F KetDBF=T FulRan=T
         wScrn=  0.000000 ICntrl=       500 IOpCl=  0 I1Cent=   200000004 NGrid=           0
         NMat0=    1 NMatS0=      1 NMatT0=    0 NMatD0=    1 NMtDS0=    0 NMtDT0=    0
 Petite list used in FoFCou.
 Initial guess orbital symmetries:
       Occupied  (B) (A) (B) (A) (B) (A) (A) (B) (B) (A) (A) (A)
                 (B) (A) (A) (B) (A) (A) (B) (B) (A) (A) (A) (B)
                 (B) (A) (B) (A) (B) (B) (A) (A) (B) (A) (A) (B)
                 (B) (B) (A) (A) (A) (B) (B) (B) (A) (A) (B)
       Virtual   (B) (B) (A) (A) (B) (A) (B) (A) (B) (A) (A) (B)
                 (B) (B) (A) (A) (B) (A) (B) (A) (B) (A) (B) (A)
                 (B) (A) (B) (A) (A) (A) (B) (B) (A) (A) (B) (B)
                 (A) (B) (B) (A) (B) (A) (B) (B) (A) (B) (A) (B)
                 (A) (B) (A) (A) (B) (A) (B) (A) (A) (A) (B) (B)
                 (A) (A) (B) (B) (A) (B) (A) (B) (B) (A) (A) (B)
                 (A) (B) (A) (B) (A) (B) (A) (B) (A) (B) (A) (B)
                 (A) (B) (A) (A) (B) (B) (A) (B) (A) (B) (B) (A)
                 (A) (A) (B) (B) (A) (A) (B) (A) (B) (B) (A) (A)
                 (A) (B) (B) (A) (A) (A) (B) (A) (B) (B) (B) (A)
                 (B) (B) (A) (B) (B) (A) (A) (B) (A) (A) (A) (B)
                 (B) (B) (B) (A) (A) (B) (A) (A) (B) (A) (B) (A)
                 (B) (B) (A) (B) (B) (A) (A) (A) (B) (B) (A) (B)
                 (A) (B) (A) (A) (B) (B) (A) (A) (B) (A) (B) (B)
                 (A) (A) (B) (A) (B) (A) (B) (B) (A) (A) (B) (B)
                 (A) (B) (A) (A) (B) (A) (B) (B) (A) (A) (B) (A)
                 (B) (A) (B) (A) (A) (B) (A) (B) (B) (B) (A) (B)
                 (A) (A) (B) (A) (B) (A) (B) (A) (B) (B) (A) (A)
                 (A) (B) (B) (B) (A) (A) (B) (A) (A) (B) (B) (A)
                 (B) (A) (B) (A) (B) (A) (B) (A) (B) (A) (B) (A)
                 (B) (B) (A) (B) (B) (A) (A) (B) (B) (B) (A) (B)
                 (A) (B) (A) (A) (B) (A) (B) (A) (B) (A) (B) (A)
                 (B) (A) (B) (A) (A) (A) (B) (B) (A) (B) (B) (A)
                 (B) (A) (A) (B) (B) (A) (B) (A) (A) (B) (B) (A)
                 (A) (A) (B) (B) (A) (B) (A) (B) (B) (B) (A) (B)
                 (A) (B) (A) (A) (B) (B) (A) (B) (A) (A) (B) (A)
                 (A) (B) (B) (A) (B) (A) (B) (B) (A) (A) (A) (B)
                 (A) (A) (B) (B) (A) (B) (B) (A) (B) (A) (A) (B)
                 (A) (B) (A) (B) (B) (A) (A) (B) (A) (A) (A) (A)
                 (B) (B) (A) (B) (A) (B) (B) (B) (A) (B) (A) (A)
                 (A) (A) (B) (B) (A) (A) (B) (A) (B) (A) (B) (A)
                 (B) (A) (B) (A) (B) (A) (B) (B) (A) (B) (A) (B)
                 (A) (B) (A) (B) (A) (A) (B) (B) (A) (B) (A) (B)
                 (A) (B) (A) (B) (B) (A) (A) (B) (B) (A) (A) (B)
                 (B) (A) (A) (A) (B) (A) (B) (A) (B) (B) (A) (A)
                 (B) (A) (B) (A) (B) (B) (A) (B) (A) (B) (B) (A)
                 (A) (B) (A) (B) (A) (B) (A) (B) (A) (B) (B) (A)
                 (A) (A) (B) (B) (A) (A) (B) (B) (A) (B) (A) (A)
                 (B) (B) (A) (B) (A) (B) (B) (B) (A) (A) (B) (B)
                 (A) (A) (A) (B) (A) (B) (B) (B) (A) (B) (A) (B)
                 (A) (B) (A) (A) (B) (B) (B) (A) (A) (A) (B) (B)
                 (A) (A) (A) (A) (B) (B) (B) (B) (A) (A) (A) (B)
                 (A) (B) (B) (A) (B) (A) (B) (A) (B) (A) (B) (A)
                 (B) (A) (B) (A) (B) (A) (B) (A) (A) (B) (A)
 The electronic state of the initial guess is 1-A.
 Requested convergence on RMS density matrix=1.00D-08 within 128 cycles.
 Requested convergence on MAX density matrix=1.00D-06.
 Requested convergence on             energy=1.00D-06.
 No special actions if energy rises.
 Integral accuracy reduced to 1.0D-05 until final iterations.
 Initial convergence to 1.0D-05 achieved.  Increase integral accuracy.
 SCF Done:  E(RM062X) =  -539.754199936     A.U. after   15 cycles
            NFock= 15  Conv=0.34D-08     -V/T= 2.0083
 DoSCS=F DFT=T ScalE2(SS,OS)=  1.000000  1.000000
 ExpMin= 1.03D-01 ExpMax= 8.24D+03 ExpMxC= 2.81D+02 IAcc=3 IRadAn=         5 AccDes= 0.00D+00
 HarFok:  IExCor=  205 AccDes= 0.00D+00 IRadAn=         5 IDoV=-2 UseB2=F ITyADJ=14
 ICtDFT= 12500011 ScaDFX=  1.000000  1.000000  1.000000  1.000000
 Range of M.O.s used for correlation:    15   574
 NBasis=   574 NAE=    47 NBE=    47 NFC=    14 NFV=     0
 NROrb=    560 NOA=    33 NOB=    33 NVA=   527 NVB=   527

 **** Warning!!: The largest alpha MO coefficient is  0.34345071D+02

 Orbital symmetries:
       Occupied  (A) (B) (A) (B) (A) (A) (B) (A) (B) (A) (B) (A)
                 (B) (A) (A) (B) (A) (A) (B) (B) (A) (A) (A) (B)
                 (B) (A) (A) (B) (A) (B) (B) (A) (A) (B) (B) (A)
                 (B) (A) (B) (A) (B) (A) (B) (B) (A) (A) (B)
       Virtual   (B) (B) (A) (A) (B) (A) (A) (B) (A) (B) (B) (B)
                 (A) (B) (A) (A) (A) (B) (B) (B) (A) (A) (B) (A)
                 (A) (A) (B) (B) (A) (B) (A) (B) (A) (B) (A) (B)
                 (B) (A) (A) (B) (B) (A) (B) (A) (A) (B) (A) (B)
                 (A) (B) (B) (B) (A) (B) (A) (A) (A) (B) (A) (A)
                 (A) (B) (B) (B) (B) (A) (B) (A) (A) (A) (B) (B)
                 (A) (A) (B) (A) (B) (B) (A) (A) (B) (B) (B) (A)
                 (A) (B) (A) (B) (B) (A) (A) (B) (B) (A) (A) (B)
                 (B) (A) (A) (B) (A) (B) (A) (A) (A) (B) (B) (A)
                 (B) (A) (A) (B) (A) (B) (A) (B) (B) (B) (A) (B)
                 (A) (B) (B) (A) (A) (B) (A) (B) (A) (B) (A) (A)
                 (B) (B) (B) (A) (A) (B) (B) (A) (A) (A) (B) (B)
                 (A) (B) (A) (A) (B) (B) (A) (A) (B) (B) (A) (B)
                 (B) (A) (A) (A) (B) (A) (A) (B) (B) (A) (B) (B)
                 (A) (A) (B) (A) (B) (A) (B) (A) (B) (A) (B) (B)
                 (A) (B) (A) (A) (B) (A) (B) (B) (A) (A) (B) (A)
                 (B) (A) (A) (B) (A) (B) (B) (B) (A) (B) (A) (B)
                 (A) (B) (A) (A) (A) (B) (A) (B) (B) (B) (A) (A)
                 (A) (B) (B) (B) (A) (B) (A) (A) (A) (B) (B) (A)
                 (B) (A) (B) (A) (A) (B) (B) (A) (A) (B) (B) (A)
                 (B) (A) (B) (B) (B) (A) (A) (B) (B) (A) (B) (B)
                 (A) (B) (A) (B) (A) (A) (B) (A) (B) (A) (B) (A)
                 (B) (A) (A) (B) (A) (B) (A) (B) (A) (B) (B) (A)
                 (B) (A) (A) (B) (B) (A) (B) (A) (B) (A) (B) (A)
                 (A) (B) (A) (B) (A) (A) (B) (B) (B) (A) (A) (B)
                 (B) (A) (B) (B) (A) (A) (B) (A) (A) (B) (B) (A)
                 (A) (B) (A) (B) (B) (A) (B) (B) (A) (A) (A) (B)
                 (A) (A) (A) (B) (B) (B) (A) (B) (B) (A) (B) (A)
                 (A) (B) (A) (B) (B) (A) (A) (A) (B) (A) (A) (A)
                 (B) (A) (B) (A) (B) (B) (B) (A) (A) (A) (B) (B)
                 (B) (A) (A) (A) (B) (A) (B) (A) (B) (A) (A) (B)
                 (A) (B) (A) (B) (B) (A) (B) (A) (B) (A) (A) (B)
                 (A) (B) (B) (B) (A) (A) (A) (B) (B) (B) (B) (A)
                 (B) (A) (A) (B) (A) (B) (B) (A) (B) (A) (A) (A)
                 (A) (B) (B) (B) (A) (B) (A) (A) (B) (A) (B) (A)
                 (B) (A) (A) (B) (B) (B) (A) (A) (B) (B) (A) (B)
                 (A) (B) (B) (A) (A) (B) (A) (B) (B) (A) (B) (A)
                 (A) (B) (A) (B) (A) (B) (A) (B) (B) (A) (A) (A)
                 (B) (B) (A) (B) (A) (B) (B) (A) (B) (A) (A) (B)
                 (B) (A) (B) (A) (A) (B) (B) (B) (A) (B) (A) (B)
                 (B) (A) (A) (A) (B) (B) (B) (A) (A) (A) (B) (A)
                 (B) (A) (A) (A) (B) (B) (B) (B) (A) (A) (A) (B)
                 (B) (A) (B) (A) (B) (A) (B) (A) (B) (A) (B) (A)
                 (B) (A) (B) (A) (B) (A) (B) (A) (A) (B) (A)
    12 initial guesses have been made.
 Convergence on wavefunction:    0.001000000000000
 Iteration     1 Dimension    12 NMult     0 NNew     12
 CISAX will form    12 AO SS matrices at one time.
 Iteration     2 Dimension    18 NMult    12 NNew      6
 Iteration     3 Dimension    24 NMult    18 NNew      6
 Iteration     4 Dimension    30 NMult    24 NNew      6
 Iteration     5 Dimension    36 NMult    30 NNew      6
 Iteration     6 Dimension    38 NMult    36 NNew      2
 ***********************************************************************
 Excited states from <AA,BB:AA,BB> singles matrix:
 ***********************************************************************
 
 Ground to excited state transition densities written to RWF  633
 Ground to excited state transition electric dipole moments (Au):
       state          X           Y           Z        Dip. S.      Osc.
         1         0.0000      0.0000      0.6733      0.4533      0.0273
         2         0.0193      0.3979      0.0000      0.1587      0.0110
         3        -0.0060      2.2927      0.0000      5.2566      0.4289
 Ground to excited state transition velocity dipole moments (Au):
       state          X           Y           Z        Dip. S.      Osc.
         1         0.0000      0.0000     -0.0643      0.0041      0.0305
         2        -0.0024     -0.0411      0.0000      0.0017      0.0109
         3         0.0006     -0.2891     -0.0000      0.0836      0.4553
 Ground to excited state transition magnetic dipole moments (Au):
       state          X           Y           Z
         1         0.0000     -0.0000     -0.0053
         2         0.8553      0.0262     -0.0000
         3         1.0633     -0.0055     -0.0000
 Ground to excited state transition velocity quadrupole moments (Au):
       state          XX          YY          ZZ          XY          XZ          YZ
         1         0.0110     -0.2465     -0.0067      0.0054     -0.0000      0.0000
         2        -0.0000      0.0000      0.0000      0.0000     -0.0007      0.2252
         3        -0.0000      0.0000      0.0000      0.0000      0.0012      0.1100
 <0|del|b> * <b|rxdel|0> + <0|del|b> * <b|delr+rdel|0>
 Rotatory Strengths (R) in cgs (10**-40 erg-esu-cm/Gauss)
       state          XX          YY          ZZ    R(velocity)    E-M Angle
         1        -0.0143      2.7024     -0.0000      0.8961       90.00
         2        -3.7553     -8.6969     -8.6438     -7.0320       95.05
         3         5.5612      1.9569      5.1945      4.2375       89.59
 1/2[<0|r|b>*<b|rxdel|0> + (<0|rxdel|b>*<b|r|0>)*]
 Rotatory Strengths (R) in cgs (10**-40 erg-esu-cm/Gauss)
       state          XX          YY          ZZ     R(length)
         1        -0.0000      0.0000      2.5449      0.8483
         2       -11.6787     -7.3809      0.0000     -6.3532
         3         4.4972      8.8957      0.0000      4.4643
  1/2[<0|del|b>*<b|r|0> + (<0|r|b>*<b|del|0>)*] (Au)
       state          X           Y           Z        Dip. S.   Osc.(frdel)
         1         0.0000      0.0000     -0.0433      0.0433      0.0288
         2        -0.0000     -0.0164      0.0000      0.0164      0.0109
         3        -0.0000     -0.6628     -0.0000      0.6628      0.4419

 Excitation energies and oscillator strengths:
 
 Excited State   1:      Singlet-A      2.4584 eV  504.33 nm  f=0.0273  <S**2>=0.000
      47 -> 48         0.70466
 This state for optimization and/or second-order correction.
 Total Energy, E(TD-HF/TD-DFT) =  -539.663855302    
 Copying the excited state density for this state as the 1-particle RhoCI density.
 
 Excited State   2:      Singlet-B      2.8306 eV  438.01 nm  f=0.0110  <S**2>=0.000
      45 -> 48        -0.18869
      46 -> 48         0.67771
 
 Excited State   3:      Singlet-B      3.3303 eV  372.30 nm  f=0.4289  <S**2>=0.000
      45 -> 48         0.67333
      46 -> 48         0.18406
 SavETr:  write IOETrn=   770 NScale= 10 NData=  16 NLR=1 NState=    3 LETran=      64.

 **********************************************************************

            Population analysis using the SCF Density.

 **********************************************************************

 Orbital symmetries:
       Occupied  (A) (B) (A) (B) (A) (A) (B) (A) (B) (A) (B) (A)
                 (B) (A) (A) (B) (A) (A) (B) (B) (A) (A) (A) (B)
                 (B) (A) (A) (B) (A) (B) (B) (A) (A) (B) (B) (A)
                 (B) (A) (B) (A) (B) (A) (B) (B) (A) (A) (B)
       Virtual   (B) (B) (A) (A) (B) (A) (A) (B) (A) (B) (B) (B)
                 (A) (B) (A) (A) (A) (B) (B) (B) (A) (A) (B) (A)
                 (A) (A) (B) (B) (A) (B) (A) (B) (A) (B) (A) (B)
                 (B) (A) (A) (B) (B) (A) (B) (A) (A) (B) (A) (B)
                 (A) (B) (B) (B) (A) (B) (A) (A) (A) (B) (A) (A)
                 (A) (B) (B) (B) (B) (A) (B) (A) (A) (A) (B) (B)
                 (A) (A) (B) (A) (B) (B) (A) (A) (B) (B) (B) (A)
                 (A) (B) (A) (B) (B) (A) (A) (B) (B) (A) (A) (B)
                 (B) (A) (A) (B) (A) (B) (A) (A) (A) (B) (B) (A)
                 (B) (A) (A) (B) (A) (B) (A) (B) (B) (B) (A) (B)
                 (A) (B) (B) (A) (A) (B) (A) (B) (A) (B) (A) (A)
                 (B) (B) (B) (A) (A) (B) (B) (A) (A) (A) (B) (B)
                 (A) (B) (A) (A) (B) (B) (A) (A) (B) (B) (A) (B)
                 (B) (A) (A) (A) (B) (A) (A) (B) (B) (A) (B) (B)
                 (A) (A) (B) (A) (B) (A) (B) (A) (B) (A) (B) (B)
                 (A) (B) (A) (A) (B) (A) (B) (B) (A) (A) (B) (A)
                 (B) (A) (A) (B) (A) (B) (B) (B) (A) (B) (A) (B)
                 (A) (B) (A) (A) (A) (B) (A) (B) (B) (B) (A) (A)
                 (A) (B) (B) (B) (A) (B) (A) (A) (A) (B) (B) (A)
                 (B) (A) (B) (A) (A) (B) (B) (A) (A) (B) (B) (A)
                 (B) (A) (B) (B) (B) (A) (A) (B) (B) (A) (B) (B)
                 (A) (B) (A) (B) (A) (A) (B) (A) (B) (A) (B) (A)
                 (B) (A) (A) (B) (A) (B) (A) (B) (A) (B) (B) (A)
                 (B) (A) (A) (B) (B) (A) (B) (A) (B) (A) (B) (A)
                 (A) (B) (A) (B) (A) (A) (B) (B) (B) (A) (A) (B)
                 (B) (A) (B) (B) (A) (A) (B) (A) (A) (B) (B) (A)
                 (A) (B) (A) (B) (B) (A) (B) (B) (A) (A) (A) (B)
                 (A) (A) (A) (B) (B) (B) (A) (B) (B) (A) (B) (A)
                 (A) (B) (A) (B) (B) (A) (A) (A) (B) (A) (A) (A)
                 (B) (A) (B) (A) (B) (B) (B) (A) (A) (A) (B) (B)
                 (B) (A) (A) (A) (B) (A) (B) (A) (B) (A) (A) (B)
                 (A) (B) (A) (B) (B) (A) (B) (A) (B) (A) (A) (B)
                 (A) (B) (B) (B) (A) (A) (A) (B) (B) (B) (B) (A)
                 (B) (A) (A) (B) (A) (B) (B) (A) (B) (A) (A) (A)
                 (A) (B) (B) (B) (A) (B) (A) (A) (B) (A) (B) (A)
                 (B) (A) (A) (B) (B) (B) (A) (A) (B) (B) (A) (B)
                 (A) (B) (B) (A) (A) (B) (A) (B) (B) (A) (B) (A)
                 (A) (B) (A) (B) (A) (B) (A) (B) (B) (A) (A) (A)
                 (B) (B) (A) (B) (A) (B) (B) (A) (B) (A) (A) (B)
                 (B) (A) (B) (A) (A) (B) (B) (B) (A) (B) (A) (B)
                 (B) (A) (A) (A) (B) (B) (B) (A) (A) (A) (B) (A)
                 (B) (A) (A) (A) (B) (B) (B) (B) (A) (A) (A) (B)
                 (B) (A) (B) (A) (B) (A) (B) (A) (B) (A) (B) (A)
                 (B) (A) (B) (A) (B) (A) (B) (A) (A) (B) (A)
 The electronic state is 1-A.
 Alpha  occ. eigenvalues --  -10.78647 -10.74132 -10.74132 -10.73132 -10.73131
 Alpha  occ. eigenvalues --  -10.73057 -10.71515 -10.71515 -10.71039 -10.71039
 Alpha  occ. eigenvalues --  -10.70505 -10.70505 -10.70178 -10.70178  -1.14747
 Alpha  occ. eigenvalues --   -1.10728  -1.05739  -1.03699  -1.01039  -0.98182
 Alpha  occ. eigenvalues --   -0.95003  -0.89221  -0.86607  -0.84798  -0.83921
 Alpha  occ. eigenvalues --   -0.77460  -0.74281  -0.74193  -0.70268  -0.69677
 Alpha  occ. eigenvalues --   -0.68266  -0.67178  -0.65383  -0.65129  -0.64592
 Alpha  occ. eigenvalues --   -0.61770  -0.59932  -0.58462  -0.57920  -0.57740
 Alpha  occ. eigenvalues --   -0.57617  -0.56870  -0.52450  -0.51611  -0.46328
 Alpha  occ. eigenvalues --   -0.44951  -0.43294
 Alpha virt. eigenvalues --   -0.26318  -0.15673  -0.14083  -0.13271  -0.07548
 Alpha virt. eigenvalues --   -0.06237  -0.05640  -0.03983  -0.02674  -0.02033
 Alpha virt. eigenvalues --   -0.01655   0.00282   0.00438   0.01106   0.02320
 Alpha virt. eigenvalues --    0.03027   0.04987   0.06458   0.06661   0.08948
 Alpha virt. eigenvalues --    0.08981   0.10801   0.12091   0.12418   0.13650
 Alpha virt. eigenvalues --    0.14135   0.14299   0.15718   0.16376   0.16720
 Alpha virt. eigenvalues --    0.17186   0.17431   0.18312   0.18764   0.20252
 Alpha virt. eigenvalues --    0.21076   0.21411   0.22159   0.22696   0.24212
 Alpha virt. eigenvalues --    0.25324   0.25355   0.25670   0.26237   0.26582
 Alpha virt. eigenvalues --    0.26797   0.26996   0.27136   0.28285   0.29140
 Alpha virt. eigenvalues --    0.29655   0.30194   0.30556   0.31081   0.31537
 Alpha virt. eigenvalues --    0.31891   0.32886   0.33734   0.33833   0.34490
 Alpha virt. eigenvalues --    0.35103   0.36569   0.36912   0.37875   0.38571
 Alpha virt. eigenvalues --    0.38622   0.38846   0.40152   0.40717   0.41600
 Alpha virt. eigenvalues --    0.42101   0.44152   0.44372   0.44669   0.45156
 Alpha virt. eigenvalues --    0.47030   0.47693   0.48797   0.49154   0.50304
 Alpha virt. eigenvalues --    0.50935   0.53129   0.53709   0.53917   0.56012
 Alpha virt. eigenvalues --    0.56286   0.56768   0.57480   0.60175   0.60824
 Alpha virt. eigenvalues --    0.61408   0.62090   0.62512   0.62731   0.63328
 Alpha virt. eigenvalues --    0.63913   0.64763   0.64865   0.66723   0.68752
 Alpha virt. eigenvalues --    0.69505   0.70634   0.70969   0.72593   0.74069
 Alpha virt. eigenvalues --    0.74385   0.75552   0.76041   0.76751   0.77991
 Alpha virt. eigenvalues --    0.79789   0.80803   0.82051   0.82078   0.83417
 Alpha virt. eigenvalues --    0.84204   0.85083   0.85873   0.86045   0.86593
 Alpha virt. eigenvalues --    0.86630   0.88312   0.89731   0.90386   0.91087
 Alpha virt. eigenvalues --    0.92920   0.93248   0.93343   0.94018   0.94504
 Alpha virt. eigenvalues --    0.95447   0.96130   0.97297   0.99636   1.01167
 Alpha virt. eigenvalues --    1.03026   1.03634   1.04615   1.05780   1.06419
 Alpha virt. eigenvalues --    1.06990   1.08352   1.08544   1.09130   1.09480
 Alpha virt. eigenvalues --    1.11925   1.11988   1.12698   1.12733   1.13895
 Alpha virt. eigenvalues --    1.14276   1.15243   1.15955   1.18332   1.18482
 Alpha virt. eigenvalues --    1.18787   1.20311   1.20468   1.21643   1.23002
 Alpha virt. eigenvalues --    1.24137   1.24540   1.25652   1.26267   1.27855
 Alpha virt. eigenvalues --    1.28296   1.29407   1.30952   1.31227   1.32419
 Alpha virt. eigenvalues --    1.33777   1.33970   1.35858   1.36208   1.36571
 Alpha virt. eigenvalues --    1.39212   1.39767   1.42537   1.43195   1.43336
 Alpha virt. eigenvalues --    1.44590   1.44686   1.46218   1.48002   1.52896
 Alpha virt. eigenvalues --    1.54035   1.55948   1.59052   1.60210   1.62561
 Alpha virt. eigenvalues --    1.64839   1.65952   1.69408   1.69806   1.73996
 Alpha virt. eigenvalues --    1.75482   1.81065   1.81197   1.85839   1.87226
 Alpha virt. eigenvalues --    1.87297   1.89461   1.89611   1.93859   1.94074
 Alpha virt. eigenvalues --    1.99371   1.99967   2.00503   2.02831   2.03100
 Alpha virt. eigenvalues --    2.03673   2.03910   2.04721   2.08174   2.09341
 Alpha virt. eigenvalues --    2.11509   2.13760   2.15207   2.17012   2.19581
 Alpha virt. eigenvalues --    2.21699   2.22664   2.23402   2.25589   2.27374
 Alpha virt. eigenvalues --    2.27433   2.28533   2.29181   2.30125   2.30728
 Alpha virt. eigenvalues --    2.30821   2.31866   2.33154   2.33694   2.34126
 Alpha virt. eigenvalues --    2.35473   2.36075   2.36520   2.37675   2.38082
 Alpha virt. eigenvalues --    2.39170   2.40005   2.40607   2.42847   2.43979
 Alpha virt. eigenvalues --    2.46868   2.47802   2.48988   2.49880   2.50085
 Alpha virt. eigenvalues --    2.52100   2.53027   2.53695   2.54665   2.55712
 Alpha virt. eigenvalues --    2.56216   2.57010   2.57809   2.58018   2.59116
 Alpha virt. eigenvalues --    2.59182   2.60862   2.61424   2.62843   2.64638
 Alpha virt. eigenvalues --    2.65222   2.66166   2.66714   2.67437   2.68678
 Alpha virt. eigenvalues --    2.69178   2.69649   2.72890   2.74400   2.74852
 Alpha virt. eigenvalues --    2.75217   2.76356   2.76862   2.77553   2.78191
 Alpha virt. eigenvalues --    2.79681   2.80351   2.81179   2.81943   2.81947
 Alpha virt. eigenvalues --    2.82212   2.82419   2.82938   2.83773   2.85508
 Alpha virt. eigenvalues --    2.85560   2.86766   2.87613   2.88183   2.88522
 Alpha virt. eigenvalues --    2.88892   2.89644   2.90511   2.91310   2.91408
 Alpha virt. eigenvalues --    2.92665   2.93908   2.94002   2.94294   2.94482
 Alpha virt. eigenvalues --    2.97125   2.97364   2.97878   2.98742   2.98816
 Alpha virt. eigenvalues --    2.98924   3.01296   3.01939   3.02790   3.03190
 Alpha virt. eigenvalues --    3.03592   3.04756   3.05294   3.05509   3.07770
 Alpha virt. eigenvalues --    3.08267   3.11222   3.12010   3.12661   3.12772
 Alpha virt. eigenvalues --    3.13077   3.13561   3.13939   3.15570   3.16717
 Alpha virt. eigenvalues --    3.17989   3.18222   3.18627   3.19184   3.19757
 Alpha virt. eigenvalues --    3.19930   3.21320   3.21428   3.22917   3.23510
 Alpha virt. eigenvalues --    3.24979   3.25389   3.25832   3.27441   3.27735
 Alpha virt. eigenvalues --    3.28906   3.30689   3.31703   3.32102   3.33386
 Alpha virt. eigenvalues --    3.33721   3.37031   3.37706   3.38410   3.39082
 Alpha virt. eigenvalues --    3.43093   3.44341   3.45392   3.45528   3.46256
 Alpha virt. eigenvalues --    3.46342   3.48412   3.49628   3.50550   3.50863
 Alpha virt. eigenvalues --    3.51064   3.52507   3.53452   3.53950   3.55686
 Alpha virt. eigenvalues --    3.56250   3.56329   3.57448   3.58152   3.59028
 Alpha virt. eigenvalues --    3.59574   3.61026   3.62993   3.63529   3.63905
 Alpha virt. eigenvalues --    3.64221   3.66271   3.67250   3.67683   3.68297
 Alpha virt. eigenvalues --    3.68647   3.69532   3.70684   3.71365   3.73209
 Alpha virt. eigenvalues --    3.74357   3.74731   3.76795   3.78228   3.79639
 Alpha virt. eigenvalues --    3.80607   3.80689   3.81455   3.83353   3.83856
 Alpha virt. eigenvalues --    3.86148   3.86870   3.87443   3.87452   3.88287
 Alpha virt. eigenvalues --    3.88924   3.91303   3.91636   3.93218   3.93259
 Alpha virt. eigenvalues --    3.94187   3.94918   3.96499   3.97269   3.97398
 Alpha virt. eigenvalues --    3.98569   3.99863   4.00406   4.02174   4.02235
 Alpha virt. eigenvalues --    4.02393   4.02891   4.04396   4.04446   4.05446
 Alpha virt. eigenvalues --    4.06968   4.08739   4.09811   4.10346   4.11205
 Alpha virt. eigenvalues --    4.11850   4.11932   4.15921   4.16036   4.16473
 Alpha virt. eigenvalues --    4.16950   4.17923   4.20861   4.23018   4.23727
 Alpha virt. eigenvalues --    4.25286   4.25898   4.27744   4.29567   4.31260
 Alpha virt. eigenvalues --    4.32349   4.32447   4.38681   4.41699   4.42898
 Alpha virt. eigenvalues --    4.43241   4.44438   4.47046   4.47598   4.49750
 Alpha virt. eigenvalues --    4.51434   4.52351   4.52793   4.55377   4.55449
 Alpha virt. eigenvalues --    4.59787   4.61743   4.63886   4.66057   4.68550
 Alpha virt. eigenvalues --    4.69491   4.71707   4.71739   4.73050   4.74922
 Alpha virt. eigenvalues --    4.76747   4.81415   4.84468   4.85172   4.86281
 Alpha virt. eigenvalues --    4.87982   4.88023   4.89645   4.89939   4.90635
 Alpha virt. eigenvalues --    4.91333   4.93351   4.94983   5.02437   5.05004
 Alpha virt. eigenvalues --    5.10878   5.12605   5.14842   5.16832   5.19230
 Alpha virt. eigenvalues --    5.24162   5.26775   5.28508   5.32643   5.36026
 Alpha virt. eigenvalues --    5.39748   5.42865   5.44454   5.52835   5.54073
 Alpha virt. eigenvalues --    5.55054   5.58625   5.61902   5.64803   5.68206
 Alpha virt. eigenvalues --    5.69463   5.71466   5.79301   5.87822   6.01759
 Alpha virt. eigenvalues --    6.03564   6.37480   6.44718   8.03160   9.40088
 Alpha virt. eigenvalues --   10.82974  11.30858  11.81147  12.03395  12.15298
 Alpha virt. eigenvalues --   12.58983  12.63521  12.68606  13.31005  13.79212
 Alpha virt. eigenvalues --   14.44662  14.67976
          Condensed to atoms (all electrons):
               1          2          3          4          5          6
     1  C    4.948848   0.499950  -0.066687  -0.019230   0.000079  -0.000002
     2  C    0.499950   4.809259   0.474398  -0.047909  -0.000004  -0.000000
     3  C   -0.066687   0.474398   4.899310   0.524082   0.000010  -0.000000
     4  C   -0.019230  -0.047909   0.524082   4.942434  -0.000345   0.000010
     5  C    0.000079  -0.000004   0.000010  -0.000345   4.942434   0.524082
     6  C   -0.000002  -0.000000  -0.000000   0.000010   0.524082   4.899310
     7  C    0.000008  -0.000000  -0.000000  -0.000004  -0.047909   0.474398
     8  C   -0.000223   0.000008  -0.000002   0.000079  -0.019230  -0.066687
     9  C   -0.052314   0.003839  -0.000821   0.004625   0.004625  -0.000821
    10  C    0.003927  -0.001361   0.005441  -0.035935  -0.035935   0.005441
    11  C    0.453909  -0.035726  -0.041154  -0.061524  -0.000582   0.000083
    12  C   -0.042875  -0.022308  -0.051057   0.393194   0.004480  -0.000415
    13  C    0.004999  -0.000144   0.000083  -0.000582  -0.061524  -0.041154
    14  C    0.000377  -0.000039  -0.000415   0.004480   0.393194  -0.051057
    15  H    0.432113  -0.040210   0.005461  -0.000578  -0.000000   0.000000
    16  H   -0.044826   0.433306  -0.036428   0.004336   0.000000  -0.000000
    17  H    0.005533  -0.038227   0.426672  -0.043754  -0.000000   0.000000
    18  H   -0.000285   0.002891  -0.024240   0.440469  -0.000012   0.000001
    19  H   -0.000120   0.000026   0.000075  -0.000973  -0.000973   0.000075
    20  H    0.000000  -0.000000   0.000001  -0.000012   0.440469  -0.024240
    21  H    0.000000   0.000000   0.000000  -0.000000  -0.043754   0.426672
    22  H   -0.000000   0.000000  -0.000000   0.000000   0.004336  -0.036428
    23  H    0.000016   0.000001   0.000000  -0.000000  -0.000578   0.005461
    24  H   -0.012450   0.000017  -0.000054   0.000237  -0.000148   0.000149
    25  H   -0.002672  -0.000315   0.000149  -0.000148   0.000237  -0.000054
               7          8          9         10         11         12
     1  C    0.000008  -0.000223  -0.052314   0.003927   0.453909  -0.042875
     2  C   -0.000000   0.000008   0.003839  -0.001361  -0.035726  -0.022308
     3  C   -0.000000  -0.000002  -0.000821   0.005441  -0.041154  -0.051057
     4  C   -0.000004   0.000079   0.004625  -0.035935  -0.061524   0.393194
     5  C   -0.047909  -0.019230   0.004625  -0.035935  -0.000582   0.004480
     6  C    0.474398  -0.066687  -0.000821   0.005441   0.000083  -0.000415
     7  C    4.809259   0.499950   0.003839  -0.001361  -0.000144  -0.000039
     8  C    0.499950   4.948848  -0.052314   0.003927   0.004999   0.000377
     9  C    0.003839  -0.052314   5.008642  -0.020801   0.361480  -0.048276
    10  C   -0.001361   0.003927  -0.020801   4.828168  -0.047438   0.481405
    11  C   -0.000144   0.004999   0.361480  -0.047438   5.054851   0.383467
    12  C   -0.000039   0.000377  -0.048276   0.481405   0.383467   5.013208
    13  C   -0.035726   0.453909   0.361480  -0.047438  -0.046746  -0.019849
    14  C   -0.022308  -0.042875  -0.048276   0.481405  -0.019849  -0.071524
    15  H    0.000001   0.000016   0.003348  -0.000030  -0.048380   0.005025
    16  H    0.000000  -0.000000  -0.000285   0.000043   0.006578  -0.000783
    17  H    0.000000   0.000000   0.000053  -0.000312  -0.000614   0.007310
    18  H   -0.000000   0.000000  -0.000120   0.000580   0.004114  -0.057057
    19  H    0.000026  -0.000120  -0.000055   0.416185   0.003754  -0.028102
    20  H    0.002891  -0.000285  -0.000120   0.000580  -0.000008   0.000528
    21  H   -0.038227   0.005533   0.000053  -0.000312  -0.000007   0.000019
    22  H    0.433306  -0.044826  -0.000285   0.000043   0.000013  -0.000003
    23  H   -0.040210   0.432113   0.003348  -0.000030   0.000477  -0.000041
    24  H   -0.000315  -0.002672   0.383119  -0.000618  -0.028433   0.007351
    25  H    0.000017  -0.012450   0.383119  -0.000618  -0.026065   0.000730
              13         14         15         16         17         18
     1  C    0.004999   0.000377   0.432113  -0.044826   0.005533  -0.000285
     2  C   -0.000144  -0.000039  -0.040210   0.433306  -0.038227   0.002891
     3  C    0.000083  -0.000415   0.005461  -0.036428   0.426672  -0.024240
     4  C   -0.000582   0.004480  -0.000578   0.004336  -0.043754   0.440469
     5  C   -0.061524   0.393194  -0.000000   0.000000  -0.000000  -0.000012
     6  C   -0.041154  -0.051057   0.000000  -0.000000   0.000000   0.000001
     7  C   -0.035726  -0.022308   0.000001   0.000000   0.000000  -0.000000
     8  C    0.453909  -0.042875   0.000016  -0.000000   0.000000   0.000000
     9  C    0.361480  -0.048276   0.003348  -0.000285   0.000053  -0.000120
    10  C   -0.047438   0.481405  -0.000030   0.000043  -0.000312   0.000580
    11  C   -0.046746  -0.019849  -0.048380   0.006578  -0.000614   0.004114
    12  C   -0.019849  -0.071524   0.005025  -0.000783   0.007310  -0.057057
    13  C    5.054851   0.383467   0.000477   0.000013  -0.000007  -0.000008
    14  C    0.383467   5.013208  -0.000041  -0.000003   0.000019   0.000528
    15  H    0.000477  -0.000041   0.489657  -0.005350  -0.000181   0.000021
    16  H    0.000013  -0.000003  -0.005350   0.493720  -0.005234  -0.000075
    17  H   -0.000007   0.000019  -0.000181  -0.005234   0.507924  -0.004885
    18  H   -0.000008   0.000528   0.000021  -0.000075  -0.004885   0.479793
    19  H    0.003754  -0.028102   0.000006  -0.000001  -0.000018   0.002240
    20  H    0.004114  -0.057057  -0.000000   0.000000   0.000000  -0.000001
    21  H   -0.000614   0.007310  -0.000000   0.000000  -0.000000   0.000000
    22  H    0.006578  -0.000783  -0.000000  -0.000000   0.000000   0.000000
    23  H   -0.048380   0.005025   0.000008  -0.000000  -0.000000  -0.000000
    24  H   -0.026065   0.000730  -0.000009   0.000006  -0.000001   0.000007
    25  H   -0.028433   0.007351   0.000560  -0.000025   0.000001   0.000005
              19         20         21         22         23         24
     1  C   -0.000120   0.000000   0.000000  -0.000000   0.000016  -0.012450
     2  C    0.000026  -0.000000   0.000000   0.000000   0.000001   0.000017
     3  C    0.000075   0.000001   0.000000  -0.000000   0.000000  -0.000054
     4  C   -0.000973  -0.000012  -0.000000   0.000000  -0.000000   0.000237
     5  C   -0.000973   0.440469  -0.043754   0.004336  -0.000578  -0.000148
     6  C    0.000075  -0.024240   0.426672  -0.036428   0.005461   0.000149
     7  C    0.000026   0.002891  -0.038227   0.433306  -0.040210  -0.000315
     8  C   -0.000120  -0.000285   0.005533  -0.044826   0.432113  -0.002672
     9  C   -0.000055  -0.000120   0.000053  -0.000285   0.003348   0.383119
    10  C    0.416185   0.000580  -0.000312   0.000043  -0.000030  -0.000618
    11  C    0.003754  -0.000008  -0.000007   0.000013   0.000477  -0.028433
    12  C   -0.028102   0.000528   0.000019  -0.000003  -0.000041   0.007351
    13  C    0.003754   0.004114  -0.000614   0.006578  -0.048380  -0.026065
    14  C   -0.028102  -0.057057   0.007310  -0.000783   0.005025   0.000730
    15  H    0.000006  -0.000000  -0.000000  -0.000000   0.000008  -0.000009
    16  H   -0.000001   0.000000   0.000000  -0.000000  -0.000000   0.000006
    17  H   -0.000018   0.000000  -0.000000   0.000000  -0.000000  -0.000001
    18  H    0.002240  -0.000001   0.000000   0.000000  -0.000000   0.000007
    19  H    0.456648   0.002240  -0.000018  -0.000001   0.000006   0.000011
    20  H    0.002240   0.479793  -0.004885  -0.000075   0.000021   0.000005
    21  H   -0.000018  -0.004885   0.507924  -0.005234  -0.000181   0.000001
    22  H   -0.000001  -0.000075  -0.005234   0.493720  -0.005350  -0.000025
    23  H    0.000006   0.000021  -0.000181  -0.005350   0.489657   0.000560
    24  H    0.000011   0.000005   0.000001  -0.000025   0.000560   0.520354
    25  H    0.000011   0.000007  -0.000001   0.000006  -0.000009  -0.041326
              25
     1  C   -0.002672
     2  C   -0.000315
     3  C    0.000149
     4  C   -0.000148
     5  C    0.000237
     6  C   -0.000054
     7  C    0.000017
     8  C   -0.012450
     9  C    0.383119
    10  C   -0.000618
    11  C   -0.026065
    12  C    0.000730
    13  C   -0.028433
    14  C    0.007351
    15  H    0.000560
    16  H   -0.000025
    17  H    0.000001
    18  H    0.000005
    19  H    0.000011
    20  H    0.000007
    21  H   -0.000001
    22  H    0.000006
    23  H   -0.000009
    24  H   -0.041326
    25  H    0.520354
 Mulliken charges:
               1
     1  C   -0.108074
     2  C   -0.037452
     3  C   -0.114822
     4  C   -0.102950
     5  C   -0.102950
     6  C   -0.114822
     7  C   -0.037452
     8  C   -0.108074
     9  C   -0.297085
    10  C   -0.034954
    11  C    0.082943
    12  C    0.045238
    13  C    0.082943
    14  C    0.045238
    15  H    0.158085
    16  H    0.155008
    17  H    0.145721
    18  H    0.156035
    19  H    0.173429
    20  H    0.156035
    21  H    0.145721
    22  H    0.155008
    23  H    0.158085
    24  H    0.199570
    25  H    0.199570
 Sum of Mulliken charges =   1.00000
 Mulliken charges with hydrogens summed into heavy atoms:
               1
     1  C    0.050012
     2  C    0.117556
     3  C    0.030900
     4  C    0.053086
     5  C    0.053086
     6  C    0.030900
     7  C    0.117556
     8  C    0.050012
     9  C    0.102056
    10  C    0.138475
    11  C    0.082943
    12  C    0.045238
    13  C    0.082943
    14  C    0.045238
 Electronic spatial extent (au):  <R**2>=           2896.3124
 Charge=              1.0000 electrons
 Dipole moment (field-independent basis, Debye):
    X=             -0.0000    Y=              0.0000    Z=              0.0772  Tot=              0.0772
 Quadrupole moment (field-independent basis, Debye-Ang):
   XX=            -84.6387   YY=            -33.8987   ZZ=            -52.8152
   XY=              0.0770   XZ=             -0.0000   YZ=              0.0000
 Traceless Quadrupole moment (field-independent basis, Debye-Ang):
   XX=            -27.5212   YY=             23.2189   ZZ=              4.3023
   XY=              0.0770   XZ=             -0.0000   YZ=              0.0000
 Octapole moment (field-independent basis, Debye-Ang**2):
  XXX=              0.0000  YYY=              0.0000  ZZZ=              4.7241  XYY=              0.0000
  XXY=             -0.0000  XXZ=             -2.8282  XZZ=              0.0000  YZZ=              0.0000
  YYZ=            -10.0607  XYZ=              0.3845
 Hexadecapole moment (field-independent basis, Debye-Ang**3):
 XXXX=           -101.9183 YYYY=          -2198.9748 ZZZZ=           -625.1861 XXXY=             14.4414
 XXXZ=              0.0000 YYYX=             15.2205 YYYZ=              0.0000 ZZZX=              0.0000
 ZZZY=              0.0000 XXYY=           -593.0947 XXZZ=           -153.8752 YYZZ=           -506.8855
 XXYZ=             -0.0000 YYXZ=              0.0000 ZZXY=              4.0888
 N-N= 7.698254804808D+02 E-N=-2.774291209112D+03  KE= 5.353319242841D+02
 Symmetry A    KE= 3.008388115366D+02
 Symmetry B    KE= 2.344931127475D+02
 Unable to Open any file for archive entry.
 1\1\GINC-GADI-CPU-CLX-1570\SP\RM062X TD-FC\CC-pVTZ\C14H11(1+)\TS1578\2
 6-Jul-2022\0\\#n M062X/cc-pvtz TD EmpiricalDispersion=GD3 SP\\SP_-4\\1
 ,1\C,0,2.4927,1.4331,0.\C,0,3.7015,0.7527,0.032\C,0,3.6839,-0.6691,0.0
 64\C,0,2.4632,-1.4789,0.032\C,0,-2.4632,-1.4789,-0.032\C,0,-3.6839,-0.
 6691,-0.064\C,0,-3.7015,0.7527,-0.032\C,0,-2.4927,1.4331,0.\C,0,0.,1.4
 941,0.\C,0,0.,-1.5365,0.\C,0,1.2621,0.6497,-0.044\C,0,1.2375,-0.7581,0
 .004\C,0,-1.2621,0.6497,0.044\C,0,-1.2375,-0.7581,-0.004\H,0,2.4881,2.
 4723,0.\H,0,4.6368,1.2924,0.028\H,0,4.6093,-1.2597,0.008\H,0,2.4675,-2
 .5174,0.032\H,0,0.,-2.6016,0.\H,0,-2.4675,-2.5174,-0.032\H,0,-4.6093,-
 1.2597,-0.008\H,0,-4.6368,1.2924,-0.028\H,0,-2.4881,2.4723,0.\H,0,0.,2
 .3305,-0.8596\H,0,0.,2.3305,0.8596\\Version=ES64L-G16RevC.01\State=1-A
 \HF=-539.7541999\RMSD=3.368e-09\PG=C02 [C2(C1C1H1),X(C12H10)]\\@
 The archive entry for this job was punched.


 GETTING A SIMPLE ANSWER FROM A PROFESSOR IS LIKE
 GETTING A THIMBLE OF WATER FROM A FIRE HYDRANT.
     -- PROF. LEN SHAPIRO, NDSU
 Job cpu time:       0 days  1 hours 47 minutes 51.7 seconds.
 Elapsed time:       0 days  0 hours  6 minutes 49.0 seconds.
 File lengths (MBytes):  RWF=    833 Int=      0 D2E=      0 Chk=     49 Scr=      1
 Normal termination of Gaussian 16 at Tue Jul 26 12:31:43 2022.
