 Entering Gaussian System, Link 0=g16
 Initial command:
 /apps/gaussian/g16c01/g16/l1.exe "/jobfs/52676472.gadi-pbs/Gau-2726244.inp" -scrdir="/jobfs/52676472.gadi-pbs/"
 Entering Link 1 = /apps/gaussian/g16c01/g16/l1.exe PID=   2726245.
  
 Copyright (c) 1988-2019, Gaussian, Inc.  All Rights Reserved.
  
 This is part of the Gaussian(R) 16 program.  It is based on
 the Gaussian(R) 09 system (copyright 2009, Gaussian, Inc.),
 the Gaussian(R) 03 system (copyright 2003, Gaussian, Inc.),
 the Gaussian(R) 98 system (copyright 1998, Gaussian, Inc.),
 the Gaussian(R) 94 system (copyright 1995, Gaussian, Inc.),
 the Gaussian 92(TM) system (copyright 1992, Gaussian, Inc.),
 the Gaussian 90(TM) system (copyright 1990, Gaussian, Inc.),
 the Gaussian 88(TM) system (copyright 1988, Gaussian, Inc.),
 the Gaussian 86(TM) system (copyright 1986, Carnegie Mellon
 University), and the Gaussian 82(TM) system (copyright 1983,
 Carnegie Mellon University). Gaussian is a federally registered
 trademark of Gaussian, Inc.
  
 This software contains proprietary and confidential information,
 including trade secrets, belonging to Gaussian, Inc.
  
 This software is provided under written license and may be
 used, copied, transmitted, or stored only in accord with that
 written license.
  
 The following legend is applicable only to US Government
 contracts under FAR:
  
                    RESTRICTED RIGHTS LEGEND
  
 Use, reproduction and disclosure by the US Government is
 subject to restrictions as set forth in subparagraphs (a)
 and (c) of the Commercial Computer Software - Restricted
 Rights clause in FAR 52.227-19.
  
 Gaussian, Inc.
 340 Quinnipiac St., Bldg. 40, Wallingford CT 06492
  
  
 ---------------------------------------------------------------
 Warning -- This program may not be used in any manner that
 competes with the business of Gaussian, Inc. or will provide
 assistance to any competitor of Gaussian, Inc.  The licensee
 of this program is prohibited from giving any competitor of
 Gaussian, Inc. access to this program.  By using this program,
 the user acknowledges that Gaussian, Inc. is engaged in the
 business of creating and licensing software in the field of
 computational chemistry and represents and warrants to the
 licensee that it is not a competitor of Gaussian, Inc. and that
 it will not use this program in any manner prohibited above.
 ---------------------------------------------------------------
  

 Cite this work as:
 Gaussian 16, Revision C.01,
 M. J. Frisch, G. W. Trucks, H. B. Schlegel, G. E. Scuseria, 
 M. A. Robb, J. R. Cheeseman, G. Scalmani, V. Barone, 
 G. A. Petersson, H. Nakatsuji, X. Li, M. Caricato, A. V. Marenich, 
 J. Bloino, B. G. Janesko, R. Gomperts, B. Mennucci, H. P. Hratchian, 
 J. V. Ortiz, A. F. Izmaylov, J. L. Sonnenberg, D. Williams-Young, 
 F. Ding, F. Lipparini, F. Egidi, J. Goings, B. Peng, A. Petrone, 
 T. Henderson, D. Ranasinghe, V. G. Zakrzewski, J. Gao, N. Rega, 
 G. Zheng, W. Liang, M. Hada, M. Ehara, K. Toyota, R. Fukuda, 
 J. Hasegawa, M. Ishida, T. Nakajima, Y. Honda, O. Kitao, H. Nakai, 
 T. Vreven, K. Throssell, J. A. Montgomery, Jr., J. E. Peralta, 
 F. Ogliaro, M. J. Bearpark, J. J. Heyd, E. N. Brothers, K. N. Kudin, 
 V. N. Staroverov, T. A. Keith, R. Kobayashi, J. Normand, 
 K. Raghavachari, A. P. Rendell, J. C. Burant, S. S. Iyengar, 
 J. Tomasi, M. Cossi, J. M. Millam, M. Klene, C. Adamo, R. Cammi, 
 J. W. Ochterski, R. L. Martin, K. Morokuma, O. Farkas, 
 J. B. Foresman, and D. J. Fox, Gaussian, Inc., Wallingford CT, 2019.
 
 ******************************************
 Gaussian 16:  ES64L-G16RevC.01  3-Jul-2019
                26-Jul-2022 
 ******************************************
 %NProcShared=16
 Will use up to   16 processors via shared memory.
 %mem = 64GB
 ----------------------------------------------
 #n M062X/cc-pvtz TD EmpiricalDispersion=GD3 SP
 ----------------------------------------------
 1/38=1,172=1/1;
 2/12=2,17=6,18=5,40=1/2;
 3/5=16,6=1,11=9,25=1,30=1,74=-55,124=31/1,2,3,8;
 4//1;
 5/5=2,38=5/2;
 8/6=1,10=1/1;
 9/42=1,70=2/14;
 6/7=2,8=2,9=2,10=2/1;
 99/5=1,9=1/99;
 -----
 SP_-1
 -----
 Symbolic Z-matrix:
 Charge =  1 Multiplicity = 1
 C                     2.4927    1.3851    0. 
 C                     3.7015    0.6987    0.008 
 C                     3.6839   -0.6961    0.016 
 C                     2.4632   -1.4189    0.008 
 C                    -2.4632   -1.4189   -0.008 
 C                    -3.6839   -0.6961   -0.016 
 C                    -3.7015    0.6987   -0.008 
 C                    -2.4927    1.3851    0. 
 C                     0.        1.4701    0. 
 C                     0.       -1.4495    0. 
 C                     1.2621    0.6767   -0.011 
 C                     1.2375   -0.7311    0.001 
 C                    -1.2621    0.6767    0.011 
 C                    -1.2375   -0.7311   -0.001 
 H                     2.4881    2.4573    0. 
 H                     4.6368    1.2384    0.007 
 H                     4.6093   -1.2627    0.002 
 H                     2.4675   -2.4904    0.008 
 H                     0.       -2.5266    0. 
 H                    -2.4675   -2.4904   -0.008 
 H                    -4.6093   -1.2627   -0.002 
 H                    -4.6368    1.2384   -0.007 
 H                    -2.4881    2.4573    0. 
 H                     0.        2.1985   -0.8596 
 H                     0.        2.1985    0.8596 
 
                          Input orientation:                          
 ---------------------------------------------------------------------
 Center     Atomic      Atomic             Coordinates (Angstroms)
 Number     Number       Type             X           Y           Z
 ---------------------------------------------------------------------
      1          6           0        2.492700    1.385100    0.000000
      2          6           0        3.701500    0.698700    0.008000
      3          6           0        3.683900   -0.696100    0.016000
      4          6           0        2.463200   -1.418900    0.008000
      5          6           0       -2.463200   -1.418900   -0.008000
      6          6           0       -3.683900   -0.696100   -0.016000
      7          6           0       -3.701500    0.698700   -0.008000
      8          6           0       -2.492700    1.385100    0.000000
      9          6           0        0.000000    1.470100    0.000000
     10          6           0        0.000000   -1.449500    0.000000
     11          6           0        1.262100    0.676700   -0.011000
     12          6           0        1.237500   -0.731100    0.001000
     13          6           0       -1.262100    0.676700    0.011000
     14          6           0       -1.237500   -0.731100   -0.001000
     15          1           0        2.488100    2.457300    0.000000
     16          1           0        4.636800    1.238400    0.007000
     17          1           0        4.609300   -1.262700    0.002000
     18          1           0        2.467500   -2.490400    0.008000
     19          1           0        0.000000   -2.526600    0.000000
     20          1           0       -2.467500   -2.490400   -0.008000
     21          1           0       -4.609300   -1.262700   -0.002000
     22          1           0       -4.636800    1.238400   -0.007000
     23          1           0       -2.488100    2.457300    0.000000
     24          1           0        0.000000    2.198500   -0.859600
     25          1           0        0.000000    2.198500    0.859600
 ---------------------------------------------------------------------
                    Distance matrix (angstroms):
                    1          2          3          4          5
     1  C    0.000000
     2  C    1.390110   0.000000
     3  C    2.398042   1.394934   0.000000
     4  C    2.804167   2.453083   1.418666   0.000000
     5  C    5.694157   6.518283   6.189495   4.926426   0.000000
     6  C    6.517825   7.515995   7.367869   6.189495   1.418666
     7  C    6.232120   7.403017   7.515995   6.518283   2.453083
     8  C    4.985400   6.232120   6.517825   5.694157   2.804167
     9  C    2.494149   3.781035   4.273616   3.796543   3.796543
    10  C    3.774720   4.279711   3.760184   2.463403   2.463403
    11  C    1.419975   2.439573   2.783958   2.415480   4.274273
    12  C    2.460453   2.848802   2.446696   1.405510   3.764084
    13  C    3.821057   4.963650   5.132984   4.274273   2.415480
    14  C    4.288671   5.141802   4.921554   3.764084   1.405510
    15  H    1.072210   2.136604   3.372555   3.876288   6.288113
    16  H    2.149124   1.079844   2.156476   3.433043   7.580994
    17  H    3.389815   2.161302   1.085171   2.151785   7.074232
    18  H    3.875590   3.419520   2.167765   1.071509   5.045807
    19  H    4.638421   4.909555   4.113649   2.700818   2.700818
    20  H    6.294692   6.944579   6.407793   5.045807   1.071509
    21  H    7.579529   8.539121   8.312552   7.074232   2.151785
    22  H    7.131013   8.355761   8.542650   7.580994   3.433043
    23  H    5.094898   6.434585   6.930929   6.288113   3.876288
    24  H    2.759363   4.086959   4.766183   4.461577   4.458493
    25  H    2.759363   4.083592   4.760409   4.458493   4.461577
                    6          7          8          9         10
     6  C    0.000000
     7  C    1.394934   0.000000
     8  C    2.398042   1.390110   0.000000
     9  C    4.273616   3.781035   2.494149   0.000000
    10  C    3.760184   4.279711   3.774720   2.919600   0.000000
    11  C    5.132984   4.963650   3.821057   1.490805   2.472599
    12  C    4.921554   5.141802   4.288671   2.525211   1.430911
    13  C    2.783958   2.439573   1.419975   1.490805   2.472599
    14  C    2.446696   2.848802   2.460453   2.525211   1.430911
    15  H    6.930929   6.434585   5.094898   2.676790   4.631817
    16  H    8.542650   8.355761   7.131013   4.642591   5.359549
    17  H    8.312552   8.539121   7.579529   5.358530   4.613084
    18  H    6.407793   6.944579   6.294692   4.666281   2.678076
    19  H    4.113649   4.909555   4.638421   3.996700   1.077100
    20  H    2.167765   3.419520   3.875590   4.666281   2.678076
    21  H    1.085171   2.161302   3.389815   5.358530   4.613084
    22  H    2.156476   1.079844   2.149124   4.642591   5.359549
    23  H    3.372555   2.136604   1.072210   2.676790   4.631817
    24  H    4.760409   4.083592   2.759363   1.126711   3.747908
    25  H    4.766183   4.086959   2.759363   1.126711   3.747908
                   11         12         13         14         15
    11  C    0.000000
    12  C    1.408066   0.000000
    13  C    2.524296   2.868798   0.000000
    14  C    2.868798   2.475001   1.408066   0.000000
    15  H    2.161882   3.424894   4.151464   4.903671   0.000000
    16  H    3.421174   3.928639   5.925584   6.195675   2.470360
    17  H    3.868487   3.413449   6.183421   5.870918   4.282277
    18  H    3.388786   2.146645   4.892898   4.101493   4.947749
    19  H    3.442985   2.180648   3.442985   2.180648   5.570449
    20  H    4.892898   4.101493   3.388786   2.146645   7.002697
    21  H    6.183421   5.870918   3.868487   3.413449   8.013207
    22  H    5.925584   6.195675   3.421174   3.928639   7.228414
    23  H    4.151464   4.903671   2.161882   3.424894   4.976200
    24  H    2.151486   3.294631   2.160258   3.294109   2.645096
    25  H    2.160258   3.294109   2.151486   3.294631   2.645096
                   16         17         18         19         20
    16  H    0.000000
    17  H    2.501256   0.000000
    18  H    4.313909   2.468722   0.000000
    19  H    5.972871   4.779445   2.467778   0.000000
    20  H    8.023419   7.182510   4.935026   2.467778   0.000000
    21  H    9.578410   9.218601   7.182510   4.779445   2.468722
    22  H    9.273611   9.578410   8.023419   5.972871   4.313909
    23  H    7.228414   8.013207   7.002697   5.570449   4.947749
    24  H    4.813803   5.828199   5.369085   4.802654   5.366522
    25  H    4.811303   5.827609   5.366522   4.802654   5.369085
                   21         22         23         24         25
    21  H    0.000000
    22  H    2.501256   0.000000
    23  H    4.282277   2.470360   0.000000
    24  H    5.827609   4.811303   2.645096   0.000000
    25  H    5.828199   4.813803   2.645096   1.719200   0.000000
 Stoichiometry    C14H11(1+)
 Framework group  C2[C2(HCC),X(C12H10)]
 Deg. of freedom    34
 Full point group                 C2      NOp   2
 Largest Abelian subgroup         C2      NOp   2
 Largest concise Abelian subgroup C2      NOp   2
                         Standard orientation:                         
 ---------------------------------------------------------------------
 Center     Atomic      Atomic             Coordinates (Angstroms)
 Number     Number       Type             X           Y           Z
 ---------------------------------------------------------------------
      1          6           0        0.000000    2.492700    1.376132
      2          6           0        0.008000    3.701500    0.689732
      3          6           0        0.016000    3.683900   -0.705068
      4          6           0        0.008000    2.463200   -1.427868
      5          6           0       -0.008000   -2.463200   -1.427868
      6          6           0       -0.016000   -3.683900   -0.705068
      7          6           0       -0.008000   -3.701500    0.689732
      8          6           0       -0.000000   -2.492700    1.376132
      9          6           0       -0.000000    0.000000    1.461132
     10          6           0        0.000000   -0.000000   -1.458468
     11          6           0       -0.011000    1.262100    0.667732
     12          6           0        0.001000    1.237500   -0.740068
     13          6           0        0.011000   -1.262100    0.667732
     14          6           0       -0.001000   -1.237500   -0.740068
     15          1           0        0.000000    2.488100    2.448332
     16          1           0        0.007000    4.636800    1.229432
     17          1           0        0.002000    4.609300   -1.271668
     18          1           0        0.008000    2.467500   -2.499368
     19          1           0        0.000000   -0.000000   -2.535568
     20          1           0       -0.008000   -2.467500   -2.499368
     21          1           0       -0.002000   -4.609300   -1.271668
     22          1           0       -0.007000   -4.636800    1.229432
     23          1           0       -0.000000   -2.488100    2.448332
     24          1           0       -0.859600    0.000000    2.189532
     25          1           0        0.859600   -0.000000    2.189532
 ---------------------------------------------------------------------
 Rotational constants (GHZ):           2.0941947           0.4446134           0.3675480
 Standard basis: CC-pVTZ (5D, 7F)
 There are   332 symmetry adapted cartesian basis functions of A   symmetry.
 There are   323 symmetry adapted cartesian basis functions of B   symmetry.
 There are   290 symmetry adapted basis functions of A   symmetry.
 There are   284 symmetry adapted basis functions of B   symmetry.
   574 basis functions,   915 primitive gaussians,   655 cartesian basis functions
    47 alpha electrons       47 beta electrons
       nuclear repulsion energy       778.3501533729 Hartrees.
 NAtoms=   25 NActive=   25 NUniq=   14 SFac= 3.19D+00 NAtFMM=   60 NAOKFM=F Big=F
 Integral buffers will be    131072 words long.
 Regular integral format.
 Two-electron integral symmetry is turned on.
 Nuclear repulsion after empirical dispersion term =      778.3491694263 Hartrees.
 One-electron integrals computed using PRISM.
 NBasis=   574 RedAO= T EigKep=  1.91D-05  NBF=   290   284
 NBsUse=   574 1.00D-06 EigRej= -1.00D+00 NBFU=   290   284
 ExpMin= 1.03D-01 ExpMax= 8.24D+03 ExpMxC= 2.81D+02 IAcc=3 IRadAn=         5 AccDes= 0.00D+00
 Harris functional with IExCor= 1009 and IRadAn=       5 diagonalized for initial guess.
 HarFok:  IExCor= 1009 AccDes= 0.00D+00 IRadAn=         5 IDoV= 1 UseB2=F ITyADJ=14
 ICtDFT=  3500011 ScaDFX=  1.000000  1.000000  1.000000  1.000000
 FoFCou: FMM=F IPFlag=           0 FMFlag=      100000 FMFlg1=           0
         NFxFlg=           0 DoJE=T BraDBF=F KetDBF=T FulRan=T
         wScrn=  0.000000 ICntrl=       500 IOpCl=  0 I1Cent=   200000004 NGrid=           0
         NMat0=    1 NMatS0=      1 NMatT0=    0 NMatD0=    1 NMtDS0=    0 NMtDT0=    0
 Petite list used in FoFCou.
 Initial guess orbital symmetries:
       Occupied  (B) (A) (A) (B) (A) (A) (B) (A) (B) (A) (B) (A)
                 (B) (A) (A) (B) (A) (A) (B) (B) (A) (A) (B) (A)
                 (B) (A) (B) (A) (A) (B) (B) (A) (B) (B) (A) (B)
                 (A) (A) (B) (A) (B) (B) (A) (B) (A) (A) (B)
       Virtual   (B) (B) (A) (A) (B) (A) (B) (A) (A) (B) (A) (B)
                 (B) (A) (B) (A) (A) (B) (A) (B) (A) (B) (A) (B)
                 (B) (A) (B) (A) (B) (A) (A) (B) (A) (A) (B) (B)
                 (A) (B) (B) (A) (B) (A) (B) (B) (A) (A) (B) (B)
                 (A) (B) (A) (A) (B) (A) (B) (A) (A) (A) (B) (A)
                 (B) (A) (B) (A) (B) (B) (A) (B) (A) (A) (B) (B)
                 (A) (A) (B) (A) (B) (A) (B) (B) (A) (B) (B) (A)
                 (A) (B) (A) (A) (A) (B) (B) (B) (A) (B) (A) (B)
                 (A) (B) (A) (B) (A) (A) (A) (B) (B) (B) (A) (A)
                 (B) (B) (A) (A) (A) (B) (A) (B) (B) (A) (B) (B)
                 (A) (B) (B) (B) (A) (A) (A) (A) (B) (A) (B) (A)
                 (B) (B) (B) (A) (A) (B) (B) (A) (A) (A) (B) (A)
                 (B) (B) (A) (B) (B) (A) (A) (A) (B) (B) (A) (A)
                 (B) (B) (A) (A) (B) (B) (B) (A) (A) (B) (A) (B)
                 (A) (B) (A) (A) (A) (B) (B) (B) (A) (B) (A) (A)
                 (B) (A) (B) (A) (B) (B) (A) (A) (B) (B) (A) (A)
                 (A) (B) (B) (A) (B) (A) (B) (A) (B) (B) (A) (A)
                 (B) (A) (B) (B) (A) (B) (A) (B) (A) (A) (B) (A)
                 (A) (B) (B) (B) (A) (B) (A) (A) (A) (B) (B) (A)
                 (B) (A) (B) (B) (A) (B) (A) (A) (B) (A) (B) (B)
                 (A) (A) (B) (B) (B) (A) (A) (B) (B) (B) (A) (B)
                 (A) (A) (B) (A) (B) (A) (A) (B) (A) (B) (B) (B)
                 (A) (A) (B) (A) (A) (A) (B) (B) (A) (B) (B) (B)
                 (A) (A) (B) (A) (A) (B) (B) (A) (A) (B) (A) (A)
                 (B) (B) (A) (B) (A) (A) (B) (B) (B) (B) (B) (A)
                 (A) (B) (B) (A) (A) (A) (B) (A) (A) (A) (B) (B)
                 (A) (B) (B) (B) (A) (A) (B) (B) (A) (A) (A) (A)
                 (B) (B) (A) (B) (B) (A) (B) (B) (A) (A) (A) (B)
                 (A) (A) (B) (B) (B) (A) (B) (A) (A) (A) (B) (A)
                 (A) (B) (A) (A) (B) (B) (B) (B) (B) (A) (A) (A)
                 (A) (B) (B) (A) (A) (B) (A) (A) (B) (A) (B) (A)
                 (A) (B) (B) (A) (B) (A) (B) (B) (A) (A) (B) (A)
                 (B) (A) (B) (A) (B) (A) (B) (B) (B) (A) (A) (B)
                 (A) (B) (A) (B) (A) (A) (B) (B) (A) (A) (B) (B)
                 (A) (A) (B) (B) (B) (A) (A) (A) (A) (A) (B) (A)
                 (B) (B) (B) (A) (A) (B) (B) (B) (B) (A) (B) (A)
                 (A) (B) (B) (B) (A) (A) (A) (A) (B) (A) (B) (A)
                 (B) (A) (B) (B) (B) (A) (A) (B) (A) (B) (A) (A)
                 (A) (B) (B) (B) (B) (A) (A) (B) (B) (B) (B) (A)
                 (A) (B) (A) (B) (A) (B) (A) (A) (B) (B) (A) (B)
                 (A) (B) (A) (A) (B) (B) (B) (A) (A) (B) (A) (A)
                 (B) (A) (A) (A) (B) (B) (B) (B) (A) (A) (A) (B)
                 (B) (B) (A) (A) (B) (A) (B) (A) (B) (A) (B) (A)
                 (B) (B) (A) (A) (B) (B) (A) (A) (A) (B) (A)
 The electronic state of the initial guess is 1-A.
 Requested convergence on RMS density matrix=1.00D-08 within 128 cycles.
 Requested convergence on MAX density matrix=1.00D-06.
 Requested convergence on             energy=1.00D-06.
 No special actions if energy rises.
 Integral accuracy reduced to 1.0D-05 until final iterations.
 Initial convergence to 1.0D-05 achieved.  Increase integral accuracy.
 SCF Done:  E(RM062X) =  -539.809551175     A.U. after   14 cycles
            NFock= 14  Conv=0.65D-08     -V/T= 2.0068
 DoSCS=F DFT=T ScalE2(SS,OS)=  1.000000  1.000000
 ExpMin= 1.03D-01 ExpMax= 8.24D+03 ExpMxC= 2.81D+02 IAcc=3 IRadAn=         5 AccDes= 0.00D+00
 HarFok:  IExCor=  205 AccDes= 0.00D+00 IRadAn=         5 IDoV=-2 UseB2=F ITyADJ=14
 ICtDFT= 12500011 ScaDFX=  1.000000  1.000000  1.000000  1.000000
 Range of M.O.s used for correlation:    15   574
 NBasis=   574 NAE=    47 NBE=    47 NFC=    14 NFV=     0
 NROrb=    560 NOA=    33 NOB=    33 NVA=   527 NVB=   527

 **** Warning!!: The largest alpha MO coefficient is  0.49553990D+02

 Orbital symmetries:
       Occupied  (A) (B) (A) (B) (A) (A) (A) (B) (B) (A) (B) (A)
                 (B) (A) (A) (B) (A) (A) (B) (B) (A) (A) (A) (B)
                 (B) (A) (B) (A) (A) (B) (A) (B) (B) (B) (A) (B)
                 (A) (B) (A) (A) (B) (A) (B) (B) (A) (A) (B)
       Virtual   (B) (B) (A) (A) (B) (A) (A) (B) (A) (B) (B) (B)
                 (A) (B) (A) (A) (A) (B) (B) (A) (B) (A) (A) (B)
                 (A) (A) (B) (B) (A) (B) (B) (A) (A) (B) (A) (B)
                 (A) (B) (A) (B) (A) (B) (B) (A) (B) (A) (B) (A)
                 (B) (A) (B) (A) (B) (B) (A) (A) (A) (B) (A) (A)
                 (A) (B) (B) (B) (B) (B) (A) (A) (A) (A) (B) (B)
                 (A) (B) (A) (A) (B) (A) (B) (A) (B) (B) (A) (B)
                 (A) (B) (B) (A) (A) (A) (B) (B) (B) (A) (B) (A)
                 (A) (B) (A) (B) (A) (A) (B) (A) (B) (A) (A) (B)
                 (B) (A) (A) (B) (B) (A) (B) (A) (B) (B) (A) (A)
                 (B) (B) (B) (A) (A) (B) (A) (B) (A) (A) (B) (A)
                 (B) (B) (B) (A) (B) (A) (B) (A) (A) (A) (B) (A)
                 (B) (B) (B) (A) (A) (A) (B) (A) (B) (B) (A) (B)
                 (B) (A) (A) (A) (B) (B) (A) (B) (A) (B) (A) (A)
                 (B) (B) (A) (A) (B) (B) (A) (A) (B) (B) (A) (B)
                 (B) (A) (A) (A) (B) (A) (B) (B) (A) (B) (A) (A)
                 (A) (B) (B) (A) (B) (A) (B) (A) (B) (B) (A) (A)
                 (B) (B) (A) (A) (B) (A) (B) (A) (B) (B) (A) (A)
                 (A) (B) (B) (B) (A) (B) (A) (A) (A) (B) (A) (B)
                 (B) (A) (B) (B) (A) (A) (B) (A) (B) (A) (B) (A)
                 (B) (B) (A) (B) (B) (A) (A) (B) (B) (A) (A) (B)
                 (B) (B) (A) (B) (A) (A) (B) (A) (A) (B) (B) (A)
                 (A) (B) (B) (A) (A) (A) (B) (B) (A) (B) (B) (B)
                 (A) (A) (B) (A) (A) (B) (A) (B) (A) (B) (A) (B)
                 (B) (A) (A) (A) (B) (A) (B) (B) (B) (A) (B) (A)
                 (B) (B) (B) (A) (A) (A) (A) (A) (B) (B) (A) (A)
                 (B) (B) (A) (B) (B) (A) (B) (B) (A) (A) (A) (A)
                 (A) (B) (B) (B) (A) (B) (A) (B) (A) (B) (A) (B)
                 (A) (B) (A) (B) (B) (A) (B) (A) (A) (A) (A) (B)
                 (A) (B) (A) (B) (A) (B) (B) (B) (A) (A) (B) (B)
                 (A) (A) (A) (B) (A) (A) (B) (B) (A) (A) (B) (A)
                 (A) (B) (A) (B) (B) (A) (B) (A) (B) (B) (A) (A)
                 (B) (A) (A) (B) (B) (A) (B) (B) (A) (A) (B) (B)
                 (A) (B) (A) (A) (B) (A) (B) (B) (A) (A) (B) (A)
                 (B) (A) (B) (B) (A) (A) (B) (A) (A) (A) (B) (A)
                 (B) (B) (B) (B) (A) (A) (B) (B) (A) (B) (B) (A)
                 (A) (B) (B) (A) (A) (B) (A) (B) (A) (B) (A) (B)
                 (A) (A) (B) (B) (B) (A) (A) (B) (A) (B) (A) (A)
                 (A) (B) (B) (B) (B) (A) (B) (A) (B) (B) (B) (A)
                 (A) (B) (B) (A) (B) (A) (A) (A) (B) (B) (A) (B)
                 (A) (B) (A) (A) (B) (B) (B) (A) (A) (B) (A) (A)
                 (A) (B) (A) (A) (B) (B) (B) (A) (B) (A) (A) (B)
                 (B) (B) (A) (A) (B) (A) (B) (A) (B) (A) (B) (A)
                 (B) (B) (A) (A) (B) (B) (A) (A) (A) (B) (A)
    12 initial guesses have been made.
 Convergence on wavefunction:    0.001000000000000
 Iteration     1 Dimension    12 NMult     0 NNew     12
 CISAX will form    12 AO SS matrices at one time.
 New state      2 was old state      3
 New state      3 was old state      2
 Iteration     2 Dimension    18 NMult    12 NNew      6
 Iteration     3 Dimension    24 NMult    18 NNew      6
 Iteration     4 Dimension    30 NMult    24 NNew      6
 Iteration     5 Dimension    36 NMult    30 NNew      6
 Iteration     6 Dimension    38 NMult    36 NNew      2
 ***********************************************************************
 Excited states from <AA,BB:AA,BB> singles matrix:
 ***********************************************************************
 
 Ground to excited state transition densities written to RWF  633
 Ground to excited state transition electric dipole moments (Au):
       state          X           Y           Z        Dip. S.      Osc.
         1         0.0000      0.0000      0.6429      0.4133      0.0277
         2        -0.0051      0.3230     -0.0000      0.1043      0.0081
         3         0.0017      2.4680     -0.0000      6.0911      0.5146
 Ground to excited state transition velocity dipole moments (Au):
       state          X           Y           Z        Dip. S.      Osc.
         1         0.0000      0.0000     -0.0684      0.0047      0.0310
         2         0.0007     -0.0369      0.0000      0.0014      0.0078
         3        -0.0002     -0.3221     -0.0000      0.1038      0.5458
 Ground to excited state transition magnetic dipole moments (Au):
       state          X           Y           Z
         1         0.0000     -0.0000     -0.0025
         2        -0.9428      0.0073      0.0000
         3        -1.0791     -0.0005     -0.0000
 Ground to excited state transition velocity quadrupole moments (Au):
       state          XX          YY          ZZ          XY          XZ          YZ
         1        -0.0085      0.2656      0.0254      0.0016      0.0000      0.0000
         2         0.0000      0.0000     -0.0000      0.0000     -0.0000     -0.2685
         3         0.0000      0.0000      0.0000      0.0000      0.0005     -0.1070
 <0|del|b> * <b|rxdel|0> + <0|del|b> * <b|delr+rdel|0>
 Rotatory Strengths (R) in cgs (10**-40 erg-esu-cm/Gauss)
       state          XX          YY          ZZ    R(velocity)    E-M Angle
         1         0.2270      0.9844     -0.0000      0.4038       90.00
         2        -0.8220     -2.4874     -2.2011     -1.8368       91.49
         3         0.8462      0.6203      0.4941      0.6536       89.94
 1/2[<0|r|b>*<b|rxdel|0> + (<0|rxdel|b>*<b|r|0>)*]
 Rotatory Strengths (R) in cgs (10**-40 erg-esu-cm/Gauss)
       state          XX          YY          ZZ     R(length)
         1        -0.0000      0.0000      1.1451      0.3817
         2        -3.3801     -1.6623      0.0000     -1.6808
         3         1.2664      0.8078     -0.0000      0.6914
  1/2[<0|del|b>*<b|r|0> + (<0|r|b>*<b|del|0>)*] (Au)
       state          X           Y           Z        Dip. S.   Osc.(frdel)
         1         0.0000      0.0000     -0.0440      0.0440      0.0293
         2        -0.0000     -0.0119     -0.0000      0.0119      0.0080
         3        -0.0000     -0.7950      0.0000      0.7950      0.5300

 Excitation energies and oscillator strengths:
 
 Excited State   1:      Singlet-A      2.7361 eV  453.13 nm  f=0.0277  <S**2>=0.000
      47 -> 48         0.70431
 This state for optimization and/or second-order correction.
 Total Energy, E(TD-HF/TD-DFT) =  -539.708999775    
 Copying the excited state density for this state as the 1-particle RhoCI density.
 
 Excited State   2:      Singlet-B      3.1583 eV  392.57 nm  f=0.0081  <S**2>=0.000
      45 -> 48        -0.45950
      46 -> 48         0.53064
 
 Excited State   3:      Singlet-B      3.4486 eV  359.52 nm  f=0.5146  <S**2>=0.000
      45 -> 48         0.53056
      46 -> 48         0.45451
 SavETr:  write IOETrn=   770 NScale= 10 NData=  16 NLR=1 NState=    3 LETran=      64.

 **********************************************************************

            Population analysis using the SCF Density.

 **********************************************************************

 Orbital symmetries:
       Occupied  (A) (B) (A) (B) (A) (A) (A) (B) (B) (A) (B) (A)
                 (B) (A) (A) (B) (A) (A) (B) (B) (A) (A) (A) (B)
                 (B) (A) (B) (A) (A) (B) (A) (B) (B) (B) (A) (B)
                 (A) (B) (A) (A) (B) (A) (B) (B) (A) (A) (B)
       Virtual   (B) (B) (A) (A) (B) (A) (A) (B) (A) (B) (B) (B)
                 (A) (B) (A) (A) (A) (B) (B) (A) (B) (A) (A) (B)
                 (A) (A) (B) (B) (A) (B) (B) (A) (A) (B) (A) (B)
                 (A) (B) (A) (B) (A) (B) (B) (A) (B) (A) (B) (A)
                 (B) (A) (B) (A) (B) (B) (A) (A) (A) (B) (A) (A)
                 (A) (B) (B) (B) (B) (B) (A) (A) (A) (A) (B) (B)
                 (A) (B) (A) (A) (B) (A) (B) (A) (B) (B) (A) (B)
                 (A) (B) (B) (A) (A) (A) (B) (B) (B) (A) (B) (A)
                 (A) (B) (A) (B) (A) (A) (B) (A) (B) (A) (A) (B)
                 (B) (A) (A) (B) (B) (A) (B) (A) (B) (B) (A) (A)
                 (B) (B) (B) (A) (A) (B) (A) (B) (A) (A) (B) (A)
                 (B) (B) (B) (A) (B) (A) (B) (A) (A) (A) (B) (A)
                 (B) (B) (B) (A) (A) (A) (B) (A) (B) (B) (A) (B)
                 (B) (A) (A) (A) (B) (B) (A) (B) (A) (B) (A) (A)
                 (B) (B) (A) (A) (B) (B) (A) (A) (B) (B) (A) (B)
                 (B) (A) (A) (A) (B) (A) (B) (B) (A) (B) (A) (A)
                 (A) (B) (B) (A) (B) (A) (B) (A) (B) (B) (A) (A)
                 (B) (B) (A) (A) (B) (A) (B) (A) (B) (B) (A) (A)
                 (A) (B) (B) (B) (A) (B) (A) (A) (A) (B) (A) (B)
                 (B) (A) (B) (B) (A) (A) (B) (A) (B) (A) (B) (A)
                 (B) (B) (A) (B) (B) (A) (A) (B) (B) (A) (A) (B)
                 (B) (B) (A) (B) (A) (A) (B) (A) (A) (B) (B) (A)
                 (A) (B) (B) (A) (A) (A) (B) (B) (A) (B) (B) (B)
                 (A) (A) (B) (A) (A) (B) (A) (B) (A) (B) (A) (B)
                 (B) (A) (A) (A) (B) (A) (B) (B) (B) (A) (B) (A)
                 (B) (B) (B) (A) (A) (A) (A) (A) (B) (B) (A) (A)
                 (B) (B) (A) (B) (B) (A) (B) (B) (A) (A) (A) (A)
                 (A) (B) (B) (B) (A) (B) (A) (B) (A) (B) (A) (B)
                 (A) (B) (A) (B) (B) (A) (B) (A) (A) (A) (A) (B)
                 (A) (B) (A) (B) (A) (B) (B) (B) (A) (A) (B) (B)
                 (A) (A) (A) (B) (A) (A) (B) (B) (A) (A) (B) (A)
                 (A) (B) (A) (B) (B) (A) (B) (A) (B) (B) (A) (A)
                 (B) (A) (A) (B) (B) (A) (B) (B) (A) (A) (B) (B)
                 (A) (B) (A) (A) (B) (A) (B) (B) (A) (A) (B) (A)
                 (B) (A) (B) (B) (A) (A) (B) (A) (A) (A) (B) (A)
                 (B) (B) (B) (B) (A) (A) (B) (B) (A) (B) (B) (A)
                 (A) (B) (B) (A) (A) (B) (A) (B) (A) (B) (A) (B)
                 (A) (A) (B) (B) (B) (A) (A) (B) (A) (B) (A) (A)
                 (A) (B) (B) (B) (B) (A) (B) (A) (B) (B) (B) (A)
                 (A) (B) (B) (A) (B) (A) (A) (A) (B) (B) (A) (B)
                 (A) (B) (A) (A) (B) (B) (B) (A) (A) (B) (A) (A)
                 (A) (B) (A) (A) (B) (B) (B) (A) (B) (A) (A) (B)
                 (B) (B) (A) (A) (B) (A) (B) (A) (B) (A) (B) (A)
                 (B) (B) (A) (A) (B) (B) (A) (A) (A) (B) (A)
 The electronic state is 1-A.
 Alpha  occ. eigenvalues --  -10.77813 -10.73358 -10.73357 -10.72467 -10.72467
 Alpha  occ. eigenvalues --  -10.71386 -10.71293 -10.71293 -10.70937 -10.70937
 Alpha  occ. eigenvalues --  -10.69919 -10.69919 -10.69756 -10.69756  -1.15871
 Alpha  occ. eigenvalues --   -1.11886  -1.06465  -1.05135  -1.01123  -0.99568
 Alpha  occ. eigenvalues --   -0.95466  -0.90454  -0.86320  -0.85449  -0.83746
 Alpha  occ. eigenvalues --   -0.78014  -0.75400  -0.74237  -0.69364  -0.69137
 Alpha  occ. eigenvalues --   -0.68199  -0.68026  -0.67204  -0.64629  -0.64494
 Alpha  occ. eigenvalues --   -0.62098  -0.61714  -0.59409  -0.59360  -0.58601
 Alpha  occ. eigenvalues --   -0.57028  -0.55553  -0.54076  -0.52210  -0.46432
 Alpha  occ. eigenvalues --   -0.45810  -0.44159
 Alpha virt. eigenvalues --   -0.26039  -0.14730  -0.13926  -0.12717  -0.07005
 Alpha virt. eigenvalues --   -0.05579  -0.05488  -0.04028  -0.02664  -0.01631
 Alpha virt. eigenvalues --   -0.00605   0.00368   0.00557   0.01757   0.02388
 Alpha virt. eigenvalues --    0.04027   0.04605   0.07084   0.07509   0.09439
 Alpha virt. eigenvalues --    0.09740   0.10565   0.12661   0.13646   0.14133
 Alpha virt. eigenvalues --    0.15427   0.15589   0.16376   0.16751   0.16844
 Alpha virt. eigenvalues --    0.17576   0.18056   0.18745   0.19450   0.20439
 Alpha virt. eigenvalues --    0.20851   0.22062   0.22243   0.22797   0.24403
 Alpha virt. eigenvalues --    0.25347   0.26256   0.26691   0.26928   0.27155
 Alpha virt. eigenvalues --    0.27814   0.28089   0.28331   0.29163   0.29398
 Alpha virt. eigenvalues --    0.29990   0.30313   0.30493   0.31220   0.31971
 Alpha virt. eigenvalues --    0.32850   0.33065   0.34303   0.34344   0.34529
 Alpha virt. eigenvalues --    0.35649   0.36972   0.38087   0.38426   0.38635
 Alpha virt. eigenvalues --    0.39039   0.39266   0.39795   0.40904   0.42548
 Alpha virt. eigenvalues --    0.43077   0.44708   0.44835   0.45506   0.46205
 Alpha virt. eigenvalues --    0.47644   0.48726   0.49500   0.49568   0.50835
 Alpha virt. eigenvalues --    0.52619   0.52992   0.55396   0.55490   0.57546
 Alpha virt. eigenvalues --    0.57945   0.58256   0.58415   0.61320   0.61367
 Alpha virt. eigenvalues --    0.61562   0.62492   0.63203   0.63401   0.65251
 Alpha virt. eigenvalues --    0.65963   0.66042   0.66566   0.67784   0.69576
 Alpha virt. eigenvalues --    0.69944   0.71159   0.71211   0.72300   0.74097
 Alpha virt. eigenvalues --    0.75006   0.76144   0.76639   0.76993   0.79333
 Alpha virt. eigenvalues --    0.79974   0.80720   0.81944   0.83856   0.84580
 Alpha virt. eigenvalues --    0.84984   0.86030   0.86069   0.86071   0.87755
 Alpha virt. eigenvalues --    0.88022   0.88618   0.89673   0.91710   0.92969
 Alpha virt. eigenvalues --    0.93141   0.94649   0.94779   0.95056   0.95430
 Alpha virt. eigenvalues --    0.96713   0.96864   0.98761   1.00811   1.02888
 Alpha virt. eigenvalues --    1.04460   1.04487   1.04859   1.05876   1.07209
 Alpha virt. eigenvalues --    1.07566   1.09228   1.10168   1.11323   1.12141
 Alpha virt. eigenvalues --    1.12430   1.13546   1.13737   1.14724   1.15278
 Alpha virt. eigenvalues --    1.16056   1.16518   1.17642   1.18263   1.19564
 Alpha virt. eigenvalues --    1.21067   1.21837   1.21964   1.23843   1.24177
 Alpha virt. eigenvalues --    1.25410   1.26645   1.27103   1.28192   1.28278
 Alpha virt. eigenvalues --    1.28936   1.29648   1.30821   1.31469   1.33026
 Alpha virt. eigenvalues --    1.34618   1.35157   1.37135   1.37327   1.37547
 Alpha virt. eigenvalues --    1.40859   1.41113   1.42661   1.43896   1.45120
 Alpha virt. eigenvalues --    1.46200   1.46357   1.46759   1.49304   1.51057
 Alpha virt. eigenvalues --    1.56044   1.56487   1.61881   1.62485   1.65315
 Alpha virt. eigenvalues --    1.67359   1.69401   1.72583   1.75699   1.80411
 Alpha virt. eigenvalues --    1.80592   1.81493   1.84796   1.86809   1.89500
 Alpha virt. eigenvalues --    1.90725   1.92130   1.92334   1.92847   1.93455
 Alpha virt. eigenvalues --    1.97688   2.00178   2.02823   2.03600   2.04148
 Alpha virt. eigenvalues --    2.04633   2.05591   2.07480   2.08225   2.09975
 Alpha virt. eigenvalues --    2.12805   2.13080   2.15220   2.16239   2.19206
 Alpha virt. eigenvalues --    2.22953   2.23105   2.23498   2.27167   2.27983
 Alpha virt. eigenvalues --    2.28569   2.29209   2.29744   2.31715   2.31854
 Alpha virt. eigenvalues --    2.32595   2.33752   2.34035   2.35082   2.36005
 Alpha virt. eigenvalues --    2.36108   2.37156   2.37913   2.38587   2.38706
 Alpha virt. eigenvalues --    2.38855   2.42703   2.43247   2.44940   2.46167
 Alpha virt. eigenvalues --    2.48052   2.49886   2.50217   2.52500   2.52783
 Alpha virt. eigenvalues --    2.53903   2.55033   2.56905   2.57051   2.57093
 Alpha virt. eigenvalues --    2.57602   2.57678   2.58837   2.59323   2.59695
 Alpha virt. eigenvalues --    2.61215   2.61571   2.64386   2.64546   2.64974
 Alpha virt. eigenvalues --    2.64988   2.66936   2.67831   2.69564   2.70078
 Alpha virt. eigenvalues --    2.71831   2.73685   2.74179   2.74859   2.75562
 Alpha virt. eigenvalues --    2.75926   2.76438   2.77235   2.78689   2.79303
 Alpha virt. eigenvalues --    2.80172   2.80958   2.81474   2.81976   2.83255
 Alpha virt. eigenvalues --    2.84222   2.84694   2.85123   2.85156   2.85259
 Alpha virt. eigenvalues --    2.87591   2.87706   2.88352   2.89423   2.90538
 Alpha virt. eigenvalues --    2.91275   2.91776   2.92156   2.92307   2.93608
 Alpha virt. eigenvalues --    2.93783   2.95124   2.95367   2.95461   2.95841
 Alpha virt. eigenvalues --    2.98023   2.98069   2.98925   2.99192   3.01112
 Alpha virt. eigenvalues --    3.01383   3.01827   3.02291   3.03204   3.04326
 Alpha virt. eigenvalues --    3.04933   3.05487   3.05661   3.06929   3.07760
 Alpha virt. eigenvalues --    3.10116   3.12470   3.12983   3.14847   3.15018
 Alpha virt. eigenvalues --    3.15196   3.15626   3.15955   3.16241   3.16639
 Alpha virt. eigenvalues --    3.20125   3.20187   3.21107   3.21112   3.21868
 Alpha virt. eigenvalues --    3.22196   3.23270   3.23749   3.23928   3.26213
 Alpha virt. eigenvalues --    3.28017   3.28167   3.28289   3.29569   3.30085
 Alpha virt. eigenvalues --    3.31580   3.32708   3.33341   3.34048   3.35666
 Alpha virt. eigenvalues --    3.38232   3.39940   3.40021   3.42210   3.44937
 Alpha virt. eigenvalues --    3.45827   3.46587   3.48172   3.49315   3.49562
 Alpha virt. eigenvalues --    3.49682   3.52509   3.52991   3.53781   3.54565
 Alpha virt. eigenvalues --    3.55281   3.55914   3.56129   3.56330   3.58738
 Alpha virt. eigenvalues --    3.59492   3.60473   3.60793   3.61147   3.61292
 Alpha virt. eigenvalues --    3.63250   3.65009   3.65809   3.66321   3.66552
 Alpha virt. eigenvalues --    3.66751   3.68110   3.68508   3.69347   3.70311
 Alpha virt. eigenvalues --    3.70639   3.74765   3.75420   3.75657   3.77170
 Alpha virt. eigenvalues --    3.77242   3.78461   3.79765   3.81444   3.81882
 Alpha virt. eigenvalues --    3.82554   3.83329   3.84155   3.85566   3.87068
 Alpha virt. eigenvalues --    3.88213   3.89258   3.89605   3.90740   3.93520
 Alpha virt. eigenvalues --    3.94325   3.94715   3.95181   3.96126   3.96900
 Alpha virt. eigenvalues --    3.96953   3.97425   4.00020   4.00769   4.00774
 Alpha virt. eigenvalues --    4.02439   4.03390   4.04214   4.05428   4.06218
 Alpha virt. eigenvalues --    4.06716   4.07100   4.07846   4.09303   4.09481
 Alpha virt. eigenvalues --    4.11064   4.11131   4.12903   4.13037   4.13946
 Alpha virt. eigenvalues --    4.14278   4.16262   4.18483   4.18800   4.19610
 Alpha virt. eigenvalues --    4.20932   4.21653   4.23693   4.27870   4.28335
 Alpha virt. eigenvalues --    4.29510   4.30465   4.31055   4.34433   4.36379
 Alpha virt. eigenvalues --    4.37925   4.40496   4.43631   4.45784   4.48931
 Alpha virt. eigenvalues --    4.49297   4.50464   4.51934   4.54292   4.54428
 Alpha virt. eigenvalues --    4.54836   4.56327   4.56450   4.58667   4.59562
 Alpha virt. eigenvalues --    4.65072   4.65091   4.68429   4.68548   4.69011
 Alpha virt. eigenvalues --    4.74200   4.76403   4.79738   4.80474   4.81534
 Alpha virt. eigenvalues --    4.82007   4.82823   4.83905   4.85182   4.86856
 Alpha virt. eigenvalues --    4.88611   4.90254   4.92142   4.95892   4.96198
 Alpha virt. eigenvalues --    4.97789   4.98189   4.99579   5.06623   5.08622
 Alpha virt. eigenvalues --    5.14723   5.14883   5.16646   5.18765   5.23725
 Alpha virt. eigenvalues --    5.25195   5.26860   5.30792   5.31227   5.42350
 Alpha virt. eigenvalues --    5.43309   5.48263   5.48847   5.56115   5.60304
 Alpha virt. eigenvalues --    5.60324   5.63082   5.68505   5.68908   5.75992
 Alpha virt. eigenvalues --    5.76519   5.80938   5.84172   5.96634   6.09595
 Alpha virt. eigenvalues --    6.12250   6.46053   6.59353   8.12886   9.48540
 Alpha virt. eigenvalues --   11.34941  11.98032  12.36240  12.53681  12.67963
 Alpha virt. eigenvalues --   12.81660  12.96046  13.12577  14.19245  14.40274
 Alpha virt. eigenvalues --   14.93749  15.41158
          Condensed to atoms (all electrons):
               1          2          3          4          5          6
     1  C    4.931528   0.502171  -0.064449  -0.018398   0.000053   0.000001
     2  C    0.502171   4.817085   0.473145  -0.060991  -0.000003  -0.000000
     3  C   -0.064449   0.473145   4.900756   0.522769   0.000011   0.000000
     4  C   -0.018398  -0.060991   0.522769   4.913800  -0.000272   0.000011
     5  C    0.000053  -0.000003   0.000011  -0.000272   4.913800   0.522769
     6  C    0.000001  -0.000000   0.000000   0.000011   0.522769   4.900756
     7  C    0.000006  -0.000000  -0.000000  -0.000003  -0.060991   0.473145
     8  C   -0.000068   0.000006   0.000001   0.000053  -0.018398  -0.064449
     9  C   -0.060951   0.004312  -0.001291   0.005056   0.005056  -0.001291
    10  C    0.005570  -0.001494   0.006982  -0.039336  -0.039336   0.006982
    11  C    0.477383  -0.039259  -0.041390  -0.070774  -0.001581   0.000164
    12  C   -0.052758  -0.023268  -0.044545   0.410815   0.006646  -0.000446
    13  C    0.007597  -0.000157   0.000164  -0.001581  -0.070774  -0.041390
    14  C   -0.000977  -0.000035  -0.000446   0.006646   0.410815  -0.044545
    15  H    0.431034  -0.037731   0.005458  -0.000733  -0.000001   0.000000
    16  H   -0.044371   0.436533  -0.041975   0.005356   0.000000  -0.000000
    17  H    0.005636  -0.042106   0.433255  -0.041765  -0.000000   0.000000
    18  H   -0.000470   0.004120  -0.029320   0.440006  -0.000007   0.000001
    19  H   -0.000158   0.000038   0.000134  -0.001079  -0.001079   0.000134
    20  H   -0.000001  -0.000000   0.000001  -0.000007   0.440006  -0.029320
    21  H    0.000000   0.000000   0.000000  -0.000000  -0.041765   0.433255
    22  H   -0.000000   0.000000  -0.000000   0.000000   0.005356  -0.041975
    23  H    0.000020   0.000001   0.000000  -0.000001  -0.000733   0.005458
    24  H   -0.010863  -0.000058  -0.000001   0.000202   0.000059   0.000055
    25  H   -0.007599  -0.000122   0.000055   0.000059   0.000202  -0.000001
               7          8          9         10         11         12
     1  C    0.000006  -0.000068  -0.060951   0.005570   0.477383  -0.052758
     2  C   -0.000000   0.000006   0.004312  -0.001494  -0.039259  -0.023268
     3  C   -0.000000   0.000001  -0.001291   0.006982  -0.041390  -0.044545
     4  C   -0.000003   0.000053   0.005056  -0.039336  -0.070774   0.410815
     5  C   -0.060991  -0.018398   0.005056  -0.039336  -0.001581   0.006646
     6  C    0.473145  -0.064449  -0.001291   0.006982   0.000164  -0.000446
     7  C    4.817085   0.502171   0.004312  -0.001494  -0.000157  -0.000035
     8  C    0.502171   4.931528  -0.060951   0.005570   0.007597  -0.000977
     9  C    0.004312  -0.060951   5.028760  -0.022101   0.336438  -0.043471
    10  C   -0.001494   0.005570  -0.022101   4.855238  -0.041857   0.476797
    11  C   -0.000157   0.007597   0.336438  -0.041857   5.090369   0.351965
    12  C   -0.000035  -0.000977  -0.043471   0.476797   0.351965   5.030233
    13  C   -0.039259   0.477383   0.336438  -0.041857  -0.013718  -0.041939
    14  C   -0.023268  -0.052758  -0.043471   0.476797  -0.041939  -0.053060
    15  H    0.000001   0.000020   0.002257  -0.000058  -0.054485   0.007468
    16  H    0.000000  -0.000000  -0.000238   0.000040   0.006992  -0.000841
    17  H    0.000000   0.000000   0.000057  -0.000299  -0.000543   0.006567
    18  H   -0.000000  -0.000001  -0.000119  -0.000286   0.004826  -0.061549
    19  H    0.000038  -0.000158  -0.000101   0.416779   0.004602  -0.033060
    20  H    0.004120  -0.000470  -0.000119  -0.000286  -0.000045   0.000742
    21  H   -0.042106   0.005636   0.000057  -0.000299  -0.000005   0.000016
    22  H    0.436533  -0.044371  -0.000238   0.000040   0.000009  -0.000002
    23  H   -0.037731   0.431034   0.002257  -0.000058   0.000364  -0.000023
    24  H   -0.000122  -0.007599   0.406124  -0.001771  -0.036248   0.007868
    25  H   -0.000058  -0.010863   0.406124  -0.001771  -0.035597   0.005598
              13         14         15         16         17         18
     1  C    0.007597  -0.000977   0.431034  -0.044371   0.005636  -0.000470
     2  C   -0.000157  -0.000035  -0.037731   0.436533  -0.042106   0.004120
     3  C    0.000164  -0.000446   0.005458  -0.041975   0.433255  -0.029320
     4  C   -0.001581   0.006646  -0.000733   0.005356  -0.041765   0.440006
     5  C   -0.070774   0.410815  -0.000001   0.000000  -0.000000  -0.000007
     6  C   -0.041390  -0.044545   0.000000  -0.000000   0.000000   0.000001
     7  C   -0.039259  -0.023268   0.000001   0.000000   0.000000  -0.000000
     8  C    0.477383  -0.052758   0.000020  -0.000000   0.000000  -0.000001
     9  C    0.336438  -0.043471   0.002257  -0.000238   0.000057  -0.000119
    10  C   -0.041857   0.476797  -0.000058   0.000040  -0.000299  -0.000286
    11  C   -0.013718  -0.041939  -0.054485   0.006992  -0.000543   0.004826
    12  C   -0.041939  -0.053060   0.007468  -0.000841   0.006567  -0.061549
    13  C    5.090369   0.351965   0.000364   0.000009  -0.000005  -0.000045
    14  C    0.351965   5.030233  -0.000023  -0.000002   0.000016   0.000742
    15  H    0.000364  -0.000023   0.509882  -0.005923  -0.000192   0.000031
    16  H    0.000009  -0.000002  -0.005923   0.500928  -0.005781  -0.000130
    17  H   -0.000005   0.000016  -0.000192  -0.005781   0.507694  -0.005952
    18  H   -0.000045   0.000742   0.000031  -0.000130  -0.005952   0.508995
    19  H    0.004602  -0.033060   0.000009  -0.000001  -0.000025   0.002572
    20  H    0.004826  -0.061549  -0.000000   0.000000   0.000000   0.000002
    21  H   -0.000543   0.006567  -0.000000   0.000000  -0.000000   0.000000
    22  H    0.006992  -0.000841  -0.000000  -0.000000   0.000000   0.000000
    23  H   -0.054485   0.007468   0.000010  -0.000000  -0.000000  -0.000000
    24  H   -0.035597   0.005598   0.000304  -0.000005  -0.000000   0.000011
    25  H   -0.036248   0.007868   0.000416  -0.000012  -0.000000   0.000010
              19         20         21         22         23         24
     1  C   -0.000158  -0.000001   0.000000  -0.000000   0.000020  -0.010863
     2  C    0.000038  -0.000000   0.000000   0.000000   0.000001  -0.000058
     3  C    0.000134   0.000001   0.000000  -0.000000   0.000000  -0.000001
     4  C   -0.001079  -0.000007  -0.000000   0.000000  -0.000001   0.000202
     5  C   -0.001079   0.440006  -0.041765   0.005356  -0.000733   0.000059
     6  C    0.000134  -0.029320   0.433255  -0.041975   0.005458   0.000055
     7  C    0.000038   0.004120  -0.042106   0.436533  -0.037731  -0.000122
     8  C   -0.000158  -0.000470   0.005636  -0.044371   0.431034  -0.007599
     9  C   -0.000101  -0.000119   0.000057  -0.000238   0.002257   0.406124
    10  C    0.416779  -0.000286  -0.000299   0.000040  -0.000058  -0.001771
    11  C    0.004602  -0.000045  -0.000005   0.000009   0.000364  -0.036248
    12  C   -0.033060   0.000742   0.000016  -0.000002  -0.000023   0.007868
    13  C    0.004602   0.004826  -0.000543   0.006992  -0.054485  -0.035597
    14  C   -0.033060  -0.061549   0.006567  -0.000841   0.007468   0.005598
    15  H    0.000009  -0.000000  -0.000000  -0.000000   0.000010   0.000304
    16  H   -0.000001   0.000000   0.000000  -0.000000  -0.000000  -0.000005
    17  H   -0.000025   0.000000  -0.000000   0.000000  -0.000000  -0.000000
    18  H    0.002572   0.000002   0.000000   0.000000  -0.000000   0.000011
    19  H    0.474373   0.002572  -0.000025  -0.000001   0.000009   0.000014
    20  H    0.002572   0.508995  -0.005952  -0.000130   0.000031   0.000010
    21  H   -0.000025  -0.005952   0.507694  -0.005781  -0.000192  -0.000000
    22  H   -0.000001  -0.000130  -0.005781   0.500928  -0.005923  -0.000012
    23  H    0.000009   0.000031  -0.000192  -0.005923   0.509882   0.000416
    24  H    0.000014   0.000010  -0.000000  -0.000012   0.000416   0.505400
    25  H    0.000014   0.000011  -0.000000  -0.000005   0.000304  -0.034855
              25
     1  C   -0.007599
     2  C   -0.000122
     3  C    0.000055
     4  C    0.000059
     5  C    0.000202
     6  C   -0.000001
     7  C   -0.000058
     8  C   -0.010863
     9  C    0.406124
    10  C   -0.001771
    11  C   -0.035597
    12  C    0.005598
    13  C   -0.036248
    14  C    0.007868
    15  H    0.000416
    16  H   -0.000012
    17  H   -0.000000
    18  H    0.000010
    19  H    0.000014
    20  H    0.000011
    21  H   -0.000000
    22  H   -0.000005
    23  H    0.000304
    24  H   -0.034855
    25  H    0.505400
 Mulliken charges:
               1
     1  C   -0.099936
     2  C   -0.032185
     3  C   -0.119313
     4  C   -0.069834
     5  C   -0.069834
     6  C   -0.119313
     7  C   -0.032185
     8  C   -0.099936
     9  C   -0.302907
    10  C   -0.058490
    11  C    0.096889
    12  C    0.051259
    13  C    0.096889
    14  C    0.051259
    15  H    0.141893
    16  H    0.149422
    17  H    0.143445
    18  H    0.136562
    19  H    0.162854
    20  H    0.136562
    21  H    0.143445
    22  H    0.149422
    23  H    0.141893
    24  H    0.201070
    25  H    0.201070
 Sum of Mulliken charges =   1.00000
 Mulliken charges with hydrogens summed into heavy atoms:
               1
     1  C    0.041957
     2  C    0.117237
     3  C    0.024133
     4  C    0.066728
     5  C    0.066728
     6  C    0.024133
     7  C    0.117237
     8  C    0.041957
     9  C    0.099233
    10  C    0.104363
    11  C    0.096889
    12  C    0.051259
    13  C    0.096889
    14  C    0.051259
 Electronic spatial extent (au):  <R**2>=           2865.2784
 Charge=              1.0000 electrons
 Dipole moment (field-independent basis, Debye):
    X=             -0.0000    Y=              0.0000    Z=             -0.1670  Tot=              0.1670
 Quadrupole moment (field-independent basis, Debye-Ang):
   XX=            -83.6839   YY=            -31.7050   ZZ=            -55.5102
   XY=             -0.0140   XZ=              0.0000   YZ=              0.0000
 Traceless Quadrupole moment (field-independent basis, Debye-Ang):
   XX=            -26.7175   YY=             25.2613   ZZ=              1.4562
   XY=             -0.0140   XZ=              0.0000   YZ=              0.0000
 Octapole moment (field-independent basis, Debye-Ang**2):
  XXX=              0.0000  YYY=             -0.0000  ZZZ=             -5.1553  XYY=             -0.0000
  XXY=              0.0000  XXZ=              2.9414  XZZ=              0.0000  YZZ=             -0.0000
  YYZ=              6.4302  XYZ=              0.0958
 Hexadecapole moment (field-independent basis, Debye-Ang**3):
 XXXX=            -98.5517 YYYY=          -2140.5670 ZZZZ=           -613.5102 XXXY=             -3.5590
 XXXZ=             -0.0000 YYYX=             -3.6913 YYYZ=             -0.0000 ZZZX=             -0.0000
 ZZZY=             -0.0000 XXYY=           -586.6952 XXZZ=           -146.5746 YYZZ=           -507.5917
 XXYZ=             -0.0000 YYXZ=             -0.0000 ZZXY=             -1.0272
 N-N= 7.783491694263D+02 E-N=-2.791999517440D+03  KE= 5.361505379354D+02
 Symmetry A    KE= 3.012816966395D+02
 Symmetry B    KE= 2.348688412959D+02
 Unable to Open any file for archive entry.
 1\1\GINC-GADI-CPU-CLX-1570\SP\RM062X TD-FC\CC-pVTZ\C14H11(1+)\TS1578\2
 6-Jul-2022\0\\#n M062X/cc-pvtz TD EmpiricalDispersion=GD3 SP\\SP_-1\\1
 ,1\C,0,2.4927,1.3851,0.\C,0,3.7015,0.6987,0.008\C,0,3.6839,-0.6961,0.0
 16\C,0,2.4632,-1.4189,0.008\C,0,-2.4632,-1.4189,-0.008\C,0,-3.6839,-0.
 6961,-0.016\C,0,-3.7015,0.6987,-0.008\C,0,-2.4927,1.3851,0.\C,0,0.,1.4
 701,0.\C,0,0.,-1.4495,0.\C,0,1.2621,0.6767,-0.011\C,0,1.2375,-0.7311,0
 .001\C,0,-1.2621,0.6767,0.011\C,0,-1.2375,-0.7311,-0.001\H,0,2.4881,2.
 4573,0.\H,0,4.6368,1.2384,0.007\H,0,4.6093,-1.2627,0.002\H,0,2.4675,-2
 .4904,0.008\H,0,0.,-2.5266,0.\H,0,-2.4675,-2.4904,-0.008\H,0,-4.6093,-
 1.2627,-0.002\H,0,-4.6368,1.2384,-0.007\H,0,-2.4881,2.4573,0.\H,0,0.,2
 .1985,-0.8596\H,0,0.,2.1985,0.8596\\Version=ES64L-G16RevC.01\State=1-A
 \HF=-539.8095512\RMSD=6.489e-09\PG=C02 [C2(H1C1C1),X(C12H10)]\\@
 The archive entry for this job was punched.


 QUANTUM MECHANICS IS BOHRING -- M.S. GORDON
 Job cpu time:       0 days  1 hours 46 minutes 52.3 seconds.
 Elapsed time:       0 days  0 hours  6 minutes 44.5 seconds.
 File lengths (MBytes):  RWF=    833 Int=      0 D2E=      0 Chk=     49 Scr=      1
 Normal termination of Gaussian 16 at Tue Jul 26 12:52:22 2022.
