 Entering Gaussian System, Link 0=g16
 Initial command:
 /apps/gaussian/g16c01/g16/l1.exe "/jobfs/52676472.gadi-pbs/Gau-2725330.inp" -scrdir="/jobfs/52676472.gadi-pbs/"
 Entering Link 1 = /apps/gaussian/g16c01/g16/l1.exe PID=   2725331.
  
 Copyright (c) 1988-2019, Gaussian, Inc.  All Rights Reserved.
  
 This is part of the Gaussian(R) 16 program.  It is based on
 the Gaussian(R) 09 system (copyright 2009, Gaussian, Inc.),
 the Gaussian(R) 03 system (copyright 2003, Gaussian, Inc.),
 the Gaussian(R) 98 system (copyright 1998, Gaussian, Inc.),
 the Gaussian(R) 94 system (copyright 1995, Gaussian, Inc.),
 the Gaussian 92(TM) system (copyright 1992, Gaussian, Inc.),
 the Gaussian 90(TM) system (copyright 1990, Gaussian, Inc.),
 the Gaussian 88(TM) system (copyright 1988, Gaussian, Inc.),
 the Gaussian 86(TM) system (copyright 1986, Carnegie Mellon
 University), and the Gaussian 82(TM) system (copyright 1983,
 Carnegie Mellon University). Gaussian is a federally registered
 trademark of Gaussian, Inc.
  
 This software contains proprietary and confidential information,
 including trade secrets, belonging to Gaussian, Inc.
  
 This software is provided under written license and may be
 used, copied, transmitted, or stored only in accord with that
 written license.
  
 The following legend is applicable only to US Government
 contracts under FAR:
  
                    RESTRICTED RIGHTS LEGEND
  
 Use, reproduction and disclosure by the US Government is
 subject to restrictions as set forth in subparagraphs (a)
 and (c) of the Commercial Computer Software - Restricted
 Rights clause in FAR 52.227-19.
  
 Gaussian, Inc.
 340 Quinnipiac St., Bldg. 40, Wallingford CT 06492
  
  
 ---------------------------------------------------------------
 Warning -- This program may not be used in any manner that
 competes with the business of Gaussian, Inc. or will provide
 assistance to any competitor of Gaussian, Inc.  The licensee
 of this program is prohibited from giving any competitor of
 Gaussian, Inc. access to this program.  By using this program,
 the user acknowledges that Gaussian, Inc. is engaged in the
 business of creating and licensing software in the field of
 computational chemistry and represents and warrants to the
 licensee that it is not a competitor of Gaussian, Inc. and that
 it will not use this program in any manner prohibited above.
 ---------------------------------------------------------------
  

 Cite this work as:
 Gaussian 16, Revision C.01,
 M. J. Frisch, G. W. Trucks, H. B. Schlegel, G. E. Scuseria, 
 M. A. Robb, J. R. Cheeseman, G. Scalmani, V. Barone, 
 G. A. Petersson, H. Nakatsuji, X. Li, M. Caricato, A. V. Marenich, 
 J. Bloino, B. G. Janesko, R. Gomperts, B. Mennucci, H. P. Hratchian, 
 J. V. Ortiz, A. F. Izmaylov, J. L. Sonnenberg, D. Williams-Young, 
 F. Ding, F. Lipparini, F. Egidi, J. Goings, B. Peng, A. Petrone, 
 T. Henderson, D. Ranasinghe, V. G. Zakrzewski, J. Gao, N. Rega, 
 G. Zheng, W. Liang, M. Hada, M. Ehara, K. Toyota, R. Fukuda, 
 J. Hasegawa, M. Ishida, T. Nakajima, Y. Honda, O. Kitao, H. Nakai, 
 T. Vreven, K. Throssell, J. A. Montgomery, Jr., J. E. Peralta, 
 F. Ogliaro, M. J. Bearpark, J. J. Heyd, E. N. Brothers, K. N. Kudin, 
 V. N. Staroverov, T. A. Keith, R. Kobayashi, J. Normand, 
 K. Raghavachari, A. P. Rendell, J. C. Burant, S. S. Iyengar, 
 J. Tomasi, M. Cossi, J. M. Millam, M. Klene, C. Adamo, R. Cammi, 
 J. W. Ochterski, R. L. Martin, K. Morokuma, O. Farkas, 
 J. B. Foresman, and D. J. Fox, Gaussian, Inc., Wallingford CT, 2019.
 
 ******************************************
 Gaussian 16:  ES64L-G16RevC.01  3-Jul-2019
                26-Jul-2022 
 ******************************************
 %NProcShared=16
 Will use up to   16 processors via shared memory.
 %mem = 64GB
 ----------------------------------------------
 #n M062X/cc-pvtz TD EmpiricalDispersion=GD3 SP
 ----------------------------------------------
 1/38=1,172=1/1;
 2/12=2,17=6,18=5,40=1/2;
 3/5=16,6=1,11=9,25=1,30=1,74=-55,124=31/1,2,3,8;
 4//1;
 5/5=2,38=5/2;
 8/6=1,10=1/1;
 9/42=1,70=2/14;
 6/7=2,8=2,9=2,10=2/1;
 99/5=1,9=1/99;
 -----
 SP_-3
 -----
 Symbolic Z-matrix:
 Charge =  1 Multiplicity = 1
 C                     2.4927    1.4171    0. 
 C                     3.7015    0.7347    0.024 
 C                     3.6839   -0.6781    0.048 
 C                     2.4632   -1.4589    0.024 
 C                    -2.4632   -1.4589   -0.024 
 C                    -3.6839   -0.6781   -0.048 
 C                    -3.7015    0.7347   -0.024 
 C                    -2.4927    1.4171    0. 
 C                     0.        1.4861    0. 
 C                     0.       -1.5075    0. 
 C                     1.2621    0.6587   -0.033 
 C                     1.2375   -0.7491    0.003 
 C                    -1.2621    0.6587    0.033 
 C                    -1.2375   -0.7491   -0.003 
 H                     2.4881    2.4673    0. 
 H                     4.6368    1.2744    0.021 
 H                     4.6093   -1.2607    0.006 
 H                     2.4675   -2.5084    0.024 
 H                     0.       -2.5766    0. 
 H                    -2.4675   -2.5084   -0.024 
 H                    -4.6093   -1.2607   -0.006 
 H                    -4.6368    1.2744   -0.021 
 H                    -2.4881    2.4673    0. 
 H                     0.        2.2865   -0.8596 
 H                     0.        2.2865    0.8596 
 
                          Input orientation:                          
 ---------------------------------------------------------------------
 Center     Atomic      Atomic             Coordinates (Angstroms)
 Number     Number       Type             X           Y           Z
 ---------------------------------------------------------------------
      1          6           0        2.492700    1.417100    0.000000
      2          6           0        3.701500    0.734700    0.024000
      3          6           0        3.683900   -0.678100    0.048000
      4          6           0        2.463200   -1.458900    0.024000
      5          6           0       -2.463200   -1.458900   -0.024000
      6          6           0       -3.683900   -0.678100   -0.048000
      7          6           0       -3.701500    0.734700   -0.024000
      8          6           0       -2.492700    1.417100    0.000000
      9          6           0        0.000000    1.486100    0.000000
     10          6           0        0.000000   -1.507500    0.000000
     11          6           0        1.262100    0.658700   -0.033000
     12          6           0        1.237500   -0.749100    0.003000
     13          6           0       -1.262100    0.658700    0.033000
     14          6           0       -1.237500   -0.749100   -0.003000
     15          1           0        2.488100    2.467300    0.000000
     16          1           0        4.636800    1.274400    0.021000
     17          1           0        4.609300   -1.260700    0.006000
     18          1           0        2.467500   -2.508400    0.024000
     19          1           0        0.000000   -2.576600    0.000000
     20          1           0       -2.467500   -2.508400   -0.024000
     21          1           0       -4.609300   -1.260700   -0.006000
     22          1           0       -4.636800    1.274400   -0.021000
     23          1           0       -2.488100    2.467300    0.000000
     24          1           0        0.000000    2.286500   -0.859600
     25          1           0        0.000000    2.286500    0.859600
 ---------------------------------------------------------------------
                    Distance matrix (angstroms):
                    1          2          3          4          5
     1  C    0.000000
     2  C    1.388324   0.000000
     3  C    2.410627   1.413113   0.000000
     4  C    2.876251   2.518982   1.449253   0.000000
     5  C    5.730000   6.543524   6.196908   4.926634   0.000000
     6  C    6.522465   7.519662   7.368425   6.196908   1.449253
     7  C    6.231722   7.403156   7.519662   6.543524   2.518982
     8  C    4.985400   6.231722   6.522465   5.730000   2.876251
     9  C    2.493655   3.777073   4.272843   3.839395   3.839395
    10  C    3.842764   4.327718   3.776417   2.463796   2.463796
    11  C    1.445903   2.441249   2.767438   2.435184   4.285110
    12  C    2.503589   2.876352   2.447844   1.416544   3.768252
    13  C    3.830768   4.964190   5.123492   4.285110   2.435184
    14  C    4.313563   5.157142   4.922176   3.768252   1.416544
    15  H    1.050210   2.115377   3.365380   3.926352   6.319098
    16  H    2.148946   1.079848   2.172787   3.492202   7.608085
    17  H    3.413304   2.192270   1.094327   2.155308   7.075340
    18  H    3.925654   3.469936   2.197772   1.049509   5.041384
    19  H    4.707780   4.966527   4.144602   2.705029   2.705029
    20  H    6.325639   6.969689   6.418326   5.041384   1.049509
    21  H    7.590063   8.547041   8.313814   7.075340   2.155308
    22  H    7.130959   8.355869   8.546992   7.608085   3.492202
    23  H    5.090313   6.427568   6.927440   6.319098   3.926352
    24  H    2.776386   4.109737   4.814947   4.569040   4.560000
    25  H    2.776386   4.099684   4.797777   4.560000   4.569040
                    6          7          8          9         10
     6  C    0.000000
     7  C    1.413113   0.000000
     8  C    2.410627   1.388324   0.000000
     9  C    4.272843   3.777073   2.493655   0.000000
    10  C    3.776417   4.327718   3.842764   2.993600   0.000000
    11  C    5.123492   4.964190   3.830768   1.509495   2.507271
    12  C    4.922176   5.157142   4.313563   2.554904   1.451408
    13  C    2.767438   2.441249   1.445903   1.509495   2.507271
    14  C    2.447844   2.876352   2.503589   2.554904   1.451408
    15  H    6.927440   6.427568   5.090313   2.674583   4.689315
    16  H    8.546992   8.355869   7.130959   4.641678   5.407340
    17  H    8.313814   8.547041   7.590063   5.365687   4.615906
    18  H    6.418326   6.969689   6.325639   4.695228   2.662881
    19  H    4.144602   4.966527   4.707780   4.062700   1.069100
    20  H    2.197772   3.469936   3.925654   4.695228   2.662881
    21  H    1.094327   2.192270   3.413304   5.365687   4.615906
    22  H    2.172787   1.079848   2.148946   4.641678   5.407340
    23  H    3.365380   2.115377   1.050210   2.674583   4.689315
    24  H    4.797777   4.099684   2.776386   1.174543   3.890160
    25  H    4.814947   4.109737   2.776386   1.174543   3.890160
                   11         12         13         14         15
    11  C    0.000000
    12  C    1.408475   0.000000
    13  C    2.525063   2.868937   0.000000
    14  C    2.868937   2.475007   1.408475   0.000000
    15  H    2.185223   3.450976   4.163667   4.921924   0.000000
    16  H    3.430831   3.956023   5.930957   6.213093   2.457715
    17  H    3.858674   3.410393   6.177229   5.869147   4.289232
    18  H    3.389212   2.146736   4.892905   4.101572   4.975801
    19  H    3.472917   2.207073   3.472917   2.207073   5.624195
    20  H    4.892905   4.101572   3.389212   2.146736   7.022545
    21  H    6.177229   5.869147   3.858674   3.410393   8.016926
    22  H    5.930957   6.213093   3.430831   3.956023   7.224102
    23  H    4.163667   4.921924   2.185223   3.450976   4.976200
    24  H    2.219436   3.389742   2.244853   3.388220   2.638606
    25  H    2.244853   3.388220   2.219436   3.389742   2.638606
                   16         17         18         19         20
    16  H    0.000000
    17  H    2.535294   0.000000
    18  H    4.360671   2.478787   0.000000
    19  H    6.027483   4.793462   2.468559   0.000000
    20  H    8.048769   7.186011   4.935233   2.468559   0.000000
    21  H    9.587378   9.218608   7.186011   4.793462   2.478787
    22  H    9.273695   9.587378   8.048769   6.027483   4.360671
    23  H    7.224102   8.016926   7.022545   5.624195   4.975801
    24  H    4.826978   5.880267   5.464464   4.938487   5.456908
    25  H    4.819493   5.878512   5.456908   4.938487   5.464464
                   21         22         23         24         25
    21  H    0.000000
    22  H    2.535294   0.000000
    23  H    4.289232   2.457715   0.000000
    24  H    5.878512   4.819493   2.638606   0.000000
    25  H    5.880267   4.826978   2.638606   1.719200   0.000000
 Stoichiometry    C14H11(1+)
 Framework group  C2[C2(CCH),X(C12H10)]
 Deg. of freedom    34
 Full point group                 C2      NOp   2
 Largest Abelian subgroup         C2      NOp   2
 Largest concise Abelian subgroup C2      NOp   2
                         Standard orientation:                         
 ---------------------------------------------------------------------
 Center     Atomic      Atomic             Coordinates (Angstroms)
 Number     Number       Type             X           Y           Z
 ---------------------------------------------------------------------
      1          6           0        0.000000    2.492700   -1.407563
      2          6           0       -0.024000    3.701500   -0.725163
      3          6           0       -0.048000    3.683900    0.687637
      4          6           0       -0.024000    2.463200    1.468437
      5          6           0        0.024000   -2.463200    1.468437
      6          6           0        0.048000   -3.683900    0.687637
      7          6           0        0.024000   -3.701500   -0.725163
      8          6           0       -0.000000   -2.492700   -1.407563
      9          6           0       -0.000000   -0.000000   -1.476563
     10          6           0        0.000000    0.000000    1.517037
     11          6           0        0.033000    1.262100   -0.649163
     12          6           0       -0.003000    1.237500    0.758637
     13          6           0       -0.033000   -1.262100   -0.649163
     14          6           0        0.003000   -1.237500    0.758637
     15          1           0        0.000000    2.488100   -2.457763
     16          1           0       -0.021000    4.636800   -1.264863
     17          1           0       -0.006000    4.609300    1.270237
     18          1           0       -0.024000    2.467500    2.517937
     19          1           0        0.000000    0.000000    2.586137
     20          1           0        0.024000   -2.467500    2.517937
     21          1           0        0.006000   -4.609300    1.270237
     22          1           0        0.021000   -4.636800   -1.264863
     23          1           0       -0.000000   -2.488100   -2.457763
     24          1           0        0.859600    0.000000   -2.276963
     25          1           0       -0.859600    0.000000   -2.276963
 ---------------------------------------------------------------------
 Rotational constants (GHZ):           2.0123817           0.4445746           0.3649484
 Standard basis: CC-pVTZ (5D, 7F)
 There are   332 symmetry adapted cartesian basis functions of A   symmetry.
 There are   323 symmetry adapted cartesian basis functions of B   symmetry.
 There are   290 symmetry adapted basis functions of A   symmetry.
 There are   284 symmetry adapted basis functions of B   symmetry.
   574 basis functions,   915 primitive gaussians,   655 cartesian basis functions
    47 alpha electrons       47 beta electrons
       nuclear repulsion energy       772.6654525377 Hartrees.
 NAtoms=   25 NActive=   25 NUniq=   14 SFac= 3.19D+00 NAtFMM=   60 NAOKFM=F Big=F
 Integral buffers will be    131072 words long.
 Regular integral format.
 Two-electron integral symmetry is turned on.
 Nuclear repulsion after empirical dispersion term =      772.6644600821 Hartrees.
 One-electron integrals computed using PRISM.
 NBasis=   574 RedAO= T EigKep=  2.44D-05  NBF=   290   284
 NBsUse=   574 1.00D-06 EigRej= -1.00D+00 NBFU=   290   284
 ExpMin= 1.03D-01 ExpMax= 8.24D+03 ExpMxC= 2.81D+02 IAcc=3 IRadAn=         5 AccDes= 0.00D+00
 Harris functional with IExCor= 1009 and IRadAn=       5 diagonalized for initial guess.
 HarFok:  IExCor= 1009 AccDes= 0.00D+00 IRadAn=         5 IDoV= 1 UseB2=F ITyADJ=14
 ICtDFT=  3500011 ScaDFX=  1.000000  1.000000  1.000000  1.000000
 FoFCou: FMM=F IPFlag=           0 FMFlag=      100000 FMFlg1=           0
         NFxFlg=           0 DoJE=T BraDBF=F KetDBF=T FulRan=T
         wScrn=  0.000000 ICntrl=       500 IOpCl=  0 I1Cent=   200000004 NGrid=           0
         NMat0=    1 NMatS0=      1 NMatT0=    0 NMatD0=    1 NMtDS0=    0 NMtDT0=    0
 Petite list used in FoFCou.
 Initial guess orbital symmetries:
       Occupied  (B) (A) (A) (B) (A) (B) (B) (A) (A) (B) (A) (A)
                 (B) (A) (A) (B) (A) (A) (B) (B) (A) (A) (B) (A)
                 (B) (A) (B) (A) (B) (A) (B) (A) (B) (A) (B) (A)
                 (B) (A) (B) (A) (A) (B) (B) (B) (A) (A) (B)
       Virtual   (B) (B) (A) (A) (B) (A) (B) (A) (B) (A) (A) (B)
                 (B) (B) (A) (A) (B) (A) (B) (A) (A) (B) (B) (A)
                 (B) (A) (B) (A) (A) (B) (A) (B) (A) (A) (B) (B)
                 (A) (B) (B) (A) (B) (A) (B) (B) (A) (B) (A) (B)
                 (A) (B) (A) (A) (B) (A) (B) (A) (A) (A) (B) (B)
                 (A) (A) (B) (B) (A) (B) (B) (A) (A) (A) (B) (B)
                 (A) (A) (B) (B) (A) (B) (A) (B) (A) (B) (B) (A)
                 (A) (B) (A) (A) (A) (B) (B) (B) (A) (B) (B) (A)
                 (A) (B) (A) (B) (A) (A) (B) (A) (B) (B) (A) (A)
                 (A) (B) (B) (A) (A) (B) (A) (B) (A) (B) (B) (A)
                 (B) (B) (A) (B) (B) (A) (A) (A) (B) (A) (A) (B)
                 (B) (B) (B) (A) (A) (B) (A) (B) (A) (A) (B) (A)
                 (B) (B) (A) (B) (B) (A) (A) (A) (B) (B) (A) (B)
                 (A) (B) (A) (A) (B) (B) (A) (A) (B) (A) (B) (B)
                 (A) (B) (A) (A) (B) (A) (B) (B) (A) (A) (B) (B)
                 (A) (A) (B) (A) (B) (A) (B) (B) (A) (A) (B) (A)
                 (B) (A) (B) (A) (A) (B) (B) (A) (B) (B) (A) (B)
                 (A) (A) (B) (A) (B) (B) (A) (A) (B) (B) (A) (A)
                 (A) (B) (B) (B) (A) (B) (A) (A) (A) (B) (B) (A)
                 (B) (A) (B) (A) (B) (B) (A) (A) (A) (B) (B) (B)
                 (A) (A) (B) (B) (B) (A) (A) (B) (B) (B) (A) (B)
                 (A) (B) (A) (A) (B) (A) (B) (A) (B) (A) (B) (A)
                 (B) (A) (B) (A) (A) (A) (B) (B) (A) (B) (B) (A)
                 (B) (A) (A) (B) (B) (A) (B) (A) (B) (A) (A) (B)
                 (A) (A) (B) (B) (A) (B) (A) (B) (B) (B) (A) (B)
                 (A) (B) (A) (A) (B) (B) (A) (B) (A) (A) (B) (A)
                 (A) (B) (B) (B) (A) (A) (B) (B) (A) (A) (A) (A)
                 (B) (A) (B) (B) (A) (B) (B) (B) (A) (A) (A) (B)
                 (A) (B) (A) (B) (B) (A) (A) (B) (A) (A) (A) (A)
                 (B) (B) (A) (A) (B) (B) (B) (B) (A) (B) (A) (A)
                 (A) (B) (A) (B) (A) (B) (A) (A) (A) (B) (A) (B)
                 (B) (A) (B) (A) (B) (A) (B) (B) (A) (B) (A) (A)
                 (B) (B) (A) (A) (A) (B) (B) (B) (A) (B) (B) (A)
                 (A) (B) (A) (B) (B) (A) (A) (B) (A) (B) (A) (B)
                 (A) (B) (A) (B) (A) (B) (A) (A) (B) (A) (A) (B)
                 (B) (A) (B) (A) (B) (B) (A) (A) (B) (B) (B) (A)
                 (A) (B) (A) (B) (A) (B) (A) (B) (A) (B) (A) (B)
                 (A) (A) (B) (B) (A) (A) (B) (B) (A) (B) (A) (B)
                 (A) (A) (B) (B) (A) (B) (B) (B) (A) (B) (A) (B)
                 (A) (A) (A) (B) (B) (A) (B) (B) (A) (B) (A) (B)
                 (A) (A) (B) (A) (B) (B) (B) (A) (A) (A) (B) (A)
                 (B) (A) (A) (A) (B) (B) (B) (B) (A) (A) (A) (B)
                 (B) (A) (B) (A) (B) (A) (B) (A) (B) (A) (B) (A)
                 (B) (A) (B) (A) (B) (A) (B) (A) (A) (B) (A)
 The electronic state of the initial guess is 1-A.
 Requested convergence on RMS density matrix=1.00D-08 within 128 cycles.
 Requested convergence on MAX density matrix=1.00D-06.
 Requested convergence on             energy=1.00D-06.
 No special actions if energy rises.
 Integral accuracy reduced to 1.0D-05 until final iterations.
 Initial convergence to 1.0D-05 achieved.  Increase integral accuracy.
 SCF Done:  E(RM062X) =  -539.778534971     A.U. after   14 cycles
            NFock= 14  Conv=0.85D-08     -V/T= 2.0078
 DoSCS=F DFT=T ScalE2(SS,OS)=  1.000000  1.000000
 ExpMin= 1.03D-01 ExpMax= 8.24D+03 ExpMxC= 2.81D+02 IAcc=3 IRadAn=         5 AccDes= 0.00D+00
 HarFok:  IExCor=  205 AccDes= 0.00D+00 IRadAn=         5 IDoV=-2 UseB2=F ITyADJ=14
 ICtDFT= 12500011 ScaDFX=  1.000000  1.000000  1.000000  1.000000
 Range of M.O.s used for correlation:    15   574
 NBasis=   574 NAE=    47 NBE=    47 NFC=    14 NFV=     0
 NROrb=    560 NOA=    33 NOB=    33 NVA=   527 NVB=   527

 **** Warning!!: The largest alpha MO coefficient is  0.35665682D+02

 Orbital symmetries:
       Occupied  (A) (B) (A) (B) (A) (A) (A) (B) (B) (A) (B) (A)
                 (B) (A) (A) (B) (A) (A) (B) (B) (A) (A) (A) (B)
                 (B) (A) (B) (A) (A) (B) (B) (A) (B) (A) (B) (A)
                 (B) (A) (B) (A) (B) (A) (B) (B) (A) (A) (B)
       Virtual   (B) (B) (A) (A) (B) (A) (A) (B) (A) (B) (B) (B)
                 (A) (B) (A) (A) (A) (B) (B) (A) (B) (A) (A) (B)
                 (A) (A) (B) (B) (A) (B) (A) (B) (A) (B) (A) (B)
                 (B) (A) (A) (B) (A) (B) (B) (A) (B) (A) (B) (A)
                 (A) (B) (B) (B) (A) (B) (A) (A) (A) (B) (A) (A)
                 (A) (B) (B) (B) (B) (B) (A) (A) (A) (A) (B) (B)
                 (A) (A) (B) (A) (B) (B) (A) (A) (B) (B) (B) (A)
                 (A) (B) (A) (B) (B) (A) (A) (B) (A) (B) (B) (A)
                 (A) (B) (A) (B) (A) (B) (A) (A) (B) (A) (B) (A)
                 (B) (A) (A) (B) (B) (A) (A) (B) (B) (A) (B) (B)
                 (A) (B) (B) (A) (A) (B) (B) (A) (A) (B) (A) (A)
                 (B) (B) (B) (A) (A) (B) (B) (A) (A) (A) (B) (B)
                 (A) (B) (B) (A) (A) (A) (B) (A) (B) (B) (A) (B)
                 (B) (A) (A) (A) (B) (A) (A) (B) (B) (A) (B) (B)
                 (A) (A) (B) (A) (B) (B) (A) (A) (B) (B) (A) (B)
                 (A) (B) (A) (A) (B) (A) (B) (B) (A) (A) (B) (A)
                 (A) (B) (A) (B) (B) (A) (B) (B) (A) (A) (B) (B)
                 (A) (B) (A) (A) (A) (B) (A) (B) (B) (B) (A) (A)
                 (A) (B) (B) (B) (A) (B) (A) (A) (A) (B) (B) (A)
                 (B) (A) (B) (A) (A) (B) (B) (A) (A) (B) (B) (A)
                 (B) (A) (B) (B) (B) (A) (A) (B) (B) (A) (B) (A)
                 (B) (B) (A) (B) (A) (A) (B) (A) (B) (A) (B) (A)
                 (B) (A) (A) (B) (A) (B) (A) (B) (A) (B) (A) (B)
                 (B) (A) (B) (A) (A) (B) (B) (A) (B) (A) (A) (B)
                 (A) (A) (B) (B) (A) (A) (B) (B) (B) (A) (B) (A)
                 (B) (A) (B) (B) (A) (A) (B) (A) (A) (B) (B) (A)
                 (A) (B) (A) (B) (B) (A) (B) (B) (A) (A) (A) (A)
                 (B) (A) (A) (B) (B) (B) (A) (B) (B) (A) (B) (A)
                 (A) (B) (A) (B) (B) (A) (A) (B) (A) (A) (A) (A)
                 (B) (B) (A) (A) (B) (B) (B) (A) (A) (B) (A) (B)
                 (B) (A) (A) (B) (A) (A) (B) (A) (B) (A) (A) (B)
                 (A) (B) (A) (B) (B) (A) (B) (A) (B) (A) (B) (A)
                 (B) (A) (B) (A) (B) (A) (A) (B) (B) (B) (B) (A)
                 (B) (A) (A) (B) (A) (B) (A) (B) (B) (A) (A) (A)
                 (B) (B) (A) (B) (A) (A) (B) (A) (A) (B) (A) (B)
                 (A) (B) (A) (B) (B) (B) (A) (A) (B) (B) (B) (A)
                 (A) (B) (B) (A) (A) (B) (A) (B) (B) (A) (A) (B)
                 (A) (A) (B) (B) (A) (B) (A) (B) (A) (B) (A) (A)
                 (B) (B) (A) (B) (A) (B) (B) (B) (A) (A) (B) (B)
                 (A) (B) (A) (A) (B) (A) (B) (B) (A) (B) (A) (B)
                 (B) (A) (A) (A) (B) (B) (B) (A) (A) (A) (B) (A)
                 (B) (A) (A) (A) (B) (B) (B) (B) (A) (A) (A) (B)
                 (B) (B) (A) (A) (B) (A) (B) (A) (B) (A) (B) (A)
                 (B) (A) (B) (A) (B) (A) (B) (A) (A) (B) (A)
    12 initial guesses have been made.
 Convergence on wavefunction:    0.001000000000000
 Iteration     1 Dimension    12 NMult     0 NNew     12
 CISAX will form    12 AO SS matrices at one time.
 Iteration     2 Dimension    18 NMult    12 NNew      6
 Iteration     3 Dimension    24 NMult    18 NNew      6
 Iteration     4 Dimension    30 NMult    24 NNew      6
 Iteration     5 Dimension    36 NMult    30 NNew      6
 Iteration     6 Dimension    38 NMult    36 NNew      2
 ***********************************************************************
 Excited states from <AA,BB:AA,BB> singles matrix:
 ***********************************************************************
 
 Ground to excited state transition densities written to RWF  633
 Ground to excited state transition electric dipole moments (Au):
       state          X           Y           Z        Dip. S.      Osc.
         1        -0.0000      0.0000      0.6634      0.4401      0.0275
         2         0.0147      0.3960     -0.0000      0.1570      0.0113
         3         0.0048     -2.3498      0.0000      5.5216      0.4560
 Ground to excited state transition velocity dipole moments (Au):
       state          X           Y           Z        Dip. S.      Osc.
         1         0.0000     -0.0000     -0.0658      0.0043      0.0308
         2        -0.0018     -0.0425      0.0000      0.0018      0.0111
         3        -0.0005      0.2999     -0.0000      0.0899      0.4840
 Ground to excited state transition magnetic dipole moments (Au):
       state          X           Y           Z
         1         0.0000      0.0000     -0.0051
         2         0.8944      0.0204     -0.0000
         3        -1.0600      0.0036     -0.0000
 Ground to excited state transition velocity quadrupole moments (Au):
       state          XX          YY          ZZ          XY          XZ          YZ
         1         0.0101     -0.2524     -0.0133      0.0042      0.0000      0.0000
         2        -0.0000     -0.0000      0.0000     -0.0000     -0.0004      0.2404
         3        -0.0000     -0.0000     -0.0000      0.0000     -0.0010     -0.1072
 <0|del|b> * <b|rxdel|0> + <0|del|b> * <b|delr+rdel|0>
 Rotatory Strengths (R) in cgs (10**-40 erg-esu-cm/Gauss)
       state          XX          YY          ZZ    R(velocity)    E-M Angle
         1         0.2182      2.2875     -0.0000      0.8352       90.00
         2        -2.8793     -6.8650     -6.7382     -5.4942       93.80
         3         3.9464      1.6245      3.5349      3.0353       89.71
 1/2[<0|r|b>*<b|rxdel|0> + (<0|rxdel|b>*<b|r|0>)*]
 Rotatory Strengths (R) in cgs (10**-40 erg-esu-cm/Gauss)
       state          XX          YY          ZZ     R(length)
         1         0.0000     -0.0000      2.3707      0.7902
         2        -9.2807     -5.7050     -0.0000     -4.9952
         3         3.5941      5.9747      0.0000      3.1896
  1/2[<0|del|b>*<b|r|0> + (<0|r|b>*<b|del|0>)*] (Au)
       state          X           Y           Z        Dip. S.   Osc.(frdel)
         1        -0.0000     -0.0000     -0.0437      0.0437      0.0291
         2        -0.0000     -0.0168     -0.0000      0.0168      0.0112
         3        -0.0000     -0.7047     -0.0000      0.7047      0.4698

 Excitation energies and oscillator strengths:
 
 Excited State   1:      Singlet-A      2.5537 eV  485.50 nm  f=0.0275  <S**2>=0.000
      47 -> 48         0.70457
 This state for optimization and/or second-order correction.
 Total Energy, E(TD-HF/TD-DFT) =  -539.684686922    
 Copying the excited state density for this state as the 1-particle RhoCI density.
 
 Excited State   2:      Singlet-B      2.9408 eV  421.60 nm  f=0.0113  <S**2>=0.000
      45 -> 48         0.24214
      46 -> 48         0.65995
 
 Excited State   3:      Singlet-B      3.3710 eV  367.80 nm  f=0.4560  <S**2>=0.000
      45 -> 48         0.65671
      46 -> 48        -0.23731
 SavETr:  write IOETrn=   770 NScale= 10 NData=  16 NLR=1 NState=    3 LETran=      64.

 **********************************************************************

            Population analysis using the SCF Density.

 **********************************************************************

 Orbital symmetries:
       Occupied  (A) (B) (A) (B) (A) (A) (A) (B) (B) (A) (B) (A)
                 (B) (A) (A) (B) (A) (A) (B) (B) (A) (A) (A) (B)
                 (B) (A) (B) (A) (A) (B) (B) (A) (B) (A) (B) (A)
                 (B) (A) (B) (A) (B) (A) (B) (B) (A) (A) (B)
       Virtual   (B) (B) (A) (A) (B) (A) (A) (B) (A) (B) (B) (B)
                 (A) (B) (A) (A) (A) (B) (B) (A) (B) (A) (A) (B)
                 (A) (A) (B) (B) (A) (B) (A) (B) (A) (B) (A) (B)
                 (B) (A) (A) (B) (A) (B) (B) (A) (B) (A) (B) (A)
                 (A) (B) (B) (B) (A) (B) (A) (A) (A) (B) (A) (A)
                 (A) (B) (B) (B) (B) (B) (A) (A) (A) (A) (B) (B)
                 (A) (A) (B) (A) (B) (B) (A) (A) (B) (B) (B) (A)
                 (A) (B) (A) (B) (B) (A) (A) (B) (A) (B) (B) (A)
                 (A) (B) (A) (B) (A) (B) (A) (A) (B) (A) (B) (A)
                 (B) (A) (A) (B) (B) (A) (A) (B) (B) (A) (B) (B)
                 (A) (B) (B) (A) (A) (B) (B) (A) (A) (B) (A) (A)
                 (B) (B) (B) (A) (A) (B) (B) (A) (A) (A) (B) (B)
                 (A) (B) (B) (A) (A) (A) (B) (A) (B) (B) (A) (B)
                 (B) (A) (A) (A) (B) (A) (A) (B) (B) (A) (B) (B)
                 (A) (A) (B) (A) (B) (B) (A) (A) (B) (B) (A) (B)
                 (A) (B) (A) (A) (B) (A) (B) (B) (A) (A) (B) (A)
                 (A) (B) (A) (B) (B) (A) (B) (B) (A) (A) (B) (B)
                 (A) (B) (A) (A) (A) (B) (A) (B) (B) (B) (A) (A)
                 (A) (B) (B) (B) (A) (B) (A) (A) (A) (B) (B) (A)
                 (B) (A) (B) (A) (A) (B) (B) (A) (A) (B) (B) (A)
                 (B) (A) (B) (B) (B) (A) (A) (B) (B) (A) (B) (A)
                 (B) (B) (A) (B) (A) (A) (B) (A) (B) (A) (B) (A)
                 (B) (A) (A) (B) (A) (B) (A) (B) (A) (B) (A) (B)
                 (B) (A) (B) (A) (A) (B) (B) (A) (B) (A) (A) (B)
                 (A) (A) (B) (B) (A) (A) (B) (B) (B) (A) (B) (A)
                 (B) (A) (B) (B) (A) (A) (B) (A) (A) (B) (B) (A)
                 (A) (B) (A) (B) (B) (A) (B) (B) (A) (A) (A) (A)
                 (B) (A) (A) (B) (B) (B) (A) (B) (B) (A) (B) (A)
                 (A) (B) (A) (B) (B) (A) (A) (B) (A) (A) (A) (A)
                 (B) (B) (A) (A) (B) (B) (B) (A) (A) (B) (A) (B)
                 (B) (A) (A) (B) (A) (A) (B) (A) (B) (A) (A) (B)
                 (A) (B) (A) (B) (B) (A) (B) (A) (B) (A) (B) (A)
                 (B) (A) (B) (A) (B) (A) (A) (B) (B) (B) (B) (A)
                 (B) (A) (A) (B) (A) (B) (A) (B) (B) (A) (A) (A)
                 (B) (B) (A) (B) (A) (A) (B) (A) (A) (B) (A) (B)
                 (A) (B) (A) (B) (B) (B) (A) (A) (B) (B) (B) (A)
                 (A) (B) (B) (A) (A) (B) (A) (B) (B) (A) (A) (B)
                 (A) (A) (B) (B) (A) (B) (A) (B) (A) (B) (A) (A)
                 (B) (B) (A) (B) (A) (B) (B) (B) (A) (A) (B) (B)
                 (A) (B) (A) (A) (B) (A) (B) (B) (A) (B) (A) (B)
                 (B) (A) (A) (A) (B) (B) (B) (A) (A) (A) (B) (A)
                 (B) (A) (A) (A) (B) (B) (B) (B) (A) (A) (A) (B)
                 (B) (B) (A) (A) (B) (A) (B) (A) (B) (A) (B) (A)
                 (B) (A) (B) (A) (B) (A) (B) (A) (A) (B) (A)
 The electronic state is 1-A.
 Alpha  occ. eigenvalues --  -10.78369 -10.73871 -10.73871 -10.72904 -10.72903
 Alpha  occ. eigenvalues --  -10.72497 -10.71434 -10.71434 -10.70999 -10.70999
 Alpha  occ. eigenvalues --  -10.70245 -10.70245 -10.70088 -10.70088  -1.15117
 Alpha  occ. eigenvalues --   -1.11106  -1.05959  -1.04183  -1.01066  -0.98637
 Alpha  occ. eigenvalues --   -0.95151  -0.89623  -0.86515  -0.84944  -0.83922
 Alpha  occ. eigenvalues --   -0.77620  -0.74601  -0.74280  -0.69951  -0.69430
 Alpha  occ. eigenvalues --   -0.68194  -0.67477  -0.65761  -0.65189  -0.64671
 Alpha  occ. eigenvalues --   -0.61770  -0.60640  -0.58758  -0.58254  -0.57985
 Alpha  occ. eigenvalues --   -0.57634  -0.56530  -0.52996  -0.51808  -0.46341
 Alpha  occ. eigenvalues --   -0.45253  -0.43585
 Alpha virt. eigenvalues --   -0.26218  -0.15366  -0.13965  -0.13134  -0.07354
 Alpha virt. eigenvalues --   -0.05972  -0.05591  -0.03982  -0.02662  -0.01667
 Alpha virt. eigenvalues --   -0.01505   0.00320   0.00488   0.01345   0.02400
 Alpha virt. eigenvalues --    0.03377   0.04852   0.06736   0.06916   0.09176
 Alpha virt. eigenvalues --    0.09254   0.10801   0.12503   0.12615   0.14129
 Alpha virt. eigenvalues --    0.14312   0.14812   0.15972   0.16717   0.16787
 Alpha virt. eigenvalues --    0.17443   0.17444   0.18237   0.18983   0.20372
 Alpha virt. eigenvalues --    0.21003   0.21684   0.22149   0.22689   0.24400
 Alpha virt. eigenvalues --    0.25417   0.25693   0.26008   0.26580   0.26922
 Alpha virt. eigenvalues --    0.26988   0.27380   0.27415   0.28716   0.29226
 Alpha virt. eigenvalues --    0.29797   0.30261   0.30513   0.31060   0.31625
 Alpha virt. eigenvalues --    0.32210   0.32982   0.33876   0.34034   0.34604
 Alpha virt. eigenvalues --    0.35096   0.36790   0.37266   0.38166   0.38592
 Alpha virt. eigenvalues --    0.38728   0.38803   0.40149   0.40732   0.41807
 Alpha virt. eigenvalues --    0.42415   0.44397   0.44541   0.45168   0.45238
 Alpha virt. eigenvalues --    0.47208   0.48031   0.49098   0.49299   0.50494
 Alpha virt. eigenvalues --    0.51467   0.53118   0.54342   0.54407   0.56517
 Alpha virt. eigenvalues --    0.56821   0.57284   0.57711   0.60653   0.61052
 Alpha virt. eigenvalues --    0.61487   0.62265   0.62970   0.62992   0.64060
 Alpha virt. eigenvalues --    0.64136   0.65243   0.65294   0.67092   0.69008
 Alpha virt. eigenvalues --    0.69625   0.70783   0.71010   0.72507   0.74323
 Alpha virt. eigenvalues --    0.74429   0.75976   0.76024   0.76795   0.78613
 Alpha virt. eigenvalues --    0.79716   0.80919   0.81937   0.82936   0.83943
 Alpha virt. eigenvalues --    0.84336   0.85656   0.86000   0.86125   0.86624
 Alpha virt. eigenvalues --    0.86907   0.88444   0.89729   0.90792   0.91736
 Alpha virt. eigenvalues --    0.93058   0.93776   0.93833   0.94490   0.95385
 Alpha virt. eigenvalues --    0.95480   0.96093   0.97768   1.00021   1.01765
 Alpha virt. eigenvalues --    1.03633   1.03969   1.05003   1.05460   1.06723
 Alpha virt. eigenvalues --    1.07229   1.08556   1.09395   1.09994   1.10040
 Alpha virt. eigenvalues --    1.12033   1.12897   1.12925   1.13215   1.14572
 Alpha virt. eigenvalues --    1.14608   1.15812   1.16574   1.18594   1.18870
 Alpha virt. eigenvalues --    1.19243   1.20905   1.21052   1.22319   1.23441
 Alpha virt. eigenvalues --    1.24558   1.25459   1.26444   1.26524   1.27996
 Alpha virt. eigenvalues --    1.28734   1.29361   1.30929   1.31545   1.32870
 Alpha virt. eigenvalues --    1.33569   1.34322   1.36187   1.36859   1.37522
 Alpha virt. eigenvalues --    1.39008   1.40242   1.43040   1.43238   1.43918
 Alpha virt. eigenvalues --    1.44854   1.45046   1.46166   1.48480   1.52202
 Alpha virt. eigenvalues --    1.54781   1.56154   1.59903   1.60910   1.64171
 Alpha virt. eigenvalues --    1.65026   1.67273   1.70873   1.71667   1.75932
 Alpha virt. eigenvalues --    1.77088   1.81335   1.82146   1.87121   1.87786
 Alpha virt. eigenvalues --    1.88648   1.89973   1.90068   1.93553   1.93766
 Alpha virt. eigenvalues --    1.99218   2.00302   2.01478   2.03482   2.03640
 Alpha virt. eigenvalues --    2.03679   2.04089   2.05048   2.08133   2.09620
 Alpha virt. eigenvalues --    2.11792   2.13468   2.15224   2.16821   2.19446
 Alpha virt. eigenvalues --    2.22173   2.22746   2.23729   2.26073   2.27723
 Alpha virt. eigenvalues --    2.27990   2.28948   2.29154   2.30596   2.31131
 Alpha virt. eigenvalues --    2.31368   2.32799   2.33199   2.33832   2.34727
 Alpha virt. eigenvalues --    2.36055   2.36334   2.36916   2.37965   2.38383
 Alpha virt. eigenvalues --    2.39080   2.40902   2.41140   2.43499   2.44876
 Alpha virt. eigenvalues --    2.47294   2.48435   2.50031   2.50263   2.51063
 Alpha virt. eigenvalues --    2.53388   2.53851   2.54205   2.55359   2.56501
 Alpha virt. eigenvalues --    2.56683   2.57563   2.57908   2.58471   2.59712
 Alpha virt. eigenvalues --    2.60252   2.60818   2.61939   2.63456   2.65080
 Alpha virt. eigenvalues --    2.65367   2.66818   2.66909   2.68059   2.69594
 Alpha virt. eigenvalues --    2.69773   2.70825   2.73833   2.74925   2.75132
 Alpha virt. eigenvalues --    2.75390   2.76471   2.77090   2.77591   2.77761
 Alpha virt. eigenvalues --    2.80348   2.80480   2.81324   2.81827   2.82463
 Alpha virt. eigenvalues --    2.82914   2.83200   2.83568   2.84726   2.85398
 Alpha virt. eigenvalues --    2.85567   2.87296   2.87694   2.88762   2.88956
 Alpha virt. eigenvalues --    2.89578   2.90368   2.90810   2.91854   2.92290
 Alpha virt. eigenvalues --    2.92948   2.94234   2.94292   2.94638   2.94686
 Alpha virt. eigenvalues --    2.97390   2.97786   2.97966   2.98847   2.99425
 Alpha virt. eigenvalues --    2.99982   3.01437   3.01970   3.03113   3.03972
 Alpha virt. eigenvalues --    3.04131   3.04733   3.04942   3.05778   3.07746
 Alpha virt. eigenvalues --    3.08865   3.11669   3.12799   3.13329   3.13631
 Alpha virt. eigenvalues --    3.13747   3.14015   3.14579   3.16284   3.16578
 Alpha virt. eigenvalues --    3.18814   3.18835   3.19462   3.20364   3.20564
 Alpha virt. eigenvalues --    3.20956   3.22131   3.22391   3.23505   3.24913
 Alpha virt. eigenvalues --    3.25426   3.26397   3.26683   3.27538   3.28442
 Alpha virt. eigenvalues --    3.29825   3.31000   3.32521   3.33144   3.33689
 Alpha virt. eigenvalues --    3.35336   3.37656   3.38727   3.39637   3.41136
 Alpha virt. eigenvalues --    3.44584   3.45740   3.45956   3.46981   3.46981
 Alpha virt. eigenvalues --    3.47362   3.49913   3.50673   3.51878   3.52247
 Alpha virt. eigenvalues --    3.52277   3.53724   3.54415   3.54653   3.56795
 Alpha virt. eigenvalues --    3.57126   3.57448   3.58749   3.59267   3.59805
 Alpha virt. eigenvalues --    3.61113   3.62618   3.64282   3.64304   3.64542
 Alpha virt. eigenvalues --    3.64733   3.67196   3.68344   3.68370   3.69099
 Alpha virt. eigenvalues --    3.69161   3.71527   3.71747   3.73096   3.75032
 Alpha virt. eigenvalues --    3.75430   3.75502   3.77598   3.79113   3.79886
 Alpha virt. eigenvalues --    3.81007   3.81778   3.82493   3.84657   3.85341
 Alpha virt. eigenvalues --    3.85966   3.87994   3.88347   3.88953   3.90164
 Alpha virt. eigenvalues --    3.90514   3.92458   3.92783   3.94341   3.95421
 Alpha virt. eigenvalues --    3.95468   3.95731   3.97320   3.98111   3.98406
 Alpha virt. eigenvalues --    4.00107   4.01417   4.01842   4.02417   4.03618
 Alpha virt. eigenvalues --    4.03898   4.04095   4.05395   4.05547   4.06493
 Alpha virt. eigenvalues --    4.09065   4.09642   4.10474   4.10725   4.11820
 Alpha virt. eigenvalues --    4.12604   4.13868   4.17030   4.17147   4.17620
 Alpha virt. eigenvalues --    4.17642   4.19380   4.22077   4.25509   4.25539
 Alpha virt. eigenvalues --    4.26399   4.27435   4.29284   4.30023   4.32671
 Alpha virt. eigenvalues --    4.33609   4.35155   4.41341   4.44309   4.45152
 Alpha virt. eigenvalues --    4.45153   4.45938   4.49018   4.49688   4.51305
 Alpha virt. eigenvalues --    4.52895   4.52942   4.54045   4.55248   4.56053
 Alpha virt. eigenvalues --    4.61752   4.62542   4.65912   4.68247   4.69184
 Alpha virt. eigenvalues --    4.71857   4.72201   4.74512   4.74583   4.78499
 Alpha virt. eigenvalues --    4.78834   4.82741   4.84452   4.85314   4.85921
 Alpha virt. eigenvalues --    4.88628   4.88900   4.90377   4.90817   4.91967
 Alpha virt. eigenvalues --    4.92550   4.93670   4.95171   5.03800   5.05695
 Alpha virt. eigenvalues --    5.11951   5.13035   5.15835   5.17383   5.22155
 Alpha virt. eigenvalues --    5.24227   5.27258   5.29489   5.30689   5.38094
 Alpha virt. eigenvalues --    5.40455   5.44711   5.46100   5.53773   5.55699
 Alpha virt. eigenvalues --    5.56727   5.60085   5.64225   5.66860   5.71046
 Alpha virt. eigenvalues --    5.72825   5.73355   5.80670   5.90584   6.04630
 Alpha virt. eigenvalues --    6.06625   6.40651   6.49900   8.06173   9.42966
 Alpha virt. eigenvalues --   10.99961  11.52790  12.11566  12.15449  12.31183
 Alpha virt. eigenvalues --   12.64992  12.75688  12.77010  13.59314  14.00585
 Alpha virt. eigenvalues --   14.60733  14.91387
          Condensed to atoms (all electrons):
               1          2          3          4          5          6
     1  C    4.939021   0.501841  -0.066081  -0.018384   0.000072  -0.000001
     2  C    0.501841   4.809971   0.474488  -0.052385  -0.000003  -0.000000
     3  C   -0.066081   0.474488   4.898867   0.524445   0.000010  -0.000000
     4  C   -0.018384  -0.052385   0.524445   4.929404  -0.000323   0.000010
     5  C    0.000072  -0.000003   0.000010  -0.000323   4.929404   0.524445
     6  C   -0.000001  -0.000000  -0.000000   0.000010   0.524445   4.898867
     7  C    0.000007  -0.000000  -0.000000  -0.000003  -0.052385   0.474488
     8  C   -0.000163   0.000007  -0.000001   0.000072  -0.018384  -0.066081
     9  C   -0.054121   0.003988  -0.000979   0.004660   0.004660  -0.000979
    10  C    0.004298  -0.001395   0.005898  -0.036530  -0.036530   0.005898
    11  C    0.461992  -0.036941  -0.041739  -0.064385  -0.000857   0.000114
    12  C   -0.046032  -0.022601  -0.048530   0.399390   0.005077  -0.000428
    13  C    0.005672  -0.000157   0.000114  -0.000857  -0.064385  -0.041739
    14  C   -0.000010  -0.000033  -0.000428   0.005077   0.399390  -0.048530
    15  H    0.431824  -0.039252   0.005461  -0.000616  -0.000000   0.000000
    16  H   -0.044689   0.434449  -0.038207   0.004636   0.000000  -0.000000
    17  H    0.005529  -0.039305   0.428920  -0.043018  -0.000000   0.000000
    18  H   -0.000325   0.003232  -0.025931   0.440360  -0.000010   0.000001
    19  H   -0.000135   0.000031   0.000088  -0.000989  -0.000989   0.000088
    20  H   -0.000000  -0.000000   0.000001  -0.000010   0.440360  -0.025931
    21  H    0.000000   0.000000   0.000000  -0.000000  -0.043018   0.428920
    22  H   -0.000000   0.000000  -0.000000   0.000000   0.004636  -0.038207
    23  H    0.000019   0.000001   0.000000  -0.000000  -0.000616   0.005461
    24  H   -0.012188  -0.000006  -0.000041   0.000238  -0.000101   0.000123
    25  H   -0.003890  -0.000249   0.000123  -0.000101   0.000238  -0.000041
               7          8          9         10         11         12
     1  C    0.000007  -0.000163  -0.054121   0.004298   0.461992  -0.046032
     2  C   -0.000000   0.000007   0.003988  -0.001395  -0.036941  -0.022601
     3  C   -0.000000  -0.000001  -0.000979   0.005898  -0.041739  -0.048530
     4  C   -0.000003   0.000072   0.004660  -0.036530  -0.064385   0.399390
     5  C   -0.052385  -0.018384   0.004660  -0.036530  -0.000857   0.005077
     6  C    0.474488  -0.066081  -0.000979   0.005898   0.000114  -0.000428
     7  C    4.809971   0.501841   0.003988  -0.001395  -0.000157  -0.000033
     8  C    0.501841   4.939021  -0.054121   0.004298   0.005672  -0.000010
     9  C    0.003988  -0.054121   5.008746  -0.020730   0.355289  -0.047528
    10  C   -0.001395   0.004298  -0.020730   4.832422  -0.046403   0.482109
    11  C   -0.000157   0.005672   0.355289  -0.046403   5.066325   0.373360
    12  C   -0.000033  -0.000010  -0.047528   0.482109   0.373360   5.017286
    13  C   -0.036941   0.461992   0.355289  -0.046403  -0.036698  -0.026803
    14  C   -0.022601  -0.046032  -0.047528   0.482109  -0.026803  -0.065847
    15  H    0.000001   0.000019   0.003034  -0.000039  -0.050423   0.005766
    16  H    0.000000  -0.000000  -0.000269   0.000042   0.006720  -0.000799
    17  H    0.000000   0.000000   0.000055  -0.000309  -0.000581   0.007023
    18  H   -0.000000  -0.000000  -0.000122   0.000360   0.004344  -0.058381
    19  H    0.000031  -0.000135  -0.000043   0.416183   0.004023  -0.029548
    20  H    0.003232  -0.000325  -0.000122   0.000360  -0.000019   0.000595
    21  H   -0.039305   0.005529   0.000055  -0.000309  -0.000006   0.000018
    22  H    0.434449  -0.044689  -0.000269   0.000042   0.000012  -0.000003
    23  H   -0.039252   0.431824   0.003034  -0.000039   0.000447  -0.000039
    24  H   -0.000249  -0.003890   0.390575  -0.000923  -0.030810   0.007664
    25  H   -0.000006  -0.012188   0.390575  -0.000923  -0.029037   0.002042
              13         14         15         16         17         18
     1  C    0.005672  -0.000010   0.431824  -0.044689   0.005529  -0.000325
     2  C   -0.000157  -0.000033  -0.039252   0.434449  -0.039305   0.003232
     3  C    0.000114  -0.000428   0.005461  -0.038207   0.428920  -0.025931
     4  C   -0.000857   0.005077  -0.000616   0.004636  -0.043018   0.440360
     5  C   -0.064385   0.399390  -0.000000   0.000000  -0.000000  -0.000010
     6  C   -0.041739  -0.048530   0.000000  -0.000000   0.000000   0.000001
     7  C   -0.036941  -0.022601   0.000001   0.000000   0.000000  -0.000000
     8  C    0.461992  -0.046032   0.000019  -0.000000   0.000000  -0.000000
     9  C    0.355289  -0.047528   0.003034  -0.000269   0.000055  -0.000122
    10  C   -0.046403   0.482109  -0.000039   0.000042  -0.000309   0.000360
    11  C   -0.036698  -0.026803  -0.050423   0.006720  -0.000581   0.004344
    12  C   -0.026803  -0.065847   0.005766  -0.000799   0.007023  -0.058381
    13  C    5.066325   0.373360   0.000447   0.000012  -0.000006  -0.000019
    14  C    0.373360   5.017286  -0.000039  -0.000003   0.000018   0.000595
    15  H    0.000447  -0.000039   0.496428  -0.005550  -0.000185   0.000024
    16  H    0.000012  -0.000003  -0.005550   0.496160  -0.005418  -0.000091
    17  H   -0.000006   0.000018  -0.000185  -0.005418   0.507507  -0.005199
    18  H   -0.000019   0.000595   0.000024  -0.000091  -0.005199   0.489767
    19  H    0.004023  -0.029548   0.000007  -0.000001  -0.000021   0.002349
    20  H    0.004344  -0.058381  -0.000000   0.000000   0.000000   0.000000
    21  H   -0.000581   0.007023  -0.000000   0.000000  -0.000000   0.000000
    22  H    0.006720  -0.000799  -0.000000  -0.000000   0.000000   0.000000
    23  H   -0.050423   0.005766   0.000009  -0.000000  -0.000000  -0.000000
    24  H   -0.029037   0.002042   0.000088   0.000002  -0.000001   0.000008
    25  H   -0.030810   0.007664   0.000499  -0.000021   0.000001   0.000006
              19         20         21         22         23         24
     1  C   -0.000135  -0.000000   0.000000  -0.000000   0.000019  -0.012188
     2  C    0.000031  -0.000000   0.000000   0.000000   0.000001  -0.000006
     3  C    0.000088   0.000001   0.000000  -0.000000   0.000000  -0.000041
     4  C   -0.000989  -0.000010  -0.000000   0.000000  -0.000000   0.000238
     5  C   -0.000989   0.440360  -0.043018   0.004636  -0.000616  -0.000101
     6  C    0.000088  -0.025931   0.428920  -0.038207   0.005461   0.000123
     7  C    0.000031   0.003232  -0.039305   0.434449  -0.039252  -0.000249
     8  C   -0.000135  -0.000325   0.005529  -0.044689   0.431824  -0.003890
     9  C   -0.000043  -0.000122   0.000055  -0.000269   0.003034   0.390575
    10  C    0.416183   0.000360  -0.000309   0.000042  -0.000039  -0.000923
    11  C    0.004023  -0.000019  -0.000006   0.000012   0.000447  -0.030810
    12  C   -0.029548   0.000595   0.000018  -0.000003  -0.000039   0.007664
    13  C    0.004023   0.004344  -0.000581   0.006720  -0.050423  -0.029037
    14  C   -0.029548  -0.058381   0.007023  -0.000799   0.005766   0.002042
    15  H    0.000007  -0.000000  -0.000000  -0.000000   0.000009   0.000088
    16  H   -0.000001   0.000000   0.000000  -0.000000  -0.000000   0.000002
    17  H   -0.000021   0.000000  -0.000000   0.000000  -0.000000  -0.000001
    18  H    0.002349   0.000000   0.000000   0.000000  -0.000000   0.000008
    19  H    0.462670   0.002349  -0.000021  -0.000001   0.000007   0.000012
    20  H    0.002349   0.489767  -0.005199  -0.000091   0.000024   0.000006
    21  H   -0.000021  -0.005199   0.507507  -0.005418  -0.000185   0.000001
    22  H   -0.000001  -0.000091  -0.005418   0.496160  -0.005550  -0.000021
    23  H    0.000007   0.000024  -0.000185  -0.005550   0.496428   0.000499
    24  H    0.000012   0.000006   0.000001  -0.000021   0.000499   0.515716
    25  H    0.000012   0.000008  -0.000001   0.000002   0.000088  -0.039289
              25
     1  C   -0.003890
     2  C   -0.000249
     3  C    0.000123
     4  C   -0.000101
     5  C    0.000238
     6  C   -0.000041
     7  C   -0.000006
     8  C   -0.012188
     9  C    0.390575
    10  C   -0.000923
    11  C   -0.029037
    12  C    0.002042
    13  C   -0.030810
    14  C    0.007664
    15  H    0.000499
    16  H   -0.000021
    17  H    0.000001
    18  H    0.000006
    19  H    0.000012
    20  H    0.000008
    21  H   -0.000001
    22  H    0.000002
    23  H    0.000088
    24  H   -0.039289
    25  H    0.515716
 Mulliken charges:
               1
     1  C   -0.104256
     2  C   -0.035679
     3  C   -0.116477
     4  C   -0.090690
     5  C   -0.090690
     6  C   -0.116477
     7  C   -0.035679
     8  C   -0.104256
     9  C   -0.297139
    10  C   -0.042089
    11  C    0.086561
    12  C    0.046250
    13  C    0.086561
    14  C    0.046250
    15  H    0.152499
    16  H    0.153025
    17  H    0.144989
    18  H    0.149032
    19  H    0.169558
    20  H    0.149032
    21  H    0.144989
    22  H    0.153025
    23  H    0.152499
    24  H    0.199582
    25  H    0.199582
 Sum of Mulliken charges =   1.00000
 Mulliken charges with hydrogens summed into heavy atoms:
               1
     1  C    0.048243
     2  C    0.117346
     3  C    0.028512
     4  C    0.058342
     5  C    0.058342
     6  C    0.028512
     7  C    0.117346
     8  C    0.048243
     9  C    0.102024
    10  C    0.127469
    11  C    0.086561
    12  C    0.046250
    13  C    0.086561
    14  C    0.046250
 Electronic spatial extent (au):  <R**2>=           2885.7471
 Charge=              1.0000 electrons
 Dipole moment (field-independent basis, Debye):
    X=             -0.0000    Y=              0.0000    Z=              0.1074  Tot=              0.1074
 Quadrupole moment (field-independent basis, Debye-Ang):
   XX=            -84.3180   YY=            -33.1786   ZZ=            -53.7132
   XY=              0.0529   XZ=              0.0000   YZ=              0.0000
 Traceless Quadrupole moment (field-independent basis, Debye-Ang):
   XX=            -27.2481   YY=             23.8914   ZZ=              3.3567
   XY=              0.0529   XZ=              0.0000   YZ=              0.0000
 Octapole moment (field-independent basis, Debye-Ang**2):
  XXX=              0.0000  YYY=             -0.0000  ZZZ=              4.9043  XYY=              0.0000
  XXY=             -0.0000  XXZ=             -2.8744  XZZ=              0.0000  YZZ=              0.0000
  YYZ=             -8.8938  XYZ=              0.2885
 Hexadecapole moment (field-independent basis, Debye-Ang**3):
 XXXX=           -100.7077 YYYY=          -2179.6363 ZZZZ=           -621.2559 XXXY=             10.7807
 XXXZ=              0.0000 YYYX=             11.3085 YYYZ=              0.0000 ZZZX=              0.0000
 ZZZY=             -0.0000 XXYY=           -590.9554 XXZZ=           -151.3495 YYZZ=           -506.9918
 XXYZ=              0.0000 YYXZ=             -0.0000 ZZXY=              3.0719
 N-N= 7.726644600821D+02 E-N=-2.780193068008D+03  KE= 5.355954523250D+02
 Symmetry A    KE= 3.009816451210D+02
 Symmetry B    KE= 2.346138072039D+02
 Unable to Open any file for archive entry.
 1\1\GINC-GADI-CPU-CLX-1570\SP\RM062X TD-FC\CC-pVTZ\C14H11(1+)\TS1578\2
 6-Jul-2022\0\\#n M062X/cc-pvtz TD EmpiricalDispersion=GD3 SP\\SP_-3\\1
 ,1\C,0,2.4927,1.4171,0.\C,0,3.7015,0.7347,0.024\C,0,3.6839,-0.6781,0.0
 48\C,0,2.4632,-1.4589,0.024\C,0,-2.4632,-1.4589,-0.024\C,0,-3.6839,-0.
 6781,-0.048\C,0,-3.7015,0.7347,-0.024\C,0,-2.4927,1.4171,0.\C,0,0.,1.4
 861,0.\C,0,0.,-1.5075,0.\C,0,1.2621,0.6587,-0.033\C,0,1.2375,-0.7491,0
 .003\C,0,-1.2621,0.6587,0.033\C,0,-1.2375,-0.7491,-0.003\H,0,2.4881,2.
 4673,0.\H,0,4.6368,1.2744,0.021\H,0,4.6093,-1.2607,0.006\H,0,2.4675,-2
 .5084,0.024\H,0,0.,-2.5766,0.\H,0,-2.4675,-2.5084,-0.024\H,0,-4.6093,-
 1.2607,-0.006\H,0,-4.6368,1.2744,-0.021\H,0,-2.4881,2.4673,0.\H,0,0.,2
 .2865,-0.8596\H,0,0.,2.2865,0.8596\\Version=ES64L-G16RevC.01\State=1-A
 \HF=-539.778535\RMSD=8.469e-09\PG=C02 [C2(C1C1H1),X(C12H10)]\\@
 The archive entry for this job was punched.


 WAR ES EIN GOTT DER DIESE ZEICHEN SCHRIEB?
          - LUDWIG BOLTZMANN, QUOTING GOETHE, ABOUT MAXWELL'S EQUATIONS.
 Job cpu time:       0 days  1 hours 47 minutes  5.9 seconds.
 Elapsed time:       0 days  0 hours  6 minutes 50.0 seconds.
 File lengths (MBytes):  RWF=    833 Int=      0 D2E=      0 Chk=     49 Scr=      1
 Normal termination of Gaussian 16 at Tue Jul 26 12:38:33 2022.
