 Entering Gaussian System, Link 0=g16
 Initial command:
 /apps/gaussian/g16c01/g16/l1.exe "/jobfs/53803768.gadi-pbs/Gau-193025.inp" -scrdir="/jobfs/53803768.gadi-pbs/"
 Entering Link 1 = /apps/gaussian/g16c01/g16/l1.exe PID=    193026.
  
 Copyright (c) 1988-2019, Gaussian, Inc.  All Rights Reserved.
  
 This is part of the Gaussian(R) 16 program.  It is based on
 the Gaussian(R) 09 system (copyright 2009, Gaussian, Inc.),
 the Gaussian(R) 03 system (copyright 2003, Gaussian, Inc.),
 the Gaussian(R) 98 system (copyright 1998, Gaussian, Inc.),
 the Gaussian(R) 94 system (copyright 1995, Gaussian, Inc.),
 the Gaussian 92(TM) system (copyright 1992, Gaussian, Inc.),
 the Gaussian 90(TM) system (copyright 1990, Gaussian, Inc.),
 the Gaussian 88(TM) system (copyright 1988, Gaussian, Inc.),
 the Gaussian 86(TM) system (copyright 1986, Carnegie Mellon
 University), and the Gaussian 82(TM) system (copyright 1983,
 Carnegie Mellon University). Gaussian is a federally registered
 trademark of Gaussian, Inc.
  
 This software contains proprietary and confidential information,
 including trade secrets, belonging to Gaussian, Inc.
  
 This software is provided under written license and may be
 used, copied, transmitted, or stored only in accord with that
 written license.
  
 The following legend is applicable only to US Government
 contracts under FAR:
  
                    RESTRICTED RIGHTS LEGEND
  
 Use, reproduction and disclosure by the US Government is
 subject to restrictions as set forth in subparagraphs (a)
 and (c) of the Commercial Computer Software - Restricted
 Rights clause in FAR 52.227-19.
  
 Gaussian, Inc.
 340 Quinnipiac St., Bldg. 40, Wallingford CT 06492
  
  
 ---------------------------------------------------------------
 Warning -- This program may not be used in any manner that
 competes with the business of Gaussian, Inc. or will provide
 assistance to any competitor of Gaussian, Inc.  The licensee
 of this program is prohibited from giving any competitor of
 Gaussian, Inc. access to this program.  By using this program,
 the user acknowledges that Gaussian, Inc. is engaged in the
 business of creating and licensing software in the field of
 computational chemistry and represents and warrants to the
 licensee that it is not a competitor of Gaussian, Inc. and that
 it will not use this program in any manner prohibited above.
 ---------------------------------------------------------------
  

 Cite this work as:
 Gaussian 16, Revision C.01,
 M. J. Frisch, G. W. Trucks, H. B. Schlegel, G. E. Scuseria, 
 M. A. Robb, J. R. Cheeseman, G. Scalmani, V. Barone, 
 G. A. Petersson, H. Nakatsuji, X. Li, M. Caricato, A. V. Marenich, 
 J. Bloino, B. G. Janesko, R. Gomperts, B. Mennucci, H. P. Hratchian, 
 J. V. Ortiz, A. F. Izmaylov, J. L. Sonnenberg, D. Williams-Young, 
 F. Ding, F. Lipparini, F. Egidi, J. Goings, B. Peng, A. Petrone, 
 T. Henderson, D. Ranasinghe, V. G. Zakrzewski, J. Gao, N. Rega, 
 G. Zheng, W. Liang, M. Hada, M. Ehara, K. Toyota, R. Fukuda, 
 J. Hasegawa, M. Ishida, T. Nakajima, Y. Honda, O. Kitao, H. Nakai, 
 T. Vreven, K. Throssell, J. A. Montgomery, Jr., J. E. Peralta, 
 F. Ogliaro, M. J. Bearpark, J. J. Heyd, E. N. Brothers, K. N. Kudin, 
 V. N. Staroverov, T. A. Keith, R. Kobayashi, J. Normand, 
 K. Raghavachari, A. P. Rendell, J. C. Burant, S. S. Iyengar, 
 J. Tomasi, M. Cossi, J. M. Millam, M. Klene, C. Adamo, R. Cammi, 
 J. W. Ochterski, R. L. Martin, K. Morokuma, O. Farkas, 
 J. B. Foresman, and D. J. Fox, Gaussian, Inc., Wallingford CT, 2019.
 
 ******************************************
 Gaussian 16:  ES64L-G16RevC.01  3-Jul-2019
                 2-Aug-2022 
 ******************************************
 %NProcShared=48
 Will use up to   48 processors via shared memory.
 %mem = 190GB
 ---------------------------------------------------------------
 #n M062X/6-311++G(d,p) TD(NStates=1) EmpiricalDispersion=GD3 SP
 ---------------------------------------------------------------
 1/38=1,172=1/1;
 2/12=2,17=6,18=5,40=1/2;
 3/5=4,6=6,7=1111,11=9,25=1,30=1,74=-55,124=31/1,2,3,8;
 4//1;
 5/5=2,38=5/2;
 8/6=1,10=2,108=1/1;
 9/41=1,42=1,70=2/14;
 6/7=2,8=2,9=2,10=2/1;
 99/5=1,9=1/99;
 ----
 SP_0
 ----
 Symbolic Z-matrix:
 Charge =  1 Multiplicity = 1
 C                     0.        2.62265   1.34043 
 C                     0.        3.76151   0.50199 
 C                     0.        3.63386  -0.88383 
 C                     0.        2.34316  -1.42754 
 C                     0.       -2.34316  -1.42754 
 C                     0.       -3.63386  -0.88383 
 C                     0.       -3.76151   0.50199 
 C                     0.       -2.62265   1.34043 
 C                     0.        0.        1.60337 
 C                     0.        0.       -1.27919 
 C                     0.        1.29206   0.80707 
 C                     0.        1.21747  -0.6008 
 C                     0.       -1.29206   0.80707 
 C                     0.       -1.21747  -0.6008 
 H                     0.        2.77807   2.42365 
 H                     0.        4.74675   0.95169 
 H                     0.        4.50926  -1.53235 
 H                     0.        2.19755  -2.51006 
 H                     0.        0.       -2.35027 
 H                     0.       -2.19755  -2.51006 
 H                     0.       -4.50926  -1.53235 
 H                     0.       -4.74675   0.95169 
 H                     0.       -2.77807   2.42365 
 H                    -0.85959   0.        2.29579 
 H                     0.85959   0.        2.29579 
 
                          Input orientation:                          
 ---------------------------------------------------------------------
 Center     Atomic      Atomic             Coordinates (Angstroms)
 Number     Number       Type             X           Y           Z
 ---------------------------------------------------------------------
      1          6           0        0.000000    2.622655    1.340431
      2          6           0        0.000000    3.761508    0.501989
      3          6           0        0.000000    3.633861   -0.883830
      4          6           0        0.000000    2.343156   -1.427538
      5          6           0        0.000000   -2.343156   -1.427538
      6          6           0        0.000000   -3.633861   -0.883830
      7          6           0        0.000000   -3.761508    0.501989
      8          6           0        0.000000   -2.622655    1.340431
      9          6           0        0.000000    0.000000    1.603369
     10          6           0        0.000000    0.000000   -1.279189
     11          6           0        0.000000    1.292055    0.807065
     12          6           0        0.000000    1.217471   -0.600804
     13          6           0        0.000000   -1.292055    0.807065
     14          6           0        0.000000   -1.217471   -0.600804
     15          1           0        0.000000    2.778071    2.423647
     16          1           0        0.000000    4.746753    0.951689
     17          1           0        0.000000    4.509262   -1.532349
     18          1           0        0.000000    2.197550   -2.510059
     19          1           0        0.000000    0.000000   -2.350266
     20          1           0        0.000000   -2.197550   -2.510059
     21          1           0        0.000000   -4.509262   -1.532349
     22          1           0        0.000000   -4.746753    0.951689
     23          1           0        0.000000   -2.778071    2.423647
     24          1           0       -0.859585    0.000000    2.295787
     25          1           0        0.859585    0.000000    2.295787
 ---------------------------------------------------------------------
                    Distance matrix (angstroms):
                    1          2          3          4          5
     1  C    0.000000
     2  C    1.414203   0.000000
     3  C    2.443333   1.391685   0.000000
     4  C    2.782045   2.394744   1.400549   0.000000
     5  C    5.685150   6.402343   6.001696   4.686312   0.000000
     6  C    6.640130   7.524093   7.267722   6.001696   1.400549
     7  C    6.438985   7.523016   7.524093   6.402343   2.394744
     8  C    5.245310   6.438985   6.640130   5.685150   2.782045
     9  C    2.635803   3.919436   4.403533   3.831028   3.831028
    10  C    3.706849   4.161915   3.655305   2.347847   2.347847
    11  C    1.433519   2.488226   2.888457   2.469466   4.267108
    12  C    2.396442   2.772774   2.432909   1.396659   3.655346
    13  C    3.950878   5.062763   5.208049   4.267108   2.469466
    14  C    4.302901   5.099646   4.859581   3.655346   1.396659
    15  H    1.094308   2.158684   3.416399   3.875665   6.407698
    16  H    2.159378   1.083023   2.146546   3.382011   7.478471
    17  H    3.436881   2.167410   1.089451   2.168640   6.853220
    18  H    3.873885   3.393877   2.169703   1.092270   4.667961
    19  H    4.527644   4.720625   3.918594   2.518294   2.518294
    20  H    6.169331   6.677036   6.053922   4.667961   1.092270
    21  H    7.688765   8.517286   8.168906   6.853220   2.168640
    22  H    7.379654   8.520137   8.579267   7.478471   3.382011
    23  H    5.508285   6.816074   7.214726   6.407698   3.875665
    24  H    2.920601   4.255061   4.904467   4.482456   4.482456
    25  H    2.920601   4.255061   4.904467   4.482456   4.482456
                    6          7          8          9         10
     6  C    0.000000
     7  C    1.391685   0.000000
     8  C    2.443333   1.414203   0.000000
     9  C    4.403533   3.919436   2.635803   0.000000
    10  C    3.655305   4.161915   3.706849   2.882558   0.000000
    11  C    5.208049   5.062763   3.950878   1.517731   2.453948
    12  C    4.859581   5.099646   4.302901   2.518058   1.393715
    13  C    2.888457   2.488226   1.433519   1.517731   2.453948
    14  C    2.432909   2.772774   2.396442   2.518058   1.393715
    15  H    7.214726   6.816074   5.508285   2.896642   4.629111
    16  H    8.579267   8.520137   7.379654   4.791279   5.244853
    17  H    8.168906   8.517286   7.688765   5.492374   4.516363
    18  H    6.053922   6.677036   6.169331   4.663638   2.518783
    19  H    3.918594   4.720625   4.527644   3.953635   1.071077
    20  H    2.169703   3.393877   3.873885   4.663638   2.518783
    21  H    1.089451   2.167410   3.436881   5.492374   4.516363
    22  H    2.146546   1.083023   2.159378   4.791279   5.244853
    23  H    3.416399   2.158684   1.094308   2.896642   4.629111
    24  H    4.904467   4.255061   2.920601   1.103779   3.676865
    25  H    4.904467   4.255061   2.920601   1.103779   3.676865
                   11         12         13         14         15
    11  C    0.000000
    12  C    1.409843   0.000000
    13  C    2.584110   2.877467   0.000000
    14  C    2.877467   2.434942   1.409843   0.000000
    15  H    2.195810   3.403348   4.379414   5.011154   0.000000
    16  H    3.457724   3.855654   6.040540   6.162970   2.458123
    17  H    3.977849   3.421062   6.255249   5.802004   4.318209
    18  H    3.438493   2.146115   4.814629   3.912496   4.967742
    19  H    3.411473   2.131397   3.411473   2.131397   5.523398
    20  H    4.814629   3.912496   3.438493   2.146115   7.007015
    21  H    6.255249   5.802004   3.977849   3.421062   8.291871
    22  H    6.040540   6.162970   3.457724   3.855654   7.667440
    23  H    4.379414   5.011154   2.195810   3.403348   5.556142
    24  H    2.150485   3.257508   2.150485   3.257508   2.910827
    25  H    2.150485   3.257508   2.150485   3.257508   2.910827
                   16         17         18         19         20
    16  H    0.000000
    17  H    2.495365   0.000000
    18  H    4.299085   2.509966   0.000000
    19  H    5.782263   4.582841   2.203352   0.000000
    20  H    7.759320   6.777702   4.395100   2.203352   0.000000
    21  H    9.583541   9.018524   6.777702   4.582841   2.509966
    22  H    9.493506   9.583541   7.759320   5.782263   4.299085
    23  H    7.667440   8.291871   7.007015   5.523398   4.967742
    24  H    5.007709   5.977203   5.353902   4.724902   5.353902
    25  H    5.007709   5.977203   5.353902   4.724902   5.353902
                   21         22         23         24         25
    21  H    0.000000
    22  H    2.495365   0.000000
    23  H    4.318209   2.458123   0.000000
    24  H    5.977203   5.007709   2.910827   0.000000
    25  H    5.977203   5.007709   2.910827   1.719170   0.000000
 Stoichiometry    C14H11(1+)
 Framework group  C2V[C2(HCC),SGV(C12H8),SGV'(H2)]
 Deg. of freedom    24
 Full point group                 C2V     NOp   4
 Largest Abelian subgroup         C2V     NOp   4
 Largest concise Abelian subgroup C2V     NOp   4
                         Standard orientation:                         
 ---------------------------------------------------------------------
 Center     Atomic      Atomic             Coordinates (Angstroms)
 Number     Number       Type             X           Y           Z
 ---------------------------------------------------------------------
      1          6           0        0.000000    2.622655    1.343589
      2          6           0        0.000000    3.761508    0.505147
      3          6           0        0.000000    3.633861   -0.880672
      4          6           0        0.000000    2.343156   -1.424380
      5          6           0       -0.000000   -2.343156   -1.424380
      6          6           0       -0.000000   -3.633861   -0.880672
      7          6           0       -0.000000   -3.761508    0.505147
      8          6           0       -0.000000   -2.622655    1.343589
      9          6           0       -0.000000   -0.000000    1.606527
     10          6           0        0.000000    0.000000   -1.276031
     11          6           0        0.000000    1.292055    0.810223
     12          6           0        0.000000    1.217471   -0.597646
     13          6           0       -0.000000   -1.292055    0.810223
     14          6           0       -0.000000   -1.217471   -0.597646
     15          1           0        0.000000    2.778071    2.426805
     16          1           0        0.000000    4.746753    0.954847
     17          1           0        0.000000    4.509262   -1.529191
     18          1           0        0.000000    2.197550   -2.506901
     19          1           0        0.000000    0.000000   -2.347108
     20          1           0       -0.000000   -2.197550   -2.506901
     21          1           0       -0.000000   -4.509262   -1.529191
     22          1           0       -0.000000   -4.746753    0.954847
     23          1           0       -0.000000   -2.778071    2.426805
     24          1           0       -0.859585    0.000000    2.298945
     25          1           0        0.859585   -0.000000    2.298945
 ---------------------------------------------------------------------
 Rotational constants (GHZ):           2.1024783           0.4424757           0.3663344
 Standard basis: 6-311++G(d,p) (5D, 7F)
 There are   161 symmetry adapted cartesian basis functions of A1  symmetry.
 There are    43 symmetry adapted cartesian basis functions of A2  symmetry.
 There are    57 symmetry adapted cartesian basis functions of B1  symmetry.
 There are   138 symmetry adapted cartesian basis functions of B2  symmetry.
 There are   153 symmetry adapted basis functions of A1  symmetry.
 There are    43 symmetry adapted basis functions of A2  symmetry.
 There are    57 symmetry adapted basis functions of B1  symmetry.
 There are   132 symmetry adapted basis functions of B2  symmetry.
   385 basis functions,   603 primitive gaussians,   399 cartesian basis functions
    47 alpha electrons       47 beta electrons
       nuclear repulsion energy       777.9783792098 Hartrees.
 NAtoms=   25 NActive=   25 NUniq=   14 SFac= 3.19D+00 NAtFMM=   60 NAOKFM=F Big=F
 Integral buffers will be    131072 words long.
 Regular integral format.
 Two-electron integral symmetry is turned on.
 Nuclear repulsion after empirical dispersion term =      777.9773948811 Hartrees.
 One-electron integrals computed using PRISM.
 NBasis=   385 RedAO= T EigKep=  1.75D-06  NBF=   153    43    57   132
 NBsUse=   379 1.00D-06 EigRej=  6.47D-07 NBFU=   150    43    57   129
 ExpMin= 3.60D-02 ExpMax= 4.56D+03 ExpMxC= 6.82D+02 IAcc=3 IRadAn=         5 AccDes= 0.00D+00
 Harris functional with IExCor= 1009 and IRadAn=       5 diagonalized for initial guess.
 HarFok:  IExCor= 1009 AccDes= 0.00D+00 IRadAn=         5 IDoV= 1 UseB2=F ITyADJ=14
 ICtDFT=  3500011 ScaDFX=  1.000000  1.000000  1.000000  1.000000
 FoFCou: FMM=F IPFlag=           0 FMFlag=      100000 FMFlg1=           0
         NFxFlg=           0 DoJE=T BraDBF=F KetDBF=T FulRan=T
         wScrn=  0.000000 ICntrl=       500 IOpCl=  0 I1Cent=   200000004 NGrid=           0
         NMat0=    1 NMatS0=      1 NMatT0=    0 NMatD0=    1 NMtDS0=    0 NMtDT0=    0
 Petite list used in FoFCou.
 Initial guess orbital symmetries:
       Occupied  (A1) (B2) (A1) (A1) (B2) (A1) (B2) (A1) (B2) (A1)
                 (B2) (A1) (B2) (A1) (A1) (B2) (A1) (A1) (B2) (B2)
                 (A1) (A1) (B2) (A1) (B2) (A1) (B2) (A1) (A1) (B2)
                 (B2) (A1) (B1) (B2) (B2) (A1) (A1) (A1) (B1) (B2)
                 (A2) (B2) (A1) (B1) (A2) (A2) (B1)
       Virtual   (B1) (B1) (A2) (A2) (B1) (A1) (B2) (A1) (A1) (A2)
                 (B1) (B2) (A1) (B2) (B1) (A1) (A1) (B2) (A1) (B2)
                 (A2) (B1) (B2) (A1) (A1) (B1) (A1) (A2) (B2) (A1)
                 (B2) (A1) (B2) (B1) (B2) (A1) (A1) (A2) (A1) (B1)
                 (B2) (A1) (B2) (B1) (B2) (A1) (A1) (B2) (B2) (A2)
                 (B2) (B1) (A1) (A2) (A1) (A1) (B2) (B1) (A1) (B1)
                 (B2) (A1) (B2) (A1) (A1) (B2) (B2) (A1) (B1) (A2)
                 (B2) (A1) (A1) (B2) (A1) (B2) (B2) (A1) (A1) (A1)
                 (A1) (B2) (B2) (B2) (A1) (A1) (B2) (A1) (B2) (A1)
                 (B2) (A1) (B2) (A1) (B2) (A1) (B2) (B1) (A2) (B2)
                 (A1) (B1) (A1) (B1) (B2) (A1) (B1) (A2) (A1) (A2)
                 (B2) (B1) (A1) (B2) (B1) (A2) (B2) (A1) (A1) (A2)
                 (B1) (B1) (B2) (A1) (A2) (B2) (A1) (B2) (A1) (A1)
                 (B1) (A1) (B2) (A1) (A1) (B2) (B2) (A1) (B2) (A2)
                 (B2) (A1) (B2) (A1) (A1) (B2) (A1) (B2) (B2) (A1)
                 (B1) (A2) (B1) (A2) (B2) (A1) (B2) (A1) (B1) (A2)
                 (A1) (B1) (A1) (A2) (A2) (B1) (B2) (B2) (A1) (B2)
                 (B1) (A1) (A1) (A2) (B2) (B2) (A1) (B2) (A1) (B2)
                 (A1) (B1) (B2) (B1) (A1) (B2) (A1) (A2) (A2) (B1)
                 (A2) (A1) (A1) (B2) (B1) (B2) (A1) (B1) (A1) (B2)
                 (A2) (B1) (B1) (A1) (B2) (A2) (B2) (B1) (A1) (A1)
                 (A2) (A2) (B1) (A1) (B2) (B2) (B2) (A1) (A2) (A1)
                 (B1) (B2) (A1) (B2) (B1) (A1) (B2) (A2) (B2) (B1)
                 (A1) (B2) (A1) (A2) (A1) (B2) (B1) (B2) (A2) (A1)
                 (B1) (A1) (B2) (A1) (B2) (A2) (A1) (B2) (A1) (B2)
                 (B1) (A1) (B1) (B2) (A2) (A1) (B2) (B1) (A1) (A1)
                 (B1) (A1) (B2) (A2) (A1) (B2) (A1) (B2) (B1) (A1)
                 (A2) (B2) (A1) (B2) (B1) (B1) (A1) (B2) (A2) (A1)
                 (A2) (B2) (B1) (A1) (B1) (A2) (B2) (A1) (B2) (A1)
                 (B2) (A1) (B2) (A1) (A1) (B2) (A1) (A1) (B2) (B2)
                 (A1) (B2) (A1) (B1) (A1) (B2) (A1) (B2) (A1) (B2)
                 (A1) (B2) (A1) (A1) (B2) (B2) (B2) (A1) (A1) (B2)
                 (A1) (A1) (B2) (A1) (B2) (B2) (A1) (A1) (B2) (A1)
                 (B2) (A1)
 The electronic state of the initial guess is 1-A1.
 Requested convergence on RMS density matrix=1.00D-08 within 128 cycles.
 Requested convergence on MAX density matrix=1.00D-06.
 Requested convergence on             energy=1.00D-06.
 No special actions if energy rises.
 SCF Done:  E(RM062X) =  -539.752085371     A.U. after   14 cycles
            NFock= 14  Conv=0.99D-08     -V/T= 2.0047
 DoSCS=F DFT=T ScalE2(SS,OS)=  1.000000  1.000000
 ExpMin= 3.60D-02 ExpMax= 4.56D+03 ExpMxC= 6.82D+02 IAcc=3 IRadAn=         5 AccDes= 0.00D+00
 HarFok:  IExCor=  205 AccDes= 0.00D+00 IRadAn=         5 IDoV=-2 UseB2=F ITyADJ=14
 ICtDFT= 12500011 ScaDFX=  1.000000  1.000000  1.000000  1.000000
 Range of M.O.s used for correlation:    15   379
 NBasis=   385 NAE=    47 NBE=    47 NFC=    14 NFV=     0
 NROrb=    365 NOA=    33 NOB=    33 NVA=   332 NVB=   332

 **** Warning!!: The largest alpha MO coefficient is  0.14565832D+03

 Orbital symmetries:
       Occupied  (A1) (B2) (A1) (A1) (B2) (A1) (B2) (A1) (B2) (A1)
                 (B2) (A1) (B2) (A1) (A1) (B2) (A1) (A1) (B2) (B2)
                 (A1) (A1) (A1) (B2) (B2) (A1) (B2) (A1) (A1) (B2)
                 (A1) (B2) (B1) (B2) (A1) (B2) (A1) (B1) (A2) (A1)
                 (B2) (A1) (B2) (B1) (A2) (A2) (B1)
       Virtual   (B1) (B1) (A2) (A2) (A1) (A1) (B2) (A1) (B1) (B2)
                 (A1) (B1) (B2) (A1) (B1) (B2) (A2) (A1) (B2) (A1)
                 (B1) (A2) (A1) (B2) (A1) (B1) (A1) (B1) (A2) (A2)
                 (B2) (B2) (A1) (A1) (B2) (B2) (A1) (B2) (B1) (A1)
                 (A2) (A1) (B2) (B1) (A1) (B1) (A2) (A1) (B1) (B2)
                 (A1) (B2) (A1) (B2) (A1) (B1) (A1) (B2) (B2) (A1)
                 (A1) (A2) (B2) (A1) (B2) (B1) (A1) (A1) (B2) (B2)
                 (A1) (B2) (A1) (A1) (B2) (B2) (A1) (A1) (B2) (A1)
                 (B2) (A1) (B2) (B2) (A1) (B2) (A1) (A1) (B2) (A1)
                 (B2) (A1) (B2) (B1) (A1) (B1) (A1) (A2) (B2) (A1)
                 (B1) (B2) (A1) (B2) (B1) (A2) (A1) (B2) (A2) (B2)
                 (B1) (A1) (B1) (A2) (A1) (B2) (A1) (A2) (B2) (B1)
                 (A1) (B1) (A2) (B2) (A1) (A1) (B1) (B2) (A1) (B2)
                 (A1) (A1) (B2) (A1) (A1) (B2) (A1) (B2) (B2) (A1)
                 (B2) (B2) (A1) (A1) (A2) (B2) (A1) (B2) (B2) (A1)
                 (B2) (B2) (B1) (A1) (A2) (A1) (B1) (A2) (A1) (A1)
                 (B1) (A2) (B2) (B1) (B2) (A2) (A2) (B1) (A1) (B2)
                 (A1) (B2) (B1) (A1) (A2) (A1) (B2) (B2) (A1) (A1)
                 (B1) (B2) (A1) (B1) (B2) (A2) (A1) (B2) (A2) (B1)
                 (A2) (A1) (A1) (B1) (B2) (B2) (A1) (B1) (A1) (B2)
                 (B1) (A2) (B1) (A1) (B2) (A2) (B2) (B1) (A1) (A1)
                 (A2) (B1) (A2) (A1) (B2) (B2) (A1) (B2) (A2) (A1)
                 (B1) (B2) (A1) (B2) (B1) (A1) (B2) (B2) (A2) (B1)
                 (A1) (B2) (A1) (A2) (A1) (B2) (B1) (B2) (A2) (A1)
                 (B1) (A1) (B2) (B2) (A2) (A1) (A1) (B2) (A1) (B2)
                 (A1) (B1) (B2) (A1) (B2) (B1) (A1) (B1) (A1) (A2)
                 (B2) (A1) (A1) (B2) (A1) (B1) (B2) (B2) (A1) (B2)
                 (A1) (A2) (A1) (B1) (A2) (B2) (B1) (A1) (B1) (A2)
                 (B2) (A2) (A1) (B1) (B1) (A2) (B2) (A1) (B2) (A1)
                 (A1) (B2) (B2) (A1) (A1) (B2) (A1) (A1) (B2) (B2)
                 (B2) (A1) (A1) (B1) (A1) (B2) (A1) (B2) (A1) (B2)
                 (A1) (B2) (A1) (A1) (B2) (B2) (B2) (A1) (A1) (B2)
                 (A1) (A1) (B2) (A1) (B2) (A1) (B2) (A1) (B2) (A1)
                 (B2) (A1)
     4 initial guesses have been made.
 Convergence on wavefunction:    0.001000000000000
 Iteration     1 Dimension     4 NMult     0 NNew      4
 CISAX will form     4 AO SS matrices at one time.
 Iteration     2 Dimension     6 NMult     4 NNew      2
 Iteration     3 Dimension     8 NMult     6 NNew      2
 Iteration     4 Dimension    10 NMult     8 NNew      2
 Iteration     5 Dimension    12 NMult    10 NNew      2
 Iteration     6 Dimension    14 NMult    12 NNew      2
 ***********************************************************************
 Excited states from <AA,BB:AA,BB> singles matrix:
 ***********************************************************************
 
 Ground to excited state transition densities written to RWF  633
 Ground to excited state transition electric dipole moments (Au):
       state          X           Y           Z        Dip. S.      Osc.
         1        -0.0000     -0.0000      0.6608      0.4366      0.0326
 Ground to excited state transition velocity dipole moments (Au):
       state          X           Y           Z        Dip. S.      Osc.
         1        -0.0000      0.0000     -0.0815      0.0066      0.0395
 Ground to excited state transition magnetic dipole moments (Au):
       state          X           Y           Z
         1        -0.0000     -0.0000     -0.0000
 Ground to excited state transition velocity quadrupole moments (Au):
       state          XX          YY          ZZ          XY          XZ          YZ
         1        -0.0094      0.3372      0.0084      0.0000     -0.0000     -0.0000
 <0|del|b> * <b|rxdel|0> + <0|del|b> * <b|delr+rdel|0>
 Rotatory Strengths (R) in cgs (10**-40 erg-esu-cm/Gauss)
       state          XX          YY          ZZ    R(velocity)    E-M Angle
         1        -0.0000      0.0000      0.0000      0.0000       90.00
 1/2[<0|r|b>*<b|rxdel|0> + (<0|rxdel|b>*<b|r|0>)*]
 Rotatory Strengths (R) in cgs (10**-40 erg-esu-cm/Gauss)
       state          XX          YY          ZZ     R(length)
         1        -0.0000     -0.0000      0.0000      0.0000
  1/2[<0|del|b>*<b|r|0> + (<0|r|b>*<b|del|0>)*] (Au)
       state          X           Y           Z        Dip. S.   Osc.(frdel)
         1         0.0000     -0.0000     -0.0539      0.0539      0.0359

 Excitation energies and oscillator strengths:
 
 Excited State   1:      Singlet-A1     3.0499 eV  406.52 nm  f=0.0326  <S**2>=0.000
      47 -> 48         0.70277
 This state for optimization and/or second-order correction.
 Total Energy, E(TD-HF/TD-DFT) =  -539.640005142    
 Copying the excited state density for this state as the 1-particle RhoCI density.
 SavETr:  write IOETrn=   770 NScale= 10 NData=  16 NLR=1 NState=    1 LETran=      28.

 **********************************************************************

            Population analysis using the SCF Density.

 **********************************************************************

 Orbital symmetries:
       Occupied  (A1) (B2) (A1) (A1) (B2) (A1) (B2) (A1) (B2) (A1)
                 (B2) (A1) (B2) (A1) (A1) (B2) (A1) (A1) (B2) (B2)
                 (A1) (A1) (A1) (B2) (B2) (A1) (B2) (A1) (A1) (B2)
                 (A1) (B2) (B1) (B2) (A1) (B2) (A1) (B1) (A2) (A1)
                 (B2) (A1) (B2) (B1) (A2) (A2) (B1)
       Virtual   (B1) (B1) (A2) (A2) (A1) (A1) (B2) (A1) (B1) (B2)
                 (A1) (B1) (B2) (A1) (B1) (B2) (A2) (A1) (B2) (A1)
                 (B1) (A2) (A1) (B2) (A1) (B1) (A1) (B1) (A2) (A2)
                 (B2) (B2) (A1) (A1) (B2) (B2) (A1) (B2) (B1) (A1)
                 (A2) (A1) (B2) (B1) (A1) (B1) (A2) (A1) (B1) (B2)
                 (A1) (B2) (A1) (B2) (A1) (B1) (A1) (B2) (B2) (A1)
                 (A1) (A2) (B2) (A1) (B2) (B1) (A1) (A1) (B2) (B2)
                 (A1) (B2) (A1) (A1) (B2) (B2) (A1) (A1) (B2) (A1)
                 (B2) (A1) (B2) (B2) (A1) (B2) (A1) (A1) (B2) (A1)
                 (B2) (A1) (B2) (B1) (A1) (B1) (A1) (A2) (B2) (A1)
                 (B1) (B2) (A1) (B2) (B1) (A2) (A1) (B2) (A2) (B2)
                 (B1) (A1) (B1) (A2) (A1) (B2) (A1) (A2) (B2) (B1)
                 (A1) (B1) (A2) (B2) (A1) (A1) (B1) (B2) (A1) (B2)
                 (A1) (A1) (B2) (A1) (A1) (B2) (A1) (B2) (B2) (A1)
                 (B2) (B2) (A1) (A1) (A2) (B2) (A1) (B2) (B2) (A1)
                 (B2) (B2) (B1) (A1) (A2) (A1) (B1) (A2) (A1) (A1)
                 (B1) (A2) (B2) (B1) (B2) (A2) (A2) (B1) (A1) (B2)
                 (A1) (B2) (B1) (A1) (A2) (A1) (B2) (B2) (A1) (A1)
                 (B1) (B2) (A1) (B1) (B2) (A2) (A1) (B2) (A2) (B1)
                 (A2) (A1) (A1) (B1) (B2) (B2) (A1) (B1) (A1) (B2)
                 (B1) (A2) (B1) (A1) (B2) (A2) (B2) (B1) (A1) (A1)
                 (A2) (B1) (A2) (A1) (B2) (B2) (A1) (B2) (A2) (A1)
                 (B1) (B2) (A1) (B2) (B1) (A1) (B2) (B2) (A2) (B1)
                 (A1) (B2) (A1) (A2) (A1) (B2) (B1) (B2) (A2) (A1)
                 (B1) (A1) (B2) (B2) (A2) (A1) (A1) (B2) (A1) (B2)
                 (A1) (B1) (B2) (A1) (B2) (B1) (A1) (B1) (A1) (A2)
                 (B2) (A1) (A1) (B2) (A1) (B1) (B2) (B2) (A1) (B2)
                 (A1) (A2) (A1) (B1) (A2) (B2) (B1) (A1) (B1) (A2)
                 (B2) (A2) (A1) (B1) (B1) (A2) (B2) (A1) (B2) (A1)
                 (A1) (B2) (B2) (A1) (A1) (B2) (A1) (A1) (B2) (B2)
                 (B2) (A1) (A1) (B1) (A1) (B2) (A1) (B2) (A1) (B2)
                 (A1) (B2) (A1) (A1) (B2) (B2) (B2) (A1) (A1) (B2)
                 (A1) (A1) (B2) (A1) (B2) (A1) (B2) (A1) (B2) (A1)
                 (B2) (A1)
 The electronic state is 1-A1.
 Alpha  occ. eigenvalues --  -10.76274 -10.74055 -10.74055 -10.71953 -10.71754
 Alpha  occ. eigenvalues --  -10.71752 -10.71486 -10.71485 -10.71410 -10.71410
 Alpha  occ. eigenvalues --  -10.70893 -10.70893 -10.69852 -10.69852  -1.16398
 Alpha  occ. eigenvalues --   -1.12144  -1.06730  -1.05264  -1.01041  -1.00081
 Alpha  occ. eigenvalues --   -0.95512  -0.90815  -0.86421  -0.85888  -0.83590
 Alpha  occ. eigenvalues --   -0.78045  -0.75574  -0.74047  -0.69923  -0.69128
 Alpha  occ. eigenvalues --   -0.68073  -0.67843  -0.67525  -0.64105  -0.63582
 Alpha  occ. eigenvalues --   -0.63311  -0.61994  -0.60379  -0.59412  -0.58888
 Alpha  occ. eigenvalues --   -0.56818  -0.55157  -0.54778  -0.52225  -0.46582
 Alpha  occ. eigenvalues --   -0.45815  -0.44825
 Alpha virt. eigenvalues --   -0.25560  -0.14863  -0.14157  -0.13043  -0.11164
 Alpha virt. eigenvalues --   -0.10104  -0.09247  -0.07985  -0.07931  -0.07479
 Alpha virt. eigenvalues --   -0.07121  -0.06935  -0.05723  -0.05622  -0.05296
 Alpha virt. eigenvalues --   -0.03839  -0.03628  -0.03378  -0.03137  -0.02147
 Alpha virt. eigenvalues --   -0.01410  -0.00829   0.00027   0.00295   0.00594
 Alpha virt. eigenvalues --    0.00988   0.01419   0.01867   0.02391   0.02521
 Alpha virt. eigenvalues --    0.02538   0.02608   0.02611   0.03003   0.03844
 Alpha virt. eigenvalues --    0.04306   0.04567   0.04613   0.05161   0.05360
 Alpha virt. eigenvalues --    0.06024   0.06203   0.06577   0.06724   0.07133
 Alpha virt. eigenvalues --    0.07539   0.08000   0.08238   0.08577   0.08655
 Alpha virt. eigenvalues --    0.08868   0.09555   0.09662   0.10560   0.10816
 Alpha virt. eigenvalues --    0.10872   0.11722   0.11966   0.12687   0.12959
 Alpha virt. eigenvalues --    0.13011   0.13047   0.13973   0.15148   0.15599
 Alpha virt. eigenvalues --    0.16239   0.16947   0.17016   0.17027   0.18193
 Alpha virt. eigenvalues --    0.18260   0.18322   0.19302   0.19508   0.19993
 Alpha virt. eigenvalues --    0.21121   0.21236   0.22741   0.22849   0.23539
 Alpha virt. eigenvalues --    0.23726   0.25122   0.25269   0.26944   0.27087
 Alpha virt. eigenvalues --    0.28673   0.28766   0.30789   0.31595   0.35629
 Alpha virt. eigenvalues --    0.35797   0.38850   0.38872   0.41202   0.41653
 Alpha virt. eigenvalues --    0.41997   0.42606   0.43052   0.43366   0.44090
 Alpha virt. eigenvalues --    0.44290   0.44489   0.45974   0.46462   0.47912
 Alpha virt. eigenvalues --    0.48258   0.48398   0.48750   0.49271   0.50055
 Alpha virt. eigenvalues --    0.50445   0.51344   0.52237   0.53906   0.54239
 Alpha virt. eigenvalues --    0.54284   0.54576   0.55454   0.55952   0.57571
 Alpha virt. eigenvalues --    0.58186   0.58309   0.60738   0.61463   0.62216
 Alpha virt. eigenvalues --    0.63584   0.63836   0.65095   0.65892   0.66917
 Alpha virt. eigenvalues --    0.69232   0.70115   0.70479   0.71643   0.72843
 Alpha virt. eigenvalues --    0.74335   0.75361   0.75935   0.76586   0.77007
 Alpha virt. eigenvalues --    0.77222   0.77622   0.78330   0.79910   0.81048
 Alpha virt. eigenvalues --    0.81822   0.82338   0.82352   0.84013   0.84086
 Alpha virt. eigenvalues --    0.86423   0.88190   0.88461   0.88579   0.90182
 Alpha virt. eigenvalues --    0.90216   0.90909   0.91941   0.93337   0.94373
 Alpha virt. eigenvalues --    0.97019   0.97481   1.00259   1.01202   1.01889
 Alpha virt. eigenvalues --    1.02643   1.03205   1.04825   1.06311   1.08369
 Alpha virt. eigenvalues --    1.20978   1.22648   1.22840   1.25211   1.26783
 Alpha virt. eigenvalues --    1.32105   1.32202   1.34767   1.37023   1.38086
 Alpha virt. eigenvalues --    1.38186   1.38916   1.41218   1.41906   1.43129
 Alpha virt. eigenvalues --    1.43718   1.43848   1.44088   1.45232   1.46490
 Alpha virt. eigenvalues --    1.47081   1.47905   1.51753   1.53018   1.54128
 Alpha virt. eigenvalues --    1.55713   1.55783   1.56240   1.58769   1.61184
 Alpha virt. eigenvalues --    1.62732   1.63066   1.63350   1.65354   1.67769
 Alpha virt. eigenvalues --    1.68513   1.69540   1.69958   1.72794   1.74469
 Alpha virt. eigenvalues --    1.76647   1.77945   1.78027   1.78248   1.79197
 Alpha virt. eigenvalues --    1.79773   1.81748   1.82947   1.84394   1.84616
 Alpha virt. eigenvalues --    1.84727   1.85693   1.86271   1.87447   1.90450
 Alpha virt. eigenvalues --    1.92154   1.94847   1.95214   1.96747   1.98223
 Alpha virt. eigenvalues --    1.99129   2.02945   2.03744   2.06281   2.10649
 Alpha virt. eigenvalues --    2.10704   2.13867   2.16953   2.18386   2.20076
 Alpha virt. eigenvalues --    2.21888   2.27358   2.29135   2.32578   2.33331
 Alpha virt. eigenvalues --    2.34231   2.37864   2.38845   2.41300   2.43144
 Alpha virt. eigenvalues --    2.45597   2.46087   2.48601   2.51527   2.53416
 Alpha virt. eigenvalues --    2.53578   2.54392   2.56596   2.57330   2.57651
 Alpha virt. eigenvalues --    2.59660   2.60307   2.62007   2.62482   2.64018
 Alpha virt. eigenvalues --    2.64263   2.64976   2.65689   2.65728   2.66730
 Alpha virt. eigenvalues --    2.68454   2.70091   2.72004   2.73526   2.74310
 Alpha virt. eigenvalues --    2.74866   2.76765   2.77616   2.79291   2.82328
 Alpha virt. eigenvalues --    2.83632   2.86036   2.90295   2.91580   2.98832
 Alpha virt. eigenvalues --    2.99303   3.02807   3.08987   3.11301   3.14552
 Alpha virt. eigenvalues --    3.20513   3.22735   3.25664   3.26869   3.28502
 Alpha virt. eigenvalues --    3.30416   3.33780   3.40588   3.42089   3.45009
 Alpha virt. eigenvalues --    3.46665   3.47081   3.54695   3.63335   3.66542
 Alpha virt. eigenvalues --    3.67629   3.92387   3.93146   3.93389   3.95298
 Alpha virt. eigenvalues --    4.02682   4.04574   4.05663   4.13951   4.32940
 Alpha virt. eigenvalues --    4.57895   4.67580   4.68568  23.44596  23.61247
 Alpha virt. eigenvalues --   23.80723  23.81843  23.83669  23.87764  23.88203
 Alpha virt. eigenvalues --   23.93138  23.94330  23.95867  23.99373  24.03709
 Alpha virt. eigenvalues --   24.07838  24.08166
          Condensed to atoms (all electrons):
               1          2          3          4          5          6
     1  C   10.058046   0.305923  -0.594403   3.284108  -0.325271  -0.100216
     2  C    0.305923   6.791836   0.184646  -0.841768  -0.067166  -0.010274
     3  C   -0.594403   0.184646   7.255451   0.126201  -0.107153   0.047998
     4  C    3.284108  -0.841768   0.126201  12.112786  -1.002418  -0.107153
     5  C   -0.325271  -0.067166  -0.107153  -1.002418  12.112786   0.126201
     6  C   -0.100216  -0.010274   0.047998  -0.107153   0.126201   7.255451
     7  C    0.027911   0.004211  -0.010274  -0.067166  -0.841768   0.184646
     8  C    0.174556   0.027911  -0.100216  -0.325271   3.284108  -0.594403
     9  C   -0.554921  -0.368769   0.339903  -0.290210  -0.290210   0.339903
    10  C   -1.836812   0.005186  -0.283841  -2.559289  -2.559289  -0.283841
    11  C   -1.456395  -0.168416   1.288377  -1.837008  -1.654219   0.034659
    12  C   -2.487342   0.523361  -1.809832  -1.018522  -0.325538  -0.191737
    13  C    0.016255  -0.150748   0.034659  -1.654219  -1.837008   1.288377
    14  C   -0.868348  -0.189486  -0.191737  -0.325538  -1.018522  -1.809832
    15  H    0.389190  -0.085989   0.001458   0.032945   0.004195   0.000796
    16  H   -0.022967   0.391184  -0.033327   0.008909  -0.002397  -0.000239
    17  H   -0.032151  -0.015093   0.364377  -0.058333   0.001673   0.000693
    18  H    0.073928   0.014834  -0.108530   0.512317  -0.004868  -0.007901
    19  H   -0.073112  -0.013615   0.089544  -0.067806  -0.067806   0.089544
    20  H    0.004853   0.001412  -0.007901  -0.004868   0.512317  -0.108530
    21  H   -0.001079  -0.000378   0.000693   0.001673  -0.058333   0.364377
    22  H   -0.000065   0.000333  -0.000239  -0.002397   0.008909  -0.033327
    23  H    0.002508  -0.002039   0.000796   0.004195   0.032945   0.001458
    24  H    0.023804   0.011288  -0.001163  -0.006866  -0.006866  -0.001163
    25  H    0.023804   0.011288  -0.001163  -0.006866  -0.006866  -0.001163
               7          8          9         10         11         12
     1  C    0.027911   0.174556  -0.554921  -1.836812  -1.456395  -2.487342
     2  C    0.004211   0.027911  -0.368769   0.005186  -0.168416   0.523361
     3  C   -0.010274  -0.100216   0.339903  -0.283841   1.288377  -1.809832
     4  C   -0.067166  -0.325271  -0.290210  -2.559289  -1.837008  -1.018522
     5  C   -0.841768   3.284108  -0.290210  -2.559289  -1.654219  -0.325538
     6  C    0.184646  -0.594403   0.339903  -0.283841   0.034659  -0.191737
     7  C    6.791836   0.305923  -0.368769   0.005186  -0.150748  -0.189486
     8  C    0.305923  10.058046  -0.554921  -1.836812   0.016255  -0.868348
     9  C   -0.368769  -0.554921   8.150137   0.441348   0.970998  -1.578827
    10  C    0.005186  -1.836812   0.441348   9.155638   0.858220   1.827701
    11  C   -0.150748   0.016255   0.970998   0.858220  13.096281  -2.141183
    12  C   -0.189486  -0.868348  -1.578827   1.827701  -2.141183  13.770288
    13  C   -0.168416  -1.456395   0.970998   0.858220   1.004948  -3.409578
    14  C    0.523361  -2.487342  -1.578827   1.827701  -3.409578   3.395597
    15  H   -0.002039   0.002508   0.029050  -0.011368  -0.042477   0.011930
    16  H    0.000333  -0.000065   0.007030  -0.006516   0.018076  -0.011338
    17  H   -0.000378  -0.001079  -0.005220   0.018029  -0.021273   0.087038
    18  H    0.001412   0.004853  -0.025823  -0.001598  -0.053071  -0.047064
    19  H   -0.013615  -0.073112   0.088693   0.437331   0.092984  -0.090272
    20  H    0.014834   0.073928  -0.025823  -0.001598  -0.027583  -0.013717
    21  H   -0.015093  -0.032151  -0.005220   0.018029  -0.003282   0.005681
    22  H    0.391184  -0.022967   0.007030  -0.006516   0.001103  -0.009037
    23  H   -0.085989   0.389190   0.029050  -0.011368  -0.008171   0.005208
    24  H    0.011288   0.023804   0.359434   0.003214   0.003431  -0.043237
    25  H    0.011288   0.023804   0.359434   0.003214   0.003431  -0.043237
              13         14         15         16         17         18
     1  C    0.016255  -0.868348   0.389190  -0.022967  -0.032151   0.073928
     2  C   -0.150748  -0.189486  -0.085989   0.391184  -0.015093   0.014834
     3  C    0.034659  -0.191737   0.001458  -0.033327   0.364377  -0.108530
     4  C   -1.654219  -0.325538   0.032945   0.008909  -0.058333   0.512317
     5  C   -1.837008  -1.018522   0.004195  -0.002397   0.001673  -0.004868
     6  C    1.288377  -1.809832   0.000796  -0.000239   0.000693  -0.007901
     7  C   -0.168416   0.523361  -0.002039   0.000333  -0.000378   0.001412
     8  C   -1.456395  -2.487342   0.002508  -0.000065  -0.001079   0.004853
     9  C    0.970998  -1.578827   0.029050   0.007030  -0.005220  -0.025823
    10  C    0.858220   1.827701  -0.011368  -0.006516   0.018029  -0.001598
    11  C    1.004948  -3.409578  -0.042477   0.018076  -0.021273  -0.053071
    12  C   -3.409578   3.395597   0.011930  -0.011338   0.087038  -0.047064
    13  C   13.096281  -2.141183  -0.008171   0.001103  -0.003282  -0.027583
    14  C   -2.141183  13.770288   0.005208  -0.009037   0.005681  -0.013717
    15  H   -0.008171   0.005208   0.434347  -0.010405   0.002036  -0.000021
    16  H    0.001103  -0.009037  -0.010405   0.424121  -0.007048   0.002176
    17  H   -0.003282   0.005681   0.002036  -0.007048   0.415698  -0.009953
    18  H   -0.027583  -0.013717  -0.000021   0.002176  -0.009953   0.465493
    19  H    0.092984  -0.090272   0.000724  -0.001130   0.003487  -0.016625
    20  H   -0.053071  -0.047064  -0.000137   0.000014  -0.000284   0.002147
    21  H   -0.021273   0.087038   0.000023  -0.000008   0.000020  -0.000284
    22  H    0.018076  -0.011338  -0.000094   0.000005  -0.000008   0.000014
    23  H   -0.042477   0.011930   0.000317  -0.000094   0.000023  -0.000137
    24  H    0.003431  -0.043237  -0.001060   0.000517  -0.000132   0.000142
    25  H    0.003431  -0.043237  -0.001060   0.000517  -0.000132   0.000142
              19         20         21         22         23         24
     1  C   -0.073112   0.004853  -0.001079  -0.000065   0.002508   0.023804
     2  C   -0.013615   0.001412  -0.000378   0.000333  -0.002039   0.011288
     3  C    0.089544  -0.007901   0.000693  -0.000239   0.000796  -0.001163
     4  C   -0.067806  -0.004868   0.001673  -0.002397   0.004195  -0.006866
     5  C   -0.067806   0.512317  -0.058333   0.008909   0.032945  -0.006866
     6  C    0.089544  -0.108530   0.364377  -0.033327   0.001458  -0.001163
     7  C   -0.013615   0.014834  -0.015093   0.391184  -0.085989   0.011288
     8  C   -0.073112   0.073928  -0.032151  -0.022967   0.389190   0.023804
     9  C    0.088693  -0.025823  -0.005220   0.007030   0.029050   0.359434
    10  C    0.437331  -0.001598   0.018029  -0.006516  -0.011368   0.003214
    11  C    0.092984  -0.027583  -0.003282   0.001103  -0.008171   0.003431
    12  C   -0.090272  -0.013717   0.005681  -0.009037   0.005208  -0.043237
    13  C    0.092984  -0.053071  -0.021273   0.018076  -0.042477   0.003431
    14  C   -0.090272  -0.047064   0.087038  -0.011338   0.011930  -0.043237
    15  H    0.000724  -0.000137   0.000023  -0.000094   0.000317  -0.001060
    16  H   -0.001130   0.000014  -0.000008   0.000005  -0.000094   0.000517
    17  H    0.003487  -0.000284   0.000020  -0.000008   0.000023  -0.000132
    18  H   -0.016625   0.002147  -0.000284   0.000014  -0.000137   0.000142
    19  H    0.515488  -0.016625   0.003487  -0.001130   0.000724   0.000204
    20  H   -0.016625   0.465493  -0.009953   0.002176  -0.000021   0.000142
    21  H    0.003487  -0.009953   0.415698  -0.007048   0.002036  -0.000132
    22  H   -0.001130   0.002176  -0.007048   0.424121  -0.010405   0.000517
    23  H    0.000724  -0.000021   0.002036  -0.010405   0.434347  -0.001060
    24  H    0.000204   0.000142  -0.000132   0.000517  -0.001060   0.491529
    25  H    0.000204   0.000142  -0.000132   0.000517  -0.001060  -0.078887
              25
     1  C    0.023804
     2  C    0.011288
     3  C   -0.001163
     4  C   -0.006866
     5  C   -0.006866
     6  C   -0.001163
     7  C    0.011288
     8  C    0.023804
     9  C    0.359434
    10  C    0.003214
    11  C    0.003431
    12  C   -0.043237
    13  C    0.003431
    14  C   -0.043237
    15  H   -0.001060
    16  H    0.000517
    17  H   -0.000132
    18  H    0.000142
    19  H    0.000204
    20  H    0.000142
    21  H   -0.000132
    22  H    0.000517
    23  H   -0.001060
    24  H   -0.078887
    25  H    0.491529
 Mulliken charges:
               1
     1  C   -0.031804
     2  C   -0.359674
     3  C   -0.484322
     4  C    0.092563
     5  C    0.092563
     6  C   -0.484322
     7  C   -0.359674
     8  C   -0.031804
     9  C   -0.445469
    10  C   -0.060170
    11  C   -0.415356
    12  C    0.651491
    13  C   -0.415356
    14  C    0.651491
    15  H    0.248093
    16  H    0.250585
    17  H    0.255609
    18  H    0.239717
    19  H    0.109719
    20  H    0.239717
    21  H    0.255609
    22  H    0.250585
    23  H    0.248093
    24  H    0.251057
    25  H    0.251057
 Sum of Mulliken charges =   1.00000
 Mulliken charges with hydrogens summed into heavy atoms:
               1
     1  C    0.216289
     2  C   -0.109088
     3  C   -0.228713
     4  C    0.332281
     5  C    0.332281
     6  C   -0.228713
     7  C   -0.109088
     8  C    0.216289
     9  C    0.056644
    10  C    0.049548
    11  C   -0.415356
    12  C    0.651491
    13  C   -0.415356
    14  C    0.651491
 Electronic spatial extent (au):  <R**2>=           2875.0002
 Charge=              1.0000 electrons
 Dipole moment (field-independent basis, Debye):
    X=             -0.0000    Y=             -0.0000    Z=             -0.2671  Tot=              0.2671
 Quadrupole moment (field-independent basis, Debye-Ang):
   XX=            -84.4245   YY=            -30.0659   ZZ=            -56.3362
   XY=              0.0000   XZ=             -0.0000   YZ=             -0.0000
 Traceless Quadrupole moment (field-independent basis, Debye-Ang):
   XX=            -27.4823   YY=             26.8763   ZZ=              0.6060
   XY=              0.0000   XZ=             -0.0000   YZ=             -0.0000
 Octapole moment (field-independent basis, Debye-Ang**2):
  XXX=              0.0000  YYY=              0.0000  ZZZ=             -4.0918  XYY=             -0.0000
  XXY=             -0.0000  XXZ=              2.8116  XZZ=              0.0000  YZZ=              0.0000
  YYZ=              0.5094  XYZ=             -0.0000
 Hexadecapole moment (field-independent basis, Debye-Ang**3):
 XXXX=            -99.9143 YYYY=          -2111.2603 ZZZZ=           -621.5477 XXXY=             -0.0000
 XXXZ=             -0.0000 YYYX=             -0.0000 YYYZ=             -0.0000 ZZZX=             -0.0000
 ZZZY=              0.0000 XXYY=           -595.5997 XXZZ=           -147.5674 YYZZ=           -509.5415
 XXYZ=              0.0000 YYXZ=              0.0000 ZZXY=             -0.0000
 N-N= 7.779773948811D+02 E-N=-2.792067942427D+03  KE= 5.372090957376D+02
 Symmetry A1   KE= 2.954801884583D+02
 Symmetry A2   KE= 6.441720492632D+00
 Symmetry B1   KE= 8.174619733235D+00
 Symmetry B2   KE= 2.271125670534D+02
 Unable to Open any file for archive entry.
 1\1\GINC-GADI-CPU-CLX-0359\SP\RM062X TD-FC\6-311++G(d,p)\C14H11(1+)\TS
 1578\02-Aug-2022\0\\#n M062X/6-311++G(d,p) TD(NStates=1) EmpiricalDisp
 ersion=GD3 SP\\SP_0\\1,1\C,0,0.,2.622655,1.340431\C,0,0.,3.761508,0.50
 1989\C,0,0.,3.633861,-0.88383\C,0,0.,2.343156,-1.427538\C,0,0.,-2.3431
 56,-1.427538\C,0,0.,-3.633861,-0.88383\C,0,0.,-3.761508,0.501989\C,0,0
 .,-2.622655,1.340431\C,0,0.,0.,1.603369\C,0,0.,0.,-1.279189\C,0,0.,1.2
 92055,0.807065\C,0,0.,1.217471,-0.600804\C,0,0.,-1.292055,0.807065\C,0
 ,0.,-1.217471,-0.600804\H,0,0.,2.778071,2.423647\H,0,0.,4.746753,0.951
 689\H,0,0.,4.509262,-1.532349\H,0,0.,2.19755,-2.510059\H,0,0.,0.,-2.35
 0266\H,0,0.,-2.19755,-2.510059\H,0,0.,-4.509262,-1.532349\H,0,0.,-4.74
 6753,0.951689\H,0,0.,-2.778071,2.423647\H,0,-0.859585,0.,2.295787\H,0,
 0.859585,0.,2.295787\\Version=ES64L-G16RevC.01\State=1-A1\HF=-539.7520
 854\RMSD=9.884e-09\PG=C02V [C2(H1C1C1),SGV(C12H8),SGV'(H2)]\\@
 The archive entry for this job was punched.


 Ideas are like rabbits. You get a couple and learn
 how to handle them, and pretty soon you have a dozen.
                                    -- John Steinbeck
 Job cpu time:       0 days  0 hours 29 minutes 31.1 seconds.
 Elapsed time:       0 days  0 hours  0 minutes 37.6 seconds.
 File lengths (MBytes):  RWF=    460 Int=      0 D2E=      0 Chk=     15 Scr=      1
 Normal termination of Gaussian 16 at Tue Aug  2 12:42:09 2022.
