 Entering Gaussian System, Link 0=g16
 Initial command:
 /apps/gaussian/g16c01/g16/l1.exe "/jobfs/53803768.gadi-pbs/Gau-211552.inp" -scrdir="/jobfs/53803768.gadi-pbs/"
 Entering Link 1 = /apps/gaussian/g16c01/g16/l1.exe PID=    211553.
  
 Copyright (c) 1988-2019, Gaussian, Inc.  All Rights Reserved.
  
 This is part of the Gaussian(R) 16 program.  It is based on
 the Gaussian(R) 09 system (copyright 2009, Gaussian, Inc.),
 the Gaussian(R) 03 system (copyright 2003, Gaussian, Inc.),
 the Gaussian(R) 98 system (copyright 1998, Gaussian, Inc.),
 the Gaussian(R) 94 system (copyright 1995, Gaussian, Inc.),
 the Gaussian 92(TM) system (copyright 1992, Gaussian, Inc.),
 the Gaussian 90(TM) system (copyright 1990, Gaussian, Inc.),
 the Gaussian 88(TM) system (copyright 1988, Gaussian, Inc.),
 the Gaussian 86(TM) system (copyright 1986, Carnegie Mellon
 University), and the Gaussian 82(TM) system (copyright 1983,
 Carnegie Mellon University). Gaussian is a federally registered
 trademark of Gaussian, Inc.
  
 This software contains proprietary and confidential information,
 including trade secrets, belonging to Gaussian, Inc.
  
 This software is provided under written license and may be
 used, copied, transmitted, or stored only in accord with that
 written license.
  
 The following legend is applicable only to US Government
 contracts under FAR:
  
                    RESTRICTED RIGHTS LEGEND
  
 Use, reproduction and disclosure by the US Government is
 subject to restrictions as set forth in subparagraphs (a)
 and (c) of the Commercial Computer Software - Restricted
 Rights clause in FAR 52.227-19.
  
 Gaussian, Inc.
 340 Quinnipiac St., Bldg. 40, Wallingford CT 06492
  
  
 ---------------------------------------------------------------
 Warning -- This program may not be used in any manner that
 competes with the business of Gaussian, Inc. or will provide
 assistance to any competitor of Gaussian, Inc.  The licensee
 of this program is prohibited from giving any competitor of
 Gaussian, Inc. access to this program.  By using this program,
 the user acknowledges that Gaussian, Inc. is engaged in the
 business of creating and licensing software in the field of
 computational chemistry and represents and warrants to the
 licensee that it is not a competitor of Gaussian, Inc. and that
 it will not use this program in any manner prohibited above.
 ---------------------------------------------------------------
  

 Cite this work as:
 Gaussian 16, Revision C.01,
 M. J. Frisch, G. W. Trucks, H. B. Schlegel, G. E. Scuseria, 
 M. A. Robb, J. R. Cheeseman, G. Scalmani, V. Barone, 
 G. A. Petersson, H. Nakatsuji, X. Li, M. Caricato, A. V. Marenich, 
 J. Bloino, B. G. Janesko, R. Gomperts, B. Mennucci, H. P. Hratchian, 
 J. V. Ortiz, A. F. Izmaylov, J. L. Sonnenberg, D. Williams-Young, 
 F. Ding, F. Lipparini, F. Egidi, J. Goings, B. Peng, A. Petrone, 
 T. Henderson, D. Ranasinghe, V. G. Zakrzewski, J. Gao, N. Rega, 
 G. Zheng, W. Liang, M. Hada, M. Ehara, K. Toyota, R. Fukuda, 
 J. Hasegawa, M. Ishida, T. Nakajima, Y. Honda, O. Kitao, H. Nakai, 
 T. Vreven, K. Throssell, J. A. Montgomery, Jr., J. E. Peralta, 
 F. Ogliaro, M. J. Bearpark, J. J. Heyd, E. N. Brothers, K. N. Kudin, 
 V. N. Staroverov, T. A. Keith, R. Kobayashi, J. Normand, 
 K. Raghavachari, A. P. Rendell, J. C. Burant, S. S. Iyengar, 
 J. Tomasi, M. Cossi, J. M. Millam, M. Klene, C. Adamo, R. Cammi, 
 J. W. Ochterski, R. L. Martin, K. Morokuma, O. Farkas, 
 J. B. Foresman, and D. J. Fox, Gaussian, Inc., Wallingford CT, 2019.
 
 ******************************************
 Gaussian 16:  ES64L-G16RevC.01  3-Jul-2019
                 2-Aug-2022 
 ******************************************
 %NProcShared=48
 Will use up to   48 processors via shared memory.
 %mem = 190GB
 ---------------------------------------------------------------
 #n M062X/6-311++G(d,p) TD(NStates=1) EmpiricalDispersion=GD3 SP
 ---------------------------------------------------------------
 1/38=1,172=1/1;
 2/12=2,17=6,18=5,40=1/2;
 3/5=4,6=6,7=1111,11=9,25=1,30=1,74=-55,124=31/1,2,3,8;
 4//1;
 5/5=2,38=5/2;
 8/6=1,10=2,108=1/1;
 9/41=1,42=1,70=2/14;
 6/7=2,8=2,9=2,10=2/1;
 99/5=1,9=1/99;
 ----
 SP_4
 ----
 Symbolic Z-matrix:
 Charge =  1 Multiplicity = 1
 C                     0.        2.46666   1.41643 
 C                     0.        3.68551   0.75399 
 C                     0.        3.68186  -0.63583 
 C                     0.        2.48716  -1.35954 
 C                     0.       -2.58316  -1.43154 
 C                     0.       -3.74586  -0.58783 
 C                     0.       -3.64551   0.79399 
 C                     0.       -2.36266   1.32843 
 C                     0.       -0.016     1.36337 
 C                     0.        0.024    -1.51919 
 C                     0.        1.26806   0.68307 
 C                     0.        1.23347  -0.7328 
 C                     0.       -1.22006   0.51507 
 C                     0.       -1.26547  -0.8848 
 H                     0.        2.42207   2.49965 
 H                     0.        4.61875   1.29969 
 H                     0.        4.61326  -1.17635 
 H                     0.        2.52555  -2.44206 
 H                     0.        0.124    -2.60627 
 H                     0.       -2.73355  -2.51406 
 H                     0.       -4.72526  -1.05635 
 H                     0.       -4.52275   1.43569 
 H                     0.       -2.20607   2.41165 
 H                    -0.85959  -0.096     2.05579 
 H                     0.85959  -0.096     2.05579 
 
                          Input orientation:                          
 ---------------------------------------------------------------------
 Center     Atomic      Atomic             Coordinates (Angstroms)
 Number     Number       Type             X           Y           Z
 ---------------------------------------------------------------------
      1          6           0        0.000000    2.466655    1.416431
      2          6           0        0.000000    3.685508    0.753989
      3          6           0        0.000000    3.681861   -0.635830
      4          6           0        0.000000    2.487156   -1.359538
      5          6           0        0.000000   -2.583156   -1.431538
      6          6           0        0.000000   -3.745861   -0.587830
      7          6           0        0.000000   -3.645508    0.793989
      8          6           0        0.000000   -2.362655    1.328431
      9          6           0        0.000000   -0.016000    1.363369
     10          6           0        0.000000    0.024000   -1.519189
     11          6           0        0.000000    1.268055    0.683065
     12          6           0        0.000000    1.233471   -0.732804
     13          6           0        0.000000   -1.220055    0.515065
     14          6           0        0.000000   -1.265471   -0.884804
     15          1           0        0.000000    2.422071    2.499647
     16          1           0        0.000000    4.618753    1.299689
     17          1           0        0.000000    4.613262   -1.176349
     18          1           0        0.000000    2.525550   -2.442059
     19          1           0        0.000000    0.124000   -2.606266
     20          1           0        0.000000   -2.733550   -2.514059
     21          1           0        0.000000   -4.725262   -1.056349
     22          1           0        0.000000   -4.522753    1.435689
     23          1           0        0.000000   -2.206071    2.411647
     24          1           0       -0.859585   -0.096000    2.055787
     25          1           0        0.859585   -0.096000    2.055787
 ---------------------------------------------------------------------
                    Distance matrix (angstroms):
                    1          2          3          4          5
     1  C    0.000000
     2  C    1.387239   0.000000
     3  C    2.385058   1.389824   0.000000
     4  C    2.776045   2.429618   1.396808   0.000000
     5  C    5.797544   6.638726   6.315346   5.070823   0.000000
     6  C    6.527819   7.551538   7.427877   6.280608   1.436567
     7  C    6.143775   7.331125   7.465569   6.499788   2.466082
     8  C    4.830112   6.075381   6.355666   5.544894   2.768763
     9  C    2.483222   3.751334   4.203686   3.698650   3.794970
    10  C    3.818956   4.309754   3.763013   2.468325   2.608629
    11  C    1.405158   2.418493   2.750626   2.378746   4.393560
    12  C    2.477893   2.867584   2.450310   1.401614   3.880061
    13  C    3.795299   4.911378   5.035210   4.154221   2.376406
    14  C    4.384569   5.215154   4.953593   3.782536   1.426609
    15  H    1.084133   2.154900   3.379096   3.859734   6.364473
    16  H    2.155262   1.081080   2.150349   3.408107   7.702408
    17  H    3.366070   2.141712   1.076879   2.133983   7.200941
    18  H    3.858939   3.400033   2.144649   1.083202   5.207689
    19  H    4.655118   4.896494   4.067062   2.671860   2.951047
    20  H    6.518503   7.203086   6.684702   5.346839   1.092918
    21  H    7.605150   8.603393   8.417633   7.218788   2.174715
    22  H    6.989435   8.236520   8.462085   7.546663   3.461651
    23  H    4.777533   6.120338   6.629846   6.020649   3.861640
    24  H    2.777564   4.090644   4.717618   4.367611   4.368783
    25  H    2.777564   4.090644   4.717618   4.367611   4.368783
                    6          7          8          9         10
     6  C    0.000000
     7  C    1.385458   0.000000
     8  C    2.363327   1.389727   0.000000
     9  C    4.209399   3.673897   2.346915   0.000000
    10  C    3.883205   4.337751   3.715516   2.882836   0.000000
    11  C    5.172478   4.914815   3.687622   1.453138   2.529347
    12  C    4.981442   5.112292   4.144974   2.440311   1.442644
    13  C    2.756097   2.441438   1.402533   1.472877   2.384505
    14  C    2.498105   2.912546   2.470268   2.572054   1.437073
    15  H    6.897528   6.302760   4.925987   2.689855   4.679935
    16  H    8.574934   8.279719   6.981467   4.635190   5.390531
    17  H    8.379815   8.490554   7.411973   5.280174   4.602050
    18  H    6.539783   6.968067   6.173422   4.576107   2.666354
    19  H    4.364620   5.076507   4.654599   3.972103   1.091667
    20  H    2.176036   3.431450   3.860349   4.734926   2.931527
    21  H    1.085696   2.142340   3.356946   5.294543   4.771762
    22  H    2.167531   1.086894   2.162759   4.507333   5.422570
    23  H    3.371619   2.165363   1.094475   2.428023   4.519368
    24  H    4.587928   3.863939   2.530940   1.106675   3.678823
    25  H    4.587928   3.863939   2.530940   1.106675   3.678823
                   11         12         13         14         15
    11  C    0.000000
    12  C    1.416291   0.000000
    13  C    2.493775   2.752629   0.000000
    14  C    2.979424   2.503560   1.400606   0.000000
    15  H    2.152144   3.444054   4.147728   5.005245   0.000000
    16  H    3.406964   3.948565   5.891291   6.276631   2.503060
    17  H    3.827248   3.408771   6.073588   5.885958   4.279517
    18  H    3.368634   2.142667   4.772226   4.098400   4.942789
    19  H    3.482608   2.177335   3.398410   2.212252   5.599239
    20  H    5.121957   4.348577   3.386187   2.193109   7.191500
    21  H    6.240626   5.967510   3.841330   3.464041   7.983074
    22  H    5.839512   6.151136   3.428609   3.999322   7.025851
    23  H    3.880406   4.660260   2.137581   3.428019   4.628979
    24  H    2.117522   3.206652   2.091939   3.279272   2.697514
    25  H    2.117522   3.206652   2.091939   3.279272   2.697514
                   16         17         18         19         20
    16  H    0.000000
    17  H    2.476044   0.000000
    18  H    4.287444   2.441426   0.000000
    19  H    5.954770   4.711490   2.407157   0.000000
    20  H    8.282574   7.467604   5.259593   2.859037   0.000000
    21  H    9.636469   9.339295   7.382037   5.090932   2.468164
    22  H    9.142518   9.502079   8.044595   6.158710   4.336099
    23  H    6.914815   7.705648   6.778399   5.532511   4.953869
    24  H    4.851749   5.776049   5.276555   4.745738   5.345938
    25  H    4.851749   5.776049   5.276555   4.745738   5.345938
                   21         22         23         24         25
    21  H    0.000000
    22  H    2.500253   0.000000
    23  H    4.286411   2.513863   0.000000
    24  H    5.643965   4.551873   2.306062   0.000000
    25  H    5.643965   4.551873   2.306062   1.719170   0.000000
 Stoichiometry    C14H11(1+)
 Framework group  CS[SG(C14H9),X(H2)]
 Deg. of freedom    46
 Full point group                 CS      NOp   2
 Largest Abelian subgroup         CS      NOp   2
 Largest concise Abelian subgroup CS      NOp   2
                         Standard orientation:                         
 ---------------------------------------------------------------------
 Center     Atomic      Atomic             Coordinates (Angstroms)
 Number     Number       Type             X           Y           Z
 ---------------------------------------------------------------------
      1          6           0       -2.260508   -1.725358    0.000000
      2          6           0       -2.122565   -3.105721    0.000000
      3          6           0       -0.840089   -3.641320    0.000000
      4          6           0        0.290283   -2.820753    0.000000
      5          6           0        2.322875    1.824871    0.000000
      6          6           0        1.996077    3.223774    0.000000
      7          6           0        0.683474    3.667132    0.000000
      8          6           0       -0.306627    2.691918    0.000000
      9          6           0       -1.248844    0.542445    0.000000
     10          6           0        1.392633   -0.612258    0.000000
     11          6           0       -1.119722   -0.904945    0.000000
     12          6           0        0.198762   -1.422130    0.000000
     13          6           0        0.000000    1.323314    0.000000
     14          6           0        1.307937    0.822318    0.000000
     15          1           0       -3.241669   -1.264200    0.000000
     16          1           0       -2.987467   -3.754319    0.000000
     17          1           0       -0.703057   -4.709445    0.000000
     18          1           0        1.273205   -3.275935    0.000000
     19          1           0        2.355864   -1.125992    0.000000
     20          1           0        3.379007    1.543703    0.000000
     21          1           0        2.807737    3.944846    0.000000
     22          1           0        0.432177    4.724576    0.000000
     23          1           0       -1.365800    2.967650    0.000000
     24          1           0       -1.856055    0.884699    0.859585
     25          1           0       -1.856055    0.884699   -0.859585
 ---------------------------------------------------------------------
 Rotational constants (GHZ):           2.1269589           0.4452932           0.3690075
 Standard basis: 6-311++G(d,p) (5D, 7F)
 There are   299 symmetry adapted cartesian basis functions of A'  symmetry.
 There are   100 symmetry adapted cartesian basis functions of A"  symmetry.
 There are   285 symmetry adapted basis functions of A'  symmetry.
 There are   100 symmetry adapted basis functions of A"  symmetry.
   385 basis functions,   603 primitive gaussians,   399 cartesian basis functions
    47 alpha electrons       47 beta electrons
       nuclear repulsion energy       780.7658800816 Hartrees.
 NAtoms=   25 NActive=   25 NUniq=   24 SFac= 1.09D+00 NAtFMM=   60 NAOKFM=F Big=F
 Integral buffers will be    131072 words long.
 Regular integral format.
 Two-electron integral symmetry is turned on.
 Nuclear repulsion after empirical dispersion term =      780.7649016892 Hartrees.
 One-electron integrals computed using PRISM.
 NBasis=   385 RedAO= T EigKep=  1.19D-06  NBF=   285   100
 NBsUse=   379 1.00D-06 EigRej=  7.59D-07 NBFU=   279   100
 ExpMin= 3.60D-02 ExpMax= 4.56D+03 ExpMxC= 6.82D+02 IAcc=3 IRadAn=         5 AccDes= 0.00D+00
 Harris functional with IExCor= 1009 and IRadAn=       5 diagonalized for initial guess.
 HarFok:  IExCor= 1009 AccDes= 0.00D+00 IRadAn=         5 IDoV= 1 UseB2=F ITyADJ=14
 ICtDFT=  3500011 ScaDFX=  1.000000  1.000000  1.000000  1.000000
 FoFCou: FMM=F IPFlag=           0 FMFlag=      100000 FMFlg1=           0
         NFxFlg=           0 DoJE=T BraDBF=F KetDBF=T FulRan=T
         wScrn=  0.000000 ICntrl=       500 IOpCl=  0 I1Cent=   200000004 NGrid=           0
         NMat0=    1 NMatS0=      1 NMatT0=    0 NMatD0=    1 NMtDS0=    0 NMtDT0=    0
 Petite list used in FoFCou.
 Initial guess orbital symmetries:
       Occupied  (A') (A') (A') (A') (A') (A') (A') (A') (A') (A')
                 (A') (A') (A') (A') (A') (A') (A') (A') (A') (A')
                 (A') (A') (A') (A') (A') (A') (A') (A') (A') (A')
                 (A') (A') (A") (A') (A') (A') (A') (A') (A") (A')
                 (A") (A') (A') (A") (A") (A") (A")
       Virtual   (A") (A") (A") (A") (A") (A') (A') (A') (A') (A")
                 (A") (A') (A') (A') (A') (A") (A') (A') (A') (A")
                 (A') (A") (A') (A') (A') (A") (A') (A") (A') (A')
                 (A') (A') (A') (A') (A") (A') (A') (A") (A') (A")
                 (A') (A') (A') (A") (A') (A') (A') (A') (A') (A")
                 (A') (A') (A") (A') (A") (A') (A') (A") (A') (A")
                 (A') (A') (A') (A') (A') (A") (A') (A') (A') (A")
                 (A') (A') (A') (A') (A') (A') (A') (A') (A') (A')
                 (A') (A') (A') (A') (A') (A') (A') (A') (A') (A')
                 (A') (A') (A') (A') (A') (A') (A') (A") (A') (A')
                 (A") (A') (A") (A") (A') (A') (A") (A') (A") (A")
                 (A") (A') (A') (A") (A') (A') (A") (A') (A") (A")
                 (A') (A") (A') (A') (A') (A') (A") (A') (A') (A")
                 (A') (A') (A') (A') (A') (A') (A") (A') (A') (A')
                 (A') (A') (A') (A') (A') (A') (A') (A') (A') (A")
                 (A") (A') (A") (A') (A") (A') (A') (A") (A") (A')
                 (A') (A") (A") (A") (A") (A') (A') (A') (A') (A')
                 (A') (A") (A') (A') (A") (A') (A') (A') (A") (A')
                 (A') (A') (A') (A") (A") (A') (A') (A") (A') (A")
                 (A') (A") (A') (A') (A") (A') (A') (A") (A') (A')
                 (A") (A") (A") (A') (A") (A') (A") (A') (A') (A')
                 (A") (A') (A") (A") (A') (A') (A") (A') (A') (A")
                 (A') (A') (A') (A') (A") (A') (A') (A") (A") (A')
                 (A') (A') (A') (A") (A') (A') (A") (A') (A") (A")
                 (A') (A') (A') (A') (A") (A') (A') (A') (A') (A")
                 (A') (A') (A') (A") (A") (A') (A') (A") (A') (A')
                 (A") (A') (A') (A") (A') (A') (A") (A') (A') (A")
                 (A') (A') (A') (A") (A') (A') (A") (A') (A") (A')
                 (A") (A') (A") (A") (A") (A') (A') (A') (A') (A')
                 (A') (A') (A') (A') (A') (A') (A') (A') (A') (A')
                 (A') (A') (A') (A') (A") (A') (A') (A') (A') (A')
                 (A') (A') (A') (A') (A') (A') (A') (A') (A') (A')
                 (A') (A') (A') (A') (A') (A') (A') (A') (A') (A')
                 (A') (A')
 The electronic state of the initial guess is 1-A'.
 Requested convergence on RMS density matrix=1.00D-08 within 128 cycles.
 Requested convergence on MAX density matrix=1.00D-06.
 Requested convergence on             energy=1.00D-06.
 No special actions if energy rises.
 SCF Done:  E(RM062X) =  -539.739876364     A.U. after   15 cycles
            NFock= 15  Conv=0.66D-08     -V/T= 2.0044
 DoSCS=F DFT=T ScalE2(SS,OS)=  1.000000  1.000000
 ExpMin= 3.60D-02 ExpMax= 4.56D+03 ExpMxC= 6.82D+02 IAcc=3 IRadAn=         5 AccDes= 0.00D+00
 HarFok:  IExCor=  205 AccDes= 0.00D+00 IRadAn=         5 IDoV=-2 UseB2=F ITyADJ=14
 ICtDFT= 12500011 ScaDFX=  1.000000  1.000000  1.000000  1.000000
 Range of M.O.s used for correlation:    15   379
 NBasis=   385 NAE=    47 NBE=    47 NFC=    14 NFV=     0
 NROrb=    365 NOA=    33 NOB=    33 NVA=   332 NVB=   332

 **** Warning!!: The largest alpha MO coefficient is  0.17127864D+03

 Orbital symmetries:
       Occupied  (A') (A') (A') (A') (A') (A') (A') (A') (A') (A')
                 (A') (A') (A') (A') (A') (A') (A') (A') (A') (A')
                 (A') (A') (A') (A') (A') (A') (A') (A') (A') (A')
                 (A') (A") (A') (A') (A') (A') (A') (A") (A") (A')
                 (A') (A') (A') (A") (A") (A") (A")
       Virtual   (A") (A") (A") (A") (A') (A') (A') (A") (A') (A')
                 (A') (A") (A') (A') (A") (A') (A") (A') (A') (A')
                 (A") (A") (A') (A') (A') (A") (A') (A") (A') (A')
                 (A") (A') (A") (A') (A') (A') (A') (A') (A") (A')
                 (A") (A') (A') (A") (A") (A') (A") (A') (A") (A')
                 (A') (A') (A') (A') (A") (A') (A') (A') (A') (A')
                 (A') (A") (A') (A') (A') (A") (A') (A') (A') (A')
                 (A') (A') (A') (A') (A') (A') (A') (A') (A') (A')
                 (A') (A') (A') (A') (A') (A') (A') (A') (A') (A')
                 (A') (A') (A') (A') (A") (A') (A") (A") (A') (A')
                 (A") (A') (A') (A') (A") (A") (A') (A") (A') (A")
                 (A') (A") (A') (A') (A") (A') (A') (A") (A') (A")
                 (A") (A') (A") (A') (A') (A') (A") (A') (A') (A')
                 (A') (A') (A') (A') (A') (A') (A') (A') (A') (A')
                 (A') (A') (A') (A") (A') (A') (A') (A') (A') (A')
                 (A') (A') (A") (A') (A') (A") (A") (A") (A') (A")
                 (A") (A') (A') (A") (A') (A") (A') (A") (A") (A')
                 (A') (A') (A') (A") (A") (A') (A') (A') (A") (A')
                 (A') (A') (A') (A") (A") (A') (A') (A") (A") (A')
                 (A") (A') (A') (A") (A') (A") (A') (A') (A') (A')
                 (A") (A") (A") (A') (A") (A') (A") (A') (A') (A')
                 (A') (A") (A') (A") (A') (A") (A") (A') (A") (A')
                 (A') (A') (A') (A') (A") (A') (A') (A") (A") (A')
                 (A') (A') (A') (A") (A') (A') (A') (A") (A") (A')
                 (A") (A') (A') (A") (A') (A') (A') (A') (A') (A')
                 (A") (A') (A') (A') (A') (A") (A") (A") (A') (A')
                 (A') (A') (A') (A') (A') (A') (A") (A') (A') (A')
                 (A') (A') (A") (A") (A") (A") (A') (A") (A') (A")
                 (A') (A") (A") (A") (A") (A') (A') (A') (A') (A')
                 (A') (A') (A') (A') (A') (A') (A') (A') (A') (A')
                 (A') (A') (A') (A') (A") (A') (A') (A') (A') (A')
                 (A') (A') (A') (A') (A') (A') (A') (A') (A') (A')
                 (A') (A') (A') (A') (A') (A') (A') (A') (A') (A')
                 (A') (A')
     4 initial guesses have been made.
 Convergence on wavefunction:    0.001000000000000
 Iteration     1 Dimension     4 NMult     0 NNew      4
 CISAX will form     4 AO SS matrices at one time.
 Iteration     2 Dimension     6 NMult     4 NNew      2
 Iteration     3 Dimension     8 NMult     6 NNew      2
 Iteration     4 Dimension    10 NMult     8 NNew      2
 Iteration     5 Dimension    12 NMult    10 NNew      2
 Iteration     6 Dimension    14 NMult    12 NNew      2
 ***********************************************************************
 Excited states from <AA,BB:AA,BB> singles matrix:
 ***********************************************************************
 
 Ground to excited state transition densities written to RWF  633
 Ground to excited state transition electric dipole moments (Au):
       state          X           Y           Z        Dip. S.      Osc.
         1         0.6245     -0.1159     -0.0000      0.4035      0.0260
 Ground to excited state transition velocity dipole moments (Au):
       state          X           Y           Z        Dip. S.      Osc.
         1        -0.0683      0.0121     -0.0000      0.0048      0.0332
 Ground to excited state transition magnetic dipole moments (Au):
       state          X           Y           Z
         1        -0.0000      0.0000     -0.0125
 Ground to excited state transition velocity quadrupole moments (Au):
       state          XX          YY          ZZ          XY          XZ          YZ
         1        -0.1110     -0.2155      0.0093     -0.1083     -0.0000     -0.0000
 <0|del|b> * <b|rxdel|0> + <0|del|b> * <b|delr+rdel|0>
 Rotatory Strengths (R) in cgs (10**-40 erg-esu-cm/Gauss)
       state          XX          YY          ZZ    R(velocity)    E-M Angle
         1         0.0000      0.0000      0.0000      0.0000       90.00
 1/2[<0|r|b>*<b|rxdel|0> + (<0|rxdel|b>*<b|r|0>)*]
 Rotatory Strengths (R) in cgs (10**-40 erg-esu-cm/Gauss)
       state          XX          YY          ZZ     R(length)
         1         0.0000      0.0000     -0.0000      0.0000
  1/2[<0|del|b>*<b|r|0> + (<0|r|b>*<b|del|0>)*] (Au)
       state          X           Y           Z        Dip. S.   Osc.(frdel)
         1        -0.0427     -0.0014      0.0000      0.0441      0.0294

 Excitation energies and oscillator strengths:
 
 Excited State   1:      Singlet-A'     2.6318 eV  471.10 nm  f=0.0260  <S**2>=0.000
      47 -> 48         0.70475
 This state for optimization and/or second-order correction.
 Total Energy, E(TD-HF/TD-DFT) =  -539.643159978    
 Copying the excited state density for this state as the 1-particle RhoCI density.
 SavETr:  write IOETrn=   770 NScale= 10 NData=  16 NLR=1 NState=    1 LETran=      28.

 **********************************************************************

            Population analysis using the SCF Density.

 **********************************************************************

 Orbital symmetries:
       Occupied  (A') (A') (A') (A') (A') (A') (A') (A') (A') (A')
                 (A') (A') (A') (A') (A') (A') (A') (A') (A') (A')
                 (A') (A') (A') (A') (A') (A') (A') (A') (A') (A')
                 (A') (A") (A') (A') (A') (A') (A') (A") (A") (A')
                 (A') (A') (A') (A") (A") (A") (A")
       Virtual   (A") (A") (A") (A") (A') (A') (A') (A") (A') (A')
                 (A') (A") (A') (A') (A") (A') (A") (A') (A') (A')
                 (A") (A") (A') (A') (A') (A") (A') (A") (A') (A')
                 (A") (A') (A") (A') (A') (A') (A') (A') (A") (A')
                 (A") (A') (A') (A") (A") (A') (A") (A') (A") (A')
                 (A') (A') (A') (A') (A") (A') (A') (A') (A') (A')
                 (A') (A") (A') (A') (A') (A") (A') (A') (A') (A')
                 (A') (A') (A') (A') (A') (A') (A') (A') (A') (A')
                 (A') (A') (A') (A') (A') (A') (A') (A') (A') (A')
                 (A') (A') (A') (A') (A") (A') (A") (A") (A') (A')
                 (A") (A') (A') (A') (A") (A") (A') (A") (A') (A")
                 (A') (A") (A') (A') (A") (A') (A') (A") (A') (A")
                 (A") (A') (A") (A') (A') (A') (A") (A') (A') (A')
                 (A') (A') (A') (A') (A') (A') (A') (A') (A') (A')
                 (A') (A') (A') (A") (A') (A') (A') (A') (A') (A')
                 (A') (A') (A") (A') (A') (A") (A") (A") (A') (A")
                 (A") (A') (A') (A") (A') (A") (A') (A") (A") (A')
                 (A') (A') (A') (A") (A") (A') (A') (A') (A") (A')
                 (A') (A') (A') (A") (A") (A') (A') (A") (A") (A')
                 (A") (A') (A') (A") (A') (A") (A') (A') (A') (A')
                 (A") (A") (A") (A') (A") (A') (A") (A') (A') (A')
                 (A') (A") (A') (A") (A') (A") (A") (A') (A") (A')
                 (A') (A') (A') (A') (A") (A') (A') (A") (A") (A')
                 (A') (A') (A') (A") (A') (A') (A') (A") (A") (A')
                 (A") (A') (A') (A") (A') (A') (A') (A') (A') (A')
                 (A") (A') (A') (A') (A') (A") (A") (A") (A') (A')
                 (A') (A') (A') (A') (A') (A') (A") (A') (A') (A')
                 (A') (A') (A") (A") (A") (A") (A') (A") (A') (A")
                 (A') (A") (A") (A") (A") (A') (A') (A') (A') (A')
                 (A') (A') (A') (A') (A') (A') (A') (A') (A') (A')
                 (A') (A') (A') (A') (A") (A') (A') (A') (A') (A')
                 (A') (A') (A') (A') (A') (A') (A') (A') (A') (A')
                 (A') (A') (A') (A') (A') (A') (A') (A') (A') (A')
                 (A') (A')
 The electronic state is 1-A'.
 Alpha  occ. eigenvalues --  -10.78604 -10.73305 -10.73057 -10.72893 -10.72812
 Alpha  occ. eigenvalues --  -10.72150 -10.71183 -10.71070 -10.70932 -10.70623
 Alpha  occ. eigenvalues --  -10.70102 -10.70031 -10.69693 -10.69433  -1.16447
 Alpha  occ. eigenvalues --   -1.12313  -1.06806  -1.05914  -1.01262  -1.00056
 Alpha  occ. eigenvalues --   -0.95628  -0.90869  -0.86628  -0.85614  -0.83589
 Alpha  occ. eigenvalues --   -0.78241  -0.75995  -0.74193  -0.69382  -0.69261
 Alpha  occ. eigenvalues --   -0.68742  -0.68420  -0.68042  -0.64785  -0.64398
 Alpha  occ. eigenvalues --   -0.62520  -0.61398  -0.59727  -0.59456  -0.59025
 Alpha  occ. eigenvalues --   -0.56874  -0.55313  -0.54501  -0.52404  -0.46553
 Alpha  occ. eigenvalues --   -0.46050  -0.44051
 Alpha virt. eigenvalues --   -0.26364  -0.14843  -0.14271  -0.12782  -0.11250
 Alpha virt. eigenvalues --   -0.10108  -0.09222  -0.08035  -0.08020  -0.07492
 Alpha virt. eigenvalues --   -0.07330  -0.07312  -0.05669  -0.05593  -0.05376
 Alpha virt. eigenvalues --   -0.03865  -0.03635  -0.03301  -0.03109  -0.02160
 Alpha virt. eigenvalues --   -0.01367  -0.00871   0.00112   0.00424   0.00694
 Alpha virt. eigenvalues --    0.01029   0.01418   0.01863   0.02112   0.02292
 Alpha virt. eigenvalues --    0.02392   0.02608   0.02690   0.03319   0.03572
 Alpha virt. eigenvalues --    0.04173   0.04491   0.04591   0.04754   0.05188
 Alpha virt. eigenvalues --    0.05976   0.06102   0.06611   0.07021   0.07264
 Alpha virt. eigenvalues --    0.08043   0.08119   0.08201   0.08449   0.08894
 Alpha virt. eigenvalues --    0.09181   0.09331   0.09850   0.10401   0.11239
 Alpha virt. eigenvalues --    0.11296   0.12024   0.12342   0.12546   0.12860
 Alpha virt. eigenvalues --    0.13148   0.13323   0.13836   0.14283   0.15947
 Alpha virt. eigenvalues --    0.16400   0.16728   0.17158   0.17428   0.18133
 Alpha virt. eigenvalues --    0.18163   0.18678   0.19268   0.19478   0.20077
 Alpha virt. eigenvalues --    0.21239   0.21489   0.22796   0.22958   0.23344
 Alpha virt. eigenvalues --    0.23850   0.24669   0.25315   0.26808   0.27662
 Alpha virt. eigenvalues --    0.28696   0.28857   0.29460   0.31325   0.35452
 Alpha virt. eigenvalues --    0.35894   0.37947   0.39175   0.41296   0.41571
 Alpha virt. eigenvalues --    0.41716   0.42138   0.43065   0.43744   0.44506
 Alpha virt. eigenvalues --    0.44551   0.45033   0.45840   0.46585   0.48001
 Alpha virt. eigenvalues --    0.48466   0.48801   0.48947   0.49869   0.50451
 Alpha virt. eigenvalues --    0.50627   0.52047   0.52103   0.53367   0.53891
 Alpha virt. eigenvalues --    0.53990   0.55486   0.55550   0.55872   0.57440
 Alpha virt. eigenvalues --    0.58153   0.59415   0.61319   0.61909   0.62395
 Alpha virt. eigenvalues --    0.62853   0.62958   0.64947   0.65220   0.67330
 Alpha virt. eigenvalues --    0.69963   0.70664   0.71200   0.72133   0.72476
 Alpha virt. eigenvalues --    0.75358   0.75537   0.76049   0.76669   0.77341
 Alpha virt. eigenvalues --    0.77732   0.78001   0.78117   0.79490   0.80382
 Alpha virt. eigenvalues --    0.81254   0.81835   0.82197   0.83504   0.85104
 Alpha virt. eigenvalues --    0.86240   0.87763   0.87869   0.89153   0.90325
 Alpha virt. eigenvalues --    0.90406   0.91893   0.93590   0.94596   0.96046
 Alpha virt. eigenvalues --    0.96238   0.98945   1.00221   1.01734   1.02393
 Alpha virt. eigenvalues --    1.02851   1.03172   1.03192   1.04393   1.07153
 Alpha virt. eigenvalues --    1.17755   1.22728   1.22916   1.26288   1.28051
 Alpha virt. eigenvalues --    1.30146   1.33872   1.33899   1.34102   1.35450
 Alpha virt. eigenvalues --    1.38903   1.40012   1.41067   1.42168   1.43442
 Alpha virt. eigenvalues --    1.43960   1.45580   1.45764   1.46517   1.46922
 Alpha virt. eigenvalues --    1.47735   1.48150   1.51211   1.53643   1.53770
 Alpha virt. eigenvalues --    1.55647   1.55750   1.56133   1.57363   1.61755
 Alpha virt. eigenvalues --    1.62808   1.63513   1.63867   1.65630   1.67653
 Alpha virt. eigenvalues --    1.68608   1.69034   1.70509   1.73573   1.74640
 Alpha virt. eigenvalues --    1.77275   1.77780   1.79441   1.80133   1.80915
 Alpha virt. eigenvalues --    1.81267   1.82504   1.82782   1.83463   1.83466
 Alpha virt. eigenvalues --    1.84395   1.85612   1.86838   1.88350   1.90889
 Alpha virt. eigenvalues --    1.93301   1.94431   1.97245   1.97431   1.98173
 Alpha virt. eigenvalues --    1.99598   2.01932   2.03719   2.07088   2.11469
 Alpha virt. eigenvalues --    2.12944   2.14623   2.14727   2.18124   2.21710
 Alpha virt. eigenvalues --    2.22282   2.27402   2.29621   2.33827   2.33923
 Alpha virt. eigenvalues --    2.35867   2.38107   2.39730   2.41523   2.43277
 Alpha virt. eigenvalues --    2.46060   2.46444   2.46955   2.51580   2.52341
 Alpha virt. eigenvalues --    2.54218   2.56217   2.58070   2.59095   2.59662
 Alpha virt. eigenvalues --    2.60017   2.61058   2.62022   2.62933   2.64022
 Alpha virt. eigenvalues --    2.64991   2.65309   2.65981   2.66523   2.68521
 Alpha virt. eigenvalues --    2.68700   2.70372   2.70967   2.72582   2.74880
 Alpha virt. eigenvalues --    2.76173   2.77924   2.79824   2.80287   2.83251
 Alpha virt. eigenvalues --    2.84036   2.86234   2.91905   2.98937   2.99808
 Alpha virt. eigenvalues --    3.01457   3.05480   3.06748   3.12101   3.13350
 Alpha virt. eigenvalues --    3.19465   3.24264   3.25952   3.27888   3.30247
 Alpha virt. eigenvalues --    3.31448   3.32409   3.42722   3.44681   3.46215
 Alpha virt. eigenvalues --    3.46838   3.48233   3.55638   3.65668   3.66194
 Alpha virt. eigenvalues --    3.68308   3.91968   3.94094   3.95210   3.96203
 Alpha virt. eigenvalues --    4.02980   4.05204   4.07607   4.11366   4.36046
 Alpha virt. eigenvalues --    4.59025   4.68262   4.70184  23.45706  23.60044
 Alpha virt. eigenvalues --   23.78913  23.85442  23.86651  23.88411  23.88823
 Alpha virt. eigenvalues --   23.92190  23.95079  23.97051  23.99637  24.01142
 Alpha virt. eigenvalues --   24.09208  24.10948
          Condensed to atoms (all electrons):
               1          2          3          4          5          6
     1  C   11.724347   0.728218  -1.114072   2.162204  -0.301870  -0.030880
     2  C    0.728218   6.477567   0.348381  -0.597236  -0.090482  -0.010408
     3  C   -1.114072   0.348381   7.240107   0.184758   0.038725   0.004872
     4  C    2.162204  -0.597236   0.184758   8.708107   0.448146  -0.049001
     5  C   -0.301870  -0.090482   0.038725   0.448146   8.989888   0.243759
     6  C   -0.030880  -0.010408   0.004872  -0.049001   0.243759   6.512388
     7  C   -0.104644   0.031531  -0.022834  -0.104159  -0.144175   0.278278
     8  C   -0.443921  -0.059894  -0.066941   0.057805   1.809546  -1.003650
     9  C   -2.657924  -0.176813   0.224768  -1.423599  -1.156041   0.139013
    10  C    0.455663   0.190804  -0.956122  -0.616383  -0.437561  -0.329074
    11  C   -3.158733  -0.985722   1.287588  -3.158428  -1.675908  -0.089296
    12  C   -0.600343   0.427986  -0.366112   0.479631   1.248065  -0.355473
    13  C    0.092842  -0.077687  -0.378558  -0.931153  -3.638445   1.199435
    14  C   -0.958369  -0.180956  -0.318390   0.293747   0.253378  -0.389973
    15  H    0.400486  -0.056030  -0.004265   0.027993   0.002768   0.000405
    16  H   -0.058967   0.388008  -0.002300  -0.016043  -0.001417  -0.000291
    17  H   -0.001990  -0.033676   0.383116  -0.039251  -0.000029   0.000305
    18  H    0.046792   0.003807  -0.122715   0.450518   0.013797  -0.003894
    19  H   -0.023385   0.002444   0.025803  -0.057599  -0.084397   0.035087
    20  H    0.005266   0.000359  -0.001717   0.019586   0.420455  -0.089173
    21  H   -0.001969  -0.000262   0.000402  -0.000689  -0.055648   0.393611
    22  H    0.001372   0.000345  -0.000425  -0.000529   0.004103  -0.013807
    23  H   -0.017719  -0.004625   0.002160   0.002666   0.026648   0.008207
    24  H    0.040344   0.013656  -0.003543  -0.010937  -0.019734   0.001836
    25  H    0.040344   0.013656  -0.003543  -0.010937  -0.019734   0.001836
               7          8          9         10         11         12
     1  C   -0.104644  -0.443921  -2.657924   0.455663  -3.158733  -0.600343
     2  C    0.031531  -0.059894  -0.176813   0.190804  -0.985722   0.427986
     3  C   -0.022834  -0.066941   0.224768  -0.956122   1.287588  -0.366112
     4  C   -0.104159   0.057805  -1.423599  -0.616383  -3.158428   0.479631
     5  C   -0.144175   1.809546  -1.156041  -0.437561  -1.675908   1.248065
     6  C    0.278278  -1.003650   0.139013  -0.329074  -0.089296  -0.355473
     7  C    7.510917   1.276113  -0.835056   0.324018  -0.001256  -0.279821
     8  C    1.276113  10.543831  -2.933462  -0.311836   0.011193  -1.054308
     9  C   -0.835056  -2.933462   9.532281   0.272757   2.770235  -0.374003
    10  C    0.324018  -0.311836   0.272757   9.860089  -2.151815   0.534584
    11  C   -0.001256   0.011193   2.770235  -2.151815  18.600797  -4.023941
    12  C   -0.279821  -1.054308  -0.374003   0.534584  -4.023941  16.125375
    13  C   -2.334993  -2.070037   2.114877  -1.945127   3.324710  -5.431131
    14  C    0.516524  -0.289258   0.067390   0.678278  -4.418632  -0.524736
    15  H   -0.004839  -0.008972   0.026994   0.001468  -0.063910   0.043977
    16  H    0.000615   0.002457   0.009806  -0.014761   0.091632  -0.058444
    17  H   -0.000468  -0.002118  -0.001915   0.010464  -0.007007   0.038874
    18  H    0.002673   0.012893  -0.030594   0.080631  -0.046542  -0.084062
    19  H   -0.009622  -0.043309   0.062860   0.404563   0.065579  -0.130082
    20  H    0.000866   0.048102  -0.030605   0.032663  -0.008057   0.007557
    21  H   -0.033865  -0.015400   0.003884   0.010739  -0.005708  -0.000646
    22  H    0.371564  -0.029102  -0.000619  -0.013408   0.004550  -0.005861
    23  H   -0.094129   0.350731   0.059630  -0.000974  -0.024702   0.008768
    24  H    0.019554   0.041017   0.350914   0.005934   0.027796  -0.084587
    25  H    0.019554   0.041017   0.350914   0.005934   0.027796  -0.084587
              13         14         15         16         17         18
     1  C    0.092842  -0.958369   0.400486  -0.058967  -0.001990   0.046792
     2  C   -0.077687  -0.180956  -0.056030   0.388008  -0.033676   0.003807
     3  C   -0.378558  -0.318390  -0.004265  -0.002300   0.383116  -0.122715
     4  C   -0.931153   0.293747   0.027993  -0.016043  -0.039251   0.450518
     5  C   -3.638445   0.253378   0.002768  -0.001417  -0.000029   0.013797
     6  C    1.199435  -0.389973   0.000405  -0.000291   0.000305  -0.003894
     7  C   -2.334993   0.516524  -0.004839   0.000615  -0.000468   0.002673
     8  C   -2.070037  -0.289258  -0.008972   0.002457  -0.002118   0.012893
     9  C    2.114877   0.067390   0.026994   0.009806  -0.001915  -0.030594
    10  C   -1.945127   0.678278   0.001468  -0.014761   0.010464   0.080631
    11  C    3.324710  -4.418632  -0.063910   0.091632  -0.007007  -0.046542
    12  C   -5.431131  -0.524736   0.043977  -0.058444   0.038874  -0.084062
    13  C   17.298383  -1.209803  -0.026113   0.006419  -0.008301   0.005657
    14  C   -1.209803  12.478247   0.003669  -0.010585   0.004328   0.007517
    15  H   -0.026113   0.003669   0.434074  -0.008121   0.001328   0.000227
    16  H    0.006419  -0.010585  -0.008121   0.416538  -0.007066   0.001853
    17  H   -0.008301   0.004328   0.001328  -0.007066   0.426952  -0.010729
    18  H    0.005657   0.007517   0.000227   0.001853  -0.010729   0.458770
    19  H    0.090292   0.026003  -0.000064  -0.000169   0.000451  -0.002605
    20  H   -0.014984  -0.062897  -0.000062   0.000011  -0.000082   0.000946
    21  H    0.021623   0.031641  -0.000015  -0.000006   0.000007  -0.000147
    22  H    0.053789  -0.038864  -0.000096   0.000010  -0.000007   0.000040
    23  H   -0.008451   0.014646   0.000582  -0.000201   0.000006  -0.000147
    24  H    0.014610  -0.062732  -0.000435   0.000705  -0.000195   0.000223
    25  H    0.014610  -0.062732  -0.000435   0.000705  -0.000195   0.000223
              19         20         21         22         23         24
     1  C   -0.023385   0.005266  -0.001969   0.001372  -0.017719   0.040344
     2  C    0.002444   0.000359  -0.000262   0.000345  -0.004625   0.013656
     3  C    0.025803  -0.001717   0.000402  -0.000425   0.002160  -0.003543
     4  C   -0.057599   0.019586  -0.000689  -0.000529   0.002666  -0.010937
     5  C   -0.084397   0.420455  -0.055648   0.004103   0.026648  -0.019734
     6  C    0.035087  -0.089173   0.393611  -0.013807   0.008207   0.001836
     7  C   -0.009622   0.000866  -0.033865   0.371564  -0.094129   0.019554
     8  C   -0.043309   0.048102  -0.015400  -0.029102   0.350731   0.041017
     9  C    0.062860  -0.030605   0.003884  -0.000619   0.059630   0.350914
    10  C    0.404563   0.032663   0.010739  -0.013408  -0.000974   0.005934
    11  C    0.065579  -0.008057  -0.005708   0.004550  -0.024702   0.027796
    12  C   -0.130082   0.007557  -0.000646  -0.005861   0.008768  -0.084587
    13  C    0.090292  -0.014984   0.021623   0.053789  -0.008451   0.014610
    14  C    0.026003  -0.062897   0.031641  -0.038864   0.014646  -0.062732
    15  H   -0.000064  -0.000062  -0.000015  -0.000096   0.000582  -0.000435
    16  H   -0.000169   0.000011  -0.000006   0.000010  -0.000201   0.000705
    17  H    0.000451  -0.000082   0.000007  -0.000007   0.000006  -0.000195
    18  H   -0.002605   0.000946  -0.000147   0.000040  -0.000147   0.000223
    19  H    0.421980  -0.004894   0.001081  -0.000448   0.000249   0.000899
    20  H   -0.004894   0.437476  -0.008908   0.001891  -0.000066   0.000144
    21  H    0.001081  -0.008908   0.421479  -0.005994   0.001224  -0.000080
    22  H   -0.000448   0.001891  -0.005994   0.416756  -0.009583   0.000523
    23  H    0.000249  -0.000066   0.001224  -0.009583   0.448251  -0.002313
    24  H    0.000899   0.000144  -0.000080   0.000523  -0.002313   0.498784
    25  H    0.000899   0.000144  -0.000080   0.000523  -0.002313  -0.082055
              25
     1  C    0.040344
     2  C    0.013656
     3  C   -0.003543
     4  C   -0.010937
     5  C   -0.019734
     6  C    0.001836
     7  C    0.019554
     8  C    0.041017
     9  C    0.350914
    10  C    0.005934
    11  C    0.027796
    12  C   -0.084587
    13  C    0.014610
    14  C   -0.062732
    15  H   -0.000435
    16  H    0.000705
    17  H   -0.000195
    18  H    0.000223
    19  H    0.000899
    20  H    0.000144
    21  H   -0.000080
    22  H    0.000523
    23  H   -0.002313
    24  H   -0.082055
    25  H    0.498784
 Mulliken charges:
               1
     1  C   -0.223091
     2  C   -0.352971
     3  C   -0.379145
     4  C    0.180785
     5  C    0.126164
     6  C   -0.454111
     7  C   -0.382345
     8  C    0.137503
     9  C   -0.365688
    10  C   -0.091527
    11  C   -0.392217
    12  C    0.543321
    13  C   -0.162463
    14  C    0.152556
    15  H    0.229386
    16  H    0.259613
    17  H    0.247199
    18  H    0.214866
    19  H    0.218383
    20  H    0.245980
    21  H    0.243727
    22  H    0.263276
    23  H    0.241457
    24  H    0.249671
    25  H    0.249671
 Sum of Mulliken charges =   1.00000
 Mulliken charges with hydrogens summed into heavy atoms:
               1
     1  C    0.006295
     2  C   -0.093358
     3  C   -0.131946
     4  C    0.395651
     5  C    0.372144
     6  C   -0.210384
     7  C   -0.119070
     8  C    0.378960
     9  C    0.133654
    10  C    0.126856
    11  C   -0.392217
    12  C    0.543321
    13  C   -0.162463
    14  C    0.152556
 Electronic spatial extent (au):  <R**2>=           2854.6752
 Charge=              1.0000 electrons
 Dipole moment (field-independent basis, Debye):
    X=              0.1020    Y=             -0.0667    Z=              0.0000  Tot=              0.1219
 Quadrupole moment (field-independent basis, Debye-Ang):
   XX=            -52.2556   YY=            -35.4116   ZZ=            -84.3085
   XY=              8.8245   XZ=             -0.0000   YZ=              0.0000
 Traceless Quadrupole moment (field-independent basis, Debye-Ang):
   XX=              5.0697   YY=             21.9136   ZZ=            -26.9833
   XY=              8.8245   XZ=             -0.0000   YZ=              0.0000
 Octapole moment (field-independent basis, Debye-Ang**2):
  XXX=              1.2042  YYY=              7.7402  ZZZ=              0.0000  XYY=             -2.9677
  XXY=             -6.6047  XXZ=              0.0000  XZZ=             -3.1675  YZZ=              0.9205
  YYZ=              0.0000  XYZ=             -0.0000
 Hexadecapole moment (field-independent basis, Debye-Ang**3):
 XXXX=           -886.8666 YYYY=          -1929.5457 ZZZZ=            -99.7294 XXXY=           -313.6383
 XXXZ=             -0.0000 YYYX=           -238.5273 YYYZ=              0.0000 ZZZX=              0.0000
 ZZZY=             -0.0000 XXYY=           -465.6923 XXZZ=           -217.5671 YYZZ=           -521.1097
 XXYZ=              0.0000 YYXZ=             -0.0000 ZZXY=           -162.6156
 N-N= 7.807649016892D+02 E-N=-2.797726979655D+03  KE= 5.373605369251D+02
 Symmetry A'   KE= 5.227191851384D+02
 Symmetry A"   KE= 1.464135178667D+01
 Unable to Open any file for archive entry.
 1\1\GINC-GADI-CPU-CLX-0359\SP\RM062X TD-FC\6-311++G(d,p)\C14H11(1+)\TS
 1578\02-Aug-2022\0\\#n M062X/6-311++G(d,p) TD(NStates=1) EmpiricalDisp
 ersion=GD3 SP\\SP_4\\1,1\C,0,0.,2.466655,1.416431\C,0,0.,3.685508,0.75
 3989\C,0,0.,3.681861,-0.63583\C,0,0.,2.487156,-1.359538\C,0,0.,-2.5831
 56,-1.431538\C,0,0.,-3.745861,-0.58783\C,0,0.,-3.645508,0.793989\C,0,0
 .,-2.362655,1.328431\C,0,0.,-0.016,1.363369\C,0,0.,0.024,-1.519189\C,0
 ,0.,1.268055,0.683065\C,0,0.,1.233471,-0.732804\C,0,0.,-1.220055,0.515
 065\C,0,0.,-1.265471,-0.884804\H,0,0.,2.422071,2.499647\H,0,0.,4.61875
 3,1.299689\H,0,0.,4.613262,-1.176349\H,0,0.,2.52555,-2.442059\H,0,0.,0
 .124,-2.606266\H,0,0.,-2.73355,-2.514059\H,0,0.,-4.725262,-1.056349\H,
 0,0.,-4.522753,1.435689\H,0,0.,-2.206071,2.411647\H,0,-0.859585,-0.096
 ,2.055787\H,0,0.859585,-0.096,2.055787\\Version=ES64L-G16RevC.01\State
 =1-A'\HF=-539.7398764\RMSD=6.564e-09\PG=CS [SG(C14H9),X(H2)]\\@
 The archive entry for this job was punched.


 BOOKS ARE LIGHTHOUSES ERECTED IN THE GREAT SEA OF TIME.
     -- E.P.WHIPPLE
 Job cpu time:       0 days  0 hours 52 minutes 18.2 seconds.
 Elapsed time:       0 days  0 hours  1 minutes  5.5 seconds.
 File lengths (MBytes):  RWF=    460 Int=      0 D2E=      0 Chk=     15 Scr=      1
 Normal termination of Gaussian 16 at Tue Aug  2 13:10:17 2022.
