 Entering Gaussian System, Link 0=g16
 Initial command:
 /apps/gaussian/g16c01/g16/l1.exe "/jobfs/53803768.gadi-pbs/Gau-205991.inp" -scrdir="/jobfs/53803768.gadi-pbs/"
 Entering Link 1 = /apps/gaussian/g16c01/g16/l1.exe PID=    205992.
  
 Copyright (c) 1988-2019, Gaussian, Inc.  All Rights Reserved.
  
 This is part of the Gaussian(R) 16 program.  It is based on
 the Gaussian(R) 09 system (copyright 2009, Gaussian, Inc.),
 the Gaussian(R) 03 system (copyright 2003, Gaussian, Inc.),
 the Gaussian(R) 98 system (copyright 1998, Gaussian, Inc.),
 the Gaussian(R) 94 system (copyright 1995, Gaussian, Inc.),
 the Gaussian 92(TM) system (copyright 1992, Gaussian, Inc.),
 the Gaussian 90(TM) system (copyright 1990, Gaussian, Inc.),
 the Gaussian 88(TM) system (copyright 1988, Gaussian, Inc.),
 the Gaussian 86(TM) system (copyright 1986, Carnegie Mellon
 University), and the Gaussian 82(TM) system (copyright 1983,
 Carnegie Mellon University). Gaussian is a federally registered
 trademark of Gaussian, Inc.
  
 This software contains proprietary and confidential information,
 including trade secrets, belonging to Gaussian, Inc.
  
 This software is provided under written license and may be
 used, copied, transmitted, or stored only in accord with that
 written license.
  
 The following legend is applicable only to US Government
 contracts under FAR:
  
                    RESTRICTED RIGHTS LEGEND
  
 Use, reproduction and disclosure by the US Government is
 subject to restrictions as set forth in subparagraphs (a)
 and (c) of the Commercial Computer Software - Restricted
 Rights clause in FAR 52.227-19.
  
 Gaussian, Inc.
 340 Quinnipiac St., Bldg. 40, Wallingford CT 06492
  
  
 ---------------------------------------------------------------
 Warning -- This program may not be used in any manner that
 competes with the business of Gaussian, Inc. or will provide
 assistance to any competitor of Gaussian, Inc.  The licensee
 of this program is prohibited from giving any competitor of
 Gaussian, Inc. access to this program.  By using this program,
 the user acknowledges that Gaussian, Inc. is engaged in the
 business of creating and licensing software in the field of
 computational chemistry and represents and warrants to the
 licensee that it is not a competitor of Gaussian, Inc. and that
 it will not use this program in any manner prohibited above.
 ---------------------------------------------------------------
  

 Cite this work as:
 Gaussian 16, Revision C.01,
 M. J. Frisch, G. W. Trucks, H. B. Schlegel, G. E. Scuseria, 
 M. A. Robb, J. R. Cheeseman, G. Scalmani, V. Barone, 
 G. A. Petersson, H. Nakatsuji, X. Li, M. Caricato, A. V. Marenich, 
 J. Bloino, B. G. Janesko, R. Gomperts, B. Mennucci, H. P. Hratchian, 
 J. V. Ortiz, A. F. Izmaylov, J. L. Sonnenberg, D. Williams-Young, 
 F. Ding, F. Lipparini, F. Egidi, J. Goings, B. Peng, A. Petrone, 
 T. Henderson, D. Ranasinghe, V. G. Zakrzewski, J. Gao, N. Rega, 
 G. Zheng, W. Liang, M. Hada, M. Ehara, K. Toyota, R. Fukuda, 
 J. Hasegawa, M. Ishida, T. Nakajima, Y. Honda, O. Kitao, H. Nakai, 
 T. Vreven, K. Throssell, J. A. Montgomery, Jr., J. E. Peralta, 
 F. Ogliaro, M. J. Bearpark, J. J. Heyd, E. N. Brothers, K. N. Kudin, 
 V. N. Staroverov, T. A. Keith, R. Kobayashi, J. Normand, 
 K. Raghavachari, A. P. Rendell, J. C. Burant, S. S. Iyengar, 
 J. Tomasi, M. Cossi, J. M. Millam, M. Klene, C. Adamo, R. Cammi, 
 J. W. Ochterski, R. L. Martin, K. Morokuma, O. Farkas, 
 J. B. Foresman, and D. J. Fox, Gaussian, Inc., Wallingford CT, 2019.
 
 ******************************************
 Gaussian 16:  ES64L-G16RevC.01  3-Jul-2019
                 2-Aug-2022 
 ******************************************
 %NProcShared=48
 Will use up to   48 processors via shared memory.
 %mem = 190GB
 ---------------------------------------------------------------
 #n M062X/6-311++G(d,p) TD(NStates=1) EmpiricalDispersion=GD3 SP
 ---------------------------------------------------------------
 1/38=1,172=1/1;
 2/12=2,17=6,18=5,40=1/2;
 3/5=4,6=6,7=1111,11=9,25=1,30=1,74=-55,124=31/1,2,3,8;
 4//1;
 5/5=2,38=5/2;
 8/6=1,10=2,108=1/1;
 9/41=1,42=1,70=2/14;
 6/7=2,8=2,9=2,10=2/1;
 99/5=1,9=1/99;
 ----
 SP_2
 ----
 Symbolic Z-matrix:
 Charge =  1 Multiplicity = 1
 C                     0.        2.38865   1.40243 
 C                     0.        3.65151   0.83199 
 C                     0.        3.71786  -0.55583 
 C                     0.        2.55916  -1.36954 
 C                     0.       -2.60716  -1.40554 
 C                     0.       -3.74986  -0.53183 
 C                     0.       -3.63151   0.85199 
 C                     0.       -2.33666   1.35843 
 C                     0.       -0.008     1.30337 
 C                     0.        0.012    -1.57919 
 C                     0.        1.24406   0.58907 
 C                     0.        1.24947  -0.8228 
 C                     0.       -1.22006   0.50507 
 C                     0.       -1.26547  -0.8988 
 H                     0.        2.25207   2.48565 
 H                     0.        4.55075   1.43769 
 H                     0.        4.68126  -1.04235 
 H                     0.        2.68555  -2.45206 
 H                     0.        0.062    -2.67027 
 H                     0.       -2.78955  -2.48806 
 H                     0.       -4.73726  -0.98235 
 H                     0.       -4.50275   1.50569 
 H                     0.       -2.14407   2.44165 
 H                    -0.85959  -0.048     1.99579 
 H                     0.85959  -0.048     1.99579 
 
                          Input orientation:                          
 ---------------------------------------------------------------------
 Center     Atomic      Atomic             Coordinates (Angstroms)
 Number     Number       Type             X           Y           Z
 ---------------------------------------------------------------------
      1          6           0        0.000000    2.388655    1.402431
      2          6           0        0.000000    3.651508    0.831989
      3          6           0        0.000000    3.717861   -0.555830
      4          6           0        0.000000    2.559156   -1.369538
      5          6           0        0.000000   -2.607156   -1.405538
      6          6           0        0.000000   -3.749861   -0.531830
      7          6           0        0.000000   -3.631508    0.851989
      8          6           0        0.000000   -2.336655    1.358431
      9          6           0        0.000000   -0.008000    1.303369
     10          6           0        0.000000    0.012000   -1.579189
     11          6           0        0.000000    1.244055    0.589065
     12          6           0        0.000000    1.249471   -0.822804
     13          6           0        0.000000   -1.220055    0.505065
     14          6           0        0.000000   -1.265471   -0.898804
     15          1           0        0.000000    2.252071    2.485647
     16          1           0        0.000000    4.550753    1.437689
     17          1           0        0.000000    4.681262   -1.042349
     18          1           0        0.000000    2.685550   -2.452059
     19          1           0        0.000000    0.062000   -2.670266
     20          1           0        0.000000   -2.789550   -2.488059
     21          1           0        0.000000   -4.737262   -0.982349
     22          1           0        0.000000   -4.502753    1.505689
     23          1           0        0.000000   -2.144071    2.441647
     24          1           0       -0.859585   -0.048000    1.995787
     25          1           0        0.859585   -0.048000    1.995787
 ---------------------------------------------------------------------
                    Distance matrix (angstroms):
                    1          2          3          4          5
     1  C    0.000000
     2  C    1.385713   0.000000
     3  C    2.366765   1.389404   0.000000
     4  C    2.777208   2.457632   1.415881   0.000000
     5  C    5.730865   6.646608   6.381837   5.166437   0.000000
     6  C    6.436050   7.525973   7.467761   6.364389   1.438451
     7  C    6.045275   7.283043   7.482993   6.577196   2.479057
     8  C    4.725515   6.011259   6.349926   5.604532   2.777174
     9  C    2.398701   3.689742   4.163972   3.706039   3.754170
    10  C    3.812945   4.365753   3.844564   2.555769   2.624906
    11  C    1.404163   2.419678   2.725894   2.359156   4.337081
    12  C    2.499882   2.916868   2.482786   1.419223   3.900404
    13  C    3.718609   4.882520   5.050595   4.218598   2.361028
    14  C    4.318370   5.212708   4.995121   3.853487   1.434189
    15  H    1.091793   2.166335   3.376259   3.867396   6.225224
    16  H    2.162385   1.084211   2.160515   3.441945   7.701922
    17  H    3.351566   2.138583   1.079279   2.147181   7.297461
    18  H    3.865907   3.423163   2.159016   1.089875   5.395178
    19  H    4.690435   5.015013   4.223288   2.815614   2.953630
    20  H    6.476860   7.246375   6.788218   5.464407   1.097779
    21  H    7.514377   8.582732   8.465874   7.306684   2.171737
    22  H    6.892182   8.182044   8.475161   7.624794   3.473979
    23  H    4.650331   6.014959   6.583853   6.053551   3.874956
    24  H    2.651084   3.972363   4.629400   4.342990   4.342485
    25  H    2.651084   3.972363   4.629400   4.342990   4.342485
                    6          7          8          9         10
     6  C    0.000000
     7  C    1.388871   0.000000
     8  C    2.360135   1.390370   0.000000
     9  C    4.167671   3.651514   2.329306   0.000000
    10  C    3.904940   4.380157   3.761089   2.882627   0.000000
    11  C    5.118164   4.882647   3.662432   1.441483   2.493849
    12  C    5.007793   5.160319   4.197390   2.470191   1.450328
    13  C    2.734057   2.436280   1.405357   1.451333   2.421172
    14  C    2.511347   2.943367   2.498509   2.535902   1.447362
    15  H    6.717764   6.106172   4.725148   2.550628   4.641208
    16  H    8.531072   8.203197   6.887864   4.560731   5.449939
    17  H    8.446565   8.525882   7.417203   5.243241   4.700022
    18  H    6.715787   7.128952   6.304156   4.621520   2.812432
    19  H    4.370720   5.103752   4.688704   3.974252   1.092222
    20  H    2.179227   3.444534   3.873061   4.702334   2.945289
    21  H    1.085324   2.141842   3.352934   5.252659   4.786618
    22  H    2.172172   1.089216   2.171098   4.499304   5.468041
    23  H    3.379368   2.177035   1.100202   2.420429   4.562430
    24  H    4.564155   3.858587   2.526470   1.104504   3.677355
    25  H    4.564155   3.858587   2.526470   1.104504   3.677355
                   11         12         13         14         15
    11  C    0.000000
    12  C    1.411879   0.000000
    13  C    2.465541   2.803889   0.000000
    14  C    2.917443   2.516090   1.404603   0.000000
    15  H    2.147817   3.457030   3.997295   4.881353   0.000000
    16  H    3.413856   4.001036   5.845683   6.267987   2.526293
    17  H    3.804721   3.438806   6.100822   5.948465   4.283424
    18  H    3.365463   2.171818   4.898809   4.245370   4.956697
    19  H    3.467058   2.196179   3.424382   2.213652   5.601772
    20  H    5.073328   4.368840   3.379661   2.201942   7.082068
    21  H    6.184294   5.988859   3.818788   3.472796   7.802421
    22  H    5.819450   6.205639   3.431815   4.032565   6.825538
    23  H    3.861536   4.708797   2.145730   3.454063   4.396362
    24  H    2.094555   3.219747   2.082031   3.255730   2.503832
    25  H    2.094555   3.219747   2.082031   3.255730   2.503832
                   16         17         18         19         20
    16  H    0.000000
    17  H    2.483470   0.000000
    18  H    4.313829   2.443389   0.000000
    19  H    6.084751   4.897723   2.632609   0.000000
    20  H    8.324154   7.609409   5.475218   2.857365   0.000000
    21  H    9.598115   9.418715   7.566914   5.087433   2.461858
    22  H    9.053761   9.530930   8.205819   6.186725   4.345698
    23  H    6.769682   7.663119   6.875580   5.567621   4.971785
    24  H    4.711570   5.686394   5.290984   4.745844   5.325397
    25  H    4.711570   5.686394   5.290984   4.745844   5.325397
                   21         22         23         24         25
    21  H    0.000000
    22  H    2.499065   0.000000
    23  H    4.295159   2.537597   0.000000
    24  H    5.621153   4.563322   2.308937   0.000000
    25  H    5.621153   4.563322   2.308937   1.719170   0.000000
 Stoichiometry    C14H11(1+)
 Framework group  CS[SG(C14H9),X(H2)]
 Deg. of freedom    46
 Full point group                 CS      NOp   2
 Largest Abelian subgroup         CS      NOp   2
 Largest concise Abelian subgroup CS      NOp   2
                         Standard orientation:                         
 ---------------------------------------------------------------------
 Center     Atomic      Atomic             Coordinates (Angstroms)
 Number     Number       Type             X           Y           Z
 ---------------------------------------------------------------------
      1          6           0       -2.397210    1.384821    0.000000
      2          6           0       -3.656594    0.806762    0.000000
      3          6           0       -3.714565   -0.581432    0.000000
      4          6           0       -2.550966   -1.388128    0.000000
      5          6           0        2.615469   -1.392925    0.000000
      6          6           0        3.752876   -0.512332    0.000000
      7          6           0        3.626168    0.870747    0.000000
      8          6           0        2.328280    1.369359    0.000000
      9          6           0        0.000000    1.300235    0.000000
     10          6           0       -0.002591   -1.582391    0.000000
     11          6           0       -1.247718    0.578382    0.000000
     12          6           0       -1.244607   -0.833494    0.000000
     13          6           0        1.216854    0.509265    0.000000
     14          6           0        1.270748   -0.894304    0.000000
     15          1           0       -2.267170    2.468842    0.000000
     16          1           0       -4.559481    1.407020    0.000000
     17          1           0       -4.675010   -1.073761    0.000000
     18          1           0       -2.670820   -2.471392    0.000000
     19          1           0       -0.046000   -2.673750    0.000000
     20          1           0        2.804397   -2.474325    0.000000
     21          1           0        4.742980   -0.956880    0.000000
     22          1           0        4.493449    1.529697    0.000000
     23          1           0        2.129158    2.451393    0.000000
     24          1           0        0.035817    1.992882    0.859585
     25          1           0        0.035817    1.992882   -0.859585
 ---------------------------------------------------------------------
 Rotational constants (GHZ):           2.1139669           0.4457453           0.3689242
 Standard basis: 6-311++G(d,p) (5D, 7F)
 There are   299 symmetry adapted cartesian basis functions of A'  symmetry.
 There are   100 symmetry adapted cartesian basis functions of A"  symmetry.
 There are   285 symmetry adapted basis functions of A'  symmetry.
 There are   100 symmetry adapted basis functions of A"  symmetry.
   385 basis functions,   603 primitive gaussians,   399 cartesian basis functions
    47 alpha electrons       47 beta electrons
       nuclear repulsion energy       780.1479242492 Hartrees.
 NAtoms=   25 NActive=   25 NUniq=   24 SFac= 1.09D+00 NAtFMM=   60 NAOKFM=F Big=F
 Integral buffers will be    131072 words long.
 Regular integral format.
 Two-electron integral symmetry is turned on.
 Nuclear repulsion after empirical dispersion term =      780.1469455018 Hartrees.
 One-electron integrals computed using PRISM.
 NBasis=   385 RedAO= T EigKep=  1.48D-06  NBF=   285   100
 NBsUse=   379 1.00D-06 EigRej=  6.62D-07 NBFU=   279   100
 ExpMin= 3.60D-02 ExpMax= 4.56D+03 ExpMxC= 6.82D+02 IAcc=3 IRadAn=         5 AccDes= 0.00D+00
 Harris functional with IExCor= 1009 and IRadAn=       5 diagonalized for initial guess.
 HarFok:  IExCor= 1009 AccDes= 0.00D+00 IRadAn=         5 IDoV= 1 UseB2=F ITyADJ=14
 ICtDFT=  3500011 ScaDFX=  1.000000  1.000000  1.000000  1.000000
 FoFCou: FMM=F IPFlag=           0 FMFlag=      100000 FMFlg1=           0
         NFxFlg=           0 DoJE=T BraDBF=F KetDBF=T FulRan=T
         wScrn=  0.000000 ICntrl=       500 IOpCl=  0 I1Cent=   200000004 NGrid=           0
         NMat0=    1 NMatS0=      1 NMatT0=    0 NMatD0=    1 NMtDS0=    0 NMtDT0=    0
 Petite list used in FoFCou.
 Initial guess orbital symmetries:
       Occupied  (A') (A') (A') (A') (A') (A') (A') (A') (A') (A')
                 (A') (A') (A') (A') (A') (A') (A') (A') (A') (A')
                 (A') (A') (A') (A') (A') (A') (A') (A') (A') (A')
                 (A') (A") (A') (A') (A') (A') (A') (A') (A') (A")
                 (A") (A') (A') (A") (A") (A") (A")
       Virtual   (A") (A") (A") (A") (A") (A') (A') (A') (A') (A")
                 (A") (A') (A') (A') (A') (A") (A') (A') (A') (A")
                 (A') (A') (A") (A') (A") (A') (A') (A") (A') (A')
                 (A') (A') (A') (A') (A') (A") (A') (A") (A') (A")
                 (A') (A') (A') (A") (A') (A') (A') (A') (A') (A")
                 (A') (A') (A") (A') (A") (A') (A') (A") (A') (A")
                 (A') (A') (A') (A') (A') (A") (A') (A') (A') (A")
                 (A') (A') (A') (A') (A') (A') (A') (A') (A') (A')
                 (A') (A') (A') (A') (A') (A') (A') (A') (A') (A')
                 (A') (A') (A') (A') (A') (A') (A') (A") (A') (A")
                 (A') (A') (A") (A") (A') (A') (A") (A') (A") (A")
                 (A') (A") (A') (A") (A') (A') (A") (A') (A") (A")
                 (A') (A") (A') (A') (A') (A') (A") (A') (A') (A")
                 (A') (A') (A') (A') (A') (A') (A") (A') (A') (A')
                 (A') (A') (A') (A') (A') (A') (A') (A') (A') (A")
                 (A") (A') (A") (A") (A') (A') (A') (A") (A") (A')
                 (A') (A") (A") (A") (A") (A') (A') (A') (A') (A')
                 (A') (A") (A') (A') (A") (A') (A') (A') (A") (A')
                 (A') (A') (A') (A") (A") (A') (A') (A") (A') (A")
                 (A") (A') (A') (A') (A') (A") (A') (A") (A') (A')
                 (A") (A") (A") (A') (A") (A') (A") (A') (A') (A")
                 (A') (A') (A") (A') (A") (A') (A') (A") (A") (A')
                 (A') (A') (A') (A') (A") (A') (A') (A") (A") (A')
                 (A') (A') (A') (A") (A') (A") (A') (A") (A') (A")
                 (A') (A') (A') (A') (A') (A") (A') (A') (A') (A")
                 (A') (A') (A') (A") (A") (A') (A') (A") (A') (A')
                 (A") (A') (A') (A") (A') (A') (A") (A') (A') (A')
                 (A") (A') (A') (A") (A') (A') (A") (A') (A") (A')
                 (A') (A") (A") (A") (A") (A') (A') (A') (A') (A')
                 (A') (A') (A') (A') (A') (A') (A') (A') (A') (A')
                 (A') (A') (A') (A') (A') (A") (A') (A') (A') (A')
                 (A') (A') (A') (A') (A') (A') (A') (A') (A') (A')
                 (A') (A') (A') (A') (A') (A') (A') (A') (A') (A')
                 (A') (A')
 The electronic state of the initial guess is 1-A'.
 Requested convergence on RMS density matrix=1.00D-08 within 128 cycles.
 Requested convergence on MAX density matrix=1.00D-06.
 Requested convergence on             energy=1.00D-06.
 No special actions if energy rises.
 SCF Done:  E(RM062X) =  -539.730013455     A.U. after   16 cycles
            NFock= 16  Conv=0.35D-08     -V/T= 2.0046
 DoSCS=F DFT=T ScalE2(SS,OS)=  1.000000  1.000000
 ExpMin= 3.60D-02 ExpMax= 4.56D+03 ExpMxC= 6.82D+02 IAcc=3 IRadAn=         5 AccDes= 0.00D+00
 HarFok:  IExCor=  205 AccDes= 0.00D+00 IRadAn=         5 IDoV=-2 UseB2=F ITyADJ=14
 ICtDFT= 12500011 ScaDFX=  1.000000  1.000000  1.000000  1.000000
 Range of M.O.s used for correlation:    15   379
 NBasis=   385 NAE=    47 NBE=    47 NFC=    14 NFV=     0
 NROrb=    365 NOA=    33 NOB=    33 NVA=   332 NVB=   332

 **** Warning!!: The largest alpha MO coefficient is  0.16564741D+03

 Orbital symmetries:
       Occupied  (A') (A') (A') (A') (A') (A') (A') (A') (A') (A')
                 (A') (A') (A') (A') (A') (A') (A') (A') (A') (A')
                 (A') (A') (A') (A') (A') (A') (A') (A') (A') (A')
                 (A') (A") (A') (A') (A') (A') (A') (A") (A") (A')
                 (A') (A') (A') (A") (A") (A") (A")
       Virtual   (A") (A") (A") (A") (A') (A') (A') (A") (A') (A')
                 (A') (A") (A') (A') (A") (A') (A") (A') (A') (A')
                 (A") (A") (A') (A') (A') (A") (A') (A") (A') (A")
                 (A') (A') (A") (A') (A') (A') (A') (A") (A') (A')
                 (A') (A") (A') (A") (A") (A') (A") (A') (A") (A')
                 (A') (A') (A') (A') (A') (A") (A') (A') (A') (A')
                 (A") (A') (A') (A') (A') (A") (A') (A') (A') (A')
                 (A') (A') (A') (A') (A') (A') (A') (A') (A') (A')
                 (A') (A') (A') (A') (A') (A') (A') (A') (A') (A')
                 (A') (A') (A') (A') (A") (A") (A') (A") (A') (A')
                 (A') (A") (A') (A') (A") (A") (A') (A') (A") (A")
                 (A') (A') (A") (A') (A") (A') (A") (A') (A') (A")
                 (A") (A') (A") (A') (A') (A") (A') (A') (A') (A')
                 (A') (A') (A') (A') (A') (A') (A') (A') (A') (A')
                 (A') (A') (A') (A") (A') (A') (A') (A') (A') (A')
                 (A') (A') (A") (A') (A') (A") (A") (A") (A') (A")
                 (A") (A') (A') (A") (A') (A") (A") (A') (A") (A')
                 (A') (A') (A') (A") (A") (A') (A') (A") (A') (A')
                 (A') (A') (A') (A") (A") (A') (A") (A') (A") (A')
                 (A") (A') (A') (A') (A") (A') (A") (A') (A') (A')
                 (A") (A") (A") (A') (A") (A') (A") (A') (A') (A')
                 (A") (A') (A') (A") (A') (A') (A") (A") (A") (A')
                 (A') (A') (A') (A') (A") (A') (A') (A") (A") (A')
                 (A') (A') (A') (A") (A') (A') (A") (A') (A") (A")
                 (A') (A') (A') (A') (A") (A') (A') (A') (A') (A')
                 (A') (A") (A') (A') (A') (A") (A") (A") (A') (A')
                 (A') (A') (A') (A') (A') (A') (A') (A") (A') (A')
                 (A') (A") (A') (A") (A") (A") (A') (A') (A") (A')
                 (A") (A") (A") (A") (A") (A') (A') (A') (A') (A')
                 (A') (A') (A') (A') (A') (A') (A') (A') (A') (A')
                 (A') (A') (A') (A') (A') (A") (A') (A') (A') (A')
                 (A') (A') (A') (A') (A') (A') (A') (A') (A') (A')
                 (A') (A') (A') (A') (A') (A') (A') (A') (A') (A')
                 (A') (A')
     4 initial guesses have been made.
 Convergence on wavefunction:    0.001000000000000
 Iteration     1 Dimension     4 NMult     0 NNew      4
 CISAX will form     4 AO SS matrices at one time.
 Iteration     2 Dimension     6 NMult     4 NNew      2
 Iteration     3 Dimension     8 NMult     6 NNew      2
 Iteration     4 Dimension    10 NMult     8 NNew      2
 Iteration     5 Dimension    12 NMult    10 NNew      2
 Iteration     6 Dimension    14 NMult    12 NNew      2
 ***********************************************************************
 Excited states from <AA,BB:AA,BB> singles matrix:
 ***********************************************************************
 
 Ground to excited state transition densities written to RWF  633
 Ground to excited state transition electric dipole moments (Au):
       state          X           Y           Z        Dip. S.      Osc.
         1         0.0793     -0.6105     -0.0000      0.3790      0.0233
 Ground to excited state transition velocity dipole moments (Au):
       state          X           Y           Z        Dip. S.      Osc.
         1        -0.0087      0.0637     -0.0000      0.0041      0.0299
 Ground to excited state transition magnetic dipole moments (Au):
       state          X           Y           Z
         1         0.0000     -0.0000     -0.0103
 Ground to excited state transition velocity quadrupole moments (Au):
       state          XX          YY          ZZ          XY          XZ          YZ
         1        -0.2671     -0.0578      0.0091      0.0184      0.0000     -0.0000
 <0|del|b> * <b|rxdel|0> + <0|del|b> * <b|delr+rdel|0>
 Rotatory Strengths (R) in cgs (10**-40 erg-esu-cm/Gauss)
       state          XX          YY          ZZ    R(velocity)    E-M Angle
         1        -0.0000      0.0000      0.0000     -0.0000       90.00
 1/2[<0|r|b>*<b|rxdel|0> + (<0|rxdel|b>*<b|r|0>)*]
 Rotatory Strengths (R) in cgs (10**-40 erg-esu-cm/Gauss)
       state          XX          YY          ZZ     R(length)
         1        -0.0000     -0.0000     -0.0000     -0.0000
  1/2[<0|del|b>*<b|r|0> + (<0|r|b>*<b|del|0>)*] (Au)
       state          X           Y           Z        Dip. S.   Osc.(frdel)
         1        -0.0007     -0.0389      0.0000      0.0396      0.0264

 Excitation energies and oscillator strengths:
 
 Excited State   1:      Singlet-A'     2.5141 eV  493.16 nm  f=0.0233  <S**2>=0.000
      47 -> 48         0.70524
 This state for optimization and/or second-order correction.
 Total Energy, E(TD-HF/TD-DFT) =  -539.637623181    
 Copying the excited state density for this state as the 1-particle RhoCI density.
 SavETr:  write IOETrn=   770 NScale= 10 NData=  16 NLR=1 NState=    1 LETran=      28.

 **********************************************************************

            Population analysis using the SCF Density.

 **********************************************************************

 Orbital symmetries:
       Occupied  (A') (A') (A') (A') (A') (A') (A') (A') (A') (A')
                 (A') (A') (A') (A') (A') (A') (A') (A') (A') (A')
                 (A') (A') (A') (A') (A') (A') (A') (A') (A') (A')
                 (A') (A") (A') (A') (A') (A') (A') (A") (A") (A')
                 (A') (A') (A') (A") (A") (A") (A")
       Virtual   (A") (A") (A") (A") (A') (A') (A') (A") (A') (A')
                 (A') (A") (A') (A') (A") (A') (A") (A') (A') (A')
                 (A") (A") (A') (A') (A') (A") (A') (A") (A') (A")
                 (A') (A') (A") (A') (A') (A') (A') (A") (A') (A')
                 (A') (A") (A') (A") (A") (A') (A") (A') (A") (A')
                 (A') (A') (A') (A') (A') (A") (A') (A') (A') (A')
                 (A") (A') (A') (A') (A') (A") (A') (A') (A') (A')
                 (A') (A') (A') (A') (A') (A') (A') (A') (A') (A')
                 (A') (A') (A') (A') (A') (A') (A') (A') (A') (A')
                 (A') (A') (A') (A') (A") (A") (A') (A") (A') (A')
                 (A') (A") (A') (A') (A") (A") (A') (A') (A") (A")
                 (A') (A') (A") (A') (A") (A') (A") (A') (A') (A")
                 (A") (A') (A") (A') (A') (A") (A') (A') (A') (A')
                 (A') (A') (A') (A') (A') (A') (A') (A') (A') (A')
                 (A') (A') (A') (A") (A') (A') (A') (A') (A') (A')
                 (A') (A') (A") (A') (A') (A") (A") (A") (A') (A")
                 (A") (A') (A') (A") (A') (A") (A") (A') (A") (A')
                 (A') (A') (A') (A") (A") (A') (A') (A") (A') (A')
                 (A') (A') (A') (A") (A") (A') (A") (A') (A") (A')
                 (A") (A') (A') (A') (A") (A') (A") (A') (A') (A')
                 (A") (A") (A") (A') (A") (A') (A") (A') (A') (A')
                 (A") (A') (A') (A") (A') (A') (A") (A") (A") (A')
                 (A') (A') (A') (A') (A") (A') (A') (A") (A") (A')
                 (A') (A') (A') (A") (A') (A') (A") (A') (A") (A")
                 (A') (A') (A') (A') (A") (A') (A') (A') (A') (A')
                 (A') (A") (A') (A') (A') (A") (A") (A") (A') (A')
                 (A') (A') (A') (A') (A') (A') (A') (A") (A') (A')
                 (A') (A") (A') (A") (A") (A") (A') (A') (A") (A')
                 (A") (A") (A") (A") (A") (A') (A') (A') (A') (A')
                 (A') (A') (A') (A') (A') (A') (A') (A') (A') (A')
                 (A') (A') (A') (A') (A') (A") (A') (A') (A') (A')
                 (A') (A') (A') (A') (A') (A') (A') (A') (A') (A')
                 (A') (A') (A') (A') (A') (A') (A') (A') (A') (A')
                 (A') (A')
 The electronic state is 1-A'.
 Alpha  occ. eigenvalues --  -10.79009 -10.73607 -10.73299 -10.72816 -10.72803
 Alpha  occ. eigenvalues --  -10.72237 -10.71653 -10.71030 -10.71011 -10.70238
 Alpha  occ. eigenvalues --  -10.70112 -10.69886 -10.69845 -10.69689  -1.16469
 Alpha  occ. eigenvalues --   -1.12119  -1.06698  -1.06035  -1.01136  -0.99920
 Alpha  occ. eigenvalues --   -0.95528  -0.90767  -0.86397  -0.85799  -0.83403
 Alpha  occ. eigenvalues --   -0.78108  -0.75942  -0.74026  -0.69386  -0.69062
 Alpha  occ. eigenvalues --   -0.68842  -0.68792  -0.68084  -0.64717  -0.64430
 Alpha  occ. eigenvalues --   -0.62220  -0.61207  -0.59496  -0.59319  -0.58968
 Alpha  occ. eigenvalues --   -0.56993  -0.55332  -0.54259  -0.52379  -0.46433
 Alpha  occ. eigenvalues --   -0.45998  -0.43767
 Alpha virt. eigenvalues --   -0.26537  -0.14957  -0.14399  -0.12852  -0.11294
 Alpha virt. eigenvalues --   -0.10110  -0.09211  -0.08074  -0.08050  -0.07482
 Alpha virt. eigenvalues --   -0.07413  -0.07399  -0.05683  -0.05610  -0.05406
 Alpha virt. eigenvalues --   -0.03868  -0.03611  -0.03314  -0.03092  -0.02152
 Alpha virt. eigenvalues --   -0.01343  -0.00832   0.00005   0.00372   0.00730
 Alpha virt. eigenvalues --    0.01007   0.01441   0.01859   0.02031   0.02283
 Alpha virt. eigenvalues --    0.02399   0.02605   0.02697   0.03209   0.03763
 Alpha virt. eigenvalues --    0.04249   0.04379   0.04579   0.04617   0.05029
 Alpha virt. eigenvalues --    0.05940   0.05949   0.06626   0.06924   0.07401
 Alpha virt. eigenvalues --    0.07776   0.08068   0.08190   0.08314   0.08764
 Alpha virt. eigenvalues --    0.08802   0.09391   0.09630   0.10534   0.10946
 Alpha virt. eigenvalues --    0.11258   0.11958   0.12219   0.12434   0.12806
 Alpha virt. eigenvalues --    0.13285   0.13313   0.13968   0.14245   0.15651
 Alpha virt. eigenvalues --    0.16258   0.16907   0.17101   0.17213   0.17968
 Alpha virt. eigenvalues --    0.18307   0.18656   0.19240   0.19700   0.20091
 Alpha virt. eigenvalues --    0.20924   0.21249   0.22669   0.22857   0.23422
 Alpha virt. eigenvalues --    0.23707   0.24834   0.25217   0.26828   0.27546
 Alpha virt. eigenvalues --    0.28586   0.28898   0.29023   0.31607   0.35142
 Alpha virt. eigenvalues --    0.35499   0.37675   0.38828   0.41221   0.41680
 Alpha virt. eigenvalues --    0.42138   0.42352   0.43119   0.43666   0.44289
 Alpha virt. eigenvalues --    0.44547   0.44837   0.45580   0.46614   0.48057
 Alpha virt. eigenvalues --    0.48250   0.48615   0.48804   0.48914   0.50465
 Alpha virt. eigenvalues --    0.50530   0.51651   0.52069   0.53682   0.53712
 Alpha virt. eigenvalues --    0.54324   0.55564   0.55672   0.56126   0.57374
 Alpha virt. eigenvalues --    0.57998   0.59431   0.61391   0.61757   0.62398
 Alpha virt. eigenvalues --    0.62425   0.62696   0.64855   0.65252   0.67188
 Alpha virt. eigenvalues --    0.69964   0.70382   0.71167   0.72140   0.72518
 Alpha virt. eigenvalues --    0.74781   0.75293   0.76026   0.76515   0.77156
 Alpha virt. eigenvalues --    0.77286   0.77813   0.77969   0.79411   0.80465
 Alpha virt. eigenvalues --    0.81358   0.81788   0.82238   0.83822   0.84833
 Alpha virt. eigenvalues --    0.86276   0.87837   0.87841   0.88281   0.90240
 Alpha virt. eigenvalues --    0.90260   0.92339   0.93346   0.94514   0.95775
 Alpha virt. eigenvalues --    0.96215   0.97156   0.99728   1.01637   1.02071
 Alpha virt. eigenvalues --    1.02750   1.03049   1.03668   1.04130   1.07779
 Alpha virt. eigenvalues --    1.14924   1.23056   1.23391   1.27146   1.28485
 Alpha virt. eigenvalues --    1.31517   1.32599   1.33167   1.34341   1.34617
 Alpha virt. eigenvalues --    1.38056   1.38830   1.41319   1.42120   1.43090
 Alpha virt. eigenvalues --    1.44429   1.45365   1.45790   1.46031   1.46169
 Alpha virt. eigenvalues --    1.47777   1.49061   1.50880   1.52956   1.53716
 Alpha virt. eigenvalues --    1.54729   1.55249   1.55566   1.58581   1.60645
 Alpha virt. eigenvalues --    1.62706   1.63431   1.63861   1.66284   1.67115
 Alpha virt. eigenvalues --    1.68214   1.68971   1.71609   1.72738   1.74473
 Alpha virt. eigenvalues --    1.76965   1.77692   1.78741   1.80296   1.80849
 Alpha virt. eigenvalues --    1.81661   1.81793   1.82236   1.82722   1.83557
 Alpha virt. eigenvalues --    1.84153   1.85496   1.86348   1.88121   1.90915
 Alpha virt. eigenvalues --    1.92774   1.94714   1.96495   1.96952   1.98386
 Alpha virt. eigenvalues --    1.99390   2.01568   2.03325   2.07149   2.10974
 Alpha virt. eigenvalues --    2.13705   2.14197   2.16233   2.17341   2.21506
 Alpha virt. eigenvalues --    2.21524   2.26830   2.28661   2.33852   2.33937
 Alpha virt. eigenvalues --    2.35243   2.38005   2.39283   2.40972   2.43275
 Alpha virt. eigenvalues --    2.45577   2.45890   2.46184   2.49578   2.51489
 Alpha virt. eigenvalues --    2.54129   2.56217   2.57660   2.58317   2.59737
 Alpha virt. eigenvalues --    2.60055   2.60920   2.62190   2.62447   2.64376
 Alpha virt. eigenvalues --    2.64695   2.65524   2.65634   2.66926   2.67829
 Alpha virt. eigenvalues --    2.68841   2.70931   2.71239   2.72101   2.74648
 Alpha virt. eigenvalues --    2.76067   2.76709   2.79406   2.79830   2.82215
 Alpha virt. eigenvalues --    2.83271   2.86313   2.91923   2.98604   2.99332
 Alpha virt. eigenvalues --    3.02491   3.05982   3.07369   3.11694   3.13396
 Alpha virt. eigenvalues --    3.20707   3.23688   3.25204   3.27196   3.29181
 Alpha virt. eigenvalues --    3.30290   3.32789   3.41652   3.42384   3.44250
 Alpha virt. eigenvalues --    3.46120   3.46423   3.56046   3.66056   3.67936
 Alpha virt. eigenvalues --    3.68060   3.91453   3.93688   3.93857   3.95945
 Alpha virt. eigenvalues --    4.01922   4.04641   4.07662   4.11189   4.35902
 Alpha virt. eigenvalues --    4.59302   4.67752   4.68368  23.45478  23.60213
 Alpha virt. eigenvalues --   23.77398  23.84490  23.85299  23.87228  23.88084
 Alpha virt. eigenvalues --   23.93353  23.95177  23.95792  23.98089  23.99737
 Alpha virt. eigenvalues --   24.08279  24.09817
          Condensed to atoms (all electrons):
               1          2          3          4          5          6
     1  C   11.702642   0.682539  -0.867167   2.516818  -0.374770  -0.057187
     2  C    0.682539   6.871805   0.229066  -0.451699  -0.093980  -0.012205
     3  C   -0.867167   0.229066   6.882600   0.312140   0.031087   0.005135
     4  C    2.516818  -0.451699   0.312140   9.366448   0.425626  -0.010496
     5  C   -0.374770  -0.093980   0.031087   0.425626   9.490143   0.357020
     6  C   -0.057187  -0.012205   0.005135  -0.010496   0.357020   6.544033
     7  C   -0.098592   0.044266  -0.017314  -0.115129  -0.182507   0.248331
     8  C   -0.709880  -0.057489  -0.084267  -0.229564   2.279199  -0.836193
     9  C   -2.773602  -0.324520   0.102511  -1.573943  -1.449746   0.052709
    10  C    0.170853   0.271622  -0.587642  -0.213855  -0.126692  -0.332641
    11  C   -2.252539  -1.538951   0.861034  -3.834998  -1.563120  -0.159311
    12  C   -1.097574   0.595636  -0.204747  -0.074674   1.064103  -0.304868
    13  C   -0.059618  -0.076618  -0.293601  -1.256837  -4.042852   0.872630
    14  C   -1.105079  -0.101484  -0.289047   0.662287  -0.209256  -0.281705
    15  H    0.398011  -0.068358   0.004342   0.033331   0.000784   0.000280
    16  H   -0.048980   0.379616  -0.004277  -0.016385  -0.001024  -0.000337
    17  H   -0.005937  -0.036200   0.390972  -0.042889  -0.000652   0.000312
    18  H    0.046358   0.003485  -0.099502   0.437598   0.012248  -0.002727
    19  H   -0.027113   0.000282   0.020119  -0.081040  -0.092594   0.025472
    20  H    0.005310   0.000621  -0.001955   0.014110   0.421697  -0.084084
    21  H   -0.002378  -0.000284   0.000353  -0.000772  -0.050873   0.393809
    22  H    0.002290   0.000555  -0.000391  -0.000763  -0.004688  -0.010348
    23  H   -0.021459  -0.004266   0.000706   0.001041   0.032231   0.008830
    24  H    0.040736   0.015071  -0.002046  -0.017872  -0.021495   0.001223
    25  H    0.040736   0.015071  -0.002046  -0.017872  -0.021495   0.001223
               7          8          9         10         11         12
     1  C   -0.098592  -0.709880  -2.773602   0.170853  -2.252539  -1.097574
     2  C    0.044266  -0.057489  -0.324520   0.271622  -1.538951   0.595636
     3  C   -0.017314  -0.084267   0.102511  -0.587642   0.861034  -0.204747
     4  C   -0.115129  -0.229564  -1.573943  -0.213855  -3.834998  -0.074674
     5  C   -0.182507   2.279199  -1.449746  -0.126692  -1.563120   1.064103
     6  C    0.248331  -0.836193   0.052709  -0.332641  -0.159311  -0.304868
     7  C    7.427022   0.987351  -0.646231   0.330519  -0.044386  -0.169301
     8  C    0.987351  11.352576  -3.011048  -0.182641   0.044687  -1.319657
     9  C   -0.646231  -3.011048   9.634756   0.262607   2.379301   0.333100
    10  C    0.330519  -0.182641   0.262607   8.936402  -1.818724   0.277280
    11  C   -0.044386   0.044687   2.379301  -1.818724  17.025076  -2.516660
    12  C   -0.169301  -1.319657   0.333100   0.277280  -2.516660  14.346131
    13  C   -2.172503  -1.724407   2.120982  -1.704754   3.843175  -4.635167
    14  C    0.491085  -0.991146   0.485247   0.303871  -4.119842  -0.441683
    15  H   -0.005230  -0.019573   0.036777   0.001189  -0.044026   0.024673
    16  H    0.000685   0.003145   0.005543  -0.013306   0.078650  -0.047365
    17  H   -0.000376  -0.002632  -0.000198   0.011143   0.006512   0.031967
    18  H    0.001386   0.008971  -0.028838   0.045285  -0.014013  -0.082487
    19  H   -0.004279  -0.035330   0.060617   0.397322   0.084094  -0.076821
    20  H    0.000664   0.048597  -0.029840   0.024772  -0.001949   0.000515
    21  H   -0.038671  -0.012826   0.003445   0.011103  -0.006758   0.000262
    22  H    0.373110  -0.034159   0.000121  -0.011905   0.005520  -0.006172
    23  H   -0.086533   0.373479   0.048059  -0.000159  -0.028795   0.003214
    24  H    0.018745   0.045597   0.354135   0.005804   0.031530  -0.088373
    25  H    0.018745   0.045597   0.354135   0.005804   0.031530  -0.088373
              13         14         15         16         17         18
     1  C   -0.059618  -1.105079   0.398011  -0.048980  -0.005937   0.046358
     2  C   -0.076618  -0.101484  -0.068358   0.379616  -0.036200   0.003485
     3  C   -0.293601  -0.289047   0.004342  -0.004277   0.390972  -0.099502
     4  C   -1.256837   0.662287   0.033331  -0.016385  -0.042889   0.437598
     5  C   -4.042852  -0.209256   0.000784  -0.001024  -0.000652   0.012248
     6  C    0.872630  -0.281705   0.000280  -0.000337   0.000312  -0.002727
     7  C   -2.172503   0.491085  -0.005230   0.000685  -0.000376   0.001386
     8  C   -1.724407  -0.991146  -0.019573   0.003145  -0.002632   0.008971
     9  C    2.120982   0.485247   0.036777   0.005543  -0.000198  -0.028838
    10  C   -1.704754   0.303871   0.001189  -0.013306   0.011143   0.045285
    11  C    3.843175  -4.119842  -0.044026   0.078650   0.006512  -0.014013
    12  C   -4.635167  -0.441683   0.024673  -0.047365   0.031967  -0.082487
    13  C   16.519477  -1.241099  -0.030383   0.006943  -0.008417   0.003429
    14  C   -1.241099  12.729190   0.001493  -0.008265   0.002275   0.001428
    15  H   -0.030383   0.001493   0.439015  -0.007811   0.001175   0.000083
    16  H    0.006943  -0.008265  -0.007811   0.414059  -0.006523   0.001813
    17  H   -0.008417   0.002275   0.001175  -0.006523   0.426822  -0.010262
    18  H    0.003429   0.001428   0.000083   0.001813  -0.010262   0.448328
    19  H    0.094551  -0.002592  -0.000064  -0.000164   0.000464  -0.002916
    20  H   -0.001896  -0.069646  -0.000096   0.000019  -0.000084   0.000677
    21  H    0.021448   0.030082  -0.000022  -0.000007   0.000006  -0.000104
    22  H    0.055521  -0.036209  -0.000135   0.000013  -0.000007   0.000029
    23  H   -0.017770   0.013843   0.000340  -0.000174  -0.000017  -0.000122
    24  H    0.025373  -0.074675  -0.000821   0.000677  -0.000173   0.000207
    25  H    0.025373  -0.074675  -0.000821   0.000677  -0.000173   0.000207
              19         20         21         22         23         24
     1  C   -0.027113   0.005310  -0.002378   0.002290  -0.021459   0.040736
     2  C    0.000282   0.000621  -0.000284   0.000555  -0.004266   0.015071
     3  C    0.020119  -0.001955   0.000353  -0.000391   0.000706  -0.002046
     4  C   -0.081040   0.014110  -0.000772  -0.000763   0.001041  -0.017872
     5  C   -0.092594   0.421697  -0.050873  -0.004688   0.032231  -0.021495
     6  C    0.025472  -0.084084   0.393809  -0.010348   0.008830   0.001223
     7  C   -0.004279   0.000664  -0.038671   0.373110  -0.086533   0.018745
     8  C   -0.035330   0.048597  -0.012826  -0.034159   0.373479   0.045597
     9  C    0.060617  -0.029840   0.003445   0.000121   0.048059   0.354135
    10  C    0.397322   0.024772   0.011103  -0.011905  -0.000159   0.005804
    11  C    0.084094  -0.001949  -0.006758   0.005520  -0.028795   0.031530
    12  C   -0.076821   0.000515   0.000262  -0.006172   0.003214  -0.088373
    13  C    0.094551  -0.001896   0.021448   0.055521  -0.017770   0.025373
    14  C   -0.002592  -0.069646   0.030082  -0.036209   0.013843  -0.074675
    15  H   -0.000064  -0.000096  -0.000022  -0.000135   0.000340  -0.000821
    16  H   -0.000164   0.000019  -0.000007   0.000013  -0.000174   0.000677
    17  H    0.000464  -0.000084   0.000006  -0.000007  -0.000017  -0.000173
    18  H   -0.002916   0.000677  -0.000104   0.000029  -0.000122   0.000207
    19  H    0.415877  -0.004062   0.000715  -0.000285   0.000063   0.001098
    20  H   -0.004062   0.437286  -0.009252   0.001783  -0.000022   0.000168
    21  H    0.000715  -0.009252   0.424218  -0.005988   0.001126  -0.000109
    22  H   -0.000285   0.001783  -0.005988   0.413631  -0.008324   0.000563
    23  H    0.000063  -0.000022   0.001126  -0.008324   0.445490  -0.001827
    24  H    0.001098   0.000168  -0.000109   0.000563  -0.001827   0.502694
    25  H    0.001098   0.000168  -0.000109   0.000563  -0.001827  -0.083649
              25
     1  C    0.040736
     2  C    0.015071
     3  C   -0.002046
     4  C   -0.017872
     5  C   -0.021495
     6  C    0.001223
     7  C    0.018745
     8  C    0.045597
     9  C    0.354135
    10  C    0.005804
    11  C    0.031530
    12  C   -0.088373
    13  C    0.025373
    14  C   -0.074675
    15  H   -0.000821
    16  H    0.000677
    17  H   -0.000173
    18  H    0.000207
    19  H    0.001098
    20  H    0.000168
    21  H   -0.000109
    22  H    0.000563
    23  H   -0.001827
    24  H   -0.083649
    25  H    0.502694
 Mulliken charges:
               1
     1  C   -0.104417
     2  C   -0.343578
     3  C   -0.386062
     4  C    0.169391
     5  C    0.121607
     6  C   -0.418904
     7  C   -0.360857
     8  C    0.061614
     9  C   -0.396077
    10  C   -0.063257
    11  C   -0.447037
    12  C    0.477040
    13  C   -0.322979
    14  C    0.325605
    15  H    0.235845
    16  H    0.262779
    17  H    0.242892
    18  H    0.229440
    19  H    0.225489
    20  H    0.246501
    21  H    0.241585
    22  H    0.265675
    23  H    0.242872
    24  H    0.247418
    25  H    0.247418
 Sum of Mulliken charges =   1.00000
 Mulliken charges with hydrogens summed into heavy atoms:
               1
     1  C    0.131428
     2  C   -0.080798
     3  C   -0.143170
     4  C    0.398831
     5  C    0.368108
     6  C   -0.177319
     7  C   -0.095182
     8  C    0.304486
     9  C    0.098758
    10  C    0.162231
    11  C   -0.447037
    12  C    0.477040
    13  C   -0.322979
    14  C    0.325605
 Electronic spatial extent (au):  <R**2>=           2855.4115
 Charge=              1.0000 electrons
 Dipole moment (field-independent basis, Debye):
    X=              0.0030    Y=             -0.0712    Z=              0.0000  Tot=              0.0713
 Quadrupole moment (field-independent basis, Debye-Ang):
   XX=            -32.0411   YY=            -55.8051   ZZ=            -84.4351
   XY=              0.0786   XZ=             -0.0000   YZ=              0.0000
 Traceless Quadrupole moment (field-independent basis, Debye-Ang):
   XX=             25.3860   YY=              1.6220   ZZ=            -27.0080
   XY=              0.0786   XZ=             -0.0000   YZ=              0.0000
 Octapole moment (field-independent basis, Debye-Ang**2):
  XXX=              0.3676  YYY=             -6.3066  ZZZ=              0.0000  XYY=              0.1649
  XXY=              9.5977  XXZ=              0.0000  XZZ=             -0.3214  YZZ=              3.4222
  YYZ=              0.0000  XYZ=              0.0000
 Hexadecapole moment (field-independent basis, Debye-Ang**3):
 XXXX=          -2130.6357 YYYY=           -608.8273 ZZZZ=           -100.0319 XXXY=             -1.3690
 XXXZ=              0.0000 YYYX=             -1.0218 YYYZ=              0.0000 ZZZX=             -0.0000
 ZZZY=              0.0000 XXYY=           -505.3857 XXZZ=           -592.9418 YYZZ=           -148.1100
 XXYZ=             -0.0000 YYXZ=             -0.0000 ZZXY=             -0.0972
 N-N= 7.801469455018D+02 E-N=-2.796384233485D+03  KE= 5.372410144761D+02
 Symmetry A'   KE= 5.226022924936D+02
 Symmetry A"   KE= 1.463872198246D+01
 Unable to Open any file for archive entry.
 1\1\GINC-GADI-CPU-CLX-0359\SP\RM062X TD-FC\6-311++G(d,p)\C14H11(1+)\TS
 1578\02-Aug-2022\0\\#n M062X/6-311++G(d,p) TD(NStates=1) EmpiricalDisp
 ersion=GD3 SP\\SP_2\\1,1\C,0,0.,2.388655,1.402431\C,0,0.,3.651508,0.83
 1989\C,0,0.,3.717861,-0.55583\C,0,0.,2.559156,-1.369538\C,0,0.,-2.6071
 56,-1.405538\C,0,0.,-3.749861,-0.53183\C,0,0.,-3.631508,0.851989\C,0,0
 .,-2.336655,1.358431\C,0,0.,-0.008,1.303369\C,0,0.,0.012,-1.579189\C,0
 ,0.,1.244055,0.589065\C,0,0.,1.249471,-0.822804\C,0,0.,-1.220055,0.505
 065\C,0,0.,-1.265471,-0.898804\H,0,0.,2.252071,2.485647\H,0,0.,4.55075
 3,1.437689\H,0,0.,4.681262,-1.042349\H,0,0.,2.68555,-2.452059\H,0,0.,0
 .062,-2.670266\H,0,0.,-2.78955,-2.488059\H,0,0.,-4.737262,-0.982349\H,
 0,0.,-4.502753,1.505689\H,0,0.,-2.144071,2.441647\H,0,-0.859585,-0.048
 ,1.995787\H,0,0.859585,-0.048,1.995787\\Version=ES64L-G16RevC.01\State
 =1-A'\HF=-539.7300135\RMSD=3.493e-09\PG=CS [SG(C14H9),X(H2)]\\@
 The archive entry for this job was punched.


 "THE TIME HAS COME", THE WALRUS SAID,
 "TO TALK OF MANY THINGS,
 OF SHOES AND SHIPS AND SEALING WAX,
 OF CABBAGES AND KINGS,
 AND WHY THE SEA IS BOILING HOT,
 AND WHETHER PIGS HAVE WINGS."
 Job cpu time:       0 days  0 hours 53 minutes 10.6 seconds.
 Elapsed time:       0 days  0 hours  1 minutes  6.6 seconds.
 File lengths (MBytes):  RWF=    460 Int=      0 D2E=      0 Chk=     15 Scr=      1
 Normal termination of Gaussian 16 at Tue Aug  2 13:00:24 2022.
