 Entering Gaussian System, Link 0=g16
 Initial command:
 /apps/gaussian/g16c01/g16/l1.exe "/jobfs/53803768.gadi-pbs/Gau-208465.inp" -scrdir="/jobfs/53803768.gadi-pbs/"
 Entering Link 1 = /apps/gaussian/g16c01/g16/l1.exe PID=    208466.
  
 Copyright (c) 1988-2019, Gaussian, Inc.  All Rights Reserved.
  
 This is part of the Gaussian(R) 16 program.  It is based on
 the Gaussian(R) 09 system (copyright 2009, Gaussian, Inc.),
 the Gaussian(R) 03 system (copyright 2003, Gaussian, Inc.),
 the Gaussian(R) 98 system (copyright 1998, Gaussian, Inc.),
 the Gaussian(R) 94 system (copyright 1995, Gaussian, Inc.),
 the Gaussian 92(TM) system (copyright 1992, Gaussian, Inc.),
 the Gaussian 90(TM) system (copyright 1990, Gaussian, Inc.),
 the Gaussian 88(TM) system (copyright 1988, Gaussian, Inc.),
 the Gaussian 86(TM) system (copyright 1986, Carnegie Mellon
 University), and the Gaussian 82(TM) system (copyright 1983,
 Carnegie Mellon University). Gaussian is a federally registered
 trademark of Gaussian, Inc.
  
 This software contains proprietary and confidential information,
 including trade secrets, belonging to Gaussian, Inc.
  
 This software is provided under written license and may be
 used, copied, transmitted, or stored only in accord with that
 written license.
  
 The following legend is applicable only to US Government
 contracts under FAR:
  
                    RESTRICTED RIGHTS LEGEND
  
 Use, reproduction and disclosure by the US Government is
 subject to restrictions as set forth in subparagraphs (a)
 and (c) of the Commercial Computer Software - Restricted
 Rights clause in FAR 52.227-19.
  
 Gaussian, Inc.
 340 Quinnipiac St., Bldg. 40, Wallingford CT 06492
  
  
 ---------------------------------------------------------------
 Warning -- This program may not be used in any manner that
 competes with the business of Gaussian, Inc. or will provide
 assistance to any competitor of Gaussian, Inc.  The licensee
 of this program is prohibited from giving any competitor of
 Gaussian, Inc. access to this program.  By using this program,
 the user acknowledges that Gaussian, Inc. is engaged in the
 business of creating and licensing software in the field of
 computational chemistry and represents and warrants to the
 licensee that it is not a competitor of Gaussian, Inc. and that
 it will not use this program in any manner prohibited above.
 ---------------------------------------------------------------
  

 Cite this work as:
 Gaussian 16, Revision C.01,
 M. J. Frisch, G. W. Trucks, H. B. Schlegel, G. E. Scuseria, 
 M. A. Robb, J. R. Cheeseman, G. Scalmani, V. Barone, 
 G. A. Petersson, H. Nakatsuji, X. Li, M. Caricato, A. V. Marenich, 
 J. Bloino, B. G. Janesko, R. Gomperts, B. Mennucci, H. P. Hratchian, 
 J. V. Ortiz, A. F. Izmaylov, J. L. Sonnenberg, D. Williams-Young, 
 F. Ding, F. Lipparini, F. Egidi, J. Goings, B. Peng, A. Petrone, 
 T. Henderson, D. Ranasinghe, V. G. Zakrzewski, J. Gao, N. Rega, 
 G. Zheng, W. Liang, M. Hada, M. Ehara, K. Toyota, R. Fukuda, 
 J. Hasegawa, M. Ishida, T. Nakajima, Y. Honda, O. Kitao, H. Nakai, 
 T. Vreven, K. Throssell, J. A. Montgomery, Jr., J. E. Peralta, 
 F. Ogliaro, M. J. Bearpark, J. J. Heyd, E. N. Brothers, K. N. Kudin, 
 V. N. Staroverov, T. A. Keith, R. Kobayashi, J. Normand, 
 K. Raghavachari, A. P. Rendell, J. C. Burant, S. S. Iyengar, 
 J. Tomasi, M. Cossi, J. M. Millam, M. Klene, C. Adamo, R. Cammi, 
 J. W. Ochterski, R. L. Martin, K. Morokuma, O. Farkas, 
 J. B. Foresman, and D. J. Fox, Gaussian, Inc., Wallingford CT, 2019.
 
 ******************************************
 Gaussian 16:  ES64L-G16RevC.01  3-Jul-2019
                 2-Aug-2022 
 ******************************************
 %NProcShared=48
 Will use up to   48 processors via shared memory.
 %mem = 190GB
 ---------------------------------------------------------------
 #n M062X/6-311++G(d,p) TD(NStates=1) EmpiricalDispersion=GD3 SP
 ---------------------------------------------------------------
 1/38=1,172=1/1;
 2/12=2,17=6,18=5,40=1/2;
 3/5=4,6=6,7=1111,11=9,25=1,30=1,74=-55,124=31/1,2,3,8;
 4//1;
 5/5=2,38=5/2;
 8/6=1,10=2,108=1/1;
 9/41=1,42=1,70=2/14;
 6/7=2,8=2,9=2,10=2/1;
 99/5=1,9=1/99;
 ----
 SP_4
 ----
 Symbolic Z-matrix:
 Charge =  1 Multiplicity = 1
 C                     0.        2.59666   1.39643 
 C                     0.        3.74551   0.58399 
 C                     0.        3.63186  -0.80583 
 C                     0.        2.36716  -1.37954 
 C                     0.       -2.46316  -1.45154 
 C                     0.       -3.69586  -0.75783 
 C                     0.       -3.70551   0.62399 
 C                     0.       -2.49266   1.30843 
 C                     0.       -0.016     1.51337 
 C                     0.        0.024    -1.36919 
 C                     0.        1.29806   0.81307 
 C                     0.        1.21347  -0.6028 
 C                     0.       -1.25006   0.64507 
 C                     0.       -1.24547  -0.7548 
 H                     0.        2.71207   2.47965 
 H                     0.        4.72875   1.03969 
 H                     0.        4.51326  -1.43635 
 H                     0.        2.25555  -2.46206 
 H                     0.        0.124    -2.44627 
 H                     0.       -2.46355  -2.53406 
 H                     0.       -4.62526  -1.31635 
 H                     0.       -4.63275   1.17569 
 H                     0.       -2.49607   2.39165 
 H                    -0.85959  -0.096     2.20579 
 H                     0.85959  -0.096     2.20579 
 
                          Input orientation:                          
 ---------------------------------------------------------------------
 Center     Atomic      Atomic             Coordinates (Angstroms)
 Number     Number       Type             X           Y           Z
 ---------------------------------------------------------------------
      1          6           0        0.000000    2.596655    1.396431
      2          6           0        0.000000    3.745508    0.583989
      3          6           0        0.000000    3.631861   -0.805830
      4          6           0        0.000000    2.367156   -1.379538
      5          6           0        0.000000   -2.463156   -1.451538
      6          6           0        0.000000   -3.695861   -0.757830
      7          6           0        0.000000   -3.705508    0.623989
      8          6           0        0.000000   -2.492655    1.308431
      9          6           0        0.000000   -0.016000    1.513369
     10          6           0        0.000000    0.024000   -1.369189
     11          6           0        0.000000    1.298055    0.813065
     12          6           0        0.000000    1.213471   -0.602804
     13          6           0        0.000000   -1.250055    0.645065
     14          6           0        0.000000   -1.245471   -0.754804
     15          1           0        0.000000    2.712071    2.479647
     16          1           0        0.000000    4.728753    1.039689
     17          1           0        0.000000    4.513262   -1.436349
     18          1           0        0.000000    2.255550   -2.462059
     19          1           0        0.000000    0.124000   -2.446266
     20          1           0        0.000000   -2.463550   -2.534059
     21          1           0        0.000000   -4.625262   -1.316349
     22          1           0        0.000000   -4.632753    1.175689
     23          1           0        0.000000   -2.496071    2.391647
     24          1           0       -0.859585   -0.096000    2.205787
     25          1           0        0.859585   -0.096000    2.205787
 ---------------------------------------------------------------------
                    Distance matrix (angstroms):
                    1          2          3          4          5
     1  C    0.000000
     2  C    1.407098   0.000000
     3  C    2.433435   1.394458   0.000000
     4  C    2.785440   2.399019   1.388747   0.000000
     5  C    5.806257   6.533826   6.129125   4.830849   0.000000
     6  C    6.651060   7.561379   7.327879   6.094809   1.414494
     7  C    6.349325   7.451123   7.475384   6.394636   2.418936
     8  C    5.090071   6.280087   6.479182   5.553642   2.760127
     9  C    2.615271   3.874621   4.322681   3.748112   3.844378
    10  C    3.777196   4.202919   3.651580   2.343179   2.488519
    11  C    1.423614   2.458150   2.840329   2.439362   4.390346
    12  C    2.431078   2.796371   2.426897   1.390793   3.773319
    13  C    3.919404   4.995936   5.092956   4.145266   2.422263
    14  C    4.403379   5.167421   4.877599   3.666247   1.402924
    15  H    1.089347   2.159053   3.411799   3.874568   6.499015
    16  H    2.161737   1.083713   2.146884   3.380799   7.611161
    17  H    3.420238   2.161299   1.083707   2.146858   6.976435
    18  H    3.873538   3.390927   2.153445   1.088259   4.825696
    19  H    4.569501   4.722051   3.872482   2.483880   2.771797
    20  H    6.407373   6.947994   6.335678   4.966753   1.082521
    21  H    7.714613   8.583768   8.272890   6.992704   2.166328
    22  H    7.232777   8.399129   8.498839   7.451705   3.407268
    23  H    5.189057   6.498072   6.911976   6.154089   3.843326
    24  H    2.940125   4.257499   4.868847   4.434025   4.440534
    25  H    2.940125   4.257499   4.868847   4.434025   4.440534
                    6          7          8          9         10
     6  C    0.000000
     7  C    1.381853   0.000000
     8  C    2.391054   1.392650   0.000000
     9  C    4.324318   3.795190   2.485120   0.000000
    10  C    3.769765   4.228710   3.674670   2.882836   0.000000
    11  C    5.235161   5.007134   3.822940   1.489015   2.526945
    12  C    4.911779   5.069652   4.169915   2.447404   1.414987
    13  C    2.819589   2.455543   1.408584   1.508921   2.383366
    14  C    2.450392   2.820080   2.410893   2.579963   1.410328
    15  H    7.179335   6.680478   5.334878   2.894143   4.694599
    16  H    8.614244   8.444499   7.226407   4.768339   5.285584
    17  H    8.237117   8.473085   7.524406   5.405095   4.489764
    18  H    6.190613   6.712519   6.063171   4.578643   2.484790
    19  H    4.176381   4.908319   4.576531   3.962109   1.081709
    20  H    2.161846   3.393483   3.842600   4.729923   2.746785
    21  H    1.084311   2.147291   3.381935   5.408567   4.649562
    22  H    2.148549   1.078961   2.144211   4.629086   5.306765
    23  H    3.370267   2.141811   1.083221   2.630993   4.527101
    24  H    4.741404   4.033549   2.699646   1.106675   3.678823
    25  H    4.741404   4.033549   2.699646   1.106675   3.678823
                   11         12         13         14         15
    11  C    0.000000
    12  C    1.418393   0.000000
    13  C    2.553642   2.761546   0.000000
    14  C    2.987932   2.463635   1.399877   0.000000
    15  H    2.185620   3.427434   4.366249   5.111146   0.000000
    16  H    3.438175   3.880076   5.991817   6.237913   2.478000
    17  H    3.923955   3.403442   6.127651   5.798923   4.310373
    18  H    3.412218   2.131375   4.684387   3.895108   4.962748
    19  H    3.464339   2.141331   3.382951   2.176349   5.564416
    20  H    5.035167   4.153340   3.402852   2.156262   7.205852
    21  H    6.294449   5.882172   3.903738   3.426123   8.261116
    22  H    5.941884   6.110759   3.424063   3.898780   7.459675
    23  H    4.109418   4.767330   2.145485   3.385876   5.208885
    24  H    2.149872   3.215864   2.122871   3.290178   2.949432
    25  H    2.149872   3.215864   2.122871   3.290178   2.949432
                   16         17         18         19         20
    16  H    0.000000
    17  H    2.485397   0.000000
    18  H    4.287070   2.479787   0.000000
    19  H    5.775434   4.503949   2.131609   0.000000
    20  H    8.031245   7.062639   4.719649   2.589039   0.000000
    21  H    9.646166   9.139312   6.975545   4.881824   2.481092
    22  H    9.362494   9.511695   7.789861   5.978734   4.297403
    23  H    7.350229   7.986508   6.792375   5.501834   4.925813
    24  H    5.037550   5.937115   5.296929   4.735914   5.367525
    25  H    5.037550   5.937115   5.296929   4.735914   5.367525
                   21         22         23         24         25
    21  H    0.000000
    22  H    2.492049   0.000000
    23  H    4.275826   2.458447   0.000000
    24  H    5.801598   4.730974   2.556124   0.000000
    25  H    5.801598   4.730974   2.556124   1.719170   0.000000
 Stoichiometry    C14H11(1+)
 Framework group  CS[SG(C14H9),X(H2)]
 Deg. of freedom    46
 Full point group                 CS      NOp   2
 Largest Abelian subgroup         CS      NOp   2
 Largest concise Abelian subgroup CS      NOp   2
                         Standard orientation:                         
 ---------------------------------------------------------------------
 Center     Atomic      Atomic             Coordinates (Angstroms)
 Number     Number       Type             X           Y           Z
 ---------------------------------------------------------------------
      1          6           0        2.405524    1.706210    0.000000
      2          6           0        2.187732    3.096351    0.000000
      3          6           0        0.891990    3.611681    0.000000
      4          6           0       -0.183652    2.733265    0.000000
      5          6           0       -2.393093   -1.562718    0.000000
      6          6           0       -2.318922   -2.975266    0.000000
      7          6           0       -1.085097   -3.597514    0.000000
      8          6           0        0.066737   -2.814730    0.000000
      9          6           0        1.350135   -0.686653    0.000000
     10          6           0       -1.214872    0.629204    0.000000
     11          6           0        1.306177    0.801713    0.000000
     12          6           0        0.000000    1.354651    0.000000
     13          6           0        0.024146   -1.406790    0.000000
     14          6           0       -1.228100   -0.781062    0.000000
     15          1           0        3.427335    1.328614    0.000000
     16          1           0        3.032654    3.774981    0.000000
     17          1           0        0.718437    4.681401    0.000000
     18          1           0       -1.203149    3.113966    0.000000
     19          1           0       -2.135526    1.197086    0.000000
     20          1           0       -3.363206   -1.082371    0.000000
     21          1           0       -3.232060   -3.559994    0.000000
     22          1           0       -1.002523   -4.673311    0.000000
     23          1           0        1.035781   -3.298799    0.000000
     24          1           0        1.935016   -1.065806    0.859585
     25          1           0        1.935016   -1.065806   -0.859585
 ---------------------------------------------------------------------
 Rotational constants (GHZ):           2.1263195           0.4437369           0.3679190
 Standard basis: 6-311++G(d,p) (5D, 7F)
 There are   299 symmetry adapted cartesian basis functions of A'  symmetry.
 There are   100 symmetry adapted cartesian basis functions of A"  symmetry.
 There are   285 symmetry adapted basis functions of A'  symmetry.
 There are   100 symmetry adapted basis functions of A"  symmetry.
   385 basis functions,   603 primitive gaussians,   399 cartesian basis functions
    47 alpha electrons       47 beta electrons
       nuclear repulsion energy       780.0513174065 Hartrees.
 NAtoms=   25 NActive=   25 NUniq=   24 SFac= 1.09D+00 NAtFMM=   60 NAOKFM=F Big=F
 Integral buffers will be    131072 words long.
 Regular integral format.
 Two-electron integral symmetry is turned on.
 Nuclear repulsion after empirical dispersion term =      780.0503366561 Hartrees.
 One-electron integrals computed using PRISM.
 NBasis=   385 RedAO= T EigKep=  1.34D-06  NBF=   285   100
 NBsUse=   379 1.00D-06 EigRej=  7.43D-07 NBFU=   279   100
 ExpMin= 3.60D-02 ExpMax= 4.56D+03 ExpMxC= 6.82D+02 IAcc=3 IRadAn=         5 AccDes= 0.00D+00
 Harris functional with IExCor= 1009 and IRadAn=       5 diagonalized for initial guess.
 HarFok:  IExCor= 1009 AccDes= 0.00D+00 IRadAn=         5 IDoV= 1 UseB2=F ITyADJ=14
 ICtDFT=  3500011 ScaDFX=  1.000000  1.000000  1.000000  1.000000
 FoFCou: FMM=F IPFlag=           0 FMFlag=      100000 FMFlg1=           0
         NFxFlg=           0 DoJE=T BraDBF=F KetDBF=T FulRan=T
         wScrn=  0.000000 ICntrl=       500 IOpCl=  0 I1Cent=   200000004 NGrid=           0
         NMat0=    1 NMatS0=      1 NMatT0=    0 NMatD0=    1 NMtDS0=    0 NMtDT0=    0
 Petite list used in FoFCou.
 Initial guess orbital symmetries:
       Occupied  (A') (A') (A') (A') (A') (A') (A') (A') (A') (A')
                 (A') (A') (A') (A') (A') (A') (A') (A') (A') (A')
                 (A') (A') (A') (A') (A') (A') (A') (A') (A') (A')
                 (A') (A') (A") (A') (A') (A') (A') (A') (A") (A")
                 (A') (A') (A') (A") (A") (A") (A")
       Virtual   (A") (A") (A") (A") (A") (A') (A') (A') (A') (A")
                 (A") (A') (A') (A') (A") (A') (A') (A') (A') (A')
                 (A") (A") (A') (A') (A') (A") (A') (A") (A') (A')
                 (A') (A') (A') (A') (A") (A') (A') (A") (A') (A")
                 (A') (A') (A') (A") (A') (A') (A') (A') (A') (A")
                 (A') (A") (A') (A") (A') (A') (A') (A") (A') (A")
                 (A') (A') (A') (A') (A') (A') (A") (A') (A') (A")
                 (A') (A') (A') (A') (A') (A') (A') (A') (A') (A')
                 (A') (A') (A') (A') (A') (A') (A') (A') (A') (A')
                 (A') (A') (A') (A') (A') (A') (A') (A") (A") (A')
                 (A') (A") (A') (A") (A') (A") (A') (A") (A') (A")
                 (A') (A") (A') (A') (A") (A') (A') (A") (A") (A')
                 (A") (A") (A') (A') (A') (A") (A') (A') (A') (A')
                 (A") (A') (A') (A') (A') (A') (A') (A") (A') (A')
                 (A') (A') (A') (A') (A') (A') (A') (A') (A') (A")
                 (A') (A") (A") (A") (A') (A') (A') (A") (A') (A")
                 (A") (A') (A") (A") (A') (A") (A') (A') (A') (A')
                 (A") (A') (A') (A") (A') (A') (A') (A') (A') (A")
                 (A') (A') (A') (A') (A") (A") (A') (A') (A") (A")
                 (A') (A") (A') (A") (A') (A') (A') (A') (A") (A')
                 (A") (A") (A") (A') (A') (A") (A') (A") (A') (A')
                 (A") (A') (A") (A") (A') (A') (A") (A') (A') (A')
                 (A") (A') (A') (A') (A") (A') (A') (A') (A") (A")
                 (A') (A') (A') (A") (A') (A') (A") (A') (A") (A')
                 (A") (A') (A') (A') (A') (A") (A') (A') (A') (A")
                 (A') (A') (A') (A") (A") (A') (A') (A") (A') (A')
                 (A') (A") (A') (A') (A") (A') (A') (A") (A') (A')
                 (A") (A') (A') (A') (A") (A") (A') (A") (A') (A')
                 (A") (A') (A") (A") (A") (A') (A') (A') (A') (A')
                 (A') (A') (A') (A') (A') (A') (A') (A') (A') (A')
                 (A') (A') (A') (A") (A') (A') (A') (A') (A') (A')
                 (A') (A') (A') (A') (A') (A') (A') (A') (A') (A')
                 (A') (A') (A') (A') (A') (A') (A') (A') (A') (A')
                 (A') (A')
 The electronic state of the initial guess is 1-A'.
 Requested convergence on RMS density matrix=1.00D-08 within 128 cycles.
 Requested convergence on MAX density matrix=1.00D-06.
 Requested convergence on             energy=1.00D-06.
 No special actions if energy rises.
 SCF Done:  E(RM062X) =  -539.753645886     A.U. after   15 cycles
            NFock= 15  Conv=0.78D-08     -V/T= 2.0044
 DoSCS=F DFT=T ScalE2(SS,OS)=  1.000000  1.000000
 ExpMin= 3.60D-02 ExpMax= 4.56D+03 ExpMxC= 6.82D+02 IAcc=3 IRadAn=         5 AccDes= 0.00D+00
 HarFok:  IExCor=  205 AccDes= 0.00D+00 IRadAn=         5 IDoV=-2 UseB2=F ITyADJ=14
 ICtDFT= 12500011 ScaDFX=  1.000000  1.000000  1.000000  1.000000
 Range of M.O.s used for correlation:    15   379
 NBasis=   385 NAE=    47 NBE=    47 NFC=    14 NFV=     0
 NROrb=    365 NOA=    33 NOB=    33 NVA=   332 NVB=   332

 **** Warning!!: The largest alpha MO coefficient is  0.14552362D+03

 Orbital symmetries:
       Occupied  (A') (A') (A') (A') (A') (A') (A') (A') (A') (A')
                 (A') (A') (A') (A') (A') (A') (A') (A') (A') (A')
                 (A') (A') (A') (A') (A') (A') (A') (A') (A') (A')
                 (A') (A') (A") (A') (A') (A') (A') (A") (A") (A')
                 (A') (A') (A') (A") (A") (A") (A")
       Virtual   (A") (A") (A") (A") (A') (A') (A') (A') (A") (A')
                 (A') (A") (A') (A') (A") (A') (A") (A') (A') (A')
                 (A") (A") (A') (A') (A') (A") (A') (A") (A') (A')
                 (A") (A") (A') (A') (A') (A') (A') (A') (A") (A')
                 (A") (A') (A') (A") (A") (A') (A") (A') (A") (A')
                 (A') (A') (A') (A') (A") (A') (A') (A') (A') (A')
                 (A') (A") (A') (A') (A') (A') (A") (A') (A') (A')
                 (A') (A') (A') (A') (A') (A') (A') (A') (A') (A')
                 (A') (A') (A') (A') (A') (A') (A') (A') (A') (A')
                 (A') (A') (A') (A') (A") (A') (A") (A") (A') (A")
                 (A') (A') (A') (A') (A") (A") (A') (A") (A') (A")
                 (A') (A') (A") (A') (A") (A') (A') (A") (A') (A")
                 (A") (A') (A") (A') (A') (A') (A") (A') (A') (A')
                 (A') (A') (A') (A') (A') (A') (A') (A') (A') (A')
                 (A') (A') (A') (A") (A') (A') (A') (A') (A') (A')
                 (A') (A') (A") (A') (A") (A') (A") (A") (A') (A")
                 (A") (A') (A') (A") (A") (A') (A") (A') (A") (A')
                 (A') (A') (A") (A') (A") (A') (A') (A') (A') (A")
                 (A') (A') (A') (A") (A') (A") (A') (A') (A") (A")
                 (A") (A') (A') (A") (A') (A') (A") (A') (A') (A')
                 (A") (A") (A") (A') (A") (A') (A') (A") (A') (A')
                 (A') (A") (A") (A") (A') (A') (A') (A") (A') (A')
                 (A") (A') (A') (A') (A") (A') (A') (A') (A") (A")
                 (A') (A') (A') (A") (A') (A') (A") (A') (A") (A')
                 (A") (A') (A') (A") (A') (A') (A') (A') (A') (A')
                 (A') (A") (A') (A') (A') (A") (A') (A") (A") (A')
                 (A') (A') (A') (A') (A') (A") (A') (A') (A') (A')
                 (A') (A") (A') (A") (A") (A") (A') (A") (A') (A")
                 (A') (A") (A") (A') (A") (A") (A') (A') (A') (A')
                 (A') (A') (A') (A') (A') (A') (A') (A') (A') (A')
                 (A') (A') (A') (A") (A') (A') (A') (A') (A') (A')
                 (A') (A') (A') (A') (A') (A') (A') (A') (A') (A')
                 (A') (A') (A') (A') (A') (A') (A') (A') (A') (A')
                 (A') (A')
     4 initial guesses have been made.
 Convergence on wavefunction:    0.001000000000000
 Iteration     1 Dimension     4 NMult     0 NNew      4
 CISAX will form     4 AO SS matrices at one time.
 Iteration     2 Dimension     6 NMult     4 NNew      2
 Iteration     3 Dimension     8 NMult     6 NNew      2
 Iteration     4 Dimension    10 NMult     8 NNew      2
 Iteration     5 Dimension    12 NMult    10 NNew      2
 Iteration     6 Dimension    14 NMult    12 NNew      2
 ***********************************************************************
 Excited states from <AA,BB:AA,BB> singles matrix:
 ***********************************************************************
 
 Ground to excited state transition densities written to RWF  633
 Ground to excited state transition electric dipole moments (Au):
       state          X           Y           Z        Dip. S.      Osc.
         1         0.6240     -0.1987      0.0000      0.4289      0.0306
 Ground to excited state transition velocity dipole moments (Au):
       state          X           Y           Z        Dip. S.      Osc.
         1        -0.0744      0.0235     -0.0000      0.0061      0.0379
 Ground to excited state transition magnetic dipole moments (Au):
       state          X           Y           Z
         1         0.0000     -0.0000     -0.0003
 Ground to excited state transition velocity quadrupole moments (Au):
       state          XX          YY          ZZ          XY          XZ          YZ
         1         0.1095      0.2256     -0.0096      0.1353     -0.0000      0.0000
 <0|del|b> * <b|rxdel|0> + <0|del|b> * <b|delr+rdel|0>
 Rotatory Strengths (R) in cgs (10**-40 erg-esu-cm/Gauss)
       state          XX          YY          ZZ    R(velocity)    E-M Angle
         1        -0.0000     -0.0000     -0.0000     -0.0000       90.00
 1/2[<0|r|b>*<b|rxdel|0> + (<0|rxdel|b>*<b|r|0>)*]
 Rotatory Strengths (R) in cgs (10**-40 erg-esu-cm/Gauss)
       state          XX          YY          ZZ     R(length)
         1        -0.0000     -0.0000      0.0000     -0.0000
  1/2[<0|del|b>*<b|r|0> + (<0|r|b>*<b|del|0>)*] (Au)
       state          X           Y           Z        Dip. S.   Osc.(frdel)
         1        -0.0464     -0.0047     -0.0000      0.0511      0.0341

 Excitation energies and oscillator strengths:
 
 Excited State   1:      Singlet-A'     2.9128 eV  425.65 nm  f=0.0306  <S**2>=0.000
      47 -> 48         0.70369
 This state for optimization and/or second-order correction.
 Total Energy, E(TD-HF/TD-DFT) =  -539.646600820    
 Copying the excited state density for this state as the 1-particle RhoCI density.
 SavETr:  write IOETrn=   770 NScale= 10 NData=  16 NLR=1 NState=    1 LETran=      28.

 **********************************************************************

            Population analysis using the SCF Density.

 **********************************************************************

 Orbital symmetries:
       Occupied  (A') (A') (A') (A') (A') (A') (A') (A') (A') (A')
                 (A') (A') (A') (A') (A') (A') (A') (A') (A') (A')
                 (A') (A') (A') (A') (A') (A') (A') (A') (A') (A')
                 (A') (A') (A") (A') (A') (A') (A') (A") (A") (A')
                 (A') (A') (A') (A") (A") (A") (A")
       Virtual   (A") (A") (A") (A") (A') (A') (A') (A') (A") (A')
                 (A') (A") (A') (A') (A") (A') (A") (A') (A') (A')
                 (A") (A") (A') (A') (A') (A") (A') (A") (A') (A')
                 (A") (A") (A') (A') (A') (A') (A') (A') (A") (A')
                 (A") (A') (A') (A") (A") (A') (A") (A') (A") (A')
                 (A') (A') (A') (A') (A") (A') (A') (A') (A') (A')
                 (A') (A") (A') (A') (A') (A') (A") (A') (A') (A')
                 (A') (A') (A') (A') (A') (A') (A') (A') (A') (A')
                 (A') (A') (A') (A') (A') (A') (A') (A') (A') (A')
                 (A') (A') (A') (A') (A") (A') (A") (A") (A') (A")
                 (A') (A') (A') (A') (A") (A") (A') (A") (A') (A")
                 (A') (A') (A") (A') (A") (A') (A') (A") (A') (A")
                 (A") (A') (A") (A') (A') (A') (A") (A') (A') (A')
                 (A') (A') (A') (A') (A') (A') (A') (A') (A') (A')
                 (A') (A') (A') (A") (A') (A') (A') (A') (A') (A')
                 (A') (A') (A") (A') (A") (A') (A") (A") (A') (A")
                 (A") (A') (A') (A") (A") (A') (A") (A') (A") (A')
                 (A') (A') (A") (A') (A") (A') (A') (A') (A') (A")
                 (A') (A') (A') (A") (A') (A") (A') (A') (A") (A")
                 (A") (A') (A') (A") (A') (A') (A") (A') (A') (A')
                 (A") (A") (A") (A') (A") (A') (A') (A") (A') (A')
                 (A') (A") (A") (A") (A') (A') (A') (A") (A') (A')
                 (A") (A') (A') (A') (A") (A') (A') (A') (A") (A")
                 (A') (A') (A') (A") (A') (A') (A") (A') (A") (A')
                 (A") (A') (A') (A") (A') (A') (A') (A') (A') (A')
                 (A') (A") (A') (A') (A') (A") (A') (A") (A") (A')
                 (A') (A') (A') (A') (A') (A") (A') (A') (A') (A')
                 (A') (A") (A') (A") (A") (A") (A') (A") (A') (A")
                 (A') (A") (A") (A') (A") (A") (A') (A') (A') (A')
                 (A') (A') (A') (A') (A') (A') (A') (A') (A') (A')
                 (A') (A') (A') (A") (A') (A') (A') (A') (A') (A')
                 (A') (A') (A') (A') (A') (A') (A') (A') (A') (A')
                 (A') (A') (A') (A') (A') (A') (A') (A') (A') (A')
                 (A') (A')
 The electronic state is 1-A'.
 Alpha  occ. eigenvalues --  -10.77260 -10.73857 -10.73282 -10.72239 -10.72126
 Alpha  occ. eigenvalues --  -10.71567 -10.71483 -10.71468 -10.71180 -10.70851
 Alpha  occ. eigenvalues --  -10.70804 -10.69811 -10.69800 -10.69601  -1.16428
 Alpha  occ. eigenvalues --   -1.12388  -1.06871  -1.05536  -1.01253  -1.00163
 Alpha  occ. eigenvalues --   -0.95669  -0.90935  -0.86676  -0.85628  -0.83752
 Alpha  occ. eigenvalues --   -0.78262  -0.75860  -0.74266  -0.69750  -0.69283
 Alpha  occ. eigenvalues --   -0.68262  -0.68005  -0.67770  -0.64505  -0.64033
 Alpha  occ. eigenvalues --   -0.63077  -0.61860  -0.60123  -0.59603  -0.58990
 Alpha  occ. eigenvalues --   -0.56746  -0.55247  -0.54837  -0.52351  -0.46637
 Alpha  occ. eigenvalues --   -0.45993  -0.44630
 Alpha virt. eigenvalues --   -0.25875  -0.14744  -0.14115  -0.12874  -0.11177
 Alpha virt. eigenvalues --   -0.10104  -0.09240  -0.07986  -0.07963  -0.07485
 Alpha virt. eigenvalues --   -0.07166  -0.07070  -0.05682  -0.05592  -0.05311
 Alpha virt. eigenvalues --   -0.03851  -0.03644  -0.03326  -0.03141  -0.02159
 Alpha virt. eigenvalues --   -0.01397  -0.00887   0.00174   0.00393   0.00607
 Alpha virt. eigenvalues --    0.01028   0.01451   0.01896   0.02293   0.02416
 Alpha virt. eigenvalues --    0.02466   0.02609   0.02625   0.03289   0.03736
 Alpha virt. eigenvalues --    0.04201   0.04449   0.04751   0.05058   0.05422
 Alpha virt. eigenvalues --    0.06045   0.06272   0.06578   0.06911   0.07343
 Alpha virt. eigenvalues --    0.07702   0.08110   0.08348   0.08608   0.08848
 Alpha virt. eigenvalues --    0.09211   0.09630   0.09801   0.10597   0.11021
 Alpha virt. eigenvalues --    0.11195   0.11826   0.12117   0.12753   0.12905
 Alpha virt. eigenvalues --    0.13238   0.13249   0.13949   0.14795   0.15654
 Alpha virt. eigenvalues --    0.16427   0.16432   0.17208   0.17461   0.17993
 Alpha virt. eigenvalues --    0.18165   0.18914   0.19106   0.19592   0.20081
 Alpha virt. eigenvalues --    0.21533   0.21619   0.22631   0.23039   0.23369
 Alpha virt. eigenvalues --    0.24122   0.24732   0.25744   0.26945   0.27388
 Alpha virt. eigenvalues --    0.28756   0.28922   0.30526   0.31571   0.35776
 Alpha virt. eigenvalues --    0.35998   0.38478   0.39385   0.41189   0.41328
 Alpha virt. eigenvalues --    0.41781   0.42066   0.43017   0.43683   0.44226
 Alpha virt. eigenvalues --    0.44567   0.45217   0.46021   0.46642   0.47841
 Alpha virt. eigenvalues --    0.48565   0.48857   0.49132   0.49960   0.50436
 Alpha virt. eigenvalues --    0.51029   0.51322   0.52123   0.52459   0.54054
 Alpha virt. eigenvalues --    0.54428   0.54822   0.55501   0.55797   0.57567
 Alpha virt. eigenvalues --    0.58348   0.59025   0.61037   0.62038   0.62337
 Alpha virt. eigenvalues --    0.63557   0.63767   0.64353   0.65508   0.66937
 Alpha virt. eigenvalues --    0.69605   0.70494   0.71179   0.71962   0.72825
 Alpha virt. eigenvalues --    0.74915   0.75641   0.76319   0.77019   0.77140
 Alpha virt. eigenvalues --    0.77734   0.77965   0.78190   0.80258   0.80332
 Alpha virt. eigenvalues --    0.81659   0.81693   0.82363   0.83450   0.84897
 Alpha virt. eigenvalues --    0.86616   0.87533   0.88358   0.89703   0.90272
 Alpha virt. eigenvalues --    0.90599   0.91084   0.92907   0.94488   0.96730
 Alpha virt. eigenvalues --    0.96916   0.97470   1.00555   1.01548   1.02875
 Alpha virt. eigenvalues --    1.03000   1.03121   1.04514   1.04858   1.07388
 Alpha virt. eigenvalues --    1.21370   1.21731   1.24125   1.25136   1.27208
 Alpha virt. eigenvalues --    1.31196   1.32191   1.34423   1.36209   1.36692
 Alpha virt. eigenvalues --    1.38784   1.40346   1.41011   1.42184   1.43412
 Alpha virt. eigenvalues --    1.43536   1.44425   1.45953   1.46363   1.46700
 Alpha virt. eigenvalues --    1.47361   1.47615   1.51860   1.53306   1.55003
 Alpha virt. eigenvalues --    1.55931   1.56129   1.56880   1.57355   1.62163
 Alpha virt. eigenvalues --    1.63078   1.63303   1.63558   1.65589   1.68383
 Alpha virt. eigenvalues --    1.68387   1.68932   1.69613   1.73947   1.74792
 Alpha virt. eigenvalues --    1.77012   1.77520   1.79248   1.79703   1.79773
 Alpha virt. eigenvalues --    1.81445   1.82845   1.83584   1.84026   1.84306
 Alpha virt. eigenvalues --    1.84500   1.85611   1.86781   1.87949   1.90821
 Alpha virt. eigenvalues --    1.92520   1.93651   1.96098   1.97070   1.98568
 Alpha virt. eigenvalues --    1.99694   2.02052   2.05208   2.06764   2.10784
 Alpha virt. eigenvalues --    2.11520   2.14760   2.14825   2.18826   2.21188
 Alpha virt. eigenvalues --    2.22705   2.28085   2.29737   2.33583   2.33933
 Alpha virt. eigenvalues --    2.35388   2.38354   2.39404   2.41975   2.44306
 Alpha virt. eigenvalues --    2.45484   2.46151   2.48844   2.51905   2.53116
 Alpha virt. eigenvalues --    2.54067   2.55522   2.56639   2.57972   2.58929
 Alpha virt. eigenvalues --    2.59579   2.60002   2.62067   2.62990   2.63170
 Alpha virt. eigenvalues --    2.64665   2.64813   2.65352   2.65887   2.68229
 Alpha virt. eigenvalues --    2.70041   2.70690   2.72752   2.73380   2.74775
 Alpha virt. eigenvalues --    2.76503   2.77540   2.79536   2.80642   2.82806
 Alpha virt. eigenvalues --    2.83856   2.86161   2.91785   2.95724   2.99205
 Alpha virt. eigenvalues --    2.99886   3.03734   3.09989   3.10822   3.13239
 Alpha virt. eigenvalues --    3.19924   3.23474   3.25916   3.28199   3.30078
 Alpha virt. eigenvalues --    3.31936   3.33360   3.42451   3.44702   3.46089
 Alpha virt. eigenvalues --    3.48085   3.49642   3.55267   3.63682   3.66167
 Alpha virt. eigenvalues --    3.68007   3.93051   3.93732   3.95261   3.96022
 Alpha virt. eigenvalues --    4.03312   4.06283   4.06618   4.12586   4.34687
 Alpha virt. eigenvalues --    4.58322   4.68973   4.70918  23.45265  23.60424
 Alpha virt. eigenvalues --   23.81948  23.83478  23.85789  23.88786  23.89755
 Alpha virt. eigenvalues --   23.92481  23.96586  23.98422  23.99451  24.01267
 Alpha virt. eigenvalues --   24.09727  24.10432
          Condensed to atoms (all electrons):
               1          2          3          4          5          6
     1  C    9.019652   0.247536  -0.203490   2.343830  -0.313671  -0.071539
     2  C    0.247536   6.719102   0.245946  -1.098822  -0.021130  -0.006739
     3  C   -0.203490   0.245946   7.299583   1.052984  -0.159503   0.025669
     4  C    2.343830  -1.098822   1.052984  11.187452  -0.820778  -0.113262
     5  C   -0.313671  -0.021130  -0.159503  -0.820778  12.656671   0.258581
     6  C   -0.071539  -0.006739   0.025669  -0.113262   0.258581   6.650516
     7  C    0.057297  -0.002983  -0.015762   0.013752  -1.289585   0.190303
     8  C    0.326596   0.007684  -0.136697  -0.120817   3.450982  -0.799820
     9  C   -0.540140  -0.428826   0.414460  -0.406387   0.104451   0.275721
    10  C   -1.471622   0.214789  -0.683764  -2.782507  -2.543583  -0.049593
    11  C   -0.195530  -0.108955   0.636627  -1.372010  -1.313798   0.030754
    12  C   -2.770843   0.655954  -1.994224  -0.651882  -0.424537  -0.273253
    13  C    0.400697  -0.181778  -0.295923  -1.422240  -0.512853   1.117107
    14  C   -1.152113  -0.171917  -0.046457  -0.347157  -3.312097  -1.099720
    15  H    0.377260  -0.084325  -0.001619   0.031180   0.003992   0.000217
    16  H   -0.035485   0.391122  -0.023108   0.002841  -0.002104  -0.000183
    17  H   -0.018461  -0.016725   0.357908  -0.048461   0.000516   0.000362
    18  H    0.054120   0.011603  -0.100549   0.462817   0.000033  -0.006904
    19  H   -0.043208  -0.001330   0.072094  -0.004166  -0.100774   0.059631
    20  H    0.002673   0.000917  -0.005485   0.001037   0.517193  -0.083738
    21  H   -0.001172  -0.000312   0.000588   0.000722  -0.086610   0.385184
    22  H    0.000422   0.000251  -0.000381  -0.001204   0.018176  -0.030006
    23  H    0.000631  -0.002581   0.002211   0.004485   0.034662   0.010262
    24  H    0.030304   0.013291  -0.003140  -0.007864  -0.009201  -0.000216
    25  H    0.030304   0.013291  -0.003140  -0.007864  -0.009201  -0.000216
               7          8          9         10         11         12
     1  C    0.057297   0.326596  -0.540140  -1.471622  -0.195530  -2.770843
     2  C   -0.002983   0.007684  -0.428826   0.214789  -0.108955   0.655954
     3  C   -0.015762  -0.136697   0.414460  -0.683764   0.636627  -1.994224
     4  C    0.013752  -0.120817  -0.406387  -2.782507  -1.372010  -0.651882
     5  C   -1.289585   3.450982   0.104451  -2.543583  -1.313798  -0.424537
     6  C    0.190303  -0.799820   0.275721  -0.049593   0.030754  -0.273253
     7  C    7.771719  -0.268251  -1.070588   0.219799  -0.308530  -0.129588
     8  C   -0.268251  10.293908  -0.747880  -1.805929   0.352189  -1.038396
     9  C   -1.070588  -0.747880   9.322204   0.428136   1.074812  -2.044938
    10  C    0.219799  -1.805929   0.428136   9.073274   0.657283   1.690536
    11  C   -0.308530   0.352189   1.074812   0.657283  13.115211  -3.067157
    12  C   -0.129588  -1.038396  -2.044938   1.690536  -3.067157  16.285852
    13  C   -0.783348  -0.462373   0.972643   0.035191   0.625319  -4.376714
    14  C    1.710711  -3.660054  -1.757426   2.623861  -3.622909   3.477580
    15  H   -0.001576   0.007290   0.038466  -0.014697  -0.040133   0.016995
    16  H    0.000431   0.000510   0.006421  -0.002796   0.030048  -0.018906
    17  H   -0.000438  -0.001176  -0.006140   0.014735  -0.032801   0.090497
    18  H    0.003775   0.009129  -0.030175   0.012378  -0.037396  -0.028239
    19  H   -0.015879  -0.061522   0.077526   0.414775   0.086610  -0.126034
    20  H   -0.003118   0.079271  -0.018536  -0.018445  -0.018522  -0.018312
    21  H   -0.004116  -0.049711  -0.005725   0.019076  -0.004792   0.003562
    22  H    0.382720  -0.010826   0.000472  -0.008646   0.001367  -0.006583
    23  H   -0.131810   0.400592   0.087098  -0.008186   0.008853   0.000680
    24  H    0.013400   0.032238   0.354387   0.004103   0.020964  -0.055724
    25  H    0.013400   0.032238   0.354387   0.004103   0.020964  -0.055724
              13         14         15         16         17         18
     1  C    0.400697  -1.152113   0.377260  -0.035485  -0.018461   0.054120
     2  C   -0.181778  -0.171917  -0.084325   0.391122  -0.016725   0.011603
     3  C   -0.295923  -0.046457  -0.001619  -0.023108   0.357908  -0.100549
     4  C   -1.422240  -0.347157   0.031180   0.002841  -0.048461   0.462817
     5  C   -0.512853  -3.312097   0.003992  -0.002104   0.000516   0.000033
     6  C    1.117107  -1.099720   0.000217  -0.000183   0.000362  -0.006904
     7  C   -0.783348   1.710711  -0.001576   0.000431  -0.000438   0.003775
     8  C   -0.462373  -3.660054   0.007290   0.000510  -0.001176   0.009129
     9  C    0.972643  -1.757426   0.038466   0.006421  -0.006140  -0.030175
    10  C    0.035191   2.623861  -0.014697  -0.002796   0.014735   0.012378
    11  C    0.625319  -3.622909  -0.040133   0.030048  -0.032801  -0.037396
    12  C   -4.376714   3.477580   0.016995  -0.018906   0.090497  -0.028239
    13  C   13.642933  -2.238428  -0.006781   0.001841  -0.005898  -0.006653
    14  C   -2.238428  15.195185   0.004797  -0.009502   0.006787  -0.019265
    15  H   -0.006781   0.004797   0.430725  -0.009061   0.001745   0.000195
    16  H    0.001841  -0.009502  -0.009061   0.418782  -0.006508   0.001825
    17  H   -0.005898   0.006787   0.001745  -0.006508   0.419434  -0.010637
    18  H   -0.006653  -0.019265   0.000195   0.001825  -0.010637   0.470592
    19  H    0.040037  -0.016963   0.000075  -0.000435   0.001322  -0.006388
    20  H    0.014471  -0.115509  -0.000047  -0.000009  -0.000117   0.001531
    21  H   -0.015735   0.103137   0.000009  -0.000006   0.000013  -0.000261
    22  H    0.008730  -0.017599  -0.000082   0.000006  -0.000008   0.000043
    23  H   -0.039838  -0.042783   0.000368  -0.000154   0.000032  -0.000199
    24  H   -0.006009  -0.050800  -0.000691   0.000602  -0.000170   0.000195
    25  H   -0.006009  -0.050800  -0.000691   0.000602  -0.000170   0.000195
              19         20         21         22         23         24
     1  C   -0.043208   0.002673  -0.001172   0.000422   0.000631   0.030304
     2  C   -0.001330   0.000917  -0.000312   0.000251  -0.002581   0.013291
     3  C    0.072094  -0.005485   0.000588  -0.000381   0.002211  -0.003140
     4  C   -0.004166   0.001037   0.000722  -0.001204   0.004485  -0.007864
     5  C   -0.100774   0.517193  -0.086610   0.018176   0.034662  -0.009201
     6  C    0.059631  -0.083738   0.385184  -0.030006   0.010262  -0.000216
     7  C   -0.015879  -0.003118  -0.004116   0.382720  -0.131810   0.013400
     8  C   -0.061522   0.079271  -0.049711  -0.010826   0.400592   0.032238
     9  C    0.077526  -0.018536  -0.005725   0.000472   0.087098   0.354387
    10  C    0.414775  -0.018445   0.019076  -0.008646  -0.008186   0.004103
    11  C    0.086610  -0.018522  -0.004792   0.001367   0.008853   0.020964
    12  C   -0.126034  -0.018312   0.003562  -0.006583   0.000680  -0.055724
    13  C    0.040037   0.014471  -0.015735   0.008730  -0.039838  -0.006009
    14  C   -0.016963  -0.115509   0.103137  -0.017599  -0.042783  -0.050800
    15  H    0.000075  -0.000047   0.000009  -0.000082   0.000368  -0.000691
    16  H   -0.000435  -0.000009  -0.000006   0.000006  -0.000154   0.000602
    17  H    0.001322  -0.000117   0.000013  -0.000008   0.000032  -0.000170
    18  H   -0.006388   0.001531  -0.000261   0.000043  -0.000199   0.000195
    19  H    0.460414  -0.010246   0.002424  -0.000906   0.000813   0.000416
    20  H   -0.010246   0.452758  -0.009680   0.002032   0.000029   0.000135
    21  H    0.002424  -0.009680   0.418833  -0.006626   0.001694  -0.000107
    22  H   -0.000906   0.002032  -0.006626   0.423540  -0.011100   0.000580
    23  H    0.000813   0.000029   0.001694  -0.011100   0.447797  -0.001362
    24  H    0.000416   0.000135  -0.000107   0.000580  -0.001362   0.492591
    25  H    0.000416   0.000135  -0.000107   0.000580  -0.001362  -0.079500
              25
     1  C    0.030304
     2  C    0.013291
     3  C   -0.003140
     4  C   -0.007864
     5  C   -0.009201
     6  C   -0.000216
     7  C    0.013400
     8  C    0.032238
     9  C    0.354387
    10  C    0.004103
    11  C    0.020964
    12  C   -0.055724
    13  C   -0.006009
    14  C   -0.050800
    15  H   -0.000691
    16  H    0.000602
    17  H   -0.000170
    18  H    0.000195
    19  H    0.000416
    20  H    0.000135
    21  H   -0.000107
    22  H    0.000580
    23  H   -0.001362
    24  H   -0.079500
    25  H    0.492591
 Mulliken charges:
               1
     1  C   -0.074047
     2  C   -0.395061
     3  C   -0.434828
     4  C    0.104319
     5  C   -0.125832
     6  C   -0.469117
     7  C   -0.351736
     8  C    0.170824
     9  C   -0.454419
    10  C   -0.022269
    11  C   -0.538467
    12  C    0.859401
    13  C   -0.498390
    14  C    0.609442
    15  H    0.246389
    16  H    0.253223
    17  H    0.254359
    18  H    0.218235
    19  H    0.171298
    20  H    0.229582
    21  H    0.249719
    22  H    0.255047
    23  H    0.239170
    24  H    0.251578
    25  H    0.251578
 Sum of Mulliken charges =   1.00000
 Mulliken charges with hydrogens summed into heavy atoms:
               1
     1  C    0.172342
     2  C   -0.141838
     3  C   -0.180469
     4  C    0.322554
     5  C    0.103751
     6  C   -0.219397
     7  C   -0.096689
     8  C    0.409994
     9  C    0.048737
    10  C    0.149029
    11  C   -0.538467
    12  C    0.859401
    13  C   -0.498390
    14  C    0.609442
 Electronic spatial extent (au):  <R**2>=           2862.8414
 Charge=              1.0000 electrons
 Dipole moment (field-independent basis, Debye):
    X=             -0.1503    Y=              0.1941    Z=              0.0000  Tot=              0.2455
 Quadrupole moment (field-independent basis, Debye-Ang):
   XX=            -51.1302   YY=            -35.8703   ZZ=            -84.2551
   XY=             10.3331   XZ=              0.0000   YZ=             -0.0000
 Traceless Quadrupole moment (field-independent basis, Debye-Ang):
   XX=              5.9550   YY=             21.2149   ZZ=            -27.1699
   XY=             10.3331   XZ=              0.0000   YZ=             -0.0000
 Octapole moment (field-independent basis, Debye-Ang**2):
  XXX=             -1.0299  YYY=             -2.0068  ZZZ=              0.0000  XYY=              0.6328
  XXY=              4.1751  XXZ=              0.0000  XZZ=              2.5587  YZZ=             -1.4628
  YYZ=              0.0000  XYZ=             -0.0000
 Hexadecapole moment (field-independent basis, Debye-Ang**3):
 XXXX=           -972.7016 YYYY=          -1862.8234 ZZZZ=            -99.5642 XXXY=           -340.8635
 XXXZ=              0.0000 YYYX=           -265.3222 YYYZ=             -0.0000 ZZZX=              0.0000
 ZZZY=             -0.0000 XXYY=           -456.1905 XXZZ=           -238.5049 YYZZ=           -500.2569
 XXYZ=             -0.0000 YYXZ=              0.0000 ZZXY=           -180.7074
 N-N= 7.800503366561D+02 E-N=-2.796346837467D+03  KE= 5.373910670744D+02
 Symmetry A'   KE= 5.227581033379D+02
 Symmetry A"   KE= 1.463296373654D+01
 Unable to Open any file for archive entry.
 1\1\GINC-GADI-CPU-CLX-0359\SP\RM062X TD-FC\6-311++G(d,p)\C14H11(1+)\TS
 1578\02-Aug-2022\0\\#n M062X/6-311++G(d,p) TD(NStates=1) EmpiricalDisp
 ersion=GD3 SP\\SP_4\\1,1\C,0,0.,2.596655,1.396431\C,0,0.,3.745508,0.58
 3989\C,0,0.,3.631861,-0.80583\C,0,0.,2.367156,-1.379538\C,0,0.,-2.4631
 56,-1.451538\C,0,0.,-3.695861,-0.75783\C,0,0.,-3.705508,0.623989\C,0,0
 .,-2.492655,1.308431\C,0,0.,-0.016,1.513369\C,0,0.,0.024,-1.369189\C,0
 ,0.,1.298055,0.813065\C,0,0.,1.213471,-0.602804\C,0,0.,-1.250055,0.645
 065\C,0,0.,-1.245471,-0.754804\H,0,0.,2.712071,2.479647\H,0,0.,4.72875
 3,1.039689\H,0,0.,4.513262,-1.436349\H,0,0.,2.25555,-2.462059\H,0,0.,0
 .124,-2.446266\H,0,0.,-2.46355,-2.534059\H,0,0.,-4.625262,-1.316349\H,
 0,0.,-4.632753,1.175689\H,0,0.,-2.496071,2.391647\H,0,-0.859585,-0.096
 ,2.205787\H,0,0.859585,-0.096,2.205787\\Version=ES64L-G16RevC.01\State
 =1-A'\HF=-539.7536459\RMSD=7.823e-09\PG=CS [SG(C14H9),X(H2)]\\@
 The archive entry for this job was punched.


 THE WORLD OF CHEMICAL REACTIONS IS LIKE A STAGE,
 ON WHICH SCENE AFTER SCENE IS CEASELESSLY PLAYED.
 THE ACTORS ON IT ARE THE ELEMENTS.
   -- CLEMENS WINKLER   BER. 30,13(1897)
 (DISCOVERER OF GERMANIUM, FEB 6, 1886)
 Job cpu time:       0 days  0 hours 51 minutes 18.3 seconds.
 Elapsed time:       0 days  0 hours  1 minutes  4.2 seconds.
 File lengths (MBytes):  RWF=    460 Int=      0 D2E=      0 Chk=     15 Scr=      1
 Normal termination of Gaussian 16 at Tue Aug  2 13:04:45 2022.
