 Entering Gaussian System, Link 0=g16
 Initial command:
 /apps/gaussian/g16c01/g16/l1.exe "/jobfs/53803768.gadi-pbs/Gau-217744.inp" -scrdir="/jobfs/53803768.gadi-pbs/"
 Entering Link 1 = /apps/gaussian/g16c01/g16/l1.exe PID=    217745.
  
 Copyright (c) 1988-2019, Gaussian, Inc.  All Rights Reserved.
  
 This is part of the Gaussian(R) 16 program.  It is based on
 the Gaussian(R) 09 system (copyright 2009, Gaussian, Inc.),
 the Gaussian(R) 03 system (copyright 2003, Gaussian, Inc.),
 the Gaussian(R) 98 system (copyright 1998, Gaussian, Inc.),
 the Gaussian(R) 94 system (copyright 1995, Gaussian, Inc.),
 the Gaussian 92(TM) system (copyright 1992, Gaussian, Inc.),
 the Gaussian 90(TM) system (copyright 1990, Gaussian, Inc.),
 the Gaussian 88(TM) system (copyright 1988, Gaussian, Inc.),
 the Gaussian 86(TM) system (copyright 1986, Carnegie Mellon
 University), and the Gaussian 82(TM) system (copyright 1983,
 Carnegie Mellon University). Gaussian is a federally registered
 trademark of Gaussian, Inc.
  
 This software contains proprietary and confidential information,
 including trade secrets, belonging to Gaussian, Inc.
  
 This software is provided under written license and may be
 used, copied, transmitted, or stored only in accord with that
 written license.
  
 The following legend is applicable only to US Government
 contracts under FAR:
  
                    RESTRICTED RIGHTS LEGEND
  
 Use, reproduction and disclosure by the US Government is
 subject to restrictions as set forth in subparagraphs (a)
 and (c) of the Commercial Computer Software - Restricted
 Rights clause in FAR 52.227-19.
  
 Gaussian, Inc.
 340 Quinnipiac St., Bldg. 40, Wallingford CT 06492
  
  
 ---------------------------------------------------------------
 Warning -- This program may not be used in any manner that
 competes with the business of Gaussian, Inc. or will provide
 assistance to any competitor of Gaussian, Inc.  The licensee
 of this program is prohibited from giving any competitor of
 Gaussian, Inc. access to this program.  By using this program,
 the user acknowledges that Gaussian, Inc. is engaged in the
 business of creating and licensing software in the field of
 computational chemistry and represents and warrants to the
 licensee that it is not a competitor of Gaussian, Inc. and that
 it will not use this program in any manner prohibited above.
 ---------------------------------------------------------------
  

 Cite this work as:
 Gaussian 16, Revision C.01,
 M. J. Frisch, G. W. Trucks, H. B. Schlegel, G. E. Scuseria, 
 M. A. Robb, J. R. Cheeseman, G. Scalmani, V. Barone, 
 G. A. Petersson, H. Nakatsuji, X. Li, M. Caricato, A. V. Marenich, 
 J. Bloino, B. G. Janesko, R. Gomperts, B. Mennucci, H. P. Hratchian, 
 J. V. Ortiz, A. F. Izmaylov, J. L. Sonnenberg, D. Williams-Young, 
 F. Ding, F. Lipparini, F. Egidi, J. Goings, B. Peng, A. Petrone, 
 T. Henderson, D. Ranasinghe, V. G. Zakrzewski, J. Gao, N. Rega, 
 G. Zheng, W. Liang, M. Hada, M. Ehara, K. Toyota, R. Fukuda, 
 J. Hasegawa, M. Ishida, T. Nakajima, Y. Honda, O. Kitao, H. Nakai, 
 T. Vreven, K. Throssell, J. A. Montgomery, Jr., J. E. Peralta, 
 F. Ogliaro, M. J. Bearpark, J. J. Heyd, E. N. Brothers, K. N. Kudin, 
 V. N. Staroverov, T. A. Keith, R. Kobayashi, J. Normand, 
 K. Raghavachari, A. P. Rendell, J. C. Burant, S. S. Iyengar, 
 J. Tomasi, M. Cossi, J. M. Millam, M. Klene, C. Adamo, R. Cammi, 
 J. W. Ochterski, R. L. Martin, K. Morokuma, O. Farkas, 
 J. B. Foresman, and D. J. Fox, Gaussian, Inc., Wallingford CT, 2019.
 
 ******************************************
 Gaussian 16:  ES64L-G16RevC.01  3-Jul-2019
                 2-Aug-2022 
 ******************************************
 %NProcShared=48
 Will use up to   48 processors via shared memory.
 %mem = 190GB
 ---------------------------------------------------------------
 #n M062X/6-311++G(d,p) TD(NStates=1) EmpiricalDispersion=GD3 SP
 ---------------------------------------------------------------
 1/38=1,172=1/1;
 2/12=2,17=6,18=5,40=1/2;
 3/5=4,6=6,7=1111,11=9,25=1,30=1,74=-55,124=31/1,2,3,8;
 4//1;
 5/5=2,38=5/2;
 8/6=1,10=2,108=1/1;
 9/41=1,42=1,70=2/14;
 6/7=2,8=2,9=2,10=2/1;
 99/5=1,9=1/99;
 ----
 SP_6
 ----
 Symbolic Z-matrix:
 Charge =  1 Multiplicity = 1
 C                     0.        2.51866   1.43443 
 C                     0.        3.70751   0.70999 
 C                     0.        3.65586  -0.68183 
 C                     0.        2.43916  -1.34554 
 C                     0.       -2.58316  -1.45354 
 C                     0.       -3.75186  -0.60983 
 C                     0.       -3.64751   0.76999 
 C                     0.       -2.36266   1.30243 
 C                     0.       -0.024     1.39337 
 C                     0.        0.036    -1.48919 
 C                     0.        1.28606   0.75107 
 C                     0.        1.22147  -0.6688 
 C                     0.       -1.21406   0.49907 
 C                     0.       -1.26947  -0.8968 
 H                     0.        2.53407   2.51765 
 H                     0.        4.66475   1.21369 
 H                     0.        4.56526  -1.25835 
 H                     0.        2.41955  -2.42806 
 H                     0.        0.186    -2.57427 
 H                     0.       -2.73155  -2.53606 
 H                     0.       -4.73326  -1.07835 
 H                     0.       -4.52075   1.41769 
 H                     0.       -2.21007   2.38565 
 H                    -0.85959  -0.144     2.08579 
 H                     0.85959  -0.144     2.08579 
 
                          Input orientation:                          
 ---------------------------------------------------------------------
 Center     Atomic      Atomic             Coordinates (Angstroms)
 Number     Number       Type             X           Y           Z
 ---------------------------------------------------------------------
      1          6           0        0.000000    2.518655    1.434431
      2          6           0        0.000000    3.707508    0.709989
      3          6           0        0.000000    3.655861   -0.681830
      4          6           0        0.000000    2.439156   -1.345538
      5          6           0        0.000000   -2.583156   -1.453538
      6          6           0        0.000000   -3.751861   -0.609830
      7          6           0        0.000000   -3.647508    0.769989
      8          6           0        0.000000   -2.362655    1.302431
      9          6           0        0.000000   -0.024000    1.393369
     10          6           0        0.000000    0.036000   -1.489189
     11          6           0        0.000000    1.286055    0.751065
     12          6           0        0.000000    1.221471   -0.668804
     13          6           0        0.000000   -1.214055    0.499065
     14          6           0        0.000000   -1.269471   -0.896804
     15          1           0        0.000000    2.534071    2.517647
     16          1           0        0.000000    4.664753    1.213689
     17          1           0        0.000000    4.565262   -1.258349
     18          1           0        0.000000    2.419550   -2.428059
     19          1           0        0.000000    0.186000   -2.574266
     20          1           0        0.000000   -2.731550   -2.536059
     21          1           0        0.000000   -4.733262   -1.078349
     22          1           0        0.000000   -4.520753    1.417689
     23          1           0        0.000000   -2.210071    2.385647
     24          1           0       -0.859585   -0.144000    2.085787
     25          1           0        0.859585   -0.144000    2.085787
 ---------------------------------------------------------------------
                    Distance matrix (angstroms):
                    1          2          3          4          5
     1  C    0.000000
     2  C    1.392188   0.000000
     3  C    2.402457   1.392777   0.000000
     4  C    2.781105   2.415348   1.385958   0.000000
     5  C    5.862494   6.652316   6.286562   5.023473   0.000000
     6  C    6.595330   7.575230   7.408072   6.234578   1.441428
     7  C    6.201859   7.355261   7.446273   6.443829   2.465140
     8  C    4.883094   6.099005   6.337178   5.483533   2.764776
     9  C    2.542987   3.793568   4.224669   3.683578   3.828075
    10  C    3.835509   4.279761   3.708803   2.407446   2.619399
    11  C    1.409359   2.421801   2.769326   2.392778   4.453209
    12  C    2.471090   2.842789   2.434425   1.393099   3.884713
    13  C    3.848121   4.926081   5.011047   4.092494   2.384763
    14  C    4.447983   5.229924   4.930021   3.735676   1.426787
    15  H    1.083326   2.155129   3.390437   3.864351   6.477370
    16  H    2.157421   1.081680   2.147290   3.391596   7.723101
    17  H    3.382257   2.147114   1.076747   2.127893   7.151082
    18  H    3.863761   3.392076   2.139575   1.082699   5.096740
    19  H    4.637988   4.815324   3.952373   2.566415   2.987349
    20  H    6.582510   7.210984   6.651104   5.305991   1.092645
    21  H    7.674918   8.628137   8.398489   7.177393   2.182595
    22  H    7.039428   8.258639   8.441860   7.488375   3.463846
    23  H    4.823449   6.150250   6.619560   5.961296   3.857270
    24  H    2.872783   4.179213   4.778863   4.380134   4.383513
    25  H    2.872783   4.179213   4.778863   4.380134   4.383513
                    6          7          8          9         10
     6  C    0.000000
     7  C    1.383759   0.000000
     8  C    2.363606   1.390806   0.000000
     9  C    4.231992   3.676739   2.340422   0.000000
    10  C    3.888594   4.321124   3.680583   2.883182   0.000000
    11  C    5.218490   4.933599   3.690134   1.459040   2.565419
    12  C    4.973682   5.077114   4.090443   2.409098   1.441656
    13  C    2.769496   2.448488   1.401670   1.488627   2.348572
    14  C    2.498923   2.904007   2.455949   2.606931   1.433588
    15  H    7.020972   6.423879   5.045263   2.794231   4.721768
    16  H    8.611888   8.324095   7.027968   4.692195   5.360122
    17  H    8.342368   8.459536   7.386043   5.300277   4.535141
    18  H    6.433682   6.858331   6.065150   4.535885   2.561794
    19  H    4.400654   5.087222   4.639442   3.973189   1.095396
    20  H    2.179769   3.430588   3.856175   4.771921   2.958931
    21  H    1.087501   2.143645   3.359746   5.318509   4.786925
    22  H    2.168416   1.087231   2.161174   4.496819   5.404992
    23  H    3.368976   2.162539   1.093910   2.400734   4.478749
    24  H    4.584964   3.839893   2.504988   1.110283   3.681269
    25  H    4.584964   3.839893   2.504988   1.110283   3.681269
                   11         12         13         14         15
    11  C    0.000000
    12  C    1.421337   0.000000
    13  C    2.512778   2.701056   0.000000
    14  C    3.040754   2.501355   1.396969   0.000000
    15  H    2.162951   3.446214   4.257126   5.111302   0.000000
    16  H    3.410223   3.924280   5.922083   6.298349   2.498022
    17  H    3.845900   3.395365   6.040613   5.845924   4.287643
    18  H    3.375150   2.128467   4.665955   3.994198   4.947032
    19  H    3.502563   2.168637   3.377206   2.220872   5.607229
    20  H    5.190986   4.371844   3.393342   2.196550   7.298405
    21  H    6.291179   5.968800   3.856560   3.468545   8.108349
    22  H    5.844947   6.109549   3.431927   3.990954   7.140059
    23  H    3.859372   4.594034   2.133363   3.414559   4.745978
    24  H    2.136686   3.192361   2.097997   3.301730   2.845603
    25  H    2.136686   3.192361   2.097997   3.301730   2.845603
                   16         17         18         19         20
    16  H    0.000000
    17  H    2.474039   0.000000
    18  H    4.278232   2.443829   0.000000
    19  H    5.865819   4.572699   2.238330   0.000000
    20  H    8.292521   7.407834   5.152232   2.917800   0.000000
    21  H    9.673475   9.300266   7.279041   5.141683   2.476241
    22  H    9.187771   9.471898   7.934581   6.171647   4.339743
    23  H    6.974001   7.693104   6.678709   5.508348   4.949256
    24  H    4.962212   5.839459   5.261699   4.750145   5.366168
    25  H    4.962212   5.839459   5.261699   4.750145   5.366168
                   21         22         23         24         25
    21  H    0.000000
    22  H    2.505068   0.000000
    23  H    4.285529   2.505233   0.000000
    24  H    5.640210   4.510123   2.257754   0.000000
    25  H    5.640210   4.510123   2.257754   1.719170   0.000000
 Stoichiometry    C14H11(1+)
 Framework group  CS[SG(C14H9),X(H2)]
 Deg. of freedom    46
 Full point group                 CS      NOp   2
 Largest Abelian subgroup         CS      NOp   2
 Largest concise Abelian subgroup CS      NOp   2
                         Standard orientation:                         
 ---------------------------------------------------------------------
 Center     Atomic      Atomic             Coordinates (Angstroms)
 Number     Number       Type             X           Y           Z
 ---------------------------------------------------------------------
      1          6           0       -2.281947   -1.786767    0.000000
      2          6           0       -2.062865   -3.161610    0.000000
      3          6           0       -0.755564   -3.642018    0.000000
      4          6           0        0.320230   -2.768206    0.000000
      5          6           0        2.326104    1.837416    0.000000
      6          6           0        1.989032    3.238878    0.000000
      7          6           0        0.672832    3.665969    0.000000
      8          6           0       -0.307378    2.679292    0.000000
      9          6           0       -1.279026    0.550096    0.000000
     10          6           0        1.365126   -0.599338    0.000000
     11          6           0       -1.181933   -0.905710    0.000000
     12          6           0        0.156229   -1.384794    0.000000
     13          6           0        0.000000    1.311740    0.000000
     14          6           0        1.312478    0.833283    0.000000
     15          1           0       -3.289981   -1.389953    0.000000
     16          1           0       -2.892156   -3.856093    0.000000
     17          1           0       -0.567288   -4.702176    0.000000
     18          1           0        1.329211   -3.160880    0.000000
     19          1           0        2.312107   -1.149901    0.000000
     20          1           0        3.383960    1.563895    0.000000
     21          1           0        2.794941    3.969061    0.000000
     22          1           0        0.404978    4.719689    0.000000
     23          1           0       -1.367467    2.949200    0.000000
     24          1           0       -1.874107    0.923890    0.859585
     25          1           0       -1.874107    0.923890   -0.859585
 ---------------------------------------------------------------------
 Rotational constants (GHZ):           2.1275813           0.4448775           0.3687407
 Standard basis: 6-311++G(d,p) (5D, 7F)
 There are   299 symmetry adapted cartesian basis functions of A'  symmetry.
 There are   100 symmetry adapted cartesian basis functions of A"  symmetry.
 There are   285 symmetry adapted basis functions of A'  symmetry.
 There are   100 symmetry adapted basis functions of A"  symmetry.
   385 basis functions,   603 primitive gaussians,   399 cartesian basis functions
    47 alpha electrons       47 beta electrons
       nuclear repulsion energy       780.5145728101 Hartrees.
 NAtoms=   25 NActive=   25 NUniq=   24 SFac= 1.09D+00 NAtFMM=   60 NAOKFM=F Big=F
 Integral buffers will be    131072 words long.
 Regular integral format.
 Two-electron integral symmetry is turned on.
 Nuclear repulsion after empirical dispersion term =      780.5135947697 Hartrees.
 One-electron integrals computed using PRISM.
 NBasis=   385 RedAO= T EigKep=  1.07D-06  NBF=   285   100
 NBsUse=   379 1.00D-06 EigRej=  8.15D-07 NBFU=   279   100
 ExpMin= 3.60D-02 ExpMax= 4.56D+03 ExpMxC= 6.82D+02 IAcc=3 IRadAn=         5 AccDes= 0.00D+00
 Harris functional with IExCor= 1009 and IRadAn=       5 diagonalized for initial guess.
 HarFok:  IExCor= 1009 AccDes= 0.00D+00 IRadAn=         5 IDoV= 1 UseB2=F ITyADJ=14
 ICtDFT=  3500011 ScaDFX=  1.000000  1.000000  1.000000  1.000000
 FoFCou: FMM=F IPFlag=           0 FMFlag=      100000 FMFlg1=           0
         NFxFlg=           0 DoJE=T BraDBF=F KetDBF=T FulRan=T
         wScrn=  0.000000 ICntrl=       500 IOpCl=  0 I1Cent=   200000004 NGrid=           0
         NMat0=    1 NMatS0=      1 NMatT0=    0 NMatD0=    1 NMtDS0=    0 NMtDT0=    0
 Petite list used in FoFCou.
 Initial guess orbital symmetries:
       Occupied  (A') (A') (A') (A') (A') (A') (A') (A') (A') (A')
                 (A') (A') (A') (A') (A') (A') (A') (A') (A') (A')
                 (A') (A') (A') (A') (A') (A') (A') (A') (A') (A')
                 (A') (A') (A") (A') (A') (A') (A') (A') (A") (A')
                 (A") (A') (A') (A") (A") (A") (A")
       Virtual   (A") (A") (A") (A") (A") (A') (A') (A') (A') (A")
                 (A") (A') (A') (A') (A") (A') (A') (A') (A') (A")
                 (A') (A") (A') (A') (A') (A") (A') (A") (A') (A')
                 (A') (A') (A') (A') (A") (A') (A') (A") (A') (A")
                 (A') (A') (A') (A") (A') (A') (A') (A') (A') (A")
                 (A') (A") (A') (A') (A") (A') (A') (A") (A") (A')
                 (A') (A') (A') (A') (A') (A") (A') (A') (A') (A")
                 (A') (A') (A') (A') (A') (A') (A') (A') (A') (A')
                 (A') (A') (A') (A') (A') (A') (A') (A') (A') (A')
                 (A') (A') (A') (A') (A') (A') (A') (A") (A') (A")
                 (A') (A') (A") (A") (A') (A") (A') (A') (A") (A")
                 (A") (A') (A') (A") (A') (A') (A') (A") (A") (A")
                 (A') (A") (A') (A') (A') (A") (A') (A') (A') (A")
                 (A') (A') (A') (A') (A') (A') (A") (A') (A') (A')
                 (A') (A') (A') (A') (A') (A') (A') (A') (A') (A")
                 (A") (A') (A") (A') (A") (A') (A') (A") (A") (A')
                 (A') (A") (A") (A") (A') (A") (A') (A') (A') (A')
                 (A') (A") (A') (A') (A") (A') (A') (A') (A") (A')
                 (A') (A') (A') (A") (A') (A") (A') (A") (A') (A")
                 (A") (A') (A') (A') (A") (A') (A') (A') (A") (A')
                 (A") (A") (A") (A') (A") (A') (A") (A') (A') (A')
                 (A") (A') (A") (A") (A') (A') (A') (A") (A") (A')
                 (A') (A') (A') (A') (A") (A') (A') (A") (A") (A')
                 (A') (A') (A') (A") (A') (A') (A") (A') (A") (A")
                 (A') (A') (A') (A') (A") (A') (A') (A') (A') (A")
                 (A') (A') (A') (A") (A") (A') (A') (A") (A') (A')
                 (A") (A') (A') (A') (A") (A') (A') (A") (A') (A")
                 (A') (A') (A') (A") (A') (A") (A') (A') (A") (A')
                 (A") (A') (A") (A") (A") (A') (A') (A') (A') (A')
                 (A') (A') (A') (A') (A') (A') (A') (A') (A') (A')
                 (A') (A') (A') (A") (A') (A') (A') (A') (A') (A')
                 (A') (A') (A') (A') (A') (A') (A') (A') (A') (A')
                 (A') (A') (A') (A') (A') (A') (A') (A') (A') (A')
                 (A') (A')
 The electronic state of the initial guess is 1-A'.
 Requested convergence on RMS density matrix=1.00D-08 within 128 cycles.
 Requested convergence on MAX density matrix=1.00D-06.
 Requested convergence on             energy=1.00D-06.
 No special actions if energy rises.
 SCF Done:  E(RM062X) =  -539.735544838     A.U. after   15 cycles
            NFock= 15  Conv=0.61D-08     -V/T= 2.0045
 DoSCS=F DFT=T ScalE2(SS,OS)=  1.000000  1.000000
 ExpMin= 3.60D-02 ExpMax= 4.56D+03 ExpMxC= 6.82D+02 IAcc=3 IRadAn=         5 AccDes= 0.00D+00
 HarFok:  IExCor=  205 AccDes= 0.00D+00 IRadAn=         5 IDoV=-2 UseB2=F ITyADJ=14
 ICtDFT= 12500011 ScaDFX=  1.000000  1.000000  1.000000  1.000000
 Range of M.O.s used for correlation:    15   379
 NBasis=   385 NAE=    47 NBE=    47 NFC=    14 NFV=     0
 NROrb=    365 NOA=    33 NOB=    33 NVA=   332 NVB=   332

 **** Warning!!: The largest alpha MO coefficient is  0.16069244D+03

 Orbital symmetries:
       Occupied  (A') (A') (A') (A') (A') (A') (A') (A') (A') (A')
                 (A') (A') (A') (A') (A') (A') (A') (A') (A') (A')
                 (A') (A') (A') (A') (A') (A') (A') (A') (A') (A')
                 (A') (A") (A') (A') (A') (A') (A') (A") (A") (A')
                 (A') (A') (A') (A") (A") (A") (A")
       Virtual   (A") (A") (A") (A") (A') (A') (A') (A") (A') (A')
                 (A') (A") (A') (A') (A") (A') (A") (A') (A') (A')
                 (A") (A") (A') (A') (A') (A") (A') (A") (A') (A')
                 (A") (A') (A") (A') (A') (A') (A') (A') (A") (A')
                 (A") (A') (A') (A") (A") (A') (A") (A') (A") (A')
                 (A') (A') (A') (A') (A") (A') (A') (A') (A') (A')
                 (A') (A") (A') (A') (A') (A") (A') (A') (A') (A')
                 (A') (A') (A') (A') (A') (A') (A') (A') (A') (A')
                 (A') (A') (A') (A') (A') (A') (A') (A') (A') (A')
                 (A') (A') (A') (A') (A') (A") (A") (A") (A') (A")
                 (A') (A') (A') (A') (A") (A") (A') (A") (A') (A')
                 (A") (A") (A') (A') (A") (A') (A") (A') (A') (A")
                 (A") (A') (A") (A') (A') (A') (A") (A') (A') (A')
                 (A') (A') (A') (A') (A') (A') (A') (A') (A') (A')
                 (A') (A') (A') (A") (A') (A') (A') (A') (A') (A')
                 (A') (A") (A') (A') (A') (A") (A") (A") (A') (A")
                 (A") (A') (A') (A') (A") (A') (A") (A") (A") (A')
                 (A') (A') (A') (A") (A") (A') (A') (A') (A") (A')
                 (A') (A') (A') (A") (A") (A') (A') (A") (A") (A')
                 (A") (A') (A') (A") (A') (A') (A") (A') (A') (A")
                 (A') (A") (A") (A') (A") (A') (A") (A') (A') (A')
                 (A') (A") (A') (A") (A') (A") (A") (A') (A') (A")
                 (A') (A') (A') (A') (A") (A') (A') (A") (A") (A')
                 (A') (A') (A') (A") (A') (A') (A') (A") (A") (A')
                 (A") (A') (A') (A") (A') (A') (A') (A') (A') (A')
                 (A') (A") (A') (A') (A') (A") (A") (A') (A") (A')
                 (A') (A') (A') (A') (A') (A") (A') (A') (A') (A')
                 (A') (A") (A') (A") (A") (A") (A') (A') (A") (A")
                 (A') (A") (A") (A") (A") (A') (A') (A') (A') (A')
                 (A') (A') (A') (A') (A') (A') (A') (A') (A') (A')
                 (A') (A') (A') (A") (A') (A') (A') (A') (A') (A')
                 (A') (A') (A') (A') (A') (A') (A') (A') (A') (A')
                 (A') (A') (A') (A') (A') (A') (A') (A') (A') (A')
                 (A') (A')
     4 initial guesses have been made.
 Convergence on wavefunction:    0.001000000000000
 Iteration     1 Dimension     4 NMult     0 NNew      4
 CISAX will form     4 AO SS matrices at one time.
 Iteration     2 Dimension     6 NMult     4 NNew      2
 Iteration     3 Dimension     8 NMult     6 NNew      2
 Iteration     4 Dimension    10 NMult     8 NNew      2
 Iteration     5 Dimension    12 NMult    10 NNew      2
 Iteration     6 Dimension    14 NMult    12 NNew      2
 ***********************************************************************
 Excited states from <AA,BB:AA,BB> singles matrix:
 ***********************************************************************
 
 Ground to excited state transition densities written to RWF  633
 Ground to excited state transition electric dipole moments (Au):
       state          X           Y           Z        Dip. S.      Osc.
         1         0.6440     -0.0633     -0.0000      0.4187      0.0274
 Ground to excited state transition velocity dipole moments (Au):
       state          X           Y           Z        Dip. S.      Osc.
         1        -0.0717      0.0065      0.0000      0.0052      0.0352
 Ground to excited state transition magnetic dipole moments (Au):
       state          X           Y           Z
         1         0.0000      0.0000     -0.0174
 Ground to excited state transition velocity quadrupole moments (Au):
       state          XX          YY          ZZ          XY          XZ          YZ
         1        -0.1171     -0.2087      0.0090     -0.1225     -0.0000      0.0000
 <0|del|b> * <b|rxdel|0> + <0|del|b> * <b|delr+rdel|0>
 Rotatory Strengths (R) in cgs (10**-40 erg-esu-cm/Gauss)
       state          XX          YY          ZZ    R(velocity)    E-M Angle
         1        -0.0000     -0.0000     -0.0000     -0.0000       90.00
 1/2[<0|r|b>*<b|rxdel|0> + (<0|rxdel|b>*<b|r|0>)*]
 Rotatory Strengths (R) in cgs (10**-40 erg-esu-cm/Gauss)
       state          XX          YY          ZZ     R(length)
         1        -0.0000      0.0000     -0.0000     -0.0000
  1/2[<0|del|b>*<b|r|0> + (<0|r|b>*<b|del|0>)*] (Au)
       state          X           Y           Z        Dip. S.   Osc.(frdel)
         1        -0.0462     -0.0004     -0.0000      0.0466      0.0311

 Excitation energies and oscillator strengths:
 
 Excited State   1:      Singlet-A'     2.6746 eV  463.57 nm  f=0.0274  <S**2>=0.000
      47 -> 48         0.70446
 This state for optimization and/or second-order correction.
 Total Energy, E(TD-HF/TD-DFT) =  -539.637256123    
 Copying the excited state density for this state as the 1-particle RhoCI density.
 SavETr:  write IOETrn=   770 NScale= 10 NData=  16 NLR=1 NState=    1 LETran=      28.

 **********************************************************************

            Population analysis using the SCF Density.

 **********************************************************************

 Orbital symmetries:
       Occupied  (A') (A') (A') (A') (A') (A') (A') (A') (A') (A')
                 (A') (A') (A') (A') (A') (A') (A') (A') (A') (A')
                 (A') (A') (A') (A') (A') (A') (A') (A') (A') (A')
                 (A') (A") (A') (A') (A') (A') (A') (A") (A") (A')
                 (A') (A') (A') (A") (A") (A") (A")
       Virtual   (A") (A") (A") (A") (A') (A') (A') (A") (A') (A')
                 (A') (A") (A') (A') (A") (A') (A") (A') (A') (A')
                 (A") (A") (A') (A') (A') (A") (A') (A") (A') (A')
                 (A") (A') (A") (A') (A') (A') (A') (A') (A") (A')
                 (A") (A') (A') (A") (A") (A') (A") (A') (A") (A')
                 (A') (A') (A') (A') (A") (A') (A') (A') (A') (A')
                 (A') (A") (A') (A') (A') (A") (A') (A') (A') (A')
                 (A') (A') (A') (A') (A') (A') (A') (A') (A') (A')
                 (A') (A') (A') (A') (A') (A') (A') (A') (A') (A')
                 (A') (A') (A') (A') (A') (A") (A") (A") (A') (A")
                 (A') (A') (A') (A') (A") (A") (A') (A") (A') (A')
                 (A") (A") (A') (A') (A") (A') (A") (A') (A') (A")
                 (A") (A') (A") (A') (A') (A') (A") (A') (A') (A')
                 (A') (A') (A') (A') (A') (A') (A') (A') (A') (A')
                 (A') (A') (A') (A") (A') (A') (A') (A') (A') (A')
                 (A') (A") (A') (A') (A') (A") (A") (A") (A') (A")
                 (A") (A') (A') (A') (A") (A') (A") (A") (A") (A')
                 (A') (A') (A') (A") (A") (A') (A') (A') (A") (A')
                 (A') (A') (A') (A") (A") (A') (A') (A") (A") (A')
                 (A") (A') (A') (A") (A') (A') (A") (A') (A') (A")
                 (A') (A") (A") (A') (A") (A') (A") (A') (A') (A')
                 (A') (A") (A') (A") (A') (A") (A") (A') (A') (A")
                 (A') (A') (A') (A') (A") (A') (A') (A") (A") (A')
                 (A') (A') (A') (A") (A') (A') (A') (A") (A") (A')
                 (A") (A') (A') (A") (A') (A') (A') (A') (A') (A')
                 (A') (A") (A') (A') (A') (A") (A") (A') (A") (A')
                 (A') (A') (A') (A') (A') (A") (A') (A') (A') (A')
                 (A') (A") (A') (A") (A") (A") (A') (A') (A") (A")
                 (A') (A") (A") (A") (A") (A') (A') (A') (A') (A')
                 (A') (A') (A') (A') (A') (A') (A') (A') (A') (A')
                 (A') (A') (A') (A") (A') (A') (A') (A') (A') (A')
                 (A') (A') (A') (A') (A') (A') (A') (A') (A') (A')
                 (A') (A') (A') (A') (A') (A') (A') (A') (A') (A')
                 (A') (A')
 The electronic state is 1-A'.
 Alpha  occ. eigenvalues --  -10.78518 -10.73309 -10.73244 -10.72935 -10.72621
 Alpha  occ. eigenvalues --  -10.72242 -10.71226 -10.70959 -10.70950 -10.70879
 Alpha  occ. eigenvalues --  -10.70316 -10.70197 -10.69609 -10.69333  -1.16436
 Alpha  occ. eigenvalues --   -1.12345  -1.06798  -1.05818  -1.01301  -1.00080
 Alpha  occ. eigenvalues --   -0.95587  -0.90817  -0.86840  -0.85392  -0.83604
 Alpha  occ. eigenvalues --   -0.78204  -0.75945  -0.74158  -0.69471  -0.69335
 Alpha  occ. eigenvalues --   -0.68628  -0.68170  -0.67918  -0.64741  -0.64301
 Alpha  occ. eigenvalues --   -0.62531  -0.61354  -0.59803  -0.59447  -0.58988
 Alpha  occ. eigenvalues --   -0.56713  -0.55339  -0.54549  -0.52371  -0.46616
 Alpha  occ. eigenvalues --   -0.46043  -0.44122
 Alpha virt. eigenvalues --   -0.26265  -0.14860  -0.14264  -0.12787  -0.11246
 Alpha virt. eigenvalues --   -0.10122  -0.09227  -0.08038  -0.08017  -0.07514
 Alpha virt. eigenvalues --   -0.07300  -0.07281  -0.05687  -0.05591  -0.05359
 Alpha virt. eigenvalues --   -0.03871  -0.03638  -0.03319  -0.03120  -0.02150
 Alpha virt. eigenvalues --   -0.01390  -0.00860   0.00160   0.00369   0.00706
 Alpha virt. eigenvalues --    0.01027   0.01329   0.01819   0.02145   0.02293
 Alpha virt. eigenvalues --    0.02416   0.02601   0.02635   0.03241   0.03393
 Alpha virt. eigenvalues --    0.04112   0.04391   0.04700   0.04779   0.05268
 Alpha virt. eigenvalues --    0.05988   0.06121   0.06597   0.07055   0.07197
 Alpha virt. eigenvalues --    0.07985   0.08111   0.08221   0.08539   0.08887
 Alpha virt. eigenvalues --    0.09073   0.09391   0.09943   0.10129   0.11219
 Alpha virt. eigenvalues --    0.11540   0.12011   0.12326   0.12584   0.12862
 Alpha virt. eigenvalues --    0.13065   0.13185   0.13634   0.14259   0.15942
 Alpha virt. eigenvalues --    0.16517   0.16592   0.17124   0.17529   0.18022
 Alpha virt. eigenvalues --    0.18238   0.18773   0.19306   0.19398   0.20091
 Alpha virt. eigenvalues --    0.21383   0.21584   0.22560   0.22842   0.23326
 Alpha virt. eigenvalues --    0.23877   0.24681   0.25298   0.26706   0.27594
 Alpha virt. eigenvalues --    0.28503   0.28797   0.29812   0.31064   0.35477
 Alpha virt. eigenvalues --    0.35933   0.38154   0.39351   0.41108   0.41476
 Alpha virt. eigenvalues --    0.41522   0.42074   0.43073   0.43700   0.44424
 Alpha virt. eigenvalues --    0.44562   0.45231   0.45886   0.46799   0.47952
 Alpha virt. eigenvalues --    0.48566   0.48887   0.49003   0.50193   0.50375
 Alpha virt. eigenvalues --    0.50458   0.52023   0.52340   0.52614   0.53938
 Alpha virt. eigenvalues --    0.54215   0.55422   0.55546   0.55855   0.57505
 Alpha virt. eigenvalues --    0.58257   0.59732   0.61074   0.61810   0.62271
 Alpha virt. eigenvalues --    0.62995   0.63218   0.65007   0.65472   0.67547
 Alpha virt. eigenvalues --    0.69742   0.70808   0.71024   0.71854   0.72493
 Alpha virt. eigenvalues --    0.74777   0.75837   0.76226   0.76690   0.77497
 Alpha virt. eigenvalues --    0.77826   0.78190   0.78378   0.79559   0.80255
 Alpha virt. eigenvalues --    0.81353   0.81961   0.82267   0.83284   0.85114
 Alpha virt. eigenvalues --    0.85917   0.87623   0.87704   0.89499   0.90090
 Alpha virt. eigenvalues --    0.90303   0.91772   0.93688   0.94565   0.96176
 Alpha virt. eigenvalues --    0.96312   0.97933   1.00104   1.01525   1.01740
 Alpha virt. eigenvalues --    1.02567   1.03036   1.03256   1.04480   1.07177
 Alpha virt. eigenvalues --    1.19971   1.21847   1.22350   1.25633   1.27504
 Alpha virt. eigenvalues --    1.28802   1.33783   1.34162   1.34303   1.36179
 Alpha virt. eigenvalues --    1.38932   1.40806   1.41018   1.41755   1.43418
 Alpha virt. eigenvalues --    1.43969   1.45253   1.45876   1.46747   1.46868
 Alpha virt. eigenvalues --    1.47557   1.48268   1.51421   1.53421   1.53438
 Alpha virt. eigenvalues --    1.55841   1.56019   1.56332   1.57341   1.62677
 Alpha virt. eigenvalues --    1.62686   1.63455   1.63782   1.64994   1.67751
 Alpha virt. eigenvalues --    1.68684   1.68793   1.70467   1.73664   1.74502
 Alpha virt. eigenvalues --    1.76025   1.77844   1.79592   1.79807   1.80613
 Alpha virt. eigenvalues --    1.80639   1.82691   1.82822   1.83314   1.83764
 Alpha virt. eigenvalues --    1.84810   1.85658   1.87117   1.88172   1.90491
 Alpha virt. eigenvalues --    1.93530   1.94374   1.97367   1.97509   1.98644
 Alpha virt. eigenvalues --    1.99948   2.02307   2.04952   2.06800   2.11449
 Alpha virt. eigenvalues --    2.12217   2.13885   2.14685   2.18173   2.21888
 Alpha virt. eigenvalues --    2.22488   2.27185   2.29865   2.33063   2.33456
 Alpha virt. eigenvalues --    2.35623   2.37978   2.39715   2.41338   2.42644
 Alpha virt. eigenvalues --    2.46065   2.46104   2.47119   2.51709   2.52305
 Alpha virt. eigenvalues --    2.54219   2.56051   2.57385   2.58352   2.59909
 Alpha virt. eigenvalues --    2.60160   2.60984   2.61707   2.62843   2.63688
 Alpha virt. eigenvalues --    2.64985   2.65220   2.65586   2.67841   2.68205
 Alpha virt. eigenvalues --    2.69512   2.70901   2.71215   2.72659   2.75010
 Alpha virt. eigenvalues --    2.76271   2.77744   2.79722   2.79753   2.83202
 Alpha virt. eigenvalues --    2.83862   2.86085   2.91676   2.98960   2.99798
 Alpha virt. eigenvalues --    3.01101   3.04434   3.05083   3.11739   3.13113
 Alpha virt. eigenvalues --    3.18145   3.24291   3.25843   3.28093   3.29892
 Alpha virt. eigenvalues --    3.31546   3.32547   3.42768   3.45626   3.46206
 Alpha virt. eigenvalues --    3.47185   3.48705   3.54722   3.64226   3.65127
 Alpha virt. eigenvalues --    3.68552   3.91675   3.93793   3.95403   3.96339
 Alpha virt. eigenvalues --    4.03133   4.04119   4.07525   4.11241   4.35678
 Alpha virt. eigenvalues --    4.56440   4.68061   4.70396  23.45808  23.59714
 Alpha virt. eigenvalues --   23.78685  23.84925  23.86752  23.87764  23.88987
 Alpha virt. eigenvalues --   23.90357  23.95446  23.97076  24.00078  24.01678
 Alpha virt. eigenvalues --   24.09270  24.11400
          Condensed to atoms (all electrons):
               1          2          3          4          5          6
     1  C   11.684209   0.671768  -1.249409   1.767806  -0.268692  -0.027589
     2  C    0.671768   6.357136   0.415691  -0.708021  -0.090211  -0.007374
     3  C   -1.249409   0.415691   7.655762   0.242788   0.047604   0.007214
     4  C    1.767806  -0.708021   0.242788   8.421138   0.395128  -0.073845
     5  C   -0.268692  -0.090211   0.047604   0.395128   8.867393   0.268088
     6  C   -0.027589  -0.007374   0.007214  -0.073845   0.268088   6.469989
     7  C   -0.078830   0.027326  -0.029612  -0.082591  -0.280631   0.285127
     8  C   -0.168025  -0.052972  -0.079083   0.291870   1.428412  -1.025522
     9  C   -2.534629  -0.060711   0.281661  -1.256746  -0.817974   0.140247
    10  C    0.590732   0.132459  -1.243177  -1.104456  -0.817425  -0.213776
    11  C   -3.074009  -0.589295   1.391170  -2.051624  -1.823439  -0.017640
    12  C   -0.650441   0.222566  -0.567832   0.510369   1.234863  -0.368765
    13  C    0.276154  -0.096032  -0.488309  -0.694043  -2.727407   1.214094
    14  C   -1.077414  -0.204747  -0.272899  -0.210668   0.222465  -0.517322
    15  H    0.399829  -0.052954  -0.009061   0.023762   0.004152   0.000083
    16  H   -0.058102   0.393041  -0.004322  -0.011430  -0.001804  -0.000213
    17  H    0.001577  -0.036353   0.377821  -0.035685   0.000629   0.000257
    18  H    0.048554   0.004494  -0.134806   0.450328   0.010946  -0.004848
    19  H   -0.018171   0.005705   0.028099  -0.035399  -0.075074   0.037899
    20  H    0.004718  -0.000019  -0.001214   0.022340   0.415437  -0.084381
    21  H   -0.001769  -0.000219   0.000425  -0.000663  -0.059068   0.396241
    22  H    0.000996   0.000218  -0.000430  -0.000251   0.012828  -0.020647
    23  H   -0.016831  -0.004904   0.003360   0.003661   0.025261   0.010148
    24  H    0.043526   0.012920  -0.004408  -0.005599  -0.019062   0.002721
    25  H    0.043526   0.012920  -0.004408  -0.005599  -0.019062   0.002721
               7          8          9         10         11         12
     1  C   -0.078830  -0.168025  -2.534629   0.590732  -3.074009  -0.650441
     2  C    0.027326  -0.052972  -0.060711   0.132459  -0.589295   0.222566
     3  C   -0.029612  -0.079083   0.281661  -1.243177   1.391170  -0.567832
     4  C   -0.082591   0.291870  -1.256746  -1.104456  -2.051624   0.510369
     5  C   -0.280631   1.428412  -0.817974  -0.817425  -1.823439   1.234863
     6  C    0.285127  -1.025522   0.140247  -0.213776  -0.017640  -0.368765
     7  C    7.895029   1.273043  -1.100932   0.317579   0.029586  -0.349438
     8  C    1.273043   9.860478  -2.873226  -0.563208  -0.139189  -0.923550
     9  C   -1.100932  -2.873226   9.818098   0.267464   2.878403  -0.906287
    10  C    0.317579  -0.563208   0.267464  10.358390  -2.162697   0.841188
    11  C    0.029586  -0.139189   2.878403  -2.162697  18.603631  -5.152905
    12  C   -0.349438  -0.923550  -0.906287   0.841188  -5.152905  18.000507
    13  C   -2.512053  -1.704054   1.918224  -2.058684   2.674956  -5.921087
    14  C    0.740071   0.046470  -0.191786   1.210360  -4.193239  -0.282441
    15  H   -0.004023   0.000104   0.020066  -0.001060  -0.066048   0.052215
    16  H    0.000637   0.002162   0.012943  -0.013366   0.086006  -0.062761
    17  H   -0.000540  -0.001797  -0.003857   0.010727  -0.020142   0.049331
    18  H    0.004176   0.015757  -0.033403   0.102268  -0.063902  -0.080248
    19  H   -0.013958  -0.044069   0.060073   0.398038   0.052096  -0.167501
    20  H    0.000148   0.047500  -0.029980   0.024382  -0.013650   0.009235
    21  H   -0.030369  -0.018849   0.003230   0.010944  -0.004903  -0.001942
    22  H    0.368852  -0.019597  -0.000214  -0.013581   0.003703  -0.004532
    23  H   -0.113645   0.335985   0.080070  -0.003276  -0.018359   0.013207
    24  H    0.020940   0.037582   0.345366   0.005342   0.024623  -0.081647
    25  H    0.020940   0.037582   0.345366   0.005342   0.024623  -0.081647
              13         14         15         16         17         18
     1  C    0.276154  -1.077414   0.399829  -0.058102   0.001577   0.048554
     2  C   -0.096032  -0.204747  -0.052954   0.393041  -0.036353   0.004494
     3  C   -0.488309  -0.272899  -0.009061  -0.004322   0.377821  -0.134806
     4  C   -0.694043  -0.210668   0.023762  -0.011430  -0.035685   0.450328
     5  C   -2.727407   0.222465   0.004152  -0.001804   0.000629   0.010946
     6  C    1.214094  -0.517322   0.000083  -0.000213   0.000257  -0.004848
     7  C   -2.512053   0.740071  -0.004023   0.000637  -0.000540   0.004176
     8  C   -1.704054   0.046470   0.000104   0.002162  -0.001797   0.015757
     9  C    1.918224  -0.191786   0.020066   0.012943  -0.003857  -0.033403
    10  C   -2.058684   1.210360  -0.001060  -0.013366   0.010727   0.102268
    11  C    2.674956  -4.193239  -0.066048   0.086006  -0.020142  -0.063902
    12  C   -5.921087  -0.282441   0.052215  -0.062761   0.049331  -0.080248
    13  C   17.409370  -1.347986  -0.020157   0.005208  -0.008156   0.010483
    14  C   -1.347986  12.178978   0.002244  -0.011171   0.005710   0.009043
    15  H   -0.020157   0.002244   0.429757  -0.007942   0.001520   0.000401
    16  H    0.005208  -0.011171  -0.007942   0.416391  -0.007460   0.001856
    17  H   -0.008156   0.005710   0.001520  -0.007460   0.427513  -0.011208
    18  H    0.010483   0.009043   0.000401   0.001856  -0.011208   0.465736
    19  H    0.086372   0.047797  -0.000167  -0.000111   0.000265  -0.001617
    20  H   -0.010665  -0.054858  -0.000031   0.000002  -0.000067   0.001143
    21  H    0.020940   0.033554  -0.000012  -0.000005   0.000007  -0.000189
    22  H    0.045558  -0.039991  -0.000063   0.000008  -0.000007   0.000052
    23  H    0.002766   0.003147   0.000753  -0.000229   0.000024  -0.000188
    24  H    0.006313  -0.054441  -0.000268   0.000690  -0.000208   0.000231
    25  H    0.006313  -0.054441  -0.000268   0.000690  -0.000208   0.000231
              19         20         21         22         23         24
     1  C   -0.018171   0.004718  -0.001769   0.000996  -0.016831   0.043526
     2  C    0.005705  -0.000019  -0.000219   0.000218  -0.004904   0.012920
     3  C    0.028099  -0.001214   0.000425  -0.000430   0.003360  -0.004408
     4  C   -0.035399   0.022340  -0.000663  -0.000251   0.003661  -0.005599
     5  C   -0.075074   0.415437  -0.059068   0.012828   0.025261  -0.019062
     6  C    0.037899  -0.084381   0.396241  -0.020647   0.010148   0.002721
     7  C   -0.013958   0.000148  -0.030369   0.368852  -0.113645   0.020940
     8  C   -0.044069   0.047500  -0.018849  -0.019597   0.335985   0.037582
     9  C    0.060073  -0.029980   0.003230  -0.000214   0.080070   0.345366
    10  C    0.398038   0.024382   0.010944  -0.013581  -0.003276   0.005342
    11  C    0.052096  -0.013650  -0.004903   0.003703  -0.018359   0.024623
    12  C   -0.167501   0.009235  -0.001942  -0.004532   0.013207  -0.081647
    13  C    0.086372  -0.010665   0.020940   0.045558   0.002766   0.006313
    14  C    0.047797  -0.054858   0.033554  -0.039991   0.003147  -0.054441
    15  H   -0.000167  -0.000031  -0.000012  -0.000063   0.000753  -0.000268
    16  H   -0.000111   0.000002  -0.000005   0.000008  -0.000229   0.000690
    17  H    0.000265  -0.000067   0.000007  -0.000007   0.000024  -0.000208
    18  H   -0.001617   0.001143  -0.000189   0.000052  -0.000188   0.000231
    19  H    0.424623  -0.005384   0.001334  -0.000554   0.000419   0.000831
    20  H   -0.005384   0.434947  -0.008592   0.002014  -0.000083   0.000107
    21  H    0.001334  -0.008592   0.419432  -0.006056   0.001316  -0.000056
    22  H   -0.000554   0.002014  -0.006056   0.418537  -0.010626   0.000479
    23  H    0.000419  -0.000083   0.001316  -0.010626   0.452308  -0.003041
    24  H    0.000831   0.000107  -0.000056   0.000479  -0.003041   0.497518
    25  H    0.000831   0.000107  -0.000056   0.000479  -0.003041  -0.081890
              25
     1  C    0.043526
     2  C    0.012920
     3  C   -0.004408
     4  C   -0.005599
     5  C   -0.019062
     6  C    0.002721
     7  C    0.020940
     8  C    0.037582
     9  C    0.345366
    10  C    0.005342
    11  C    0.024623
    12  C   -0.081647
    13  C    0.006313
    14  C   -0.054441
    15  H   -0.000268
    16  H    0.000690
    17  H   -0.000208
    18  H    0.000231
    19  H    0.000831
    20  H    0.000107
    21  H   -0.000056
    22  H    0.000479
    23  H   -0.003041
    24  H   -0.081890
    25  H    0.497518
 Mulliken charges:
               1
     1  C   -0.309485
     2  C   -0.352432
     3  C   -0.362625
     4  C    0.147431
     5  C    0.066643
     6  C   -0.472909
     7  C   -0.386830
     8  C    0.236197
     9  C   -0.361469
    10  C   -0.080511
    11  C   -0.377754
    12  C    0.669543
    13  C   -0.088117
    14  C    0.013567
    15  H    0.227169
    16  H    0.259282
    17  H    0.250308
    18  H    0.204712
    19  H    0.217624
    20  H    0.246843
    21  H    0.245325
    22  H    0.262826
    23  H    0.241801
    24  H    0.251430
    25  H    0.251430
 Sum of Mulliken charges =   1.00000
 Mulliken charges with hydrogens summed into heavy atoms:
               1
     1  C   -0.082316
     2  C   -0.093150
     3  C   -0.112316
     4  C    0.352143
     5  C    0.313485
     6  C   -0.227584
     7  C   -0.124003
     8  C    0.477997
     9  C    0.141392
    10  C    0.137113
    11  C   -0.377754
    12  C    0.669543
    13  C   -0.088117
    14  C    0.013567
 Electronic spatial extent (au):  <R**2>=           2856.6925
 Charge=              1.0000 electrons
 Dipole moment (field-independent basis, Debye):
    X=              0.1066    Y=             -0.1050    Z=              0.0000  Tot=              0.1497
 Quadrupole moment (field-independent basis, Debye-Ang):
   XX=            -52.3945   YY=            -35.1143   ZZ=            -84.3371
   XY=              8.8556   XZ=              0.0000   YZ=              0.0000
 Traceless Quadrupole moment (field-independent basis, Debye-Ang):
   XX=              4.8875   YY=             22.1677   ZZ=            -27.0551
   XY=              8.8556   XZ=              0.0000   YZ=              0.0000
 Octapole moment (field-independent basis, Debye-Ang**2):
  XXX=              1.3031  YYY=              6.5520  ZZZ=             -0.0000  XYY=             -2.7507
  XXY=             -6.0170  XXZ=              0.0000  XZZ=             -3.1032  YZZ=              0.8389
  YYZ=              0.0000  XYZ=              0.0000
 Hexadecapole moment (field-independent basis, Debye-Ang**3):
 XXXX=           -882.2490 YYYY=          -1932.6881 ZZZZ=            -99.7804 XXXY=           -310.7933
 XXXZ=             -0.0000 YYYX=           -235.1528 YYYZ=             -0.0000 ZZZX=             -0.0000
 ZZZY=             -0.0000 XXYY=           -466.0275 XXZZ=           -216.5604 YYZZ=           -522.4218
 XXYZ=              0.0000 YYXZ=             -0.0000 ZZXY=           -161.8474
 N-N= 7.805135947697D+02 E-N=-2.797198145136D+03  KE= 5.373355606570D+02
 Symmetry A'   KE= 5.227004758133D+02
 Symmetry A"   KE= 1.463508484373D+01
 Unable to Open any file for archive entry.
 1\1\GINC-GADI-CPU-CLX-0359\SP\RM062X TD-FC\6-311++G(d,p)\C14H11(1+)\TS
 1578\02-Aug-2022\0\\#n M062X/6-311++G(d,p) TD(NStates=1) EmpiricalDisp
 ersion=GD3 SP\\SP_6\\1,1\C,0,0.,2.518655,1.434431\C,0,0.,3.707508,0.70
 9989\C,0,0.,3.655861,-0.68183\C,0,0.,2.439156,-1.345538\C,0,0.,-2.5831
 56,-1.453538\C,0,0.,-3.751861,-0.60983\C,0,0.,-3.647508,0.769989\C,0,0
 .,-2.362655,1.302431\C,0,0.,-0.024,1.393369\C,0,0.,0.036,-1.489189\C,0
 ,0.,1.286055,0.751065\C,0,0.,1.221471,-0.668804\C,0,0.,-1.214055,0.499
 065\C,0,0.,-1.269471,-0.896804\H,0,0.,2.534071,2.517647\H,0,0.,4.66475
 3,1.213689\H,0,0.,4.565262,-1.258349\H,0,0.,2.41955,-2.428059\H,0,0.,0
 .186,-2.574266\H,0,0.,-2.73155,-2.536059\H,0,0.,-4.733262,-1.078349\H,
 0,0.,-4.520753,1.417689\H,0,0.,-2.210071,2.385647\H,0,-0.859585,-0.144
 ,2.085787\H,0,0.859585,-0.144,2.085787\\Version=ES64L-G16RevC.01\State
 =1-A'\HF=-539.7355448\RMSD=6.073e-09\PG=CS [SG(C14H9),X(H2)]\\@
 The archive entry for this job was punched.


 THE PROGRESS OF RIVERS TO THE SEA IS NOT AS RAPID
 AS THAT OF MAN TO ERROR.
                                              -- VOLTAIRE
 Job cpu time:       0 days  0 hours 52 minutes 54.4 seconds.
 Elapsed time:       0 days  0 hours  1 minutes  6.4 seconds.
 File lengths (MBytes):  RWF=    460 Int=      0 D2E=      0 Chk=     15 Scr=      1
 Normal termination of Gaussian 16 at Tue Aug  2 13:21:21 2022.
