 Entering Gaussian System, Link 0=g16
 Initial command:
 /apps/gaussian/g16c01/g16/l1.exe "/jobfs/53803768.gadi-pbs/Gau-186833.inp" -scrdir="/jobfs/53803768.gadi-pbs/"
 Entering Link 1 = /apps/gaussian/g16c01/g16/l1.exe PID=    186834.
  
 Copyright (c) 1988-2019, Gaussian, Inc.  All Rights Reserved.
  
 This is part of the Gaussian(R) 16 program.  It is based on
 the Gaussian(R) 09 system (copyright 2009, Gaussian, Inc.),
 the Gaussian(R) 03 system (copyright 2003, Gaussian, Inc.),
 the Gaussian(R) 98 system (copyright 1998, Gaussian, Inc.),
 the Gaussian(R) 94 system (copyright 1995, Gaussian, Inc.),
 the Gaussian 92(TM) system (copyright 1992, Gaussian, Inc.),
 the Gaussian 90(TM) system (copyright 1990, Gaussian, Inc.),
 the Gaussian 88(TM) system (copyright 1988, Gaussian, Inc.),
 the Gaussian 86(TM) system (copyright 1986, Carnegie Mellon
 University), and the Gaussian 82(TM) system (copyright 1983,
 Carnegie Mellon University). Gaussian is a federally registered
 trademark of Gaussian, Inc.
  
 This software contains proprietary and confidential information,
 including trade secrets, belonging to Gaussian, Inc.
  
 This software is provided under written license and may be
 used, copied, transmitted, or stored only in accord with that
 written license.
  
 The following legend is applicable only to US Government
 contracts under FAR:
  
                    RESTRICTED RIGHTS LEGEND
  
 Use, reproduction and disclosure by the US Government is
 subject to restrictions as set forth in subparagraphs (a)
 and (c) of the Commercial Computer Software - Restricted
 Rights clause in FAR 52.227-19.
  
 Gaussian, Inc.
 340 Quinnipiac St., Bldg. 40, Wallingford CT 06492
  
  
 ---------------------------------------------------------------
 Warning -- This program may not be used in any manner that
 competes with the business of Gaussian, Inc. or will provide
 assistance to any competitor of Gaussian, Inc.  The licensee
 of this program is prohibited from giving any competitor of
 Gaussian, Inc. access to this program.  By using this program,
 the user acknowledges that Gaussian, Inc. is engaged in the
 business of creating and licensing software in the field of
 computational chemistry and represents and warrants to the
 licensee that it is not a competitor of Gaussian, Inc. and that
 it will not use this program in any manner prohibited above.
 ---------------------------------------------------------------
  

 Cite this work as:
 Gaussian 16, Revision C.01,
 M. J. Frisch, G. W. Trucks, H. B. Schlegel, G. E. Scuseria, 
 M. A. Robb, J. R. Cheeseman, G. Scalmani, V. Barone, 
 G. A. Petersson, H. Nakatsuji, X. Li, M. Caricato, A. V. Marenich, 
 J. Bloino, B. G. Janesko, R. Gomperts, B. Mennucci, H. P. Hratchian, 
 J. V. Ortiz, A. F. Izmaylov, J. L. Sonnenberg, D. Williams-Young, 
 F. Ding, F. Lipparini, F. Egidi, J. Goings, B. Peng, A. Petrone, 
 T. Henderson, D. Ranasinghe, V. G. Zakrzewski, J. Gao, N. Rega, 
 G. Zheng, W. Liang, M. Hada, M. Ehara, K. Toyota, R. Fukuda, 
 J. Hasegawa, M. Ishida, T. Nakajima, Y. Honda, O. Kitao, H. Nakai, 
 T. Vreven, K. Throssell, J. A. Montgomery, Jr., J. E. Peralta, 
 F. Ogliaro, M. J. Bearpark, J. J. Heyd, E. N. Brothers, K. N. Kudin, 
 V. N. Staroverov, T. A. Keith, R. Kobayashi, J. Normand, 
 K. Raghavachari, A. P. Rendell, J. C. Burant, S. S. Iyengar, 
 J. Tomasi, M. Cossi, J. M. Millam, M. Klene, C. Adamo, R. Cammi, 
 J. W. Ochterski, R. L. Martin, K. Morokuma, O. Farkas, 
 J. B. Foresman, and D. J. Fox, Gaussian, Inc., Wallingford CT, 2019.
 
 ******************************************
 Gaussian 16:  ES64L-G16RevC.01  3-Jul-2019
                 2-Aug-2022 
 ******************************************
 %NProcShared=48
 Will use up to   48 processors via shared memory.
 %mem = 190GB
 ---------------------------------------------------------------
 #n M062X/6-311++G(d,p) TD(NStates=1) EmpiricalDispersion=GD3 SP
 ---------------------------------------------------------------
 1/38=1,172=1/1;
 2/12=2,17=6,18=5,40=1/2;
 3/5=4,6=6,7=1111,11=9,25=1,30=1,74=-55,124=31/1,2,3,8;
 4//1;
 5/5=2,38=5/2;
 8/6=1,10=2,108=1/1;
 9/41=1,42=1,70=2/14;
 6/7=2,8=2,9=2,10=2/1;
 99/5=1,9=1/99;
 -----
 SP_-2
 -----
 Symbolic Z-matrix:
 Charge =  1 Multiplicity = 1
 C                     0.        2.57066   1.32243 
 C                     0.        3.73951   0.54599 
 C                     0.        3.65986  -0.83783 
 C                     0.        2.39116  -1.44154 
 C                     0.       -2.34316  -1.40554 
 C                     0.       -3.62786  -0.86183 
 C                     0.       -3.75951   0.52599 
 C                     0.       -2.62265   1.36643 
 C                     0.        0.008     1.57337 
 C                     0.       -0.012    -1.30919 
 C                     0.        1.27406   0.73907 
 C                     0.        1.22947  -0.6648 
 C                     0.       -1.29806   0.82307 
 C                     0.       -1.21347  -0.5888 
 H                     0.        2.66607   2.40565 
 H                     0.        4.70075   1.03769 
 H                     0.        4.55726  -1.45035 
 H                     0.        2.30355  -2.52406 
 H                     0.       -0.062    -2.38227 
 H                     0.       -2.19955  -2.48806 
 H                     0.       -4.50126  -1.51035 
 H                     0.       -4.74875   0.96969 
 H                     0.       -2.77407   2.44965 
 H                    -0.85959   0.048     2.26579 
 H                     0.85959   0.048     2.26579 
 
                          Input orientation:                          
 ---------------------------------------------------------------------
 Center     Atomic      Atomic             Coordinates (Angstroms)
 Number     Number       Type             X           Y           Z
 ---------------------------------------------------------------------
      1          6           0        0.000000    2.570655    1.322431
      2          6           0        0.000000    3.739508    0.545989
      3          6           0        0.000000    3.659861   -0.837830
      4          6           0        0.000000    2.391156   -1.441538
      5          6           0        0.000000   -2.343156   -1.405538
      6          6           0        0.000000   -3.627861   -0.861830
      7          6           0        0.000000   -3.759508    0.525989
      8          6           0        0.000000   -2.622655    1.366431
      9          6           0        0.000000    0.008000    1.573369
     10          6           0        0.000000   -0.012000   -1.309189
     11          6           0        0.000000    1.274055    0.739065
     12          6           0        0.000000    1.229471   -0.664804
     13          6           0        0.000000   -1.298055    0.823065
     14          6           0        0.000000   -1.213471   -0.588804
     15          1           0        0.000000    2.666071    2.405647
     16          1           0        0.000000    4.700753    1.037689
     17          1           0        0.000000    4.557262   -1.450349
     18          1           0        0.000000    2.303550   -2.524059
     19          1           0        0.000000   -0.062000   -2.382266
     20          1           0        0.000000   -2.199550   -2.488059
     21          1           0        0.000000   -4.501262   -1.510349
     22          1           0        0.000000   -4.748753    0.969689
     23          1           0        0.000000   -2.774071    2.449647
     24          1           0       -0.859585    0.048000    2.265787
     25          1           0        0.859585    0.048000    2.265787
 ---------------------------------------------------------------------
                    Distance matrix (angstroms):
                    1          2          3          4          5
     1  C    0.000000
     2  C    1.403239   0.000000
     3  C    2.419318   1.386109   0.000000
     4  C    2.769791   2.401732   1.405018   0.000000
     5  C    5.620263   6.388056   6.029801   4.734449   0.000000
     6  C    6.572107   7.500672   7.287762   6.046869   1.395022
     7  C    6.380069   7.499043   7.543675   6.457695   2.395172
     8  C    5.193496   6.414846   6.657986   5.746563   2.786024
     9  C    2.574912   3.870357   4.376068   3.843058   3.794973
    10  C    3.687212   4.185152   3.701992   2.406798   2.333146
    11  C    1.421790   2.473002   2.859837   2.450091   4.205180
    12  C    2.397473   2.786809   2.436541   1.397436   3.648609
    13  C    3.900805   5.045177   5.228719   4.328823   2.461485
    14  C    4.239390   5.081314   4.879690   3.704118   1.394002
    15  H    1.087410   2.147230   3.392309   3.856995   6.294242
    16  H    2.149045   1.079704   2.145001   3.388334   7.455603
    17  H    3.410999   2.157333   1.086512   2.166124   6.900563
    18  H    3.855753   3.389273   2.164012   1.086060   4.779432
    19  H    4.544849   4.798556   4.029582   2.627345   2.481465
    20  H    6.105300   6.669172   6.087360   4.708480   1.092005
    21  H    7.618179   8.493457   8.188786   6.892761   2.160650
    22  H    7.327903   8.498829   8.600693   7.536068   3.380621
    23  H    5.462299   6.786061   7.225163   6.466907   3.879193
    24  H    2.827118   4.162190   4.839098   4.469175   4.464879
    25  H    2.827118   4.162190   4.839098   4.469175   4.464879
                    6          7          8          9         10
     6  C    0.000000
     7  C    1.394049   0.000000
     8  C    2.444501   1.413781   0.000000
     9  C    4.376035   3.910386   2.638782   0.000000
    10  C    3.643430   4.172732   3.738243   2.882627   0.000000
    11  C    5.156709   5.038071   3.946890   1.516232   2.418529
    12  C    4.861326   5.129123   4.354858   2.549786   1.398743
    13  C    2.875216   2.479315   1.431716   1.506232   2.490069
    14  C    2.429778   2.779401   2.410133   2.483341   1.400888
    15  H    7.091543   6.694862   5.389860   2.785324   4.579527
    16  H    8.542481   8.475721   7.330783   4.723228   5.264777
    17  H    8.206253   8.548367   7.712682   5.462477   4.571442
    18  H    6.159922   6.787007   6.277213   4.696644   2.614896
    19  H    3.876479   4.704202   4.539789   3.956254   1.074241
    20  H    2.164415   3.393811   3.877642   4.622605   2.484977
    21  H    1.087845   2.167227   3.435845   5.462853   4.493767
    22  H    2.147291   1.084193   2.162798   4.794907   5.256435
    23  H    3.419772   2.161376   1.093748   2.916810   4.664535
    24  H    4.902329   4.273512   2.946205   1.104504   3.677355
    25  H    4.902329   4.273512   2.946205   1.104504   3.677355
                   11         12         13         14         15
    11  C    0.000000
    12  C    1.404577   0.000000
    13  C    2.573481   2.932941   0.000000
    14  C    2.819756   2.444124   1.414400   0.000000
    15  H    2.171452   3.389910   4.268356   4.900774   0.000000
    16  H    3.439685   3.866301   6.002646   6.133802   2.451783
    17  H    3.946262   3.419250   6.281174   5.834691   4.294800
    18  H    3.421672   2.147202   4.916787   4.014305   4.943018
    19  H    3.395254   2.148854   3.435401   2.131289   5.510579
    20  H    4.741335   3.883612   3.431652   2.139982   6.900915
    21  H    6.197915   5.792775   3.962998   3.414501   8.167355
    22  H    6.027222   6.197639   3.453812   3.863563   7.552588
    23  H    4.394703   5.072293   2.196450   3.415795   5.440320
    24  H    2.138452   3.274618   2.152254   3.237111   2.759120
    25  H    2.138452   3.274618   2.152254   3.237111   2.759120
                   16         17         18         19         20
    16  H    0.000000
    17  H    2.492172   0.000000
    18  H    4.293324   2.496412   0.000000
    19  H    5.863438   4.712330   2.369796   0.000000
    20  H    7.748876   6.836033   4.503244   2.140166   0.000000
    21  H    9.548276   9.058723   6.879904   4.524079   2.500759
    22  H    9.449751   9.615534   7.870277   5.762053   4.295865
    23  H    7.607011   8.304120   7.107741   5.541003   4.971017
    24  H    4.888274   5.906098   5.363676   4.728148   5.328172
    25  H    4.888274   5.906098   5.363676   4.728148   5.328172
                   21         22         23         24         25
    21  H    0.000000
    22  H    2.492356   0.000000
    23  H    4.320273   2.467721   0.000000
    24  H    5.974435   5.042578   2.955804   0.000000
    25  H    5.974435   5.042578   2.955804   1.719170   0.000000
 Stoichiometry    C14H11(1+)
 Framework group  CS[SG(C14H9),X(H2)]
 Deg. of freedom    46
 Full point group                 CS      NOp   2
 Largest Abelian subgroup         CS      NOp   2
 Largest concise Abelian subgroup CS      NOp   2
                         Standard orientation:                         
 ---------------------------------------------------------------------
 Center     Atomic      Atomic             Coordinates (Angstroms)
 Number     Number       Type             X           Y           Z
 ---------------------------------------------------------------------
      1          6           0        2.558080   -1.348796    0.000000
      2          6           0        3.734100   -0.583253    0.000000
      3          6           0        3.667321    0.801247    0.000000
      4          6           0        2.404282    1.416722    0.000000
      5          6           0       -2.330160    1.424735    0.000000
      6          6           0       -3.619863    0.892993    0.000000
      7          6           0       -3.764406   -0.493542    0.000000
      8          6           0       -2.635415   -1.344516    0.000000
      9          6           0       -0.006797   -1.575900    0.000000
     10          6           0        0.000000    1.306719    0.000000
     11          6           0        1.266959   -0.753402    0.000000
     12          6           0        1.235427    0.650821    0.000000
     13          6           0       -1.305821   -0.813487    0.000000
     14          6           0       -1.208116    0.597534    0.000000
     15          1           0        2.643422   -2.432852    0.000000
     16          1           0        4.690733   -1.083868    0.000000
     17          1           0        4.570377    1.405397    0.000000
     18          1           0        2.326743    2.500011    0.000000
     19          1           0       -0.040022    2.380215    0.000000
     20          1           0       -2.176497    2.505874    0.000000
     21          1           0       -4.487198    1.549603    0.000000
     22          1           0       -4.757733   -0.928027    0.000000
     23          1           0       -2.796894   -2.426278    0.000000
     24          1           0        0.026764   -2.268660    0.859585
     25          1           0        0.026764   -2.268660   -0.859585
 ---------------------------------------------------------------------
 Rotational constants (GHZ):           2.1127995           0.4429475           0.3669704
 Standard basis: 6-311++G(d,p) (5D, 7F)
 There are   299 symmetry adapted cartesian basis functions of A'  symmetry.
 There are   100 symmetry adapted cartesian basis functions of A"  symmetry.
 There are   285 symmetry adapted basis functions of A'  symmetry.
 There are   100 symmetry adapted basis functions of A"  symmetry.
   385 basis functions,   603 primitive gaussians,   399 cartesian basis functions
    47 alpha electrons       47 beta electrons
       nuclear repulsion energy       778.8643086657 Hartrees.
 NAtoms=   25 NActive=   25 NUniq=   24 SFac= 1.09D+00 NAtFMM=   60 NAOKFM=F Big=F
 Integral buffers will be    131072 words long.
 Regular integral format.
 Two-electron integral symmetry is turned on.
 Nuclear repulsion after empirical dispersion term =      778.8633255249 Hartrees.
 One-electron integrals computed using PRISM.
 NBasis=   385 RedAO= T EigKep=  1.69D-06  NBF=   285   100
 NBsUse=   379 1.00D-06 EigRej=  6.73D-07 NBFU=   279   100
 ExpMin= 3.60D-02 ExpMax= 4.56D+03 ExpMxC= 6.82D+02 IAcc=3 IRadAn=         5 AccDes= 0.00D+00
 Harris functional with IExCor= 1009 and IRadAn=       5 diagonalized for initial guess.
 HarFok:  IExCor= 1009 AccDes= 0.00D+00 IRadAn=         5 IDoV= 1 UseB2=F ITyADJ=14
 ICtDFT=  3500011 ScaDFX=  1.000000  1.000000  1.000000  1.000000
 FoFCou: FMM=F IPFlag=           0 FMFlag=      100000 FMFlg1=           0
         NFxFlg=           0 DoJE=T BraDBF=F KetDBF=T FulRan=T
         wScrn=  0.000000 ICntrl=       500 IOpCl=  0 I1Cent=   200000004 NGrid=           0
         NMat0=    1 NMatS0=      1 NMatT0=    0 NMatD0=    1 NMtDS0=    0 NMtDT0=    0
 Petite list used in FoFCou.
 Initial guess orbital symmetries:
       Occupied  (A') (A') (A') (A') (A') (A') (A') (A') (A') (A')
                 (A') (A') (A') (A') (A') (A') (A') (A') (A') (A')
                 (A') (A') (A') (A') (A') (A') (A') (A') (A') (A')
                 (A') (A') (A") (A') (A') (A') (A') (A') (A") (A')
                 (A") (A') (A') (A") (A") (A") (A")
       Virtual   (A") (A") (A") (A") (A") (A') (A') (A') (A') (A")
                 (A") (A') (A') (A') (A") (A') (A') (A') (A') (A')
                 (A") (A") (A') (A') (A') (A") (A') (A") (A') (A')
                 (A') (A') (A') (A") (A') (A') (A') (A") (A') (A")
                 (A') (A') (A') (A") (A') (A') (A') (A') (A') (A")
                 (A') (A") (A') (A") (A') (A') (A") (A') (A') (A")
                 (A') (A') (A') (A') (A') (A') (A') (A") (A') (A")
                 (A') (A') (A') (A') (A') (A') (A') (A') (A') (A')
                 (A') (A') (A') (A') (A') (A') (A') (A') (A') (A')
                 (A') (A') (A') (A') (A') (A') (A') (A") (A") (A')
                 (A') (A") (A') (A") (A') (A') (A") (A") (A') (A")
                 (A') (A") (A') (A') (A") (A') (A') (A") (A') (A")
                 (A") (A") (A') (A') (A") (A') (A') (A') (A') (A')
                 (A") (A') (A') (A') (A') (A') (A') (A') (A") (A')
                 (A') (A') (A') (A') (A') (A') (A') (A') (A') (A')
                 (A") (A") (A") (A") (A') (A') (A') (A') (A") (A")
                 (A') (A") (A') (A") (A") (A") (A') (A') (A') (A')
                 (A") (A') (A') (A") (A') (A') (A') (A') (A') (A')
                 (A') (A") (A') (A') (A") (A') (A") (A') (A") (A")
                 (A") (A') (A') (A") (A') (A') (A') (A") (A') (A')
                 (A") (A") (A") (A') (A') (A') (A") (A") (A') (A')
                 (A") (A") (A") (A') (A') (A') (A') (A') (A") (A')
                 (A") (A') (A') (A') (A") (A') (A') (A') (A") (A")
                 (A') (A') (A') (A") (A') (A') (A") (A') (A") (A')
                 (A") (A') (A') (A') (A') (A") (A') (A') (A') (A')
                 (A") (A') (A") (A') (A") (A') (A') (A") (A') (A')
                 (A") (A') (A') (A') (A") (A') (A') (A') (A") (A')
                 (A") (A') (A') (A') (A") (A") (A') (A') (A") (A')
                 (A") (A') (A") (A') (A") (A") (A') (A') (A') (A')
                 (A') (A') (A') (A') (A') (A') (A') (A') (A') (A')
                 (A') (A') (A') (A") (A') (A') (A') (A') (A') (A')
                 (A') (A') (A') (A') (A') (A') (A') (A') (A') (A')
                 (A') (A') (A') (A') (A') (A') (A') (A') (A') (A')
                 (A') (A')
 The electronic state of the initial guess is 1-A'.
 Requested convergence on RMS density matrix=1.00D-08 within 128 cycles.
 Requested convergence on MAX density matrix=1.00D-06.
 Requested convergence on             energy=1.00D-06.
 No special actions if energy rises.
 SCF Done:  E(RM062X) =  -539.754748470     A.U. after   15 cycles
            NFock= 15  Conv=0.63D-08     -V/T= 2.0046
 DoSCS=F DFT=T ScalE2(SS,OS)=  1.000000  1.000000
 ExpMin= 3.60D-02 ExpMax= 4.56D+03 ExpMxC= 6.82D+02 IAcc=3 IRadAn=         5 AccDes= 0.00D+00
 HarFok:  IExCor=  205 AccDes= 0.00D+00 IRadAn=         5 IDoV=-2 UseB2=F ITyADJ=14
 ICtDFT= 12500011 ScaDFX=  1.000000  1.000000  1.000000  1.000000
 Range of M.O.s used for correlation:    15   379
 NBasis=   385 NAE=    47 NBE=    47 NFC=    14 NFV=     0
 NROrb=    365 NOA=    33 NOB=    33 NVA=   332 NVB=   332

 **** Warning!!: The largest alpha MO coefficient is  0.14256712D+03

 Orbital symmetries:
       Occupied  (A') (A') (A') (A') (A') (A') (A') (A') (A') (A')
                 (A') (A') (A') (A') (A') (A') (A') (A') (A') (A')
                 (A') (A') (A') (A') (A') (A') (A') (A') (A') (A')
                 (A') (A') (A") (A') (A') (A') (A') (A") (A") (A')
                 (A') (A') (A') (A") (A") (A") (A")
       Virtual   (A") (A") (A") (A") (A') (A') (A') (A') (A") (A')
                 (A') (A") (A') (A') (A") (A') (A") (A') (A') (A')
                 (A") (A") (A') (A') (A') (A") (A') (A") (A") (A')
                 (A') (A") (A') (A') (A') (A') (A') (A') (A") (A')
                 (A") (A') (A') (A") (A') (A") (A") (A') (A") (A')
                 (A') (A') (A') (A') (A') (A") (A') (A') (A') (A')
                 (A') (A") (A') (A') (A') (A") (A') (A') (A') (A')
                 (A') (A') (A') (A') (A') (A') (A') (A') (A') (A')
                 (A') (A') (A') (A') (A') (A') (A') (A') (A') (A')
                 (A') (A') (A') (A") (A') (A") (A') (A") (A') (A")
                 (A') (A') (A') (A') (A") (A") (A') (A") (A') (A')
                 (A") (A') (A") (A') (A") (A') (A') (A") (A') (A")
                 (A") (A') (A") (A') (A') (A') (A") (A') (A') (A')
                 (A') (A') (A') (A') (A') (A') (A') (A') (A') (A')
                 (A') (A') (A') (A') (A") (A') (A') (A') (A') (A')
                 (A') (A') (A") (A') (A") (A') (A") (A") (A') (A')
                 (A") (A") (A') (A") (A') (A") (A") (A") (A') (A')
                 (A') (A') (A") (A') (A") (A') (A') (A') (A') (A")
                 (A') (A') (A') (A") (A') (A") (A') (A') (A") (A")
                 (A") (A') (A') (A") (A') (A') (A") (A') (A') (A')
                 (A") (A") (A") (A') (A') (A") (A') (A") (A') (A')
                 (A") (A') (A") (A") (A') (A') (A') (A') (A") (A')
                 (A") (A') (A') (A') (A") (A') (A') (A') (A") (A")
                 (A') (A') (A') (A") (A') (A') (A") (A') (A") (A')
                 (A") (A') (A') (A') (A") (A') (A') (A') (A') (A')
                 (A') (A") (A') (A') (A') (A") (A') (A") (A") (A')
                 (A') (A') (A') (A') (A') (A") (A') (A') (A') (A')
                 (A') (A") (A') (A") (A") (A') (A") (A') (A") (A")
                 (A') (A") (A") (A') (A") (A") (A') (A') (A') (A')
                 (A') (A') (A') (A') (A') (A') (A') (A') (A') (A')
                 (A') (A') (A') (A") (A') (A') (A') (A') (A') (A')
                 (A') (A') (A') (A') (A') (A') (A') (A') (A') (A')
                 (A') (A') (A') (A') (A') (A') (A') (A') (A') (A')
                 (A') (A')
     4 initial guesses have been made.
 Convergence on wavefunction:    0.001000000000000
 Iteration     1 Dimension     4 NMult     0 NNew      4
 CISAX will form     4 AO SS matrices at one time.
 Iteration     2 Dimension     6 NMult     4 NNew      2
 Iteration     3 Dimension     8 NMult     6 NNew      2
 Iteration     4 Dimension    10 NMult     8 NNew      2
 Iteration     5 Dimension    12 NMult    10 NNew      2
 Iteration     6 Dimension    14 NMult    12 NNew      2
 ***********************************************************************
 Excited states from <AA,BB:AA,BB> singles matrix:
 ***********************************************************************
 
 Ground to excited state transition densities written to RWF  633
 Ground to excited state transition electric dipole moments (Au):
       state          X           Y           Z        Dip. S.      Osc.
         1        -0.0483     -0.6567      0.0000      0.4336      0.0320
 Ground to excited state transition velocity dipole moments (Au):
       state          X           Y           Z        Dip. S.      Osc.
         1         0.0060      0.0802     -0.0000      0.0065      0.0390
 Ground to excited state transition magnetic dipole moments (Au):
       state          X           Y           Z
         1         0.0000     -0.0000      0.0016
 Ground to excited state transition velocity quadrupole moments (Au):
       state          XX          YY          ZZ          XY          XZ          YZ
         1         0.3282      0.0135     -0.0095      0.0142      0.0000      0.0000
 <0|del|b> * <b|rxdel|0> + <0|del|b> * <b|delr+rdel|0>
 Rotatory Strengths (R) in cgs (10**-40 erg-esu-cm/Gauss)
       state          XX          YY          ZZ    R(velocity)    E-M Angle
         1        -0.0000      0.0000      0.0000      0.0000       90.00
 1/2[<0|r|b>*<b|rxdel|0> + (<0|rxdel|b>*<b|r|0>)*]
 Rotatory Strengths (R) in cgs (10**-40 erg-esu-cm/Gauss)
       state          XX          YY          ZZ     R(length)
         1         0.0000     -0.0000     -0.0000      0.0000
  1/2[<0|del|b>*<b|r|0> + (<0|r|b>*<b|del|0>)*] (Au)
       state          X           Y           Z        Dip. S.   Osc.(frdel)
         1        -0.0003     -0.0527     -0.0000      0.0529      0.0353

 Excitation energies and oscillator strengths:
 
 Excited State   1:      Singlet-A'     3.0088 eV  412.07 nm  f=0.0320  <S**2>=0.000
      47 -> 48         0.70312
 This state for optimization and/or second-order correction.
 Total Energy, E(TD-HF/TD-DFT) =  -539.644177127    
 Copying the excited state density for this state as the 1-particle RhoCI density.
 SavETr:  write IOETrn=   770 NScale= 10 NData=  16 NLR=1 NState=    1 LETran=      28.

 **********************************************************************

            Population analysis using the SCF Density.

 **********************************************************************

 Orbital symmetries:
       Occupied  (A') (A') (A') (A') (A') (A') (A') (A') (A') (A')
                 (A') (A') (A') (A') (A') (A') (A') (A') (A') (A')
                 (A') (A') (A') (A') (A') (A') (A') (A') (A') (A')
                 (A') (A') (A") (A') (A') (A') (A') (A") (A") (A')
                 (A') (A') (A') (A") (A") (A") (A")
       Virtual   (A") (A") (A") (A") (A') (A') (A') (A') (A") (A')
                 (A') (A") (A') (A') (A") (A') (A") (A') (A') (A')
                 (A") (A") (A') (A') (A') (A") (A') (A") (A") (A')
                 (A') (A") (A') (A') (A') (A') (A') (A') (A") (A')
                 (A") (A') (A') (A") (A') (A") (A") (A') (A") (A')
                 (A') (A') (A') (A') (A') (A") (A') (A') (A') (A')
                 (A') (A") (A') (A') (A') (A") (A') (A') (A') (A')
                 (A') (A') (A') (A') (A') (A') (A') (A') (A') (A')
                 (A') (A') (A') (A') (A') (A') (A') (A') (A') (A')
                 (A') (A') (A') (A") (A') (A") (A') (A") (A') (A")
                 (A') (A') (A') (A') (A") (A") (A') (A") (A') (A')
                 (A") (A') (A") (A') (A") (A') (A') (A") (A') (A")
                 (A") (A') (A") (A') (A') (A') (A") (A') (A') (A')
                 (A') (A') (A') (A') (A') (A') (A') (A') (A') (A')
                 (A') (A') (A') (A') (A") (A') (A') (A') (A') (A')
                 (A') (A') (A") (A') (A") (A') (A") (A") (A') (A')
                 (A") (A") (A') (A") (A') (A") (A") (A") (A') (A')
                 (A') (A') (A") (A') (A") (A') (A') (A') (A') (A")
                 (A') (A') (A') (A") (A') (A") (A') (A') (A") (A")
                 (A") (A') (A') (A") (A') (A') (A") (A') (A') (A')
                 (A") (A") (A") (A') (A') (A") (A') (A") (A') (A')
                 (A") (A') (A") (A") (A') (A') (A') (A') (A") (A')
                 (A") (A') (A') (A') (A") (A') (A') (A') (A") (A")
                 (A') (A') (A') (A") (A') (A') (A") (A') (A") (A')
                 (A") (A') (A') (A') (A") (A') (A') (A') (A') (A')
                 (A') (A") (A') (A') (A') (A") (A') (A") (A") (A')
                 (A') (A') (A') (A') (A') (A") (A') (A') (A') (A')
                 (A') (A") (A') (A") (A") (A') (A") (A') (A") (A")
                 (A') (A") (A") (A') (A") (A") (A') (A') (A') (A')
                 (A') (A') (A') (A') (A') (A') (A') (A') (A') (A')
                 (A') (A') (A') (A") (A') (A') (A') (A') (A') (A')
                 (A') (A') (A') (A') (A') (A') (A') (A') (A') (A')
                 (A') (A') (A') (A') (A') (A') (A') (A') (A') (A')
                 (A') (A')
 The electronic state is 1-A'.
 Alpha  occ. eigenvalues --  -10.76594 -10.74058 -10.73695 -10.71889 -10.71865
 Alpha  occ. eigenvalues --  -10.71779 -10.71511 -10.71451 -10.71384 -10.71102
 Alpha  occ. eigenvalues --  -10.70975 -10.70350 -10.69780 -10.69778  -1.16411
 Alpha  occ. eigenvalues --   -1.12255  -1.06800  -1.05362  -1.01129  -1.00127
 Alpha  occ. eigenvalues --   -0.95588  -0.90883  -0.86502  -0.85818  -0.83670
 Alpha  occ. eigenvalues --   -0.78149  -0.75697  -0.74155  -0.69869  -0.69173
 Alpha  occ. eigenvalues --   -0.68142  -0.67929  -0.67610  -0.64254  -0.63772
 Alpha  occ. eigenvalues --   -0.63259  -0.61985  -0.60306  -0.59500  -0.58938
 Alpha  occ. eigenvalues --   -0.56799  -0.55183  -0.54826  -0.52280  -0.46605
 Alpha  occ. eigenvalues --   -0.45891  -0.44781
 Alpha virt. eigenvalues --   -0.25667  -0.14803  -0.14123  -0.12973  -0.11164
 Alpha virt. eigenvalues --   -0.10102  -0.09245  -0.07982  -0.07941  -0.07479
 Alpha virt. eigenvalues --   -0.07128  -0.06977  -0.05703  -0.05610  -0.05298
 Alpha virt. eigenvalues --   -0.03842  -0.03635  -0.03355  -0.03139  -0.02151
 Alpha virt. eigenvalues --   -0.01403  -0.00858   0.00090   0.00349   0.00589
 Alpha virt. eigenvalues --    0.01005   0.01443   0.01880   0.02447   0.02454
 Alpha virt. eigenvalues --    0.02532   0.02547   0.02613   0.03136   0.03837
 Alpha virt. eigenvalues --    0.04268   0.04539   0.04658   0.05145   0.05409
 Alpha virt. eigenvalues --    0.06036   0.06249   0.06577   0.06784   0.07379
 Alpha virt. eigenvalues --    0.07477   0.08053   0.08314   0.08593   0.08737
 Alpha virt. eigenvalues --    0.09024   0.09560   0.09693   0.10704   0.10813
 Alpha virt. eigenvalues --    0.10917   0.11747   0.12024   0.12728   0.12936
 Alpha virt. eigenvalues --    0.13090   0.13150   0.13971   0.15110   0.15641
 Alpha virt. eigenvalues --    0.16303   0.16773   0.17058   0.17243   0.18190
 Alpha virt. eigenvalues --    0.18275   0.18451   0.19217   0.19505   0.20121
 Alpha virt. eigenvalues --    0.21212   0.21456   0.22772   0.22911   0.23327
 Alpha virt. eigenvalues --    0.23925   0.25002   0.25441   0.26975   0.27205
 Alpha virt. eigenvalues --    0.28747   0.28856   0.30725   0.31670   0.35691
 Alpha virt. eigenvalues --    0.35904   0.38690   0.39064   0.41241   0.41510
 Alpha virt. eigenvalues --    0.42029   0.42250   0.43030   0.43505   0.44251
 Alpha virt. eigenvalues --    0.44296   0.44773   0.46044   0.46492   0.47876
 Alpha virt. eigenvalues --    0.48370   0.48556   0.49234   0.49332   0.50339
 Alpha virt. eigenvalues --    0.50439   0.51323   0.52203   0.53626   0.53977
 Alpha virt. eigenvalues --    0.54510   0.54565   0.55492   0.55835   0.57567
 Alpha virt. eigenvalues --    0.58324   0.58418   0.60877   0.61715   0.62209
 Alpha virt. eigenvalues --    0.63582   0.63849   0.64745   0.65762   0.66914
 Alpha virt. eigenvalues --    0.69459   0.70173   0.70816   0.71779   0.72858
 Alpha virt. eigenvalues --    0.74746   0.75271   0.76196   0.76864   0.76989
 Alpha virt. eigenvalues --    0.77230   0.77739   0.78281   0.80041   0.80769
 Alpha virt. eigenvalues --    0.81768   0.82047   0.82444   0.83838   0.84419
 Alpha virt. eigenvalues --    0.86570   0.87933   0.88490   0.89070   0.90251
 Alpha virt. eigenvalues --    0.90453   0.90905   0.92258   0.94194   0.95087
 Alpha virt. eigenvalues --    0.96932   0.97307   1.00403   1.01337   1.02439
 Alpha virt. eigenvalues --    1.02737   1.03144   1.04864   1.06124   1.07985
 Alpha virt. eigenvalues --    1.21191   1.22081   1.23300   1.26693   1.26992
 Alpha virt. eigenvalues --    1.30791   1.32030   1.34712   1.36826   1.37747
 Alpha virt. eigenvalues --    1.38306   1.39536   1.41170   1.42068   1.43311
 Alpha virt. eigenvalues --    1.43700   1.43702   1.44808   1.45704   1.46574
 Alpha virt. eigenvalues --    1.47216   1.47845   1.51830   1.53130   1.54687
 Alpha virt. eigenvalues --    1.56019   1.56194   1.56257   1.58165   1.61571
 Alpha virt. eigenvalues --    1.62904   1.63124   1.63480   1.65504   1.68021
 Alpha virt. eigenvalues --    1.68523   1.69066   1.69881   1.73269   1.74579
 Alpha virt. eigenvalues --    1.77010   1.77942   1.78371   1.78736   1.79688
 Alpha virt. eigenvalues --    1.80277   1.82104   1.83660   1.84172   1.84635
 Alpha virt. eigenvalues --    1.84707   1.85819   1.86102   1.87656   1.90658
 Alpha virt. eigenvalues --    1.92152   1.94293   1.95339   1.96897   1.98434
 Alpha virt. eigenvalues --    1.99447   2.03070   2.03910   2.06505   2.10571
 Alpha virt. eigenvalues --    2.11247   2.14272   2.16044   2.18627   2.20523
 Alpha virt. eigenvalues --    2.22265   2.27758   2.29491   2.33055   2.33552
 Alpha virt. eigenvalues --    2.34781   2.38014   2.39210   2.41597   2.44119
 Alpha virt. eigenvalues --    2.45339   2.46124   2.48777   2.52078   2.53110
 Alpha virt. eigenvalues --    2.53767   2.55401   2.56658   2.57754   2.57973
 Alpha virt. eigenvalues --    2.59558   2.60115   2.61908   2.62732   2.63680
 Alpha virt. eigenvalues --    2.64415   2.65021   2.65338   2.65748   2.67278
 Alpha virt. eigenvalues --    2.69204   2.70321   2.72233   2.73563   2.74484
 Alpha virt. eigenvalues --    2.76184   2.76682   2.78573   2.79350   2.82509
 Alpha virt. eigenvalues --    2.84080   2.86092   2.91691   2.91844   2.98952
 Alpha virt. eigenvalues --    2.99634   3.03131   3.09413   3.12210   3.13716
 Alpha virt. eigenvalues --    3.20846   3.22589   3.25741   3.27479   3.29090
 Alpha virt. eigenvalues --    3.31140   3.33890   3.41293   3.43385   3.45491
 Alpha virt. eigenvalues --    3.47297   3.48115   3.55034   3.63544   3.66473
 Alpha virt. eigenvalues --    3.67730   3.92536   3.93677   3.94220   3.95580
 Alpha virt. eigenvalues --    4.02919   4.05308   4.06253   4.13554   4.33634
 Alpha virt. eigenvalues --    4.58353   4.68148   4.69783  23.44822  23.61004
 Alpha virt. eigenvalues --   23.81595  23.82323  23.84499  23.88167  23.89132
 Alpha virt. eigenvalues --   23.93432  23.95394  23.96828  23.99483  24.02752
 Alpha virt. eigenvalues --   24.08382  24.09179
          Condensed to atoms (all electrons):
               1          2          3          4          5          6
     1  C   10.239883   0.085385  -0.683308   3.422703  -0.259259  -0.119687
     2  C    0.085385   7.146117   0.135319  -0.971297  -0.038819  -0.013670
     3  C   -0.683308   0.135319   6.989581   0.147724  -0.114106   0.039221
     4  C    3.422703  -0.971297   0.147724  12.270622  -0.955284  -0.140337
     5  C   -0.259259  -0.038819  -0.114106  -0.955284  11.834649   0.543789
     6  C   -0.119687  -0.013670   0.039221  -0.140337   0.543789   7.280027
     7  C    0.019878   0.001840  -0.007975  -0.047156  -0.956337   0.246975
     8  C    0.221081   0.046601  -0.086160  -0.339349   2.948084  -0.371513
     9  C   -0.614148  -0.619053   0.327131  -0.144275  -0.368128   0.381144
    10  C   -1.861163   0.083414  -0.168328  -2.512193  -2.691762  -0.461075
    11  C   -1.138916  -0.365634   1.276457  -1.371244  -1.620685  -0.111108
    12  C   -3.011483   0.948483  -1.500042  -1.906265  -0.325207  -0.119728
    13  C    0.145770  -0.204509   0.060044  -1.490392  -1.819952   1.010231
    14  C   -0.916169  -0.170790  -0.250080  -0.363139  -0.713114  -1.995595
    15  H    0.392629  -0.103176   0.007112   0.031340   0.004699   0.001374
    16  H   -0.014899   0.387725  -0.032706   0.014661  -0.002056  -0.000320
    17  H   -0.043186  -0.008755   0.372452  -0.070975   0.001392   0.000682
    18  H    0.076878   0.009050  -0.097252   0.515003  -0.003421  -0.007026
    19  H   -0.071568  -0.017666   0.078421  -0.091073  -0.033919   0.084768
    20  H    0.006856   0.002548  -0.007833  -0.001824   0.492575  -0.105595
    21  H   -0.001152  -0.000428   0.000558   0.001055  -0.051880   0.359470
    22  H    0.000153   0.000390  -0.000213  -0.002269   0.004408  -0.028979
    23  H    0.004162  -0.001854   0.000514   0.003720   0.034141  -0.000817
    24  H    0.027707   0.012020  -0.000960  -0.007119  -0.007856  -0.001954
    25  H    0.027707   0.012020  -0.000960  -0.007119  -0.007856  -0.001954
               7          8          9         10         11         12
     1  C    0.019878   0.221081  -0.614148  -1.861163  -1.138916  -3.011483
     2  C    0.001840   0.046601  -0.619053   0.083414  -0.365634   0.948483
     3  C   -0.007975  -0.086160   0.327131  -0.168328   1.276457  -1.500042
     4  C   -0.047156  -0.339349  -0.144275  -2.512193  -1.371244  -1.906265
     5  C   -0.956337   2.948084  -0.368128  -2.691762  -1.620685  -0.325207
     6  C    0.246975  -0.371513   0.381144  -0.461075  -0.111108  -0.119728
     7  C    6.695435   0.258546  -0.355097   0.084995  -0.153164  -0.178327
     8  C    0.258546   9.653149  -0.514283  -1.731070   0.172430  -0.980004
     9  C   -0.355097  -0.514283   8.522301   0.444791   0.943938  -1.595562
    10  C    0.084995  -1.731070   0.444791   9.113477   0.561624   2.144716
    11  C   -0.153164   0.172430   0.943938   0.561624  13.146093  -1.911226
    12  C   -0.178327  -0.980004  -1.595562   2.144716  -1.911226  13.882990
    13  C   -0.078809  -1.074450   1.005204   0.882267   0.832099  -3.337373
    14  C    0.521405  -2.520810  -1.796125   1.725811  -3.782483   3.434770
    15  H   -0.002275   0.001663   0.048497  -0.009153  -0.038792  -0.009180
    16  H    0.000308   0.000081   0.004970  -0.008439   0.012422  -0.015232
    17  H   -0.000351  -0.001089  -0.005735   0.019202  -0.019788   0.097472
    18  H    0.001029   0.003282  -0.022477  -0.006987  -0.027099  -0.076624
    19  H   -0.006912  -0.059596   0.085740   0.431026   0.067346  -0.055923
    20  H    0.012371   0.065615  -0.028348   0.004217  -0.019889  -0.016478
    21  H   -0.014981  -0.023823  -0.005478   0.015653  -0.004458   0.006356
    22  H    0.390392  -0.031983   0.007452  -0.003891   0.001598  -0.009248
    23  H   -0.083794   0.387222   0.029157  -0.013895  -0.008898   0.005094
    24  H    0.012049   0.024444   0.357914   0.003544  -0.002015  -0.045046
    25  H    0.012049   0.024444   0.357914   0.003544  -0.002015  -0.045046
              13         14         15         16         17         18
     1  C    0.145770  -0.916169   0.392629  -0.014899  -0.043186   0.076878
     2  C   -0.204509  -0.170790  -0.103176   0.387725  -0.008755   0.009050
     3  C    0.060044  -0.250080   0.007112  -0.032706   0.372452  -0.097252
     4  C   -1.490392  -0.363139   0.031340   0.014661  -0.070975   0.515003
     5  C   -1.819952  -0.713114   0.004699  -0.002056   0.001392  -0.003421
     6  C    1.010231  -1.995595   0.001374  -0.000320   0.000682  -0.007026
     7  C   -0.078809   0.521405  -0.002275   0.000308  -0.000351   0.001029
     8  C   -1.074450  -2.520810   0.001663   0.000081  -0.001089   0.003282
     9  C    1.005204  -1.796125   0.048497   0.004970  -0.005735  -0.022477
    10  C    0.882267   1.725811  -0.009153  -0.008439   0.019202  -0.006987
    11  C    0.832099  -3.782483  -0.038792   0.012422  -0.019788  -0.027099
    12  C   -3.337373   3.434770  -0.009180  -0.015232   0.097472  -0.076624
    13  C   13.042772  -2.509463  -0.001610   0.001308  -0.003771  -0.024843
    14  C   -2.509463  14.764745   0.003541  -0.008411   0.004972  -0.014500
    15  H   -0.001610   0.003541   0.441016  -0.010914   0.001975  -0.000039
    16  H    0.001308  -0.008411  -0.010914   0.424725  -0.007011   0.002176
    17  H   -0.003771   0.004972   0.001975  -0.007011   0.417092  -0.009812
    18  H   -0.024843  -0.014500  -0.000039   0.002176  -0.009812   0.459572
    19  H    0.097047  -0.113627   0.000833  -0.001130   0.003223  -0.014021
    20  H   -0.052885  -0.033085  -0.000167   0.000031  -0.000293   0.001907
    21  H   -0.026578   0.086065   0.000028  -0.000008   0.000018  -0.000198
    22  H    0.025904  -0.012493  -0.000115   0.000006  -0.000007  -0.000002
    23  H   -0.042656   0.016473   0.000331  -0.000090   0.000018  -0.000094
    24  H    0.010758  -0.046750  -0.001152   0.000556  -0.000125   0.000145
    25  H    0.010758  -0.046750  -0.001152   0.000556  -0.000125   0.000145
              19         20         21         22         23         24
     1  C   -0.071568   0.006856  -0.001152   0.000153   0.004162   0.027707
     2  C   -0.017666   0.002548  -0.000428   0.000390  -0.001854   0.012020
     3  C    0.078421  -0.007833   0.000558  -0.000213   0.000514  -0.000960
     4  C   -0.091073  -0.001824   0.001055  -0.002269   0.003720  -0.007119
     5  C   -0.033919   0.492575  -0.051880   0.004408   0.034141  -0.007856
     6  C    0.084768  -0.105595   0.359470  -0.028979  -0.000817  -0.001954
     7  C   -0.006912   0.012371  -0.014981   0.390392  -0.083794   0.012049
     8  C   -0.059596   0.065615  -0.023823  -0.031983   0.387222   0.024444
     9  C    0.085740  -0.028348  -0.005478   0.007452   0.029157   0.357914
    10  C    0.431026   0.004217   0.015653  -0.003891  -0.013895   0.003544
    11  C    0.067346  -0.019889  -0.004458   0.001598  -0.008898  -0.002015
    12  C   -0.055923  -0.016478   0.006356  -0.009248   0.005094  -0.045046
    13  C    0.097047  -0.052885  -0.026578   0.025904  -0.042656   0.010758
    14  C   -0.113627  -0.033085   0.086065  -0.012493   0.016473  -0.046750
    15  H    0.000833  -0.000167   0.000028  -0.000115   0.000331  -0.001152
    16  H   -0.001130   0.000031  -0.000008   0.000006  -0.000090   0.000556
    17  H    0.003223  -0.000293   0.000018  -0.000007   0.000018  -0.000125
    18  H   -0.014021   0.001907  -0.000198  -0.000002  -0.000094   0.000145
    19  H    0.493983  -0.012685   0.002514  -0.000800   0.000423   0.000267
    20  H   -0.012685   0.468570  -0.009937   0.001939   0.000108   0.000155
    21  H    0.002514  -0.009937   0.416492  -0.006669   0.001918  -0.000147
    22  H   -0.000800   0.001939  -0.006669   0.421770  -0.009838   0.000539
    23  H    0.000423   0.000108   0.001918  -0.009838   0.431427  -0.000885
    24  H    0.000267   0.000155  -0.000147   0.000539  -0.000885   0.491610
    25  H    0.000267   0.000155  -0.000147   0.000539  -0.000885  -0.078932
              25
     1  C    0.027707
     2  C    0.012020
     3  C   -0.000960
     4  C   -0.007119
     5  C   -0.007856
     6  C   -0.001954
     7  C    0.012049
     8  C    0.024444
     9  C    0.357914
    10  C    0.003544
    11  C   -0.002015
    12  C   -0.045046
    13  C    0.010758
    14  C   -0.046750
    15  H   -0.001152
    16  H    0.000556
    17  H   -0.000125
    18  H    0.000145
    19  H    0.000267
    20  H    0.000155
    21  H   -0.000147
    22  H    0.000539
    23  H   -0.000885
    24  H   -0.078932
    25  H    0.491610
 Mulliken charges:
               1
     1  C    0.064144
     2  C   -0.355260
     3  C   -0.484611
     4  C    0.014481
     5  C    0.105904
     6  C   -0.468326
     7  C   -0.372095
     8  C   -0.072511
     9  C   -0.447443
    10  C   -0.050325
    11  C   -0.436592
    12  C    0.618113
    13  C   -0.456872
    14  C    0.735605
    15  H    0.242688
    16  H    0.251692
    17  H    0.252527
    18  H    0.235207
    19  H    0.133063
    20  H    0.231972
    21  H    0.255756
    22  H    0.251420
    23  H    0.248997
    24  H    0.251233
    25  H    0.251233
 Sum of Mulliken charges =   1.00000
 Mulliken charges with hydrogens summed into heavy atoms:
               1
     1  C    0.306832
     2  C   -0.103568
     3  C   -0.232084
     4  C    0.249688
     5  C    0.337876
     6  C   -0.212570
     7  C   -0.120675
     8  C    0.176486
     9  C    0.055023
    10  C    0.082737
    11  C   -0.436592
    12  C    0.618113
    13  C   -0.456872
    14  C    0.735605
 Electronic spatial extent (au):  <R**2>=           2870.0999
 Charge=              1.0000 electrons
 Dipole moment (field-independent basis, Debye):
    X=             -0.0721    Y=              0.2535    Z=              0.0000  Tot=              0.2636
 Quadrupole moment (field-independent basis, Debye-Ang):
   XX=            -30.2753   YY=            -56.3554   ZZ=            -84.3402
   XY=             -0.1450   XZ=              0.0000   YZ=             -0.0000
 Traceless Quadrupole moment (field-independent basis, Debye-Ang):
   XX=             26.7150   YY=              0.6349   ZZ=            -27.3499
   XY=             -0.1450   XZ=              0.0000   YZ=             -0.0000
 Octapole moment (field-independent basis, Debye-Ang**2):
  XXX=             -1.1437  YYY=              4.3033  ZZZ=             -0.0000  XYY=             -0.2148
  XXY=             -1.4713  XXZ=             -0.0000  XZZ=              0.1673  YZZ=             -2.8526
  YYZ=             -0.0000  XYZ=             -0.0000
 Hexadecapole moment (field-independent basis, Debye-Ang**3):
 XXXX=          -2113.5856 YYYY=           -618.4433 ZZZZ=            -99.7353 XXXY=              3.1412
 XXXZ=             -0.0000 YYYX=              4.3245 YYYZ=              0.0000 ZZZX=             -0.0000
 ZZZY=             -0.0000 XXYY=           -509.1532 XXZZ=           -594.2364 YYZZ=           -146.9447
 XXYZ=              0.0000 YYXZ=             -0.0000 ZZXY=              1.4876
 N-N= 7.788633255249D+02 E-N=-2.793907042763D+03  KE= 5.372962155979D+02
 Symmetry A'   KE= 5.226723990863D+02
 Symmetry A"   KE= 1.462381651157D+01
 Unable to Open any file for archive entry.
 1\1\GINC-GADI-CPU-CLX-0359\SP\RM062X TD-FC\6-311++G(d,p)\C14H11(1+)\TS
 1578\02-Aug-2022\0\\#n M062X/6-311++G(d,p) TD(NStates=1) EmpiricalDisp
 ersion=GD3 SP\\SP_-2\\1,1\C,0,0.,2.570655,1.322431\C,0,0.,3.739508,0.5
 45989\C,0,0.,3.659861,-0.83783\C,0,0.,2.391156,-1.441538\C,0,0.,-2.343
 156,-1.405538\C,0,0.,-3.627861,-0.86183\C,0,0.,-3.759508,0.525989\C,0,
 0.,-2.622655,1.366431\C,0,0.,0.008,1.573369\C,0,0.,-0.012,-1.309189\C,
 0,0.,1.274055,0.739065\C,0,0.,1.229471,-0.664804\C,0,0.,-1.298055,0.82
 3065\C,0,0.,-1.213471,-0.588804\H,0,0.,2.666071,2.405647\H,0,0.,4.7007
 53,1.037689\H,0,0.,4.557262,-1.450349\H,0,0.,2.30355,-2.524059\H,0,0.,
 -0.062,-2.382266\H,0,0.,-2.19955,-2.488059\H,0,0.,-4.501262,-1.510349\
 H,0,0.,-4.748753,0.969689\H,0,0.,-2.774071,2.449647\H,0,-0.859585,0.04
 8,2.265787\H,0,0.859585,0.048,2.265787\\Version=ES64L-G16RevC.01\State
 =1-A'\HF=-539.7547485\RMSD=6.350e-09\PG=CS [SG(C14H9),X(H2)]\\@
 The archive entry for this job was punched.


 THERE ARE PEOPLE SO ADDICTED TO EXAGERATING THEY
 CAN'T TELL THE TRUTH WITHOUT LYING. -- FORTUNE COOKIE
 Job cpu time:       0 days  0 hours 52 minutes  9.3 seconds.
 Elapsed time:       0 days  0 hours  1 minutes  5.8 seconds.
 File lengths (MBytes):  RWF=    460 Int=      0 D2E=      0 Chk=     15 Scr=      1
 Normal termination of Gaussian 16 at Tue Aug  2 12:31:36 2022.
