 Entering Gaussian System, Link 0=g16
 Initial command:
 /apps/gaussian/g16c01/g16/l1.exe "/jobfs/53803768.gadi-pbs/Gau-183123.inp" -scrdir="/jobfs/53803768.gadi-pbs/"
 Entering Link 1 = /apps/gaussian/g16c01/g16/l1.exe PID=    183124.
  
 Copyright (c) 1988-2019, Gaussian, Inc.  All Rights Reserved.
  
 This is part of the Gaussian(R) 16 program.  It is based on
 the Gaussian(R) 09 system (copyright 2009, Gaussian, Inc.),
 the Gaussian(R) 03 system (copyright 2003, Gaussian, Inc.),
 the Gaussian(R) 98 system (copyright 1998, Gaussian, Inc.),
 the Gaussian(R) 94 system (copyright 1995, Gaussian, Inc.),
 the Gaussian 92(TM) system (copyright 1992, Gaussian, Inc.),
 the Gaussian 90(TM) system (copyright 1990, Gaussian, Inc.),
 the Gaussian 88(TM) system (copyright 1988, Gaussian, Inc.),
 the Gaussian 86(TM) system (copyright 1986, Carnegie Mellon
 University), and the Gaussian 82(TM) system (copyright 1983,
 Carnegie Mellon University). Gaussian is a federally registered
 trademark of Gaussian, Inc.
  
 This software contains proprietary and confidential information,
 including trade secrets, belonging to Gaussian, Inc.
  
 This software is provided under written license and may be
 used, copied, transmitted, or stored only in accord with that
 written license.
  
 The following legend is applicable only to US Government
 contracts under FAR:
  
                    RESTRICTED RIGHTS LEGEND
  
 Use, reproduction and disclosure by the US Government is
 subject to restrictions as set forth in subparagraphs (a)
 and (c) of the Commercial Computer Software - Restricted
 Rights clause in FAR 52.227-19.
  
 Gaussian, Inc.
 340 Quinnipiac St., Bldg. 40, Wallingford CT 06492
  
  
 ---------------------------------------------------------------
 Warning -- This program may not be used in any manner that
 competes with the business of Gaussian, Inc. or will provide
 assistance to any competitor of Gaussian, Inc.  The licensee
 of this program is prohibited from giving any competitor of
 Gaussian, Inc. access to this program.  By using this program,
 the user acknowledges that Gaussian, Inc. is engaged in the
 business of creating and licensing software in the field of
 computational chemistry and represents and warrants to the
 licensee that it is not a competitor of Gaussian, Inc. and that
 it will not use this program in any manner prohibited above.
 ---------------------------------------------------------------
  

 Cite this work as:
 Gaussian 16, Revision C.01,
 M. J. Frisch, G. W. Trucks, H. B. Schlegel, G. E. Scuseria, 
 M. A. Robb, J. R. Cheeseman, G. Scalmani, V. Barone, 
 G. A. Petersson, H. Nakatsuji, X. Li, M. Caricato, A. V. Marenich, 
 J. Bloino, B. G. Janesko, R. Gomperts, B. Mennucci, H. P. Hratchian, 
 J. V. Ortiz, A. F. Izmaylov, J. L. Sonnenberg, D. Williams-Young, 
 F. Ding, F. Lipparini, F. Egidi, J. Goings, B. Peng, A. Petrone, 
 T. Henderson, D. Ranasinghe, V. G. Zakrzewski, J. Gao, N. Rega, 
 G. Zheng, W. Liang, M. Hada, M. Ehara, K. Toyota, R. Fukuda, 
 J. Hasegawa, M. Ishida, T. Nakajima, Y. Honda, O. Kitao, H. Nakai, 
 T. Vreven, K. Throssell, J. A. Montgomery, Jr., J. E. Peralta, 
 F. Ogliaro, M. J. Bearpark, J. J. Heyd, E. N. Brothers, K. N. Kudin, 
 V. N. Staroverov, T. A. Keith, R. Kobayashi, J. Normand, 
 K. Raghavachari, A. P. Rendell, J. C. Burant, S. S. Iyengar, 
 J. Tomasi, M. Cossi, J. M. Millam, M. Klene, C. Adamo, R. Cammi, 
 J. W. Ochterski, R. L. Martin, K. Morokuma, O. Farkas, 
 J. B. Foresman, and D. J. Fox, Gaussian, Inc., Wallingford CT, 2019.
 
 ******************************************
 Gaussian 16:  ES64L-G16RevC.01  3-Jul-2019
                 2-Aug-2022 
 ******************************************
 %NProcShared=48
 Will use up to   48 processors via shared memory.
 %mem = 190GB
 ---------------------------------------------------------------
 #n M062X/6-311++G(d,p) TD(NStates=1) EmpiricalDispersion=GD3 SP
 ---------------------------------------------------------------
 1/38=1,172=1/1;
 2/12=2,17=6,18=5,40=1/2;
 3/5=4,6=6,7=1111,11=9,25=1,30=1,74=-55,124=31/1,2,3,8;
 4//1;
 5/5=2,38=5/2;
 8/6=1,10=2,108=1/1;
 9/41=1,42=1,70=2/14;
 6/7=2,8=2,9=2,10=2/1;
 99/5=1,9=1/99;
 -----
 SP_-4
 -----
 Symbolic Z-matrix:
 Charge =  1 Multiplicity = 1
 C                     0.        2.41466   1.32043 
 C                     0.        3.66951   0.72599 
 C                     0.        3.72586  -0.65583 
 C                     0.        2.53516  -1.43954 
 C                     0.       -2.43916  -1.36754 
 C                     0.       -3.66186  -0.70383 
 C                     0.       -3.70951   0.68599 
 C                     0.       -2.51866   1.40843 
 C                     0.        0.016     1.42337 
 C                     0.       -0.024    -1.45919 
 C                     0.        1.23206   0.56707 
 C                     0.        1.25747  -0.8328 
 C                     0.       -1.28006   0.73507 
 C                     0.       -1.22547  -0.6808 
 H                     0.        2.32207   2.40365 
 H                     0.        4.56675   1.33169 
 H                     0.        4.68526  -1.16035 
 H                     0.        2.62555  -2.52206 
 H                     0.       -0.124    -2.54227 
 H                     0.       -2.41755  -2.45006 
 H                     0.       -4.57326  -1.28035 
 H                     0.       -4.66275   1.19569 
 H                     0.       -2.53807   2.49165 
 H                    -0.85959   0.096     2.11579 
 H                     0.85959   0.096     2.11579 
 
                          Input orientation:                          
 ---------------------------------------------------------------------
 Center     Atomic      Atomic             Coordinates (Angstroms)
 Number     Number       Type             X           Y           Z
 ---------------------------------------------------------------------
      1          6           0        0.000000    2.414655    1.320431
      2          6           0        0.000000    3.669508    0.725989
      3          6           0        0.000000    3.725861   -0.655830
      4          6           0        0.000000    2.535156   -1.439538
      5          6           0        0.000000   -2.439156   -1.367538
      6          6           0        0.000000   -3.661861   -0.703830
      7          6           0        0.000000   -3.709508    0.685989
      8          6           0        0.000000   -2.518655    1.408431
      9          6           0        0.000000    0.016000    1.423369
     10          6           0        0.000000   -0.024000   -1.459189
     11          6           0        0.000000    1.232055    0.567065
     12          6           0        0.000000    1.257471   -0.832804
     13          6           0        0.000000   -1.280055    0.735065
     14          6           0        0.000000   -1.225471   -0.680804
     15          1           0        0.000000    2.322071    2.403647
     16          1           0        0.000000    4.566753    1.331689
     17          1           0        0.000000    4.685262   -1.160349
     18          1           0        0.000000    2.625550   -2.522059
     19          1           0        0.000000   -0.124000   -2.542266
     20          1           0        0.000000   -2.417550   -2.450059
     21          1           0        0.000000   -4.573262   -1.280349
     22          1           0        0.000000   -4.662753    1.195689
     23          1           0        0.000000   -2.538071    2.491647
     24          1           0       -0.859585    0.096000    2.115787
     25          1           0        0.859585    0.096000    2.115787
 ---------------------------------------------------------------------
                    Distance matrix (angstroms):
                    1          2          3          4          5
     1  C    0.000000
     2  C    1.388531   0.000000
     3  C    2.371681   1.382968   0.000000
     4  C    2.762598   2.444639   1.425474   0.000000
     5  C    5.548392   6.457448   6.205962   4.974833   0.000000
     6  C    6.404817   7.469495   7.387878   6.240536   1.391228
     7  C    6.156938   7.379124   7.555474   6.596491   2.414698
     8  C    4.934095   6.225680   6.576865   5.801029   2.777107
     9  C    2.400863   3.719470   4.252780   3.813448   3.717116
    10  C    3.697746   4.291504   3.834950   2.559231   2.416894
    11  C    1.402178   2.442628   2.777506   2.392599   4.149756
    12  C    2.444483   2.871891   2.474726   1.414427   3.735103
    13  C    3.740793   4.949571   5.195554   4.391439   2.400928
    14  C    4.153969   5.093121   4.951395   3.836404   1.394502
    15  H    1.087165   2.151772   3.366159   3.849088   6.073806
    16  H    2.152127   1.082553   2.158085   3.436144   7.507902
    17  H    3.363023   2.142435   1.083969   2.168156   7.127430
    18  H    3.848273   3.411695   2.166448   1.086289   5.194629
    19  H    4.622250   5.007214   4.287198   2.878736   2.596138
    20  H    6.129176   6.865825   6.400059   5.054745   1.082737
    21  H    7.456208   8.483434   8.322588   7.110200   2.135886
    22  H    7.078507   8.345489   8.590516   7.665136   3.393305
    23  H    5.089326   6.453804   7.010239   6.418088   3.860452
    24  H    2.597622   3.929425   4.647218   4.396442   4.393115
    25  H    2.597622   3.929425   4.647218   4.396442   4.393115
                    6          7          8          9         10
     6  C    0.000000
     7  C    1.390635   0.000000
     8  C    2.401784   1.392858   0.000000
     9  C    4.248722   3.797781   2.534699   0.000000
    10  C    3.715454   4.264359   3.800861   2.882836   0.000000
    11  C    5.056242   4.942994   3.843920   1.487295   2.383984
    12  C    4.921022   5.193998   4.391157   2.575183   1.426368
    13  C    2.782700   2.429949   1.409806   1.467488   2.528325
    14  C    2.436499   2.835236   2.457077   2.443112   1.431578
    15  H    6.742689   6.271387   4.941972   2.505775   4.519464
    16  H    8.476640   8.301411   7.085824   4.551676   5.372524
    17  H    8.359598   8.595413   7.648206   5.336441   4.718734
    18  H    6.545036   7.101023   6.473917   4.730344   2.854787
    19  H    3.987017   4.824676   4.619781   3.968105   1.087684
    20  H    2.144207   3.391748   3.859814   4.574452   2.590541
    21  H    1.078437   2.147686   3.383925   5.326483   4.552776
    22  H    2.147081   1.080958   2.154627   4.684289   5.344755
    23  H    3.387326   2.152363   1.083390   2.768483   4.682911
    24  H    4.776049   4.155129   2.841771   1.106675   3.678823
    25  H    4.776049   4.155129   2.841771   1.106675   3.678823
                   11         12         13         14         15
    11  C    0.000000
    12  C    1.400100   0.000000
    13  C    2.517721   2.982826   0.000000
    14  C    2.756195   2.487590   1.416921   0.000000
    15  H    2.135689   3.407050   3.969821   4.700946   0.000000
    16  H    3.421237   3.954286   5.877170   6.131883   2.487507
    17  H    3.861165   3.443405   6.259201   5.930154   4.276300
    18  H    3.388881   2.173758   5.085529   4.268557   4.935046
    19  H    3.392171   2.197890   3.475250   2.162933   5.517728
    20  H    4.735256   4.015133   3.382146   2.133381   6.783986
    21  H    6.092179   5.847884   3.860972   3.401053   7.817765
    22  H    5.928232   6.258102   3.413916   3.916138   7.088507
    23  H    4.232950   5.045603   2.160598   3.433273   4.860939
    24  H    2.104293   3.283609   2.130448   3.210310   2.403569
    25  H    2.104293   3.283609   2.130448   3.210310   2.403569
                   16         17         18         19         20
    16  H    0.000000
    17  H    2.494854   0.000000
    18  H    4.315048   2.469143   0.000000
    19  H    6.083641   5.003868   2.749624   0.000000
    20  H    7.942424   7.218954   5.043614   2.295403   0.000000
    21  H    9.505925   9.259302   7.305117   4.624756   2.452614
    22  H    9.230508   9.640347   8.181749   5.879846   4.281637
    23  H    7.198891   8.094048   7.197238   5.582833   4.943175
    24  H    4.619668   5.703795   5.352301   4.741808   5.282402
    25  H    4.619668   5.703795   5.352301   4.741808   5.282402
                   21         22         23         24         25
    21  H    0.000000
    22  H    2.477655   0.000000
    23  H    4.286019   2.488731   0.000000
    24  H    5.837348   4.922519   2.796156   0.000000
    25  H    5.837348   4.922519   2.796156   1.719170   0.000000
 Stoichiometry    C14H11(1+)
 Framework group  CS[SG(C14H9),X(H2)]
 Deg. of freedom    46
 Full point group                 CS      NOp   2
 Largest Abelian subgroup         CS      NOp   2
 Largest concise Abelian subgroup CS      NOp   2
                         Standard orientation:                         
 ---------------------------------------------------------------------
 Center     Atomic      Atomic             Coordinates (Angstroms)
 Number     Number       Type             X           Y           Z
 ---------------------------------------------------------------------
      1          6           0        0.190375    2.744952    0.000000
      2          6           0       -0.873975    3.636679    0.000000
      3          6           0       -2.152957    3.110557    0.000000
      4          6           0       -2.367512    1.701322    0.000000
      5          6           0       -0.223838   -2.787957    0.000000
      6          6           0        0.890011   -3.621537    0.000000
      7          6           0        2.172624   -3.084162    0.000000
      8          6           0        2.331455   -1.700390    0.000000
      9          6           0        1.286052    0.608686    0.000000
     10          6           0       -1.316155   -0.631983    0.000000
     11          6           0        0.000000    1.355758    0.000000
     12          6           0       -1.282455    0.793987    0.000000
     13          6           0        1.202190   -0.856404    0.000000
     14          6           0       -0.106989   -1.398360    0.000000
     15          1           0        1.213201    3.113402    0.000000
     16          1           0       -0.698540    4.704923    0.000000
     17          1           0       -3.012168    3.771424    0.000000
     18          1           0       -3.388792    1.331173    0.000000
     19          1           0       -2.258394   -1.175345    0.000000
     20          1           0       -1.216379   -3.220603    0.000000
     21          1           0        0.747002   -4.690450    0.000000
     22          1           0        3.033971   -3.737272    0.000000
     23          1           0        3.323712   -1.265464    0.000000
     24          1           0        1.881717    0.970660    0.859585
     25          1           0        1.881717    0.970660   -0.859585
 ---------------------------------------------------------------------
 Rotational constants (GHZ):           2.1333881           0.4447905           0.3688549
 Standard basis: 6-311++G(d,p) (5D, 7F)
 There are   299 symmetry adapted cartesian basis functions of A'  symmetry.
 There are   100 symmetry adapted cartesian basis functions of A"  symmetry.
 There are   285 symmetry adapted basis functions of A'  symmetry.
 There are   100 symmetry adapted basis functions of A"  symmetry.
   385 basis functions,   603 primitive gaussians,   399 cartesian basis functions
    47 alpha electrons       47 beta electrons
       nuclear repulsion energy       780.9811495589 Hartrees.
 NAtoms=   25 NActive=   25 NUniq=   24 SFac= 1.09D+00 NAtFMM=   60 NAOKFM=F Big=F
 Integral buffers will be    131072 words long.
 Regular integral format.
 Two-electron integral symmetry is turned on.
 Nuclear repulsion after empirical dispersion term =      780.9801708099 Hartrees.
 One-electron integrals computed using PRISM.
 NBasis=   385 RedAO= T EigKep=  1.05D-06  NBF=   285   100
 NBsUse=   379 1.00D-06 EigRej=  8.65D-07 NBFU=   279   100
 ExpMin= 3.60D-02 ExpMax= 4.56D+03 ExpMxC= 6.82D+02 IAcc=3 IRadAn=         5 AccDes= 0.00D+00
 Harris functional with IExCor= 1009 and IRadAn=       5 diagonalized for initial guess.
 HarFok:  IExCor= 1009 AccDes= 0.00D+00 IRadAn=         5 IDoV= 1 UseB2=F ITyADJ=14
 ICtDFT=  3500011 ScaDFX=  1.000000  1.000000  1.000000  1.000000
 FoFCou: FMM=F IPFlag=           0 FMFlag=      100000 FMFlg1=           0
         NFxFlg=           0 DoJE=T BraDBF=F KetDBF=T FulRan=T
         wScrn=  0.000000 ICntrl=       500 IOpCl=  0 I1Cent=   200000004 NGrid=           0
         NMat0=    1 NMatS0=      1 NMatT0=    0 NMatD0=    1 NMtDS0=    0 NMtDT0=    0
 Petite list used in FoFCou.
 Initial guess orbital symmetries:
       Occupied  (A') (A') (A') (A') (A') (A') (A') (A') (A') (A')
                 (A') (A') (A') (A') (A') (A') (A') (A') (A') (A')
                 (A') (A') (A') (A') (A') (A') (A') (A') (A') (A')
                 (A') (A') (A") (A') (A') (A') (A') (A') (A") (A')
                 (A") (A') (A') (A") (A") (A") (A")
       Virtual   (A") (A") (A") (A") (A") (A') (A') (A') (A') (A")
                 (A") (A') (A') (A') (A") (A') (A') (A') (A') (A")
                 (A') (A") (A') (A') (A') (A") (A') (A") (A') (A')
                 (A') (A') (A') (A') (A") (A') (A') (A") (A') (A')
                 (A") (A') (A') (A") (A') (A') (A') (A') (A') (A")
                 (A') (A") (A') (A") (A') (A') (A') (A") (A") (A')
                 (A') (A') (A') (A') (A') (A") (A') (A') (A') (A')
                 (A") (A') (A') (A') (A') (A') (A') (A') (A') (A')
                 (A') (A') (A') (A') (A') (A') (A') (A') (A') (A')
                 (A') (A') (A') (A') (A') (A') (A') (A") (A') (A")
                 (A') (A') (A") (A") (A') (A") (A') (A") (A') (A")
                 (A') (A") (A') (A') (A") (A') (A') (A") (A") (A")
                 (A') (A") (A') (A') (A') (A") (A') (A') (A') (A")
                 (A') (A') (A') (A') (A') (A') (A") (A') (A') (A')
                 (A') (A') (A') (A') (A') (A') (A') (A') (A') (A")
                 (A") (A') (A") (A") (A') (A') (A") (A') (A") (A')
                 (A") (A') (A") (A") (A") (A') (A') (A') (A') (A')
                 (A') (A") (A') (A') (A") (A') (A') (A') (A') (A")
                 (A') (A') (A') (A") (A') (A") (A') (A') (A") (A")
                 (A') (A") (A') (A') (A") (A') (A') (A') (A") (A')
                 (A") (A") (A") (A') (A") (A') (A') (A") (A') (A')
                 (A") (A') (A") (A") (A') (A') (A") (A') (A') (A")
                 (A') (A') (A') (A') (A") (A') (A') (A') (A") (A")
                 (A') (A') (A') (A") (A') (A') (A") (A') (A") (A')
                 (A") (A') (A') (A') (A') (A") (A') (A') (A') (A")
                 (A') (A') (A') (A") (A") (A') (A') (A") (A') (A')
                 (A") (A') (A') (A") (A') (A') (A') (A") (A') (A")
                 (A') (A') (A') (A') (A") (A") (A') (A') (A") (A')
                 (A") (A') (A") (A") (A") (A') (A') (A') (A') (A')
                 (A') (A') (A') (A') (A') (A') (A') (A') (A') (A')
                 (A') (A') (A') (A') (A") (A') (A') (A') (A') (A')
                 (A') (A') (A') (A') (A') (A') (A') (A') (A') (A')
                 (A') (A') (A') (A') (A') (A') (A') (A') (A') (A')
                 (A') (A')
 The electronic state of the initial guess is 1-A'.
 Requested convergence on RMS density matrix=1.00D-08 within 128 cycles.
 Requested convergence on MAX density matrix=1.00D-06.
 Requested convergence on             energy=1.00D-06.
 No special actions if energy rises.
 SCF Done:  E(RM062X) =  -539.749855018     A.U. after   15 cycles
            NFock= 15  Conv=0.51D-08     -V/T= 2.0043
 DoSCS=F DFT=T ScalE2(SS,OS)=  1.000000  1.000000
 ExpMin= 3.60D-02 ExpMax= 4.56D+03 ExpMxC= 6.82D+02 IAcc=3 IRadAn=         5 AccDes= 0.00D+00
 HarFok:  IExCor=  205 AccDes= 0.00D+00 IRadAn=         5 IDoV=-2 UseB2=F ITyADJ=14
 ICtDFT= 12500011 ScaDFX=  1.000000  1.000000  1.000000  1.000000
 Range of M.O.s used for correlation:    15   379
 NBasis=   385 NAE=    47 NBE=    47 NFC=    14 NFV=     0
 NROrb=    365 NOA=    33 NOB=    33 NVA=   332 NVB=   332

 **** Warning!!: The largest alpha MO coefficient is  0.17748281D+03

 Orbital symmetries:
       Occupied  (A') (A') (A') (A') (A') (A') (A') (A') (A') (A')
                 (A') (A') (A') (A') (A') (A') (A') (A') (A') (A')
                 (A') (A') (A') (A') (A') (A') (A') (A') (A') (A')
                 (A') (A") (A') (A') (A') (A') (A') (A") (A") (A')
                 (A') (A') (A') (A") (A") (A") (A")
       Virtual   (A") (A") (A") (A") (A') (A') (A') (A') (A") (A')
                 (A') (A") (A') (A') (A") (A') (A") (A') (A') (A')
                 (A") (A") (A') (A') (A') (A") (A') (A") (A') (A')
                 (A") (A') (A") (A') (A') (A') (A') (A') (A") (A')
                 (A") (A') (A') (A") (A") (A') (A") (A') (A") (A')
                 (A') (A') (A') (A') (A") (A') (A') (A') (A') (A')
                 (A') (A") (A') (A') (A') (A") (A') (A') (A') (A')
                 (A') (A') (A') (A') (A') (A') (A') (A') (A') (A')
                 (A') (A') (A') (A') (A') (A') (A') (A') (A') (A')
                 (A') (A') (A') (A') (A") (A') (A") (A") (A') (A")
                 (A') (A') (A') (A') (A") (A") (A') (A") (A") (A')
                 (A') (A") (A') (A') (A") (A') (A') (A") (A') (A")
                 (A") (A') (A") (A') (A') (A') (A") (A') (A') (A')
                 (A') (A') (A') (A') (A') (A') (A') (A') (A') (A')
                 (A') (A') (A') (A") (A') (A') (A') (A') (A') (A')
                 (A') (A") (A') (A') (A") (A') (A") (A") (A') (A")
                 (A") (A') (A') (A") (A') (A") (A') (A") (A") (A')
                 (A') (A') (A') (A") (A") (A') (A') (A') (A') (A")
                 (A') (A') (A') (A") (A") (A') (A') (A") (A') (A")
                 (A") (A') (A') (A") (A') (A") (A') (A') (A') (A')
                 (A") (A") (A") (A') (A") (A') (A") (A') (A') (A')
                 (A') (A") (A") (A') (A") (A') (A") (A') (A') (A")
                 (A') (A') (A') (A') (A") (A') (A') (A') (A") (A")
                 (A') (A') (A') (A") (A') (A') (A') (A") (A") (A')
                 (A") (A') (A') (A") (A') (A') (A') (A') (A') (A')
                 (A") (A') (A') (A') (A') (A") (A") (A") (A') (A')
                 (A') (A') (A') (A') (A') (A') (A") (A') (A') (A')
                 (A') (A") (A') (A") (A") (A") (A') (A") (A') (A")
                 (A') (A") (A") (A") (A') (A") (A') (A') (A') (A')
                 (A') (A') (A') (A') (A') (A') (A') (A') (A') (A')
                 (A') (A') (A') (A") (A') (A') (A') (A') (A') (A')
                 (A') (A') (A') (A') (A') (A') (A') (A') (A') (A')
                 (A') (A') (A') (A') (A') (A') (A') (A') (A') (A')
                 (A') (A')
     4 initial guesses have been made.
 Convergence on wavefunction:    0.001000000000000
 Iteration     1 Dimension     4 NMult     0 NNew      4
 CISAX will form     4 AO SS matrices at one time.
 Iteration     2 Dimension     6 NMult     4 NNew      2
 Iteration     3 Dimension     8 NMult     6 NNew      2
 Iteration     4 Dimension    10 NMult     8 NNew      2
 Iteration     5 Dimension    12 NMult    10 NNew      2
 Iteration     6 Dimension    14 NMult    12 NNew      2
 ***********************************************************************
 Excited states from <AA,BB:AA,BB> singles matrix:
 ***********************************************************************
 
 Ground to excited state transition densities written to RWF  633
 Ground to excited state transition electric dipole moments (Au):
       state          X           Y           Z        Dip. S.      Osc.
         1         0.6264      0.1539      0.0000      0.4160      0.0281
 Ground to excited state transition velocity dipole moments (Au):
       state          X           Y           Z        Dip. S.      Osc.
         1        -0.0713     -0.0171     -0.0000      0.0054      0.0354
 Ground to excited state transition magnetic dipole moments (Au):
       state          X           Y           Z
         1        -0.0000      0.0000     -0.0054
 Ground to excited state transition velocity quadrupole moments (Au):
       state          XX          YY          ZZ          XY          XZ          YZ
         1         0.1124      0.2172     -0.0095     -0.1193     -0.0000     -0.0000
 <0|del|b> * <b|rxdel|0> + <0|del|b> * <b|delr+rdel|0>
 Rotatory Strengths (R) in cgs (10**-40 erg-esu-cm/Gauss)
       state          XX          YY          ZZ    R(velocity)    E-M Angle
         1        -0.0000      0.0000     -0.0000      0.0000       90.00
 1/2[<0|r|b>*<b|rxdel|0> + (<0|rxdel|b>*<b|r|0>)*]
 Rotatory Strengths (R) in cgs (10**-40 erg-esu-cm/Gauss)
       state          XX          YY          ZZ     R(length)
         1         0.0000     -0.0000      0.0000      0.0000
  1/2[<0|del|b>*<b|r|0> + (<0|r|b>*<b|del|0>)*] (Au)
       state          X           Y           Z        Dip. S.   Osc.(frdel)
         1        -0.0446     -0.0026     -0.0000      0.0473      0.0315

 Excitation energies and oscillator strengths:
 
 Excited State   1:      Singlet-A'     2.7536 eV  450.27 nm  f=0.0281  <S**2>=0.000
      47 -> 48         0.70438
 This state for optimization and/or second-order correction.
 Total Energy, E(TD-HF/TD-DFT) =  -539.648663653    
 Copying the excited state density for this state as the 1-particle RhoCI density.
 SavETr:  write IOETrn=   770 NScale= 10 NData=  16 NLR=1 NState=    1 LETran=      28.

 **********************************************************************

            Population analysis using the SCF Density.

 **********************************************************************

 Orbital symmetries:
       Occupied  (A') (A') (A') (A') (A') (A') (A') (A') (A') (A')
                 (A') (A') (A') (A') (A') (A') (A') (A') (A') (A')
                 (A') (A') (A') (A') (A') (A') (A') (A') (A') (A')
                 (A') (A") (A') (A') (A') (A') (A') (A") (A") (A')
                 (A') (A') (A') (A") (A") (A") (A")
       Virtual   (A") (A") (A") (A") (A') (A') (A') (A') (A") (A')
                 (A') (A") (A') (A') (A") (A') (A") (A') (A') (A')
                 (A") (A") (A') (A') (A') (A") (A') (A") (A') (A')
                 (A") (A') (A") (A') (A') (A') (A') (A') (A") (A')
                 (A") (A') (A') (A") (A") (A') (A") (A') (A") (A')
                 (A') (A') (A') (A') (A") (A') (A') (A') (A') (A')
                 (A') (A") (A') (A') (A') (A") (A') (A') (A') (A')
                 (A') (A') (A') (A') (A') (A') (A') (A') (A') (A')
                 (A') (A') (A') (A') (A') (A') (A') (A') (A') (A')
                 (A') (A') (A') (A') (A") (A') (A") (A") (A') (A")
                 (A') (A') (A') (A') (A") (A") (A') (A") (A") (A')
                 (A') (A") (A') (A') (A") (A') (A') (A") (A') (A")
                 (A") (A') (A") (A') (A') (A') (A") (A') (A') (A')
                 (A') (A') (A') (A') (A') (A') (A') (A') (A') (A')
                 (A') (A') (A') (A") (A') (A') (A') (A') (A') (A')
                 (A') (A") (A') (A') (A") (A') (A") (A") (A') (A")
                 (A") (A') (A') (A") (A') (A") (A') (A") (A") (A')
                 (A') (A') (A') (A") (A") (A') (A') (A') (A') (A")
                 (A') (A') (A') (A") (A") (A') (A') (A") (A') (A")
                 (A") (A') (A') (A") (A') (A") (A') (A') (A') (A')
                 (A") (A") (A") (A') (A") (A') (A") (A') (A') (A')
                 (A') (A") (A") (A') (A") (A') (A") (A') (A') (A")
                 (A') (A') (A') (A') (A") (A') (A') (A') (A") (A")
                 (A') (A') (A') (A") (A') (A') (A') (A") (A") (A')
                 (A") (A') (A') (A") (A') (A') (A') (A') (A') (A')
                 (A") (A') (A') (A') (A') (A") (A") (A") (A') (A')
                 (A') (A') (A') (A') (A') (A') (A") (A') (A') (A')
                 (A') (A") (A') (A") (A") (A") (A') (A") (A') (A")
                 (A') (A") (A") (A") (A') (A") (A') (A') (A') (A')
                 (A') (A') (A') (A') (A') (A') (A') (A') (A') (A')
                 (A') (A') (A') (A") (A') (A') (A') (A') (A') (A')
                 (A') (A') (A') (A') (A') (A') (A') (A') (A') (A')
                 (A') (A') (A') (A') (A') (A') (A') (A') (A') (A')
                 (A') (A')
 The electronic state is 1-A'.
 Alpha  occ. eigenvalues --  -10.78077 -10.73333 -10.73008 -10.72836 -10.72498
 Alpha  occ. eigenvalues --  -10.71842 -10.71178 -10.71095 -10.70942 -10.70854
 Alpha  occ. eigenvalues --  -10.70244 -10.69926 -10.69644 -10.69440  -1.16440
 Alpha  occ. eigenvalues --   -1.12420  -1.06886  -1.05781  -1.01313  -1.00140
 Alpha  occ. eigenvalues --   -0.95708  -0.90957  -0.86665  -0.85612  -0.83734
 Alpha  occ. eigenvalues --   -0.78323  -0.76001  -0.74314  -0.69476  -0.69348
 Alpha  occ. eigenvalues --   -0.68562  -0.68142  -0.68065  -0.64756  -0.64313
 Alpha  occ. eigenvalues --   -0.62813  -0.61642  -0.59883  -0.59605  -0.59050
 Alpha  occ. eigenvalues --   -0.56819  -0.55281  -0.54714  -0.52415  -0.46619
 Alpha  occ. eigenvalues --   -0.46058  -0.44330
 Alpha virt. eigenvalues --   -0.26178  -0.14743  -0.14169  -0.12779  -0.11208
 Alpha virt. eigenvalues --   -0.10102  -0.09228  -0.07998  -0.07997  -0.07493
 Alpha virt. eigenvalues --   -0.07250  -0.07211  -0.05661  -0.05583  -0.05346
 Alpha virt. eigenvalues --   -0.03838  -0.03645  -0.03294  -0.03128  -0.02161
 Alpha virt. eigenvalues --   -0.01378  -0.00899   0.00184   0.00526   0.00746
 Alpha virt. eigenvalues --    0.01043   0.01443   0.01903   0.02184   0.02260
 Alpha virt. eigenvalues --    0.02439   0.02687   0.02693   0.02946   0.03381
 Alpha virt. eigenvalues --    0.04171   0.04447   0.04710   0.04911   0.05320
 Alpha virt. eigenvalues --    0.06014   0.06222   0.06597   0.07083   0.07194
 Alpha virt. eigenvalues --    0.07962   0.08142   0.08288   0.08532   0.08917
 Alpha virt. eigenvalues --    0.09311   0.09542   0.10029   0.10407   0.11169
 Alpha virt. eigenvalues --    0.11475   0.12194   0.12312   0.12815   0.12938
 Alpha virt. eigenvalues --    0.13165   0.13371   0.13902   0.14198   0.16062
 Alpha virt. eigenvalues --    0.16450   0.16724   0.17315   0.17654   0.17732
 Alpha virt. eigenvalues --    0.18195   0.19050   0.19269   0.19534   0.20124
 Alpha virt. eigenvalues --    0.21357   0.21519   0.22400   0.23001   0.23353
 Alpha virt. eigenvalues --    0.23674   0.24617   0.24954   0.26783   0.27616
 Alpha virt. eigenvalues --    0.28794   0.28889   0.29882   0.31111   0.35672
 Alpha virt. eigenvalues --    0.36201   0.38166   0.39290   0.41199   0.41463
 Alpha virt. eigenvalues --    0.41586   0.42144   0.43025   0.43763   0.44354
 Alpha virt. eigenvalues --    0.44831   0.45321   0.45938   0.46501   0.47930
 Alpha virt. eigenvalues --    0.48592   0.48938   0.48984   0.50437   0.50902
 Alpha virt. eigenvalues --    0.51068   0.52064   0.52130   0.52572   0.54026
 Alpha virt. eigenvalues --    0.54169   0.55130   0.55563   0.55754   0.57500
 Alpha virt. eigenvalues --    0.58254   0.59291   0.61288   0.61951   0.62338
 Alpha virt. eigenvalues --    0.63138   0.63366   0.65105   0.65264   0.67632
 Alpha virt. eigenvalues --    0.69944   0.70796   0.71027   0.72203   0.72626
 Alpha virt. eigenvalues --    0.75337   0.76077   0.76381   0.76847   0.77523
 Alpha virt. eigenvalues --    0.77712   0.78064   0.78349   0.79711   0.80413
 Alpha virt. eigenvalues --    0.81231   0.81654   0.82129   0.83027   0.85187
 Alpha virt. eigenvalues --    0.86486   0.88152   0.88200   0.89549   0.90384
 Alpha virt. eigenvalues --    0.90515   0.91498   0.93481   0.94621   0.96330
 Alpha virt. eigenvalues --    0.96445   1.00102   1.01413   1.01726   1.01967
 Alpha virt. eigenvalues --    1.02849   1.03202   1.03208   1.04637   1.07392
 Alpha virt. eigenvalues --    1.20194   1.22381   1.22878   1.25495   1.27772
 Alpha virt. eigenvalues --    1.30478   1.32975   1.34171   1.35155   1.35201
 Alpha virt. eigenvalues --    1.39148   1.40323   1.40919   1.42407   1.43503
 Alpha virt. eigenvalues --    1.43977   1.45220   1.46208   1.46505   1.46720
 Alpha virt. eigenvalues --    1.47667   1.47752   1.51580   1.53570   1.54250
 Alpha virt. eigenvalues --    1.55846   1.56072   1.56885   1.57154   1.62211
 Alpha virt. eigenvalues --    1.63050   1.63508   1.63765   1.65349   1.68071
 Alpha virt. eigenvalues --    1.68636   1.69336   1.69710   1.74253   1.75259
 Alpha virt. eigenvalues --    1.76490   1.77998   1.80127   1.80315   1.80771
 Alpha virt. eigenvalues --    1.81456   1.82828   1.83443   1.83580   1.83974
 Alpha virt. eigenvalues --    1.84739   1.85322   1.86824   1.88154   1.91018
 Alpha virt. eigenvalues --    1.92998   1.94166   1.97232   1.97478   1.97966
 Alpha virt. eigenvalues --    1.99615   2.01891   2.04902   2.07085   2.11620
 Alpha virt. eigenvalues --    2.12424   2.13550   2.15021   2.18723   2.21553
 Alpha virt. eigenvalues --    2.22692   2.28000   2.30077   2.33941   2.34489
 Alpha virt. eigenvalues --    2.35939   2.38498   2.39574   2.42145   2.43632
 Alpha virt. eigenvalues --    2.46144   2.46436   2.48340   2.52283   2.53131
 Alpha virt. eigenvalues --    2.54242   2.56466   2.58084   2.58589   2.59552
 Alpha virt. eigenvalues --    2.59878   2.60651   2.62114   2.63147   2.63796
 Alpha virt. eigenvalues --    2.65057   2.65087   2.65558   2.66568   2.68107
 Alpha virt. eigenvalues --    2.68965   2.70979   2.71207   2.72980   2.74932
 Alpha virt. eigenvalues --    2.76287   2.78400   2.79771   2.81919   2.83135
 Alpha virt. eigenvalues --    2.84009   2.86231   2.91939   2.99346   2.99578
 Alpha virt. eigenvalues --    2.99902   3.05026   3.07967   3.11769   3.12721
 Alpha virt. eigenvalues --    3.19469   3.24386   3.26285   3.28267   3.31004
 Alpha virt. eigenvalues --    3.31953   3.32831   3.43234   3.45848   3.46514
 Alpha virt. eigenvalues --    3.48270   3.49656   3.55637   3.65200   3.66002
 Alpha virt. eigenvalues --    3.68113   3.93067   3.94162   3.95472   3.96307
 Alpha virt. eigenvalues --    4.03742   4.05824   4.07509   4.11814   4.35699
 Alpha virt. eigenvalues --    4.59352   4.69211   4.71044  23.45645  23.60128
 Alpha virt. eigenvalues --   23.80713  23.85677  23.87951  23.88635  23.89840
 Alpha virt. eigenvalues --   23.90986  23.97090  23.97625  24.00205  24.01014
 Alpha virt. eigenvalues --   24.10314  24.10921
          Condensed to atoms (all electrons):
               1          2          3          4          5          6
     1  C    8.766164   0.824295  -0.857887   1.386714   0.262143  -0.096375
     2  C    0.824295   7.637341   0.355177  -0.753246  -0.046968  -0.022262
     3  C   -0.857887   0.355177   6.461229   0.423535  -0.095742   0.012681
     4  C    1.386714  -0.753246   0.423535   9.761744   0.167977  -0.064578
     5  C    0.262143  -0.046968  -0.095742   0.167977   8.737501   0.799441
     6  C   -0.096375  -0.022262   0.012681  -0.064578   0.799441   7.131602
     7  C   -0.068831   0.013336  -0.010034  -0.077963  -0.762659   0.410305
     8  C    0.255405  -0.058687  -0.063146  -0.041643   1.043241  -0.768339
     9  C   -2.168924  -1.069492   0.193899  -0.456588  -0.765581   0.312972
    10  C   -0.939703   0.305572  -0.191781  -1.916337  -2.063552  -0.878937
    11  C   -0.457540  -2.036999   1.124593  -0.674529  -1.123341  -0.389440
    12  C   -0.458224   1.405728  -0.829525  -0.611479  -0.442851  -0.193499
    13  C   -0.178215  -0.169127  -0.066933  -1.731235  -0.556843   1.146989
    14  C   -0.868989  -0.238751  -0.308528   0.264745   0.325471  -1.266161
    15  H    0.345035  -0.116983   0.005680   0.024789   0.004821   0.002349
    16  H   -0.011640   0.369886  -0.021528   0.019501  -0.000691  -0.000421
    17  H   -0.021120  -0.021690   0.388744  -0.064861  -0.000295   0.000438
    18  H    0.046503  -0.002440  -0.083720   0.433501   0.018445  -0.002952
    19  H   -0.045103  -0.012791   0.042577  -0.079466  -0.044955   0.043758
    20  H    0.012508   0.003436  -0.004980   0.011368   0.423213  -0.113898
    21  H   -0.001425  -0.000481   0.000292   0.000597  -0.036946   0.365694
    22  H    0.001216   0.000499  -0.000246  -0.001961   0.003296  -0.009309
    23  H    0.007511  -0.003196   0.000246   0.006427   0.017988  -0.006932
    24  H    0.033199   0.016875   0.000850  -0.016394  -0.008378  -0.003317
    25  H    0.033199   0.016875   0.000850  -0.016394  -0.008378  -0.003317
               7          8          9         10         11         12
     1  C   -0.068831   0.255405  -2.168924  -0.939703  -0.457540  -0.458224
     2  C    0.013336  -0.058687  -1.069492   0.305572  -2.036999   1.405728
     3  C   -0.010034  -0.063146   0.193899  -0.191781   1.124593  -0.829525
     4  C   -0.077963  -0.041643  -0.456588  -1.916337  -0.674529  -0.611479
     5  C   -0.762659   1.043241  -0.765581  -2.063552  -1.123341  -0.442851
     6  C    0.410305  -0.768339   0.312972  -0.878937  -0.389440  -0.193499
     7  C    6.596333   0.820173  -0.388361   0.220460  -0.163120  -0.215504
     8  C    0.820173   9.094565  -1.933705  -0.347646   0.216295  -1.269123
     9  C   -0.388361  -1.933705   9.757387   0.223787   2.011400  -1.137104
    10  C    0.220460  -0.347646   0.223787   9.818571  -1.504498   2.224067
    11  C   -0.163120   0.216295   2.011400  -1.504498  16.648167  -3.425520
    12  C   -0.215504  -1.269123  -1.137104   2.224067  -3.425520  13.937919
    13  C   -0.911739  -0.428033   2.386512  -1.228611   1.952660  -4.585626
    14  C    0.639655  -0.813540  -1.570077   1.680778  -5.831231   1.549975
    15  H   -0.004029  -0.002273   0.108950  -0.009273   0.002175  -0.040643
    16  H    0.000250   0.001002   0.002984  -0.012934   0.036037  -0.045046
    17  H   -0.000298  -0.001660  -0.000883   0.016474  -0.003122   0.058095
    18  H    0.000491   0.006549  -0.027754   0.021027  -0.004397  -0.052594
    19  H    0.002209  -0.033954   0.068674   0.407188   0.068618  -0.009893
    20  H    0.006415   0.041675  -0.032697   0.075468   0.003407   0.002954
    21  H   -0.031580  -0.002239  -0.005477   0.019267  -0.007311   0.006464
    22  H    0.383281  -0.034011   0.009729  -0.011311   0.003932  -0.010993
    23  H   -0.071445   0.354531   0.057236  -0.009240  -0.009148   0.005564
    24  H    0.013981   0.040665   0.351808   0.005368   0.006848  -0.058900
    25  H    0.013981   0.040665   0.351808   0.005368   0.006848  -0.058900
              13         14         15         16         17         18
     1  C   -0.178215  -0.868989   0.345035  -0.011640  -0.021120   0.046503
     2  C   -0.169127  -0.238751  -0.116983   0.369886  -0.021690  -0.002440
     3  C   -0.066933  -0.308528   0.005680  -0.021528   0.388744  -0.083720
     4  C   -1.731235   0.264745   0.024789   0.019501  -0.064861   0.433501
     5  C   -0.556843   0.325471   0.004821  -0.000691  -0.000295   0.018445
     6  C    1.146989  -1.266161   0.002349  -0.000421   0.000438  -0.002952
     7  C   -0.911739   0.639655  -0.004029   0.000250  -0.000298   0.000491
     8  C   -0.428033  -0.813540  -0.002273   0.001002  -0.001660   0.006549
     9  C    2.386512  -1.570077   0.108950   0.002984  -0.000883  -0.027754
    10  C   -1.228611   1.680778  -0.009273  -0.012934   0.016474   0.021027
    11  C    1.952660  -5.831231   0.002175   0.036037  -0.003122  -0.004397
    12  C   -4.585626   1.549975  -0.040643  -0.045046   0.058095  -0.052594
    13  C   15.735252  -4.901399   0.001211   0.003552  -0.005872  -0.013821
    14  C   -4.901399  16.877254   0.007952  -0.006718   0.001270  -0.000758
    15  H    0.001211   0.007952   0.443694  -0.010167   0.001315   0.000146
    16  H    0.003552  -0.006718  -0.010167   0.419889  -0.006438   0.002021
    17  H   -0.005872   0.001270   0.001315  -0.006438   0.420449  -0.008909
    18  H   -0.013821  -0.000758   0.000146   0.002021  -0.008909   0.441002
    19  H    0.078929  -0.116321   0.000531  -0.000591   0.001472  -0.006306
    20  H   -0.051429  -0.039192  -0.000199   0.000041  -0.000185   0.001354
    21  H   -0.034629   0.068632   0.000022  -0.000007   0.000009  -0.000084
    22  H    0.055671  -0.052058  -0.000193   0.000007  -0.000006   0.000002
    23  H   -0.022940   0.016428   0.000891  -0.000084  -0.000001  -0.000050
    24  H    0.023425  -0.071105  -0.001790   0.000571  -0.000092   0.000129
    25  H    0.023425  -0.071105  -0.001790   0.000571  -0.000092   0.000129
              19         20         21         22         23         24
     1  C   -0.045103   0.012508  -0.001425   0.001216   0.007511   0.033199
     2  C   -0.012791   0.003436  -0.000481   0.000499  -0.003196   0.016875
     3  C    0.042577  -0.004980   0.000292  -0.000246   0.000246   0.000850
     4  C   -0.079466   0.011368   0.000597  -0.001961   0.006427  -0.016394
     5  C   -0.044955   0.423213  -0.036946   0.003296   0.017988  -0.008378
     6  C    0.043758  -0.113898   0.365694  -0.009309  -0.006932  -0.003317
     7  C    0.002209   0.006415  -0.031580   0.383281  -0.071445   0.013981
     8  C   -0.033954   0.041675  -0.002239  -0.034011   0.354531   0.040665
     9  C    0.068674  -0.032697  -0.005477   0.009729   0.057236   0.351808
    10  C    0.407188   0.075468   0.019267  -0.011311  -0.009240   0.005368
    11  C    0.068618   0.003407  -0.007311   0.003932  -0.009148   0.006848
    12  C   -0.009893   0.002954   0.006464  -0.010993   0.005564  -0.058900
    13  C    0.078929  -0.051429  -0.034629   0.055671  -0.022940   0.023425
    14  C   -0.116321  -0.039192   0.068632  -0.052058   0.016428  -0.071105
    15  H    0.000531  -0.000199   0.000022  -0.000193   0.000891  -0.001790
    16  H   -0.000591   0.000041  -0.000007   0.000007  -0.000084   0.000571
    17  H    0.001472  -0.000185   0.000009  -0.000006  -0.000001  -0.000092
    18  H   -0.006306   0.001354  -0.000084   0.000002  -0.000050   0.000129
    19  H    0.432756  -0.003020   0.000680  -0.000243  -0.000121   0.000716
    20  H   -0.003020   0.459708  -0.010973   0.001904   0.000367   0.000229
    21  H    0.000680  -0.010973   0.425373  -0.007172   0.001589  -0.000186
    22  H   -0.000243   0.001904  -0.007172   0.417139  -0.008017   0.000679
    23  H   -0.000121   0.000367   0.001589  -0.008017   0.431052  -0.000571
    24  H    0.000716   0.000229  -0.000186   0.000679  -0.000571   0.495520
    25  H    0.000716   0.000229  -0.000186   0.000679  -0.000571  -0.080690
              25
     1  C    0.033199
     2  C    0.016875
     3  C    0.000850
     4  C   -0.016394
     5  C   -0.008378
     6  C   -0.003317
     7  C    0.013981
     8  C    0.040665
     9  C    0.351808
    10  C    0.005368
    11  C    0.006848
    12  C   -0.058900
    13  C    0.023425
    14  C   -0.071105
    15  H   -0.001790
    16  H    0.000571
    17  H   -0.000092
    18  H    0.000129
    19  H    0.000716
    20  H    0.000229
    21  H   -0.000186
    22  H    0.000679
    23  H   -0.000571
    24  H   -0.080690
    25  H    0.495520
 Mulliken charges:
               1
     1  C    0.200085
     2  C   -0.395909
     3  C   -0.476304
     4  C    0.005776
     5  C    0.153643
     6  C   -0.406492
     7  C   -0.415305
     8  C   -0.116766
     9  C   -0.280505
    10  C    0.090429
    11  C   -0.450786
    12  C    0.254658
    13  C   -0.521174
    14  C    0.723772
    15  H    0.237780
    16  H    0.259954
    17  H    0.247261
    18  H    0.232487
    19  H    0.203938
    20  H    0.212298
    21  H    0.250078
    22  H    0.257482
    23  H    0.232485
    24  H    0.250558
    25  H    0.250558
 Sum of Mulliken charges =   1.00000
 Mulliken charges with hydrogens summed into heavy atoms:
               1
     1  C    0.437864
     2  C   -0.135955
     3  C   -0.229043
     4  C    0.238263
     5  C    0.365941
     6  C   -0.156414
     7  C   -0.157823
     8  C    0.115719
     9  C    0.220612
    10  C    0.294367
    11  C   -0.450786
    12  C    0.254658
    13  C   -0.521174
    14  C    0.723772
 Electronic spatial extent (au):  <R**2>=           2855.7557
 Charge=              1.0000 electrons
 Dipole moment (field-independent basis, Debye):
    X=             -0.1280    Y=             -0.1166    Z=              0.0000  Tot=              0.1732
 Quadrupole moment (field-independent basis, Debye-Ang):
   XX=            -51.7215   YY=            -35.7376   ZZ=            -84.2199
   XY=             -9.5788   XZ=              0.0000   YZ=              0.0000
 Traceless Quadrupole moment (field-independent basis, Debye-Ang):
   XX=              5.5049   YY=             21.4887   ZZ=            -26.9935
   XY=             -9.5788   XZ=              0.0000   YZ=              0.0000
 Octapole moment (field-independent basis, Debye-Ang**2):
  XXX=             -0.8875  YYY=              5.6438  ZZZ=              0.0000  XYY=              1.7341
  XXY=             -5.7256  XXZ=              0.0000  XZZ=              2.9151  YZZ=              1.1692
  YYZ=              0.0000  XYZ=              0.0000
 Hexadecapole moment (field-independent basis, Debye-Ang**3):
 XXXX=           -929.9798 YYYY=          -1895.6270 ZZZZ=            -99.5093 XXXY=            329.5911
 XXXZ=              0.0000 YYYX=            253.8344 YYYZ=             -0.0000 ZZZX=              0.0000
 ZZZY=             -0.0000 XXYY=           -460.6531 XXZZ=           -227.8505 YYZZ=           -509.5298
 XXYZ=              0.0000 YYXZ=              0.0000 ZZXY=            172.3171
 N-N= 7.809801708099D+02 E-N=-2.798232623365D+03  KE= 5.374377544223D+02
 Symmetry A'   KE= 5.227951677076D+02
 Symmetry A"   KE= 1.464258671474D+01
 Unable to Open any file for archive entry.
 1\1\GINC-GADI-CPU-CLX-0359\SP\RM062X TD-FC\6-311++G(d,p)\C14H11(1+)\TS
 1578\02-Aug-2022\0\\#n M062X/6-311++G(d,p) TD(NStates=1) EmpiricalDisp
 ersion=GD3 SP\\SP_-4\\1,1\C,0,0.,2.414655,1.320431\C,0,0.,3.669508,0.7
 25989\C,0,0.,3.725861,-0.65583\C,0,0.,2.535156,-1.439538\C,0,0.,-2.439
 156,-1.367538\C,0,0.,-3.661861,-0.70383\C,0,0.,-3.709508,0.685989\C,0,
 0.,-2.518655,1.408431\C,0,0.,0.016,1.423369\C,0,0.,-0.024,-1.459189\C,
 0,0.,1.232055,0.567065\C,0,0.,1.257471,-0.832804\C,0,0.,-1.280055,0.73
 5065\C,0,0.,-1.225471,-0.680804\H,0,0.,2.322071,2.403647\H,0,0.,4.5667
 53,1.331689\H,0,0.,4.685262,-1.160349\H,0,0.,2.62555,-2.522059\H,0,0.,
 -0.124,-2.542266\H,0,0.,-2.41755,-2.450059\H,0,0.,-4.573262,-1.280349\
 H,0,0.,-4.662753,1.195689\H,0,0.,-2.538071,2.491647\H,0,-0.859585,0.09
 6,2.115787\H,0,0.859585,0.096,2.115787\\Version=ES64L-G16RevC.01\State
 =1-A'\HF=-539.749855\RMSD=5.076e-09\PG=CS [SG(C14H9),X(H2)]\\@
 The archive entry for this job was punched.


 THERE IS NO SUBJECT, HOWEVER COMPLEX,
 WHICH, IF STUDIED WITH PATIENCE AND INTELLIGIENCE
 WILL NOT BECOME
 MORE COMPLEX
                        QUOTED BY D. GORDON ROHMAN
 Job cpu time:       0 days  0 hours 52 minutes  8.3 seconds.
 Elapsed time:       0 days  0 hours  1 minutes  5.3 seconds.
 File lengths (MBytes):  RWF=    460 Int=      0 D2E=      0 Chk=     15 Scr=      1
 Normal termination of Gaussian 16 at Tue Aug  2 12:24:58 2022.
