 Entering Gaussian System, Link 0=g16
 Initial command:
 /apps/gaussian/g16c01/g16/l1.exe "/jobfs/53803768.gadi-pbs/Gau-190551.inp" -scrdir="/jobfs/53803768.gadi-pbs/"
 Entering Link 1 = /apps/gaussian/g16c01/g16/l1.exe PID=    190552.
  
 Copyright (c) 1988-2019, Gaussian, Inc.  All Rights Reserved.
  
 This is part of the Gaussian(R) 16 program.  It is based on
 the Gaussian(R) 09 system (copyright 2009, Gaussian, Inc.),
 the Gaussian(R) 03 system (copyright 2003, Gaussian, Inc.),
 the Gaussian(R) 98 system (copyright 1998, Gaussian, Inc.),
 the Gaussian(R) 94 system (copyright 1995, Gaussian, Inc.),
 the Gaussian 92(TM) system (copyright 1992, Gaussian, Inc.),
 the Gaussian 90(TM) system (copyright 1990, Gaussian, Inc.),
 the Gaussian 88(TM) system (copyright 1988, Gaussian, Inc.),
 the Gaussian 86(TM) system (copyright 1986, Carnegie Mellon
 University), and the Gaussian 82(TM) system (copyright 1983,
 Carnegie Mellon University). Gaussian is a federally registered
 trademark of Gaussian, Inc.
  
 This software contains proprietary and confidential information,
 including trade secrets, belonging to Gaussian, Inc.
  
 This software is provided under written license and may be
 used, copied, transmitted, or stored only in accord with that
 written license.
  
 The following legend is applicable only to US Government
 contracts under FAR:
  
                    RESTRICTED RIGHTS LEGEND
  
 Use, reproduction and disclosure by the US Government is
 subject to restrictions as set forth in subparagraphs (a)
 and (c) of the Commercial Computer Software - Restricted
 Rights clause in FAR 52.227-19.
  
 Gaussian, Inc.
 340 Quinnipiac St., Bldg. 40, Wallingford CT 06492
  
  
 ---------------------------------------------------------------
 Warning -- This program may not be used in any manner that
 competes with the business of Gaussian, Inc. or will provide
 assistance to any competitor of Gaussian, Inc.  The licensee
 of this program is prohibited from giving any competitor of
 Gaussian, Inc. access to this program.  By using this program,
 the user acknowledges that Gaussian, Inc. is engaged in the
 business of creating and licensing software in the field of
 computational chemistry and represents and warrants to the
 licensee that it is not a competitor of Gaussian, Inc. and that
 it will not use this program in any manner prohibited above.
 ---------------------------------------------------------------
  

 Cite this work as:
 Gaussian 16, Revision C.01,
 M. J. Frisch, G. W. Trucks, H. B. Schlegel, G. E. Scuseria, 
 M. A. Robb, J. R. Cheeseman, G. Scalmani, V. Barone, 
 G. A. Petersson, H. Nakatsuji, X. Li, M. Caricato, A. V. Marenich, 
 J. Bloino, B. G. Janesko, R. Gomperts, B. Mennucci, H. P. Hratchian, 
 J. V. Ortiz, A. F. Izmaylov, J. L. Sonnenberg, D. Williams-Young, 
 F. Ding, F. Lipparini, F. Egidi, J. Goings, B. Peng, A. Petrone, 
 T. Henderson, D. Ranasinghe, V. G. Zakrzewski, J. Gao, N. Rega, 
 G. Zheng, W. Liang, M. Hada, M. Ehara, K. Toyota, R. Fukuda, 
 J. Hasegawa, M. Ishida, T. Nakajima, Y. Honda, O. Kitao, H. Nakai, 
 T. Vreven, K. Throssell, J. A. Montgomery, Jr., J. E. Peralta, 
 F. Ogliaro, M. J. Bearpark, J. J. Heyd, E. N. Brothers, K. N. Kudin, 
 V. N. Staroverov, T. A. Keith, R. Kobayashi, J. Normand, 
 K. Raghavachari, A. P. Rendell, J. C. Burant, S. S. Iyengar, 
 J. Tomasi, M. Cossi, J. M. Millam, M. Klene, C. Adamo, R. Cammi, 
 J. W. Ochterski, R. L. Martin, K. Morokuma, O. Farkas, 
 J. B. Foresman, and D. J. Fox, Gaussian, Inc., Wallingford CT, 2019.
 
 ******************************************
 Gaussian 16:  ES64L-G16RevC.01  3-Jul-2019
                 2-Aug-2022 
 ******************************************
 %NProcShared=48
 Will use up to   48 processors via shared memory.
 %mem = 190GB
 ---------------------------------------------------------------
 #n M062X/6-311++G(d,p) TD(NStates=1) EmpiricalDispersion=GD3 SP
 ---------------------------------------------------------------
 1/38=1,172=1/1;
 2/12=2,17=6,18=5,40=1/2;
 3/5=4,6=6,7=1111,11=9,25=1,30=1,74=-55,124=31/1,2,3,8;
 4//1;
 5/5=2,38=5/2;
 8/6=1,10=2,108=1/1;
 9/41=1,42=1,70=2/14;
 6/7=2,8=2,9=2,10=2/1;
 99/5=1,9=1/99;
 -----
 SP_-2
 -----
 Symbolic Z-matrix:
 Charge =  1 Multiplicity = 1
 C                     0.        2.41466   1.34643 
 C                     0.        3.66751   0.74999 
 C                     0.        3.71986  -0.63383 
 C                     0.        2.53516  -1.41754 
 C                     0.       -2.48716  -1.38154 
 C                     0.       -3.68786  -0.65783 
 C                     0.       -3.68751   0.72999 
 C                     0.       -2.46666   1.39043 
 C                     0.        0.008     1.39337 
 C                     0.       -0.012    -1.48919 
 C                     0.        1.23806   0.58307 
 C                     0.        1.25347  -0.8208 
 C                     0.       -1.26206   0.66707 
 C                     0.       -1.23747  -0.7448 
 H                     0.        2.31807   2.42965 
 H                     0.        4.56875   1.34969 
 H                     0.        4.67726  -1.13835 
 H                     0.        2.62755  -2.50006 
 H                     0.       -0.062    -2.57427 
 H                     0.       -2.52355  -2.46406 
 H                     0.       -4.62126  -1.19835 
 H                     0.       -4.61675   1.28169 
 H                     0.       -2.42607   2.47365 
 H                    -0.85959   0.048     2.08579 
 H                     0.85959   0.048     2.08579 
 
                          Input orientation:                          
 ---------------------------------------------------------------------
 Center     Atomic      Atomic             Coordinates (Angstroms)
 Number     Number       Type             X           Y           Z
 ---------------------------------------------------------------------
      1          6           0        0.000000    2.414655    1.346431
      2          6           0        0.000000    3.667508    0.749989
      3          6           0        0.000000    3.719861   -0.633830
      4          6           0        0.000000    2.535156   -1.417538
      5          6           0        0.000000   -2.487156   -1.381538
      6          6           0        0.000000   -3.687861   -0.657830
      7          6           0        0.000000   -3.687508    0.729989
      8          6           0        0.000000   -2.466655    1.390431
      9          6           0        0.000000    0.008000    1.393369
     10          6           0        0.000000   -0.012000   -1.489189
     11          6           0        0.000000    1.238055    0.583065
     12          6           0        0.000000    1.253471   -0.820804
     13          6           0        0.000000   -1.262055    0.667065
     14          6           0        0.000000   -1.237471   -0.744804
     15          1           0        0.000000    2.318071    2.429647
     16          1           0        0.000000    4.568753    1.349689
     17          1           0        0.000000    4.677262   -1.138349
     18          1           0        0.000000    2.627550   -2.500059
     19          1           0        0.000000   -0.062000   -2.574266
     20          1           0        0.000000   -2.523550   -2.464059
     21          1           0        0.000000   -4.621262   -1.198349
     22          1           0        0.000000   -4.616753    1.281689
     23          1           0        0.000000   -2.426071    2.473647
     24          1           0       -0.859585    0.048000    2.085787
     25          1           0        0.859585    0.048000    2.085787
 ---------------------------------------------------------------------
                    Distance matrix (angstroms):
                    1          2          3          4          5
     1  C    0.000000
     2  C    1.387582   0.000000
     3  C    2.371707   1.384809   0.000000
     4  C    2.766594   2.445484   1.420466   0.000000
     5  C    5.609774   6.513317   6.251890   5.022441   0.000000
     6  C    6.423221   7.488886   7.407761   6.269218   1.401944
     7  C    6.133221   7.355043   7.531873   6.582812   2.428866
     8  C    4.881508   6.167505   6.509271   5.736097   2.772045
     9  C    2.407113   3.715634   4.229355   3.779909   3.731744
    10  C    3.732211   4.307284   3.828632   2.548164   2.477496
    11  C    1.402539   2.435181   2.764090   2.384299   4.211515
    12  C    2.458710   2.880098   2.473467   1.413792   3.782422
    13  C    3.738948   4.930260   5.148963   4.331787   2.386974
    14  C    4.208478   5.127692   4.958574   3.832139   1.402549
    15  H    1.087513   2.154584   3.368962   3.853305   6.133134
    16  H    2.154100   1.082535   2.157537   3.434103   7.566072
    17  H    3.360584   2.141360   1.082200   2.160223   7.168544
    18  H    3.852377   3.412378   2.162395   1.086457   5.235581
    19  H    4.637422   4.995989   4.250619   2.843104   2.702588
    20  H    6.237444   6.975622   6.506145   5.165822   1.083133
    21  H    7.481981   8.514677   8.360204   7.159774   2.141954
    22  H    7.031706   8.301306   8.553850   7.644320   3.409980
    23  H    4.970236   6.332669   6.886864   6.305164   3.855669
    24  H    2.624231   3.952731   4.649491   4.381566   4.380439
    25  H    2.624231   3.952731   4.649491   4.381566   4.380439
                    6          7          8          9         10
     6  C    0.000000
     7  C    1.387819   0.000000
     8  C    2.384684   1.388044   0.000000
     9  C    4.226914   3.754578   2.474657   0.000000
    10  C    3.768702   4.293496   3.783853   2.882627   0.000000
    11  C    5.079810   4.927754   3.791664   1.472966   2.420098
    12  C    4.944019   5.178632   4.327690   2.540425   1.431138
    13  C    2.764034   2.426269   1.405105   1.463064   2.492402
    14  C    2.451933   2.859667   2.463762   2.474466   1.433837
    15  H    6.753054   6.241459   4.896282   2.531857   4.559222
    16  H    8.497165   8.279485   7.035526   4.560962   5.389112
    17  H    8.378913   8.570885   7.578277   5.311460   4.702368
    18  H    6.578619   7.093178   6.409901   4.692635   2.826496
    19  H    4.101170   4.905345   4.636937   3.968252   1.086228
    20  H    2.148973   3.399521   3.854910   4.613946   2.694115
    21  H    1.078609   2.142518   3.368102   5.305381   4.618429
    22  H    2.150482   1.080680   2.152846   4.626101   5.374152
    23  H    3.376131   2.152107   1.083976   2.663025   4.640238
    24  H    4.714125   4.065845   2.746979   1.104504   3.677355
    25  H    4.714125   4.065845   2.746979   1.104504   3.677355
                   11         12         13         14         15
    11  C    0.000000
    12  C    1.403954   0.000000
    13  C    2.501521   2.922606   0.000000
    14  C    2.809175   2.492101   1.412083   0.000000
    15  H    2.139229   3.420352   3.990488   4.766447   0.000000
    16  H    3.417786   3.962592   5.870630   6.172450   2.496373
    17  H    3.845960   3.438485   6.207657   5.927811   4.277427
    18  H    3.381767   2.169790   5.015945   4.244915   4.939411
    19  H    3.414511   2.192052   3.456350   2.174549   5.541108
    20  H    4.840933   4.119002   3.375694   2.147053   6.884014
    21  H    6.124135   5.886852   3.842400   3.414051   7.830498
    22  H    5.896342   6.235383   3.410537   3.940333   7.029196
    23  H    4.123120   4.938870   2.149110   3.430918   4.744346
    24  H    2.100783   3.261950   2.113741   3.225456   2.451601
    25  H    2.100783   3.261950   2.113741   3.225456   2.451601
                   16         17         18         19         20
    16  H    0.000000
    17  H    2.490403   0.000000
    18  H    4.311476   2.460807   0.000000
    19  H    6.069703   4.952016   2.690574   0.000000
    20  H    8.052666   7.321830   5.151226   2.464016   0.000000
    21  H    9.536712   9.298718   7.364762   4.762354   2.449983
    22  H    9.185758   9.603921   8.171998   5.967760   4.290935
    23  H    7.084550   7.968931   7.090616   5.574070   4.938668
    24  H    4.660250   5.706488   5.331318   4.739945   5.296495
    25  H    4.660250   5.706488   5.331318   4.739945   5.296495
                   21         22         23         24         25
    21  H    0.000000
    22  H    2.480042   0.000000
    23  H    4.278133   2.493963   0.000000
    24  H    5.772906   4.810965   2.647706   0.000000
    25  H    5.772906   4.810965   2.647706   1.719170   0.000000
 Stoichiometry    C14H11(1+)
 Framework group  CS[SG(C14H9),X(H2)]
 Deg. of freedom    46
 Full point group                 CS      NOp   2
 Largest Abelian subgroup         CS      NOp   2
 Largest concise Abelian subgroup CS      NOp   2
                         Standard orientation:                         
 ---------------------------------------------------------------------
 Center     Atomic      Atomic             Coordinates (Angstroms)
 Number     Number       Type             X           Y           Z
 ---------------------------------------------------------------------
      1          6           0        0.190398    2.757367    0.000000
      2          6           0       -0.882303    3.637536    0.000000
      3          6           0       -2.156966    3.096306    0.000000
      4          6           0       -2.362326    1.690763    0.000000
      5          6           0       -0.193493   -2.839256    0.000000
      6          6           0        0.972205   -3.618097    0.000000
      7          6           0        2.228070   -3.027466    0.000000
      8          6           0        2.306496   -1.641639    0.000000
      9          6           0        1.256554    0.599242    0.000000
     10          6           0       -1.343734   -0.644961    0.000000
     11          6           0        0.000000    1.367812    0.000000
     12          6           0       -1.277098    0.784625    0.000000
     13          6           0        1.139450   -0.859128    0.000000
     14          6           0       -0.148788   -1.437420    0.000000
     15          1           0        1.211821    3.130704    0.000000
     16          1           0       -0.722904    4.708271    0.000000
     17          1           0       -3.020802    3.748182    0.000000
     18          1           0       -3.381338    1.313929    0.000000
     19          1           0       -2.304491   -1.151752    0.000000
     20          1           0       -1.157725   -3.332647    0.000000
     21          1           0        0.880045   -4.692762    0.000000
     22          1           0        3.122630   -3.633791    0.000000
     23          1           0        3.269574   -1.144161    0.000000
     24          1           0        1.866198    0.929965    0.859585
     25          1           0        1.866198    0.929965   -0.859585
 ---------------------------------------------------------------------
 Rotational constants (GHZ):           2.1335111           0.4451727           0.3691213
 Standard basis: 6-311++G(d,p) (5D, 7F)
 There are   299 symmetry adapted cartesian basis functions of A'  symmetry.
 There are   100 symmetry adapted cartesian basis functions of A"  symmetry.
 There are   285 symmetry adapted basis functions of A'  symmetry.
 There are   100 symmetry adapted basis functions of A"  symmetry.
   385 basis functions,   603 primitive gaussians,   399 cartesian basis functions
    47 alpha electrons       47 beta electrons
       nuclear repulsion energy       781.2233064530 Hartrees.
 NAtoms=   25 NActive=   25 NUniq=   24 SFac= 1.09D+00 NAtFMM=   60 NAOKFM=F Big=F
 Integral buffers will be    131072 words long.
 Regular integral format.
 Two-electron integral symmetry is turned on.
 Nuclear repulsion after empirical dispersion term =      781.2223277395 Hartrees.
 One-electron integrals computed using PRISM.
 NBasis=   385 RedAO= T EigKep=  1.11D-06  NBF=   285   100
 NBsUse=   379 1.00D-06 EigRej=  8.31D-07 NBFU=   279   100
 ExpMin= 3.60D-02 ExpMax= 4.56D+03 ExpMxC= 6.82D+02 IAcc=3 IRadAn=         5 AccDes= 0.00D+00
 Harris functional with IExCor= 1009 and IRadAn=       5 diagonalized for initial guess.
 HarFok:  IExCor= 1009 AccDes= 0.00D+00 IRadAn=         5 IDoV= 1 UseB2=F ITyADJ=14
 ICtDFT=  3500011 ScaDFX=  1.000000  1.000000  1.000000  1.000000
 FoFCou: FMM=F IPFlag=           0 FMFlag=      100000 FMFlg1=           0
         NFxFlg=           0 DoJE=T BraDBF=F KetDBF=T FulRan=T
         wScrn=  0.000000 ICntrl=       500 IOpCl=  0 I1Cent=   200000004 NGrid=           0
         NMat0=    1 NMatS0=      1 NMatT0=    0 NMatD0=    1 NMtDS0=    0 NMtDT0=    0
 Petite list used in FoFCou.
 Initial guess orbital symmetries:
       Occupied  (A') (A') (A') (A') (A') (A') (A') (A') (A') (A')
                 (A') (A') (A') (A') (A') (A') (A') (A') (A') (A')
                 (A') (A') (A') (A') (A') (A') (A') (A') (A') (A')
                 (A') (A') (A") (A') (A') (A') (A') (A') (A') (A")
                 (A") (A') (A') (A") (A") (A") (A")
       Virtual   (A") (A") (A") (A") (A") (A') (A') (A') (A') (A")
                 (A") (A') (A') (A') (A") (A') (A') (A') (A') (A")
                 (A') (A") (A') (A') (A') (A") (A') (A") (A') (A')
                 (A') (A') (A') (A') (A") (A') (A') (A") (A') (A')
                 (A") (A') (A') (A") (A') (A') (A') (A') (A') (A")
                 (A') (A') (A") (A") (A') (A') (A') (A") (A") (A')
                 (A') (A') (A') (A') (A') (A") (A') (A') (A') (A")
                 (A') (A') (A') (A') (A') (A') (A') (A') (A') (A')
                 (A') (A') (A') (A') (A') (A') (A') (A') (A') (A')
                 (A') (A') (A') (A') (A') (A') (A') (A") (A') (A")
                 (A') (A') (A") (A") (A') (A") (A') (A") (A') (A")
                 (A") (A') (A') (A') (A") (A') (A') (A") (A") (A")
                 (A') (A") (A') (A') (A') (A') (A") (A') (A') (A")
                 (A') (A') (A') (A') (A') (A') (A") (A') (A') (A')
                 (A') (A') (A') (A') (A') (A') (A') (A') (A') (A")
                 (A") (A') (A") (A") (A') (A') (A') (A") (A") (A')
                 (A") (A') (A") (A") (A") (A') (A') (A') (A') (A')
                 (A') (A") (A') (A") (A') (A') (A') (A') (A') (A")
                 (A') (A') (A') (A") (A') (A") (A') (A') (A") (A")
                 (A') (A") (A') (A') (A") (A') (A') (A") (A') (A')
                 (A") (A") (A") (A') (A") (A') (A') (A") (A') (A')
                 (A") (A") (A') (A") (A') (A') (A") (A') (A") (A')
                 (A') (A') (A') (A') (A") (A') (A') (A') (A") (A")
                 (A') (A') (A') (A") (A') (A') (A") (A') (A") (A')
                 (A") (A') (A') (A') (A') (A") (A') (A') (A') (A")
                 (A') (A') (A') (A") (A") (A') (A') (A") (A') (A')
                 (A') (A") (A') (A") (A') (A') (A") (A') (A') (A")
                 (A') (A') (A') (A') (A") (A') (A") (A') (A") (A')
                 (A") (A') (A") (A") (A") (A') (A') (A') (A') (A')
                 (A') (A') (A') (A') (A') (A') (A') (A') (A') (A')
                 (A') (A') (A') (A') (A') (A") (A') (A') (A') (A')
                 (A') (A') (A') (A') (A') (A') (A') (A') (A') (A')
                 (A') (A') (A') (A') (A') (A') (A') (A') (A') (A')
                 (A') (A')
 The electronic state of the initial guess is 1-A'.
 Requested convergence on RMS density matrix=1.00D-08 within 128 cycles.
 Requested convergence on MAX density matrix=1.00D-06.
 Requested convergence on             energy=1.00D-06.
 No special actions if energy rises.
 SCF Done:  E(RM062X) =  -539.751544465     A.U. after   15 cycles
            NFock= 15  Conv=0.52D-08     -V/T= 2.0043
 DoSCS=F DFT=T ScalE2(SS,OS)=  1.000000  1.000000
 ExpMin= 3.60D-02 ExpMax= 4.56D+03 ExpMxC= 6.82D+02 IAcc=3 IRadAn=         5 AccDes= 0.00D+00
 HarFok:  IExCor=  205 AccDes= 0.00D+00 IRadAn=         5 IDoV=-2 UseB2=F ITyADJ=14
 ICtDFT= 12500011 ScaDFX=  1.000000  1.000000  1.000000  1.000000
 Range of M.O.s used for correlation:    15   379
 NBasis=   385 NAE=    47 NBE=    47 NFC=    14 NFV=     0
 NROrb=    365 NOA=    33 NOB=    33 NVA=   332 NVB=   332

 **** Warning!!: The largest alpha MO coefficient is  0.14261840D+03

 Orbital symmetries:
       Occupied  (A') (A') (A') (A') (A') (A') (A') (A') (A') (A')
                 (A') (A') (A') (A') (A') (A') (A') (A') (A') (A')
                 (A') (A') (A') (A') (A') (A') (A') (A') (A') (A')
                 (A') (A") (A') (A') (A') (A') (A') (A") (A") (A')
                 (A') (A') (A') (A") (A") (A") (A")
       Virtual   (A") (A") (A") (A") (A') (A') (A') (A') (A") (A')
                 (A') (A") (A') (A') (A") (A') (A") (A') (A') (A')
                 (A") (A") (A') (A') (A') (A") (A') (A") (A') (A')
                 (A") (A') (A") (A') (A') (A') (A') (A') (A") (A')
                 (A") (A') (A') (A") (A") (A') (A") (A') (A") (A')
                 (A') (A') (A') (A') (A") (A') (A') (A') (A') (A')
                 (A') (A") (A') (A') (A') (A") (A') (A') (A') (A')
                 (A') (A') (A') (A') (A') (A') (A') (A') (A') (A')
                 (A') (A') (A') (A') (A') (A') (A') (A') (A') (A')
                 (A') (A') (A') (A') (A") (A') (A") (A") (A') (A")
                 (A') (A') (A') (A') (A") (A") (A') (A") (A") (A')
                 (A') (A') (A") (A') (A') (A") (A') (A") (A') (A")
                 (A") (A') (A") (A') (A') (A') (A") (A') (A') (A')
                 (A') (A') (A') (A') (A') (A') (A') (A') (A') (A')
                 (A') (A') (A') (A") (A') (A') (A') (A') (A') (A')
                 (A') (A') (A") (A') (A") (A') (A") (A") (A') (A")
                 (A") (A') (A') (A") (A") (A") (A') (A') (A") (A')
                 (A') (A') (A') (A") (A") (A') (A') (A') (A') (A")
                 (A') (A') (A') (A") (A") (A') (A') (A') (A") (A")
                 (A") (A') (A') (A") (A') (A") (A') (A') (A') (A')
                 (A") (A") (A") (A') (A") (A') (A") (A') (A') (A')
                 (A') (A") (A') (A") (A") (A') (A") (A') (A") (A')
                 (A') (A') (A') (A') (A") (A') (A') (A') (A") (A")
                 (A') (A') (A') (A") (A') (A') (A') (A") (A") (A')
                 (A") (A') (A') (A") (A') (A') (A') (A') (A') (A')
                 (A") (A') (A') (A') (A') (A") (A") (A") (A') (A')
                 (A') (A') (A') (A') (A') (A') (A") (A') (A') (A')
                 (A') (A') (A") (A") (A") (A") (A') (A") (A') (A")
                 (A') (A") (A") (A") (A") (A') (A') (A') (A') (A')
                 (A') (A') (A') (A') (A') (A') (A') (A') (A') (A')
                 (A') (A') (A') (A') (A") (A') (A') (A') (A') (A')
                 (A') (A') (A') (A') (A') (A') (A') (A') (A') (A')
                 (A') (A') (A') (A') (A') (A') (A') (A') (A') (A')
                 (A') (A')
     4 initial guesses have been made.
 Convergence on wavefunction:    0.001000000000000
 Iteration     1 Dimension     4 NMult     0 NNew      4
 CISAX will form     4 AO SS matrices at one time.
 Iteration     2 Dimension     6 NMult     4 NNew      2
 Iteration     3 Dimension     8 NMult     6 NNew      2
 Iteration     4 Dimension    10 NMult     8 NNew      2
 Iteration     5 Dimension    12 NMult    10 NNew      2
 Iteration     6 Dimension    14 NMult    12 NNew      2
 ***********************************************************************
 Excited states from <AA,BB:AA,BB> singles matrix:
 ***********************************************************************
 
 Ground to excited state transition densities written to RWF  633
 Ground to excited state transition electric dipole moments (Au):
       state          X           Y           Z        Dip. S.      Osc.
         1         0.6004      0.2092      0.0000      0.4043      0.0268
 Ground to excited state transition velocity dipole moments (Au):
       state          X           Y           Z        Dip. S.      Osc.
         1        -0.0671     -0.0231     -0.0000      0.0050      0.0338
 Ground to excited state transition magnetic dipole moments (Au):
       state          X           Y           Z
         1        -0.0000      0.0000     -0.0033
 Ground to excited state transition velocity quadrupole moments (Au):
       state          XX          YY          ZZ          XY          XZ          YZ
         1         0.1036      0.2259     -0.0096     -0.1046     -0.0000      0.0000
 <0|del|b> * <b|rxdel|0> + <0|del|b> * <b|delr+rdel|0>
 Rotatory Strengths (R) in cgs (10**-40 erg-esu-cm/Gauss)
       state          XX          YY          ZZ    R(velocity)    E-M Angle
         1        -0.0000     -0.0000      0.0000      0.0000       90.00
 1/2[<0|r|b>*<b|rxdel|0> + (<0|rxdel|b>*<b|r|0>)*]
 Rotatory Strengths (R) in cgs (10**-40 erg-esu-cm/Gauss)
       state          XX          YY          ZZ     R(length)
         1         0.0000     -0.0000      0.0000      0.0000
  1/2[<0|del|b>*<b|r|0> + (<0|r|b>*<b|del|0>)*] (Au)
       state          X           Y           Z        Dip. S.   Osc.(frdel)
         1        -0.0403     -0.0048     -0.0000      0.0451      0.0301

 Excitation energies and oscillator strengths:
 
 Excited State   1:      Singlet-A'     2.7062 eV  458.14 nm  f=0.0268  <S**2>=0.000
      47 -> 48         0.70468
 This state for optimization and/or second-order correction.
 Total Energy, E(TD-HF/TD-DFT) =  -539.652092133    
 Copying the excited state density for this state as the 1-particle RhoCI density.
 SavETr:  write IOETrn=   770 NScale= 10 NData=  16 NLR=1 NState=    1 LETran=      28.

 **********************************************************************

            Population analysis using the SCF Density.

 **********************************************************************

 Orbital symmetries:
       Occupied  (A') (A') (A') (A') (A') (A') (A') (A') (A') (A')
                 (A') (A') (A') (A') (A') (A') (A') (A') (A') (A')
                 (A') (A') (A') (A') (A') (A') (A') (A') (A') (A')
                 (A') (A") (A') (A') (A') (A') (A') (A") (A") (A')
                 (A') (A') (A') (A") (A") (A") (A")
       Virtual   (A") (A") (A") (A") (A') (A') (A') (A') (A") (A')
                 (A') (A") (A') (A') (A") (A') (A") (A') (A') (A')
                 (A") (A") (A') (A') (A') (A") (A') (A") (A') (A')
                 (A") (A') (A") (A') (A') (A') (A') (A') (A") (A')
                 (A") (A') (A') (A") (A") (A') (A") (A') (A") (A')
                 (A') (A') (A') (A') (A") (A') (A') (A') (A') (A')
                 (A') (A") (A') (A') (A') (A") (A') (A') (A') (A')
                 (A') (A') (A') (A') (A') (A') (A') (A') (A') (A')
                 (A') (A') (A') (A') (A') (A') (A') (A') (A') (A')
                 (A') (A') (A') (A') (A") (A') (A") (A") (A') (A")
                 (A') (A') (A') (A') (A") (A") (A') (A") (A") (A')
                 (A') (A') (A") (A') (A') (A") (A') (A") (A') (A")
                 (A") (A') (A") (A') (A') (A') (A") (A') (A') (A')
                 (A') (A') (A') (A') (A') (A') (A') (A') (A') (A')
                 (A') (A') (A') (A") (A') (A') (A') (A') (A') (A')
                 (A') (A') (A") (A') (A") (A') (A") (A") (A') (A")
                 (A") (A') (A') (A") (A") (A") (A') (A') (A") (A')
                 (A') (A') (A') (A") (A") (A') (A') (A') (A') (A")
                 (A') (A') (A') (A") (A") (A') (A') (A') (A") (A")
                 (A") (A') (A') (A") (A') (A") (A') (A') (A') (A')
                 (A") (A") (A") (A') (A") (A') (A") (A') (A') (A')
                 (A') (A") (A') (A") (A") (A') (A") (A') (A") (A')
                 (A') (A') (A') (A') (A") (A') (A') (A') (A") (A")
                 (A') (A') (A') (A") (A') (A') (A') (A") (A") (A')
                 (A") (A') (A') (A") (A') (A') (A') (A') (A') (A')
                 (A") (A') (A') (A') (A') (A") (A") (A") (A') (A')
                 (A') (A') (A') (A') (A') (A') (A") (A') (A') (A')
                 (A') (A') (A") (A") (A") (A") (A') (A") (A') (A")
                 (A') (A") (A") (A") (A") (A') (A') (A') (A') (A')
                 (A') (A') (A') (A') (A') (A') (A') (A') (A') (A')
                 (A') (A') (A') (A') (A") (A') (A') (A') (A') (A')
                 (A') (A') (A') (A') (A') (A') (A') (A') (A') (A')
                 (A') (A') (A') (A') (A') (A') (A') (A') (A') (A')
                 (A') (A')
 The electronic state is 1-A'.
 Alpha  occ. eigenvalues --  -10.78235 -10.73089 -10.72985 -10.72901 -10.72708
 Alpha  occ. eigenvalues --  -10.71741 -10.71311 -10.71027 -10.70912 -10.70674
 Alpha  occ. eigenvalues --  -10.69958 -10.69831 -10.69724 -10.69541  -1.16447
 Alpha  occ. eigenvalues --   -1.12400  -1.06890  -1.05870  -1.01292  -1.00120
 Alpha  occ. eigenvalues --   -0.95734  -0.90987  -0.86474  -0.85806  -0.83715
 Alpha  occ. eigenvalues --   -0.78347  -0.76048  -0.74335  -0.69374  -0.69314
 Alpha  occ. eigenvalues --   -0.68648  -0.68344  -0.68175  -0.64812  -0.64403
 Alpha  occ. eigenvalues --   -0.62762  -0.61637  -0.59795  -0.59615  -0.59077
 Alpha  occ. eigenvalues --   -0.56925  -0.55265  -0.54663  -0.52441  -0.46576
 Alpha  occ. eigenvalues --   -0.46069  -0.44245
 Alpha virt. eigenvalues --   -0.26278  -0.14735  -0.14183  -0.12766  -0.11215
 Alpha virt. eigenvalues --   -0.10093  -0.09224  -0.08002  -0.08000  -0.07478
 Alpha virt. eigenvalues --   -0.07280  -0.07247  -0.05648  -0.05584  -0.05361
 Alpha virt. eigenvalues --   -0.03840  -0.03642  -0.03280  -0.03116  -0.02164
 Alpha virt. eigenvalues --   -0.01360  -0.00909   0.00152   0.00563   0.00668
 Alpha virt. eigenvalues --    0.01046   0.01494   0.01930   0.02161   0.02248
 Alpha virt. eigenvalues --    0.02418   0.02630   0.02738   0.03310   0.03379
 Alpha virt. eigenvalues --    0.04213   0.04507   0.04622   0.04874   0.05251
 Alpha virt. eigenvalues --    0.06003   0.06203   0.06608   0.07078   0.07222
 Alpha virt. eigenvalues --    0.08033   0.08150   0.08270   0.08466   0.08924
 Alpha virt. eigenvalues --    0.09439   0.09463   0.09946   0.10674   0.11203
 Alpha virt. eigenvalues --    0.11226   0.12164   0.12363   0.12755   0.12970
 Alpha virt. eigenvalues --    0.13170   0.13482   0.14018   0.14249   0.16232
 Alpha virt. eigenvalues --    0.16358   0.16548   0.17305   0.17558   0.17916
 Alpha virt. eigenvalues --    0.18201   0.18753   0.19260   0.19622   0.19930
 Alpha virt. eigenvalues --    0.21354   0.21490   0.22951   0.23057   0.23342
 Alpha virt. eigenvalues --    0.23558   0.24586   0.25045   0.26871   0.27690
 Alpha virt. eigenvalues --    0.28777   0.29108   0.29512   0.31264   0.35624
 Alpha virt. eigenvalues --    0.36190   0.38004   0.39196   0.41225   0.41510
 Alpha virt. eigenvalues --    0.41899   0.42194   0.43019   0.43791   0.44455
 Alpha virt. eigenvalues --    0.44800   0.45117   0.45950   0.46283   0.47978
 Alpha virt. eigenvalues --    0.48523   0.48842   0.48933   0.50433   0.50534
 Alpha virt. eigenvalues --    0.51285   0.52044   0.52070   0.53225   0.53933
 Alpha virt. eigenvalues --    0.53986   0.55016   0.55657   0.55795   0.57436
 Alpha virt. eigenvalues --    0.58175   0.59140   0.61484   0.62018   0.62452
 Alpha virt. eigenvalues --    0.62941   0.63129   0.65041   0.65072   0.67567
 Alpha virt. eigenvalues --    0.70238   0.70573   0.71180   0.72509   0.72614
 Alpha virt. eigenvalues --    0.75822   0.75929   0.76021   0.76810   0.77460
 Alpha virt. eigenvalues --    0.77567   0.77862   0.78276   0.79603   0.80455
 Alpha virt. eigenvalues --    0.81059   0.81765   0.82015   0.83250   0.85217
 Alpha virt. eigenvalues --    0.86854   0.88059   0.88316   0.88937   0.90393
 Alpha virt. eigenvalues --    0.90883   0.91669   0.93491   0.94643   0.96189
 Alpha virt. eigenvalues --    0.96332   1.00112   1.01711   1.01740   1.02714
 Alpha virt. eigenvalues --    1.03195   1.03272   1.03811   1.04547   1.07973
 Alpha virt. eigenvalues --    1.17248   1.23215   1.23776   1.26061   1.28192
 Alpha virt. eigenvalues --    1.31238   1.32720   1.33978   1.34571   1.34876
 Alpha virt. eigenvalues --    1.39309   1.39888   1.40905   1.42798   1.43395
 Alpha virt. eigenvalues --    1.43934   1.45457   1.45870   1.46105   1.46541
 Alpha virt. eigenvalues --    1.47826   1.48270   1.51418   1.53735   1.54716
 Alpha virt. eigenvalues --    1.55589   1.55892   1.56313   1.57782   1.61199
 Alpha virt. eigenvalues --    1.63101   1.63551   1.63846   1.66043   1.67959
 Alpha virt. eigenvalues --    1.68646   1.69449   1.69637   1.74093   1.75555
 Alpha virt. eigenvalues --    1.77433   1.78026   1.80033   1.80398   1.81315
 Alpha virt. eigenvalues --    1.81804   1.82634   1.83112   1.83663   1.83830
 Alpha virt. eigenvalues --    1.84905   1.85363   1.86499   1.88366   1.91289
 Alpha virt. eigenvalues --    1.92071   1.94488   1.96550   1.97561   1.97693
 Alpha virt. eigenvalues --    1.99554   2.02188   2.03611   2.07298   2.11655
 Alpha virt. eigenvalues --    2.13134   2.13970   2.15062   2.18653   2.21489
 Alpha virt. eigenvalues --    2.22543   2.28191   2.29858   2.34444   2.34956
 Alpha virt. eigenvalues --    2.35995   2.38651   2.39552   2.42177   2.43891
 Alpha virt. eigenvalues --    2.46092   2.46770   2.48266   2.52011   2.53089
 Alpha virt. eigenvalues --    2.54285   2.56603   2.57865   2.58587   2.59815
 Alpha virt. eigenvalues --    2.59943   2.61309   2.62058   2.63193   2.64200
 Alpha virt. eigenvalues --    2.65166   2.65353   2.65420   2.66080   2.67779
 Alpha virt. eigenvalues --    2.68665   2.70943   2.71055   2.72864   2.74851
 Alpha virt. eigenvalues --    2.76206   2.78557   2.79848   2.82549   2.83199
 Alpha virt. eigenvalues --    2.84032   2.86332   2.92092   2.99330   2.99902
 Alpha virt. eigenvalues --    3.00071   3.05657   3.09028   3.12079   3.13006
 Alpha virt. eigenvalues --    3.20355   3.24253   3.26398   3.28147   3.31295
 Alpha virt. eigenvalues --    3.31905   3.32343   3.43250   3.45213   3.46798
 Alpha virt. eigenvalues --    3.47896   3.49126   3.56363   3.66507   3.66600
 Alpha virt. eigenvalues --    3.67772   3.93353   3.94488   3.95101   3.96289
 Alpha virt. eigenvalues --    4.03770   4.06483   4.07469   4.11820   4.36077
 Alpha virt. eigenvalues --    4.61070   4.69314   4.70904  23.45562  23.60283
 Alpha virt. eigenvalues --   23.80633  23.86307  23.88075  23.88631  23.89711
 Alpha virt. eigenvalues --   23.92147  23.96840  23.97769  23.99742  24.00536
 Alpha virt. eigenvalues --   24.10294  24.10788
          Condensed to atoms (all electrons):
               1          2          3          4          5          6
     1  C    9.908080   1.168417  -0.949742   1.472552   0.094072  -0.062426
     2  C    1.168417   7.086304   0.350588  -0.342511  -0.090335  -0.019451
     3  C   -0.949742   0.350588   6.582402   0.333061  -0.063174   0.007865
     4  C    1.472552  -0.342511   0.333061   8.658558   0.457902  -0.026802
     5  C    0.094072  -0.090335  -0.063174   0.457902   8.403854   0.393985
     6  C   -0.062426  -0.019451   0.007865  -0.026802   0.393985   6.905500
     7  C   -0.083404   0.022458  -0.013270  -0.092367  -0.512412   0.402472
     8  C   -0.216173  -0.095725  -0.050054  -0.084798   1.527286  -0.963111
     9  C   -2.660974  -0.704606   0.197477  -1.052725  -1.178341   0.235339
    10  C   -0.280065   0.285404  -0.418299  -0.994632  -1.097112  -0.742267
    11  C   -1.996341  -1.987558   1.266099  -2.625240  -1.164613  -0.299773
    12  C    0.174453   0.764412  -0.619416   0.641694   0.231051  -0.298318
    13  C   -0.094850  -0.089101  -0.146727  -1.551170  -2.337651   1.305950
    14  C   -0.911646  -0.245846  -0.330935   0.729955   0.796934  -0.702999
    15  H    0.349354  -0.082789   0.004944   0.020094   0.004147   0.001670
    16  H   -0.032796   0.373623  -0.012579   0.005625  -0.000829  -0.000409
    17  H   -0.011490  -0.027791   0.386459  -0.051600  -0.000497   0.000405
    18  H    0.044263  -0.000653  -0.098078   0.424807   0.020218  -0.002796
    19  H   -0.044163  -0.008588   0.039719  -0.080841  -0.067802   0.036649
    20  H    0.011497   0.002152  -0.003883   0.017156   0.435479  -0.114953
    21  H   -0.001857  -0.000427   0.000343  -0.000089  -0.040607   0.378303
    22  H    0.001735   0.000473  -0.000328  -0.001374  -0.003966  -0.006582
    23  H   -0.004125  -0.004330   0.000675   0.004488   0.019832  -0.002275
    24  H    0.035942   0.016482  -0.000007  -0.017119  -0.012554  -0.002426
    25  H    0.035942   0.016482  -0.000007  -0.017119  -0.012554  -0.002426
               7          8          9         10         11         12
     1  C   -0.083404  -0.216173  -2.660974  -0.280065  -1.996341   0.174453
     2  C    0.022458  -0.095725  -0.704606   0.285404  -1.987558   0.764412
     3  C   -0.013270  -0.050054   0.197477  -0.418299   1.266099  -0.619416
     4  C   -0.092367  -0.084798  -1.052725  -0.994632  -2.625240   0.641694
     5  C   -0.512412   1.527286  -1.178341  -1.097112  -1.164613   0.231051
     6  C    0.402472  -0.963111   0.235339  -0.742267  -0.299773  -0.298318
     7  C    6.588055   0.956395  -0.381887   0.219852  -0.112745  -0.219316
     8  C    0.956395  10.467667  -2.567153   0.071607   0.046877  -1.022411
     9  C   -0.381887  -2.567153   9.444224   0.215174   2.484553  -0.556004
    10  C    0.219852   0.071607   0.215174   9.906682  -1.949159   1.165217
    11  C   -0.112745   0.046877   2.484553  -1.949159  17.875621  -2.798645
    12  C   -0.219316  -1.022411  -0.556004   1.165217  -2.798645  13.360010
    13  C   -1.307452  -2.332396   2.790695  -1.966076   2.958194  -4.958614
    14  C    0.599177  -0.009812  -0.815547   1.044665  -5.535002   0.115886
    15  H   -0.004592  -0.009309   0.062234  -0.003199  -0.006315   0.008409
    16  H    0.000348   0.001450   0.003915  -0.014948   0.063054  -0.048862
    17  H   -0.000329  -0.001931   0.000973   0.013305   0.004543   0.038558
    18  H    0.000858   0.008041  -0.029801   0.051695  -0.027853  -0.058857
    19  H   -0.001299  -0.034297   0.069366   0.412085   0.085578  -0.019550
    20  H    0.001063   0.043980  -0.030390   0.078653  -0.000093   0.008667
    21  H   -0.029760  -0.003452  -0.001679   0.013567  -0.007353   0.004321
    22  H    0.381538  -0.047014   0.008546  -0.014938   0.005369  -0.010416
    23  H   -0.063007   0.368700   0.045046  -0.002696  -0.019987   0.004513
    24  H    0.014430   0.038631   0.355629   0.006078   0.016188  -0.065398
    25  H    0.014430   0.038631   0.355629   0.006078   0.016188  -0.065398
              13         14         15         16         17         18
     1  C   -0.094850  -0.911646   0.349354  -0.032796  -0.011490   0.044263
     2  C   -0.089101  -0.245846  -0.082789   0.373623  -0.027791  -0.000653
     3  C   -0.146727  -0.330935   0.004944  -0.012579   0.386459  -0.098078
     4  C   -1.551170   0.729955   0.020094   0.005625  -0.051600   0.424807
     5  C   -2.337651   0.796934   0.004147  -0.000829  -0.000497   0.020218
     6  C    1.305950  -0.702999   0.001670  -0.000409   0.000405  -0.002796
     7  C   -1.307452   0.599177  -0.004592   0.000348  -0.000329   0.000858
     8  C   -2.332396  -0.009812  -0.009309   0.001450  -0.001931   0.008041
     9  C    2.790695  -0.815547   0.062234   0.003915   0.000973  -0.029801
    10  C   -1.966076   1.044665  -0.003199  -0.014948   0.013305   0.051695
    11  C    2.958194  -5.535002  -0.006315   0.063054   0.004543  -0.027853
    12  C   -4.958614   0.115886   0.008409  -0.048862   0.038558  -0.058857
    13  C   18.089134  -4.067094  -0.018715   0.004752  -0.006374  -0.007123
    14  C   -4.067094  15.161410   0.006664  -0.007963   0.001631   0.007751
    15  H   -0.018715   0.006664   0.441451  -0.009505   0.001290   0.000057
    16  H    0.004752  -0.007963  -0.009505   0.418487  -0.006394   0.001900
    17  H   -0.006374   0.001631   0.001290  -0.006394   0.422129  -0.009096
    18  H   -0.007123   0.007751   0.000057   0.001900  -0.009096   0.443810
    19  H    0.075830  -0.093470   0.000265  -0.000458   0.001138  -0.005069
    20  H   -0.048080  -0.065407  -0.000134   0.000032  -0.000141   0.001126
    21  H   -0.010485   0.042167   0.000005  -0.000007   0.000008  -0.000101
    22  H    0.078882  -0.056113  -0.000170   0.000009  -0.000007   0.000015
    23  H   -0.030451   0.025787   0.000765  -0.000113  -0.000006  -0.000079
    24  H    0.022948  -0.073833  -0.001473   0.000606  -0.000117   0.000172
    25  H    0.022948  -0.073833  -0.001473   0.000606  -0.000117   0.000172
              19         20         21         22         23         24
     1  C   -0.044163   0.011497  -0.001857   0.001735  -0.004125   0.035942
     2  C   -0.008588   0.002152  -0.000427   0.000473  -0.004330   0.016482
     3  C    0.039719  -0.003883   0.000343  -0.000328   0.000675  -0.000007
     4  C   -0.080841   0.017156  -0.000089  -0.001374   0.004488  -0.017119
     5  C   -0.067802   0.435479  -0.040607  -0.003966   0.019832  -0.012554
     6  C    0.036649  -0.114953   0.378303  -0.006582  -0.002275  -0.002426
     7  C   -0.001299   0.001063  -0.029760   0.381538  -0.063007   0.014430
     8  C   -0.034297   0.043980  -0.003452  -0.047014   0.368700   0.038631
     9  C    0.069366  -0.030390  -0.001679   0.008546   0.045046   0.355629
    10  C    0.412085   0.078653   0.013567  -0.014938  -0.002696   0.006078
    11  C    0.085578  -0.000093  -0.007353   0.005369  -0.019987   0.016188
    12  C   -0.019550   0.008667   0.004321  -0.010416   0.004513  -0.065398
    13  C    0.075830  -0.048080  -0.010485   0.078882  -0.030451   0.022948
    14  C   -0.093470  -0.065407   0.042167  -0.056113   0.025787  -0.073833
    15  H    0.000265  -0.000134   0.000005  -0.000170   0.000765  -0.001473
    16  H   -0.000458   0.000032  -0.000007   0.000009  -0.000113   0.000606
    17  H    0.001138  -0.000141   0.000008  -0.000007  -0.000006  -0.000117
    18  H   -0.005069   0.001126  -0.000101   0.000015  -0.000079   0.000172
    19  H    0.428490  -0.003920   0.000792  -0.000303   0.000053   0.000798
    20  H   -0.003920   0.453754  -0.010014   0.001854   0.000233   0.000208
    21  H    0.000792  -0.010014   0.424872  -0.006895   0.001353  -0.000171
    22  H   -0.000303   0.001854  -0.006895   0.417855  -0.008539   0.000681
    23  H    0.000053   0.000233   0.001353  -0.008539   0.434423  -0.000660
    24  H    0.000798   0.000208  -0.000171   0.000681  -0.000660   0.496768
    25  H    0.000798   0.000208  -0.000171   0.000681  -0.000660  -0.080954
              25
     1  C    0.035942
     2  C    0.016482
     3  C   -0.000007
     4  C   -0.017119
     5  C   -0.012554
     6  C   -0.002426
     7  C    0.014430
     8  C    0.038631
     9  C    0.355629
    10  C    0.006078
    11  C    0.016188
    12  C   -0.065398
    13  C    0.022948
    14  C   -0.073833
    15  H   -0.001473
    16  H    0.000606
    17  H   -0.000117
    18  H    0.000172
    19  H    0.000798
    20  H    0.000208
    21  H   -0.000171
    22  H    0.000681
    23  H   -0.000660
    24  H   -0.080954
    25  H    0.496768
 Mulliken charges:
               1
     1  C    0.053745
     2  C   -0.387081
     3  C   -0.463132
     4  C    0.172495
     5  C    0.197690
     6  C   -0.421124
     7  C   -0.379237
     8  C   -0.131627
     9  C   -0.289691
    10  C   -0.006672
    11  C   -0.291587
    12  C    0.224015
    13  C   -0.376976
    14  C    0.457471
    15  H    0.236326
    16  H    0.260458
    17  H    0.245450
    18  H    0.234620
    19  H    0.208198
    20  H    0.220957
    21  H    0.247336
    22  H    0.259004
    23  H    0.231060
    24  H    0.249151
    25  H    0.249151
 Sum of Mulliken charges =   1.00000
 Mulliken charges with hydrogens summed into heavy atoms:
               1
     1  C    0.290071
     2  C   -0.126623
     3  C   -0.217682
     4  C    0.407115
     5  C    0.418647
     6  C   -0.173789
     7  C   -0.120232
     8  C    0.099433
     9  C    0.208611
    10  C    0.201527
    11  C   -0.291587
    12  C    0.224015
    13  C   -0.376976
    14  C    0.457471
 Electronic spatial extent (au):  <R**2>=           2853.7445
 Charge=              1.0000 electrons
 Dipole moment (field-independent basis, Debye):
    X=             -0.1247    Y=             -0.0786    Z=             -0.0000  Tot=              0.1474
 Quadrupole moment (field-independent basis, Debye-Ang):
   XX=            -51.6048   YY=            -36.0044   ZZ=            -84.2023
   XY=             -9.5355   XZ=              0.0000   YZ=              0.0000
 Traceless Quadrupole moment (field-independent basis, Debye-Ang):
   XX=              5.6657   YY=             21.2661   ZZ=            -26.9318
   XY=             -9.5355   XZ=              0.0000   YZ=              0.0000
 Octapole moment (field-independent basis, Debye-Ang**2):
  XXX=             -0.6961  YYY=              6.8584  ZZZ=              0.0000  XYY=              1.8918
  XXY=             -6.3083  XXZ=             -0.0000  XZZ=              2.9671  YZZ=              1.2462
  YYZ=             -0.0000  XYZ=             -0.0000
 Hexadecapole moment (field-independent basis, Debye-Ang**3):
 XXXX=           -934.0213 YYYY=          -1892.4997 ZZZZ=            -99.4826 XXXY=            331.8171
 XXXZ=             -0.0000 YYYX=            256.8089 YYYZ=             -0.0000 ZZZX=             -0.0000
 ZZZY=              0.0000 XXYY=           -460.3765 XXZZ=           -228.6776 YYZZ=           -508.4211
 XXYZ=              0.0000 YYXZ=             -0.0000 ZZXY=            172.8398
 N-N= 7.812223277395D+02 E-N=-2.798732987925D+03  KE= 5.374551105977D+02
 Symmetry A'   KE= 5.228077638397D+02
 Symmetry A"   KE= 1.464734675799D+01
 Unable to Open any file for archive entry.
 1\1\GINC-GADI-CPU-CLX-0359\SP\RM062X TD-FC\6-311++G(d,p)\C14H11(1+)\TS
 1578\02-Aug-2022\0\\#n M062X/6-311++G(d,p) TD(NStates=1) EmpiricalDisp
 ersion=GD3 SP\\SP_-2\\1,1\C,0,0.,2.414655,1.346431\C,0,0.,3.667508,0.7
 49989\C,0,0.,3.719861,-0.63383\C,0,0.,2.535156,-1.417538\C,0,0.,-2.487
 156,-1.381538\C,0,0.,-3.687861,-0.65783\C,0,0.,-3.687508,0.729989\C,0,
 0.,-2.466655,1.390431\C,0,0.,0.008,1.393369\C,0,0.,-0.012,-1.489189\C,
 0,0.,1.238055,0.583065\C,0,0.,1.253471,-0.820804\C,0,0.,-1.262055,0.66
 7065\C,0,0.,-1.237471,-0.744804\H,0,0.,2.318071,2.429647\H,0,0.,4.5687
 53,1.349689\H,0,0.,4.677262,-1.138349\H,0,0.,2.62755,-2.500059\H,0,0.,
 -0.062,-2.574266\H,0,0.,-2.52355,-2.464059\H,0,0.,-4.621262,-1.198349\
 H,0,0.,-4.616753,1.281689\H,0,0.,-2.426071,2.473647\H,0,-0.859585,0.04
 8,2.085787\H,0,0.859585,0.048,2.085787\\Version=ES64L-G16RevC.01\State
 =1-A'\HF=-539.7515445\RMSD=5.247e-09\PG=CS [SG(C14H9),X(H2)]\\@
 The archive entry for this job was punched.


 IT IS NOT EASY TO DESCRIBE
     THE SEA WITH THE MOUTH

                   -- KOKYU
 Job cpu time:       0 days  0 hours 52 minutes 13.0 seconds.
 Elapsed time:       0 days  0 hours  1 minutes  5.4 seconds.
 File lengths (MBytes):  RWF=    460 Int=      0 D2E=      0 Chk=     15 Scr=      1
 Normal termination of Gaussian 16 at Tue Aug  2 12:38:13 2022.
