 Entering Gaussian System, Link 0=g16
 Initial command:
 /apps/gaussian/g16c01/g16/l1.exe "/jobfs/53803768.gadi-pbs/Gau-175080.inp" -scrdir="/jobfs/53803768.gadi-pbs/"
 Entering Link 1 = /apps/gaussian/g16c01/g16/l1.exe PID=    175081.
  
 Copyright (c) 1988-2019, Gaussian, Inc.  All Rights Reserved.
  
 This is part of the Gaussian(R) 16 program.  It is based on
 the Gaussian(R) 09 system (copyright 2009, Gaussian, Inc.),
 the Gaussian(R) 03 system (copyright 2003, Gaussian, Inc.),
 the Gaussian(R) 98 system (copyright 1998, Gaussian, Inc.),
 the Gaussian(R) 94 system (copyright 1995, Gaussian, Inc.),
 the Gaussian 92(TM) system (copyright 1992, Gaussian, Inc.),
 the Gaussian 90(TM) system (copyright 1990, Gaussian, Inc.),
 the Gaussian 88(TM) system (copyright 1988, Gaussian, Inc.),
 the Gaussian 86(TM) system (copyright 1986, Carnegie Mellon
 University), and the Gaussian 82(TM) system (copyright 1983,
 Carnegie Mellon University). Gaussian is a federally registered
 trademark of Gaussian, Inc.
  
 This software contains proprietary and confidential information,
 including trade secrets, belonging to Gaussian, Inc.
  
 This software is provided under written license and may be
 used, copied, transmitted, or stored only in accord with that
 written license.
  
 The following legend is applicable only to US Government
 contracts under FAR:
  
                    RESTRICTED RIGHTS LEGEND
  
 Use, reproduction and disclosure by the US Government is
 subject to restrictions as set forth in subparagraphs (a)
 and (c) of the Commercial Computer Software - Restricted
 Rights clause in FAR 52.227-19.
  
 Gaussian, Inc.
 340 Quinnipiac St., Bldg. 40, Wallingford CT 06492
  
  
 ---------------------------------------------------------------
 Warning -- This program may not be used in any manner that
 competes with the business of Gaussian, Inc. or will provide
 assistance to any competitor of Gaussian, Inc.  The licensee
 of this program is prohibited from giving any competitor of
 Gaussian, Inc. access to this program.  By using this program,
 the user acknowledges that Gaussian, Inc. is engaged in the
 business of creating and licensing software in the field of
 computational chemistry and represents and warrants to the
 licensee that it is not a competitor of Gaussian, Inc. and that
 it will not use this program in any manner prohibited above.
 ---------------------------------------------------------------
  

 Cite this work as:
 Gaussian 16, Revision C.01,
 M. J. Frisch, G. W. Trucks, H. B. Schlegel, G. E. Scuseria, 
 M. A. Robb, J. R. Cheeseman, G. Scalmani, V. Barone, 
 G. A. Petersson, H. Nakatsuji, X. Li, M. Caricato, A. V. Marenich, 
 J. Bloino, B. G. Janesko, R. Gomperts, B. Mennucci, H. P. Hratchian, 
 J. V. Ortiz, A. F. Izmaylov, J. L. Sonnenberg, D. Williams-Young, 
 F. Ding, F. Lipparini, F. Egidi, J. Goings, B. Peng, A. Petrone, 
 T. Henderson, D. Ranasinghe, V. G. Zakrzewski, J. Gao, N. Rega, 
 G. Zheng, W. Liang, M. Hada, M. Ehara, K. Toyota, R. Fukuda, 
 J. Hasegawa, M. Ishida, T. Nakajima, Y. Honda, O. Kitao, H. Nakai, 
 T. Vreven, K. Throssell, J. A. Montgomery, Jr., J. E. Peralta, 
 F. Ogliaro, M. J. Bearpark, J. J. Heyd, E. N. Brothers, K. N. Kudin, 
 V. N. Staroverov, T. A. Keith, R. Kobayashi, J. Normand, 
 K. Raghavachari, A. P. Rendell, J. C. Burant, S. S. Iyengar, 
 J. Tomasi, M. Cossi, J. M. Millam, M. Klene, C. Adamo, R. Cammi, 
 J. W. Ochterski, R. L. Martin, K. Morokuma, O. Farkas, 
 J. B. Foresman, and D. J. Fox, Gaussian, Inc., Wallingford CT, 2019.
 
 ******************************************
 Gaussian 16:  ES64L-G16RevC.01  3-Jul-2019
                 2-Aug-2022 
 ******************************************
 %NProcShared=48
 Will use up to   48 processors via shared memory.
 %mem = 190GB
 ---------------------------------------------------------------
 #n M062X/6-311++G(d,p) TD(NStates=1) EmpiricalDispersion=GD3 SP
 ---------------------------------------------------------------
 1/38=1,172=1/1;
 2/12=2,17=6,18=5,40=1/2;
 3/5=4,6=6,7=1111,11=9,25=1,30=1,74=-55,124=31/1,2,3,8;
 4//1;
 5/5=2,38=5/2;
 8/6=1,10=2,108=1/1;
 9/41=1,42=1,70=2/14;
 6/7=2,8=2,9=2,10=2/1;
 99/5=1,9=1/99;
 -----
 SP_-6
 -----
 Symbolic Z-matrix:
 Charge =  1 Multiplicity = 1
 C                     0.        2.44066   1.29043 
 C                     0.        3.68351   0.66799 
 C                     0.        3.72186  -0.71183 
 C                     0.        2.51116  -1.46554 
 C                     0.       -2.36716  -1.35754 
 C                     0.       -3.62586  -0.78383 
 C                     0.       -3.74351   0.60799 
 C                     0.       -2.59666   1.42243 
 C                     0.        0.024     1.48337 
 C                     0.       -0.036    -1.39919 
 C                     0.        1.23206   0.57707 
 C                     0.        1.25747  -0.8188 
 C                     0.       -1.30406   0.82907 
 C                     0.       -1.20947  -0.5908 
 H                     0.        2.38407   2.37365 
 H                     0.        4.58675   1.26169 
 H                     0.        4.67326  -1.23435 
 H                     0.        2.56955  -2.54806 
 H                     0.       -0.186    -2.47827 
 H                     0.       -2.25755  -2.44006 
 H                     0.       -4.50526  -1.41435 
 H                     0.       -4.73075   1.05769 
 H                     0.       -2.70807   2.50565 
 H                    -0.85959   0.144     2.17579 
 H                     0.85959   0.144     2.17579 
 
                          Input orientation:                          
 ---------------------------------------------------------------------
 Center     Atomic      Atomic             Coordinates (Angstroms)
 Number     Number       Type             X           Y           Z
 ---------------------------------------------------------------------
      1          6           0        0.000000    2.440655    1.290431
      2          6           0        0.000000    3.683508    0.667989
      3          6           0        0.000000    3.721861   -0.711830
      4          6           0        0.000000    2.511156   -1.465538
      5          6           0        0.000000   -2.367156   -1.357538
      6          6           0        0.000000   -3.625861   -0.783830
      7          6           0        0.000000   -3.743508    0.607989
      8          6           0        0.000000   -2.596655    1.422431
      9          6           0        0.000000    0.024000    1.483369
     10          6           0        0.000000   -0.036000   -1.399189
     11          6           0        0.000000    1.232055    0.577065
     12          6           0        0.000000    1.257471   -0.818804
     13          6           0        0.000000   -1.304055    0.829065
     14          6           0        0.000000   -1.209471   -0.590804
     15          1           0        0.000000    2.384071    2.373647
     16          1           0        0.000000    4.586753    1.261689
     17          1           0        0.000000    4.673262   -1.234349
     18          1           0        0.000000    2.569550   -2.548059
     19          1           0        0.000000   -0.186000   -2.478266
     20          1           0        0.000000   -2.257550   -2.440059
     21          1           0        0.000000   -4.505262   -1.414349
     22          1           0        0.000000   -4.730753    1.057689
     23          1           0        0.000000   -2.708071    2.505647
     24          1           0       -0.859585    0.144000    2.175787
     25          1           0        0.859585    0.144000    2.175787
 ---------------------------------------------------------------------
                    Distance matrix (angstroms):
                    1          2          3          4          5
     1  C    0.000000
     2  C    1.390006   0.000000
     3  C    2.377086   1.380352   0.000000
     4  C    2.756871   2.434409   1.426142   0.000000
     5  C    5.488787   6.380697   6.123158   4.879507   0.000000
     6  C    6.411332   7.452158   7.348075   6.174763   1.383286
     7  C    6.221704   7.427258   7.581138   6.589411   2.399509
     8  C    5.039039   6.325317   6.669236   5.867717   2.789426
     9  C    2.424345   3.749246   4.300357   3.857719   3.713271
    10  C    3.656211   4.255345   3.820207   2.548020   2.331528
    11  C    1.403426   2.453139   2.803638   2.410047   4.086197
    12  C    2.418429   2.845384   2.466711   1.410670   3.664445
    13  C    3.773024   4.990163   5.256823   4.452082   2.431340
    14  C    4.106393   5.052307   4.932817   3.822071   1.388566
    15  H    1.084693   2.144249   3.363012   3.841288   6.041184
    16  H    2.146290   1.080894   2.154719   3.427225   7.430828
    17  H    3.370319   2.144412   1.085445   2.174431   7.041496
    18  H    3.840654   3.403508   2.167846   1.084095   5.078229
    19  H    4.593734   4.987185   4.288551   2.881019   2.452238
    20  H    5.999140   6.704933   6.224157   4.867263   1.088056
    21  H    7.453965   8.449384   8.257063   7.016605   2.138861
    22  H    7.175184   8.423280   8.635849   7.668893   3.379336
    23  H    5.290192   6.650509   7.190006   6.558250   3.878198
    24  H    2.607176   3.942139   4.677425   4.427365   4.419183
    25  H    2.607176   3.942139   4.677425   4.427365   4.419183
                    6          7          8          9         10
     6  C    0.000000
     7  C    1.396782   0.000000
     8  C    2.434513   1.406623   0.000000
     9  C    4.296705   3.867868   2.621363   0.000000
    10  C    3.642220   4.215967   3.810314   2.883182   0.000000
    11  C    5.044936   4.975659   3.920926   1.510226   2.348094
    12  C    4.883457   5.200532   4.458410   2.611791   1.417714
    13  C    2.827050   2.449450   1.422286   1.480488   2.563802
    14  C    2.424087   2.803292   2.444871   2.413223   1.424963
    15  H    6.788884   6.376894   5.070744   2.522406   4.482302
    16  H    8.463520   8.355871   7.185206   4.568135   5.333865
    17  H    8.311342   8.616045   7.740166   5.385316   4.712146
    18  H    6.441710   7.057998   6.515709   4.767834   2.847594
    19  H    3.834548   4.709653   4.585487   3.967197   1.089453
    20  H    2.148341   3.390969   3.877347   4.538585   2.453303
    21  H    1.082081   2.161046   3.419079   5.376894   4.469288
    22  H    2.147552   1.084842   2.165043   4.773770   5.298769
    23  H    3.415113   2.161767   1.088931   2.917064   4.731565
    24  H    4.869299   4.278971   2.969448   1.110283   3.681269
    25  H    4.869299   4.278971   2.969448   1.110283   3.681269
                   11         12         13         14         15
    11  C    0.000000
    12  C    1.396100   0.000000
    13  C    2.548599   3.045798   0.000000
    14  C    2.706468   2.477456   1.423016   0.000000
    15  H    2.134209   3.385406   3.998501   4.658488   0.000000
    16  H    3.423844   3.925885   5.906673   6.085059   2.467440
    17  H    3.888846   3.440975   6.323448   5.917829   4.272942
    18  H    3.399308   2.170685   5.139045   4.255802   4.925200
    19  H    3.368372   2.199414   3.491201   2.147092   5.490567
    20  H    4.613066   3.870897   3.405338   2.125609   6.687033
    21  H    6.073099   5.793424   3.909045   3.397126   7.862050
    22  H    5.982147   6.275353   3.434316   3.888053   7.235500
    23  H    4.386801   5.174698   2.186821   3.440031   5.093853
    24  H    2.116285   3.308516   2.156249   3.197623   2.407479
    25  H    2.116285   3.308516   2.156249   3.197623   2.407479
                   16         17         18         19         20
    16  H    0.000000
    17  H    2.497537   0.000000
    18  H    4.310834   2.480209   0.000000
    19  H    6.063533   5.015950   2.756434   0.000000
    20  H    7.781222   7.034905   4.828308   2.071902   0.000000
    21  H    9.477654   9.180289   7.165072   4.448364   2.470686
    22  H    9.319739   9.679305   8.142226   5.758277   4.283804
    23  H    7.400128   8.274760   7.307067   5.585717   4.966183
    24  H    4.616548   5.734294   5.379303   4.744259   5.273743
    25  H    4.616548   5.734294   5.379303   4.744259   5.273743
                   21         22         23         24         25
    21  H    0.000000
    22  H    2.482301   0.000000
    23  H    4.312339   2.487534   0.000000
    24  H    5.936632   5.074667   2.996999   0.000000
    25  H    5.936632   5.074667   2.996999   1.719170   0.000000
 Stoichiometry    C14H11(1+)
 Framework group  CS[SG(C14H9),X(H2)]
 Deg. of freedom    46
 Full point group                 CS      NOp   2
 Largest Abelian subgroup         CS      NOp   2
 Largest concise Abelian subgroup CS      NOp   2
                         Standard orientation:                         
 ---------------------------------------------------------------------
 Center     Atomic      Atomic             Coordinates (Angstroms)
 Number     Number       Type             X           Y           Z
 ---------------------------------------------------------------------
      1          6           0       -0.090573   -2.759217    0.000000
      2          6           0        1.013738   -3.603382    0.000000
      3          6           0        2.270702   -3.032932    0.000000
      4          6           0        2.417337   -1.614348    0.000000
      5          6           0        0.181587    2.722819    0.000000
      6          6           0       -0.885873    3.602597    0.000000
      7          6           0       -2.188385    3.098153    0.000000
      8          6           0       -2.417599    1.710332    0.000000
      9          6           0       -1.323458   -0.671768    0.000000
     10          6           0        1.241015    0.645890    0.000000
     11          6           0        0.020726   -1.360211    0.000000
     12          6           0        1.286444   -0.771097    0.000000
     13          6           0       -1.317612    0.808708    0.000000
     14          6           0        0.000000    1.346177    0.000000
     15          1           0       -1.088949   -3.183249    0.000000
     16          1           0        0.876122   -4.675480    0.000000
     17          1           0        3.157430   -3.658954    0.000000
     18          1           0        3.415882   -1.192247    0.000000
     19          1           0        2.145103    1.253780    0.000000
     20          1           0        1.202583    3.098891    0.000000
     21          1           0       -0.704712    4.669405    0.000000
     22          1           0       -3.025379    3.788315    0.000000
     23          1           0       -3.440014    1.335581    0.000000
     24          1           0       -1.893178   -1.083182    0.859585
     25          1           0       -1.893178   -1.083182   -0.859585
 ---------------------------------------------------------------------
 Rotational constants (GHZ):           2.1272148           0.4439434           0.3680877
 Standard basis: 6-311++G(d,p) (5D, 7F)
 There are   299 symmetry adapted cartesian basis functions of A'  symmetry.
 There are   100 symmetry adapted cartesian basis functions of A"  symmetry.
 There are   285 symmetry adapted basis functions of A'  symmetry.
 There are   100 symmetry adapted basis functions of A"  symmetry.
   385 basis functions,   603 primitive gaussians,   399 cartesian basis functions
    47 alpha electrons       47 beta electrons
       nuclear repulsion energy       780.0824162847 Hartrees.
 NAtoms=   25 NActive=   25 NUniq=   24 SFac= 1.09D+00 NAtFMM=   60 NAOKFM=F Big=F
 Integral buffers will be    131072 words long.
 Regular integral format.
 Two-electron integral symmetry is turned on.
 Nuclear repulsion after empirical dispersion term =      780.0814368632 Hartrees.
 One-electron integrals computed using PRISM.
 NBasis=   385 RedAO= T EigKep=  1.17D-06  NBF=   285   100
 NBsUse=   379 1.00D-06 EigRej=  7.95D-07 NBFU=   279   100
 ExpMin= 3.60D-02 ExpMax= 4.56D+03 ExpMxC= 6.82D+02 IAcc=3 IRadAn=         5 AccDes= 0.00D+00
 Harris functional with IExCor= 1009 and IRadAn=       5 diagonalized for initial guess.
 HarFok:  IExCor= 1009 AccDes= 0.00D+00 IRadAn=         5 IDoV= 1 UseB2=F ITyADJ=14
 ICtDFT=  3500011 ScaDFX=  1.000000  1.000000  1.000000  1.000000
 FoFCou: FMM=F IPFlag=           0 FMFlag=      100000 FMFlg1=           0
         NFxFlg=           0 DoJE=T BraDBF=F KetDBF=T FulRan=T
         wScrn=  0.000000 ICntrl=       500 IOpCl=  0 I1Cent=   200000004 NGrid=           0
         NMat0=    1 NMatS0=      1 NMatT0=    0 NMatD0=    1 NMtDS0=    0 NMtDT0=    0
 Petite list used in FoFCou.
 Initial guess orbital symmetries:
       Occupied  (A') (A') (A') (A') (A') (A') (A') (A') (A') (A')
                 (A') (A') (A') (A') (A') (A') (A') (A') (A') (A')
                 (A') (A') (A') (A') (A') (A') (A') (A') (A') (A')
                 (A') (A') (A") (A') (A') (A') (A') (A') (A") (A")
                 (A') (A') (A') (A") (A") (A") (A")
       Virtual   (A") (A") (A") (A") (A") (A') (A') (A') (A') (A")
                 (A") (A') (A') (A') (A") (A') (A') (A') (A') (A')
                 (A") (A") (A') (A') (A') (A") (A') (A") (A') (A')
                 (A') (A') (A') (A') (A") (A') (A') (A") (A') (A")
                 (A') (A') (A') (A") (A') (A') (A') (A') (A') (A")
                 (A') (A") (A') (A") (A') (A') (A') (A") (A") (A')
                 (A') (A') (A') (A') (A') (A') (A") (A') (A') (A")
                 (A') (A') (A') (A') (A') (A') (A') (A') (A') (A')
                 (A') (A') (A') (A') (A') (A') (A') (A') (A') (A')
                 (A') (A') (A') (A') (A') (A') (A') (A") (A") (A')
                 (A') (A") (A') (A") (A') (A") (A') (A") (A') (A")
                 (A') (A") (A') (A') (A") (A') (A') (A") (A") (A")
                 (A') (A") (A') (A') (A') (A") (A') (A') (A') (A")
                 (A') (A') (A') (A') (A') (A') (A') (A") (A') (A')
                 (A') (A') (A') (A') (A') (A') (A') (A') (A') (A")
                 (A") (A') (A") (A') (A") (A') (A') (A") (A") (A')
                 (A") (A') (A") (A') (A") (A") (A') (A') (A') (A')
                 (A') (A") (A') (A') (A") (A') (A') (A') (A') (A")
                 (A') (A') (A') (A") (A') (A") (A') (A') (A") (A")
                 (A") (A') (A') (A') (A") (A') (A') (A') (A") (A')
                 (A") (A") (A") (A') (A") (A') (A') (A") (A') (A')
                 (A") (A') (A") (A") (A') (A') (A') (A") (A') (A")
                 (A') (A') (A') (A') (A") (A') (A') (A") (A') (A")
                 (A') (A') (A') (A") (A') (A') (A") (A') (A") (A')
                 (A") (A') (A') (A') (A') (A") (A') (A') (A') (A")
                 (A') (A') (A') (A") (A") (A') (A') (A") (A') (A')
                 (A') (A") (A') (A') (A") (A') (A') (A") (A') (A')
                 (A") (A') (A') (A') (A") (A") (A') (A") (A') (A')
                 (A') (A") (A") (A") (A") (A') (A') (A') (A') (A')
                 (A') (A') (A') (A') (A') (A') (A') (A') (A') (A')
                 (A') (A') (A') (A") (A') (A') (A') (A') (A') (A')
                 (A') (A') (A') (A') (A') (A') (A') (A') (A') (A')
                 (A') (A') (A') (A') (A') (A') (A') (A') (A') (A')
                 (A') (A')
 The electronic state of the initial guess is 1-A'.
 Requested convergence on RMS density matrix=1.00D-08 within 128 cycles.
 Requested convergence on MAX density matrix=1.00D-06.
 Requested convergence on             energy=1.00D-06.
 No special actions if energy rises.
 SCF Done:  E(RM062X) =  -539.744048729     A.U. after   15 cycles
            NFock= 15  Conv=0.82D-08     -V/T= 2.0045
 DoSCS=F DFT=T ScalE2(SS,OS)=  1.000000  1.000000
 ExpMin= 3.60D-02 ExpMax= 4.56D+03 ExpMxC= 6.82D+02 IAcc=3 IRadAn=         5 AccDes= 0.00D+00
 HarFok:  IExCor=  205 AccDes= 0.00D+00 IRadAn=         5 IDoV=-2 UseB2=F ITyADJ=14
 ICtDFT= 12500011 ScaDFX=  1.000000  1.000000  1.000000  1.000000
 Range of M.O.s used for correlation:    15   379
 NBasis=   385 NAE=    47 NBE=    47 NFC=    14 NFV=     0
 NROrb=    365 NOA=    33 NOB=    33 NVA=   332 NVB=   332

 **** Warning!!: The largest alpha MO coefficient is  0.16033119D+03

 Orbital symmetries:
       Occupied  (A') (A') (A') (A') (A') (A') (A') (A') (A') (A')
                 (A') (A') (A') (A') (A') (A') (A') (A') (A') (A')
                 (A') (A') (A') (A') (A') (A') (A') (A') (A') (A')
                 (A') (A') (A") (A') (A') (A') (A') (A") (A") (A')
                 (A') (A') (A') (A") (A") (A") (A")
       Virtual   (A") (A") (A") (A") (A') (A') (A') (A') (A") (A')
                 (A') (A") (A') (A') (A") (A') (A") (A') (A') (A')
                 (A") (A") (A') (A') (A') (A") (A') (A") (A') (A')
                 (A") (A") (A') (A') (A') (A') (A') (A') (A") (A')
                 (A") (A') (A') (A") (A") (A') (A") (A') (A") (A')
                 (A') (A') (A') (A') (A") (A') (A') (A') (A') (A')
                 (A") (A') (A') (A') (A') (A') (A") (A') (A') (A')
                 (A') (A') (A') (A') (A') (A') (A') (A') (A') (A')
                 (A') (A') (A') (A') (A') (A') (A') (A') (A') (A')
                 (A') (A') (A') (A') (A") (A') (A") (A") (A') (A")
                 (A') (A') (A') (A') (A") (A") (A') (A") (A') (A")
                 (A') (A') (A') (A") (A") (A') (A') (A") (A') (A")
                 (A") (A') (A") (A') (A') (A') (A") (A') (A') (A')
                 (A') (A') (A') (A') (A') (A') (A') (A') (A') (A')
                 (A') (A') (A') (A") (A') (A') (A') (A') (A') (A')
                 (A') (A') (A") (A') (A") (A') (A") (A") (A') (A")
                 (A") (A') (A') (A") (A') (A') (A") (A") (A") (A')
                 (A') (A') (A') (A") (A") (A') (A') (A') (A') (A")
                 (A') (A') (A') (A") (A') (A") (A') (A') (A") (A")
                 (A") (A') (A') (A") (A') (A') (A") (A') (A') (A')
                 (A") (A") (A") (A') (A") (A') (A") (A') (A') (A')
                 (A') (A") (A') (A") (A") (A') (A') (A") (A') (A")
                 (A') (A') (A') (A') (A") (A') (A') (A") (A') (A")
                 (A') (A') (A') (A") (A') (A') (A') (A") (A") (A')
                 (A") (A') (A') (A") (A') (A') (A') (A') (A') (A')
                 (A') (A") (A') (A') (A') (A") (A') (A") (A") (A')
                 (A') (A') (A') (A') (A') (A') (A") (A') (A') (A')
                 (A') (A") (A") (A') (A") (A") (A') (A") (A') (A')
                 (A") (A") (A") (A') (A") (A") (A') (A') (A') (A')
                 (A') (A') (A') (A') (A') (A') (A') (A') (A') (A')
                 (A') (A') (A') (A") (A') (A') (A') (A') (A') (A')
                 (A') (A') (A') (A') (A') (A') (A') (A') (A') (A')
                 (A') (A') (A') (A') (A') (A') (A') (A') (A') (A')
                 (A') (A')
     4 initial guesses have been made.
 Convergence on wavefunction:    0.001000000000000
 Iteration     1 Dimension     4 NMult     0 NNew      4
 CISAX will form     4 AO SS matrices at one time.
 Iteration     2 Dimension     6 NMult     4 NNew      2
 Iteration     3 Dimension     8 NMult     6 NNew      2
 Iteration     4 Dimension    10 NMult     8 NNew      2
 Iteration     5 Dimension    12 NMult    10 NNew      2
 Iteration     6 Dimension    14 NMult    12 NNew      2
 ***********************************************************************
 Excited states from <AA,BB:AA,BB> singles matrix:
 ***********************************************************************
 
 Ground to excited state transition densities written to RWF  633
 Ground to excited state transition electric dipole moments (Au):
       state          X           Y           Z        Dip. S.      Osc.
         1        -0.6410     -0.1397      0.0000      0.4304      0.0300
 Ground to excited state transition velocity dipole moments (Au):
       state          X           Y           Z        Dip. S.      Osc.
         1         0.0752      0.0161      0.0000      0.0059      0.0377
 Ground to excited state transition magnetic dipole moments (Au):
       state          X           Y           Z
         1        -0.0000      0.0000     -0.0051
 Ground to excited state transition velocity quadrupole moments (Au):
       state          XX          YY          ZZ          XY          XZ          YZ
         1         0.1243      0.2071     -0.0093     -0.1397      0.0000     -0.0000
 <0|del|b> * <b|rxdel|0> + <0|del|b> * <b|delr+rdel|0>
 Rotatory Strengths (R) in cgs (10**-40 erg-esu-cm/Gauss)
       state          XX          YY          ZZ    R(velocity)    E-M Angle
         1        -0.0000     -0.0000      0.0000     -0.0000       90.00
 1/2[<0|r|b>*<b|rxdel|0> + (<0|rxdel|b>*<b|r|0>)*]
 Rotatory Strengths (R) in cgs (10**-40 erg-esu-cm/Gauss)
       state          XX          YY          ZZ     R(length)
         1        -0.0000      0.0000      0.0000     -0.0000
  1/2[<0|del|b>*<b|r|0> + (<0|r|b>*<b|del|0>)*] (Au)
       state          X           Y           Z        Dip. S.   Osc.(frdel)
         1        -0.0482     -0.0022      0.0000      0.0505      0.0336

 Excitation energies and oscillator strengths:
 
 Excited State   1:      Singlet-A'     2.8487 eV  435.23 nm  f=0.0300  <S**2>=0.000
      47 -> 48         0.70389
 This state for optimization and/or second-order correction.
 Total Energy, E(TD-HF/TD-DFT) =  -539.639360698    
 Copying the excited state density for this state as the 1-particle RhoCI density.
 SavETr:  write IOETrn=   770 NScale= 10 NData=  16 NLR=1 NState=    1 LETran=      28.

 **********************************************************************

            Population analysis using the SCF Density.

 **********************************************************************

 Orbital symmetries:
       Occupied  (A') (A') (A') (A') (A') (A') (A') (A') (A') (A')
                 (A') (A') (A') (A') (A') (A') (A') (A') (A') (A')
                 (A') (A') (A') (A') (A') (A') (A') (A') (A') (A')
                 (A') (A') (A") (A') (A') (A') (A') (A") (A") (A')
                 (A') (A') (A') (A") (A") (A") (A")
       Virtual   (A") (A") (A") (A") (A') (A') (A') (A') (A") (A')
                 (A') (A") (A') (A') (A") (A') (A") (A') (A') (A')
                 (A") (A") (A') (A') (A') (A") (A') (A") (A') (A')
                 (A") (A") (A') (A') (A') (A') (A') (A') (A") (A')
                 (A") (A') (A') (A") (A") (A') (A") (A') (A") (A')
                 (A') (A') (A') (A') (A") (A') (A') (A') (A') (A')
                 (A") (A') (A') (A') (A') (A') (A") (A') (A') (A')
                 (A') (A') (A') (A') (A') (A') (A') (A') (A') (A')
                 (A') (A') (A') (A') (A') (A') (A') (A') (A') (A')
                 (A') (A') (A') (A') (A") (A') (A") (A") (A') (A")
                 (A') (A') (A') (A') (A") (A") (A') (A") (A') (A")
                 (A') (A') (A') (A") (A") (A') (A') (A") (A') (A")
                 (A") (A') (A") (A') (A') (A') (A") (A') (A') (A')
                 (A') (A') (A') (A') (A') (A') (A') (A') (A') (A')
                 (A') (A') (A') (A") (A') (A') (A') (A') (A') (A')
                 (A') (A') (A") (A') (A") (A') (A") (A") (A') (A")
                 (A") (A') (A') (A") (A') (A') (A") (A") (A") (A')
                 (A') (A') (A') (A") (A") (A') (A') (A') (A') (A")
                 (A') (A') (A') (A") (A') (A") (A') (A') (A") (A")
                 (A") (A') (A') (A") (A') (A') (A") (A') (A') (A')
                 (A") (A") (A") (A') (A") (A') (A") (A') (A') (A')
                 (A') (A") (A') (A") (A") (A') (A') (A") (A') (A")
                 (A') (A') (A') (A') (A") (A') (A') (A") (A') (A")
                 (A') (A') (A') (A") (A') (A') (A') (A") (A") (A')
                 (A") (A') (A') (A") (A') (A') (A') (A') (A') (A')
                 (A') (A") (A') (A') (A') (A") (A') (A") (A") (A')
                 (A') (A') (A') (A') (A') (A') (A") (A') (A') (A')
                 (A') (A") (A") (A') (A") (A") (A') (A") (A') (A')
                 (A") (A") (A") (A') (A") (A") (A') (A') (A') (A')
                 (A') (A') (A') (A') (A') (A') (A') (A') (A') (A')
                 (A') (A') (A') (A") (A') (A') (A') (A') (A') (A')
                 (A') (A') (A') (A') (A') (A') (A') (A') (A') (A')
                 (A') (A') (A') (A') (A') (A') (A') (A') (A') (A')
                 (A') (A')
 The electronic state is 1-A'.
 Alpha  occ. eigenvalues --  -10.77711 -10.73849 -10.73106 -10.72547 -10.72268
 Alpha  occ. eigenvalues --  -10.71811 -10.71537 -10.71462 -10.71048 -10.70876
 Alpha  occ. eigenvalues --  -10.70759 -10.69947 -10.69581 -10.69505  -1.16428
 Alpha  occ. eigenvalues --   -1.12387  -1.06840  -1.05592  -1.01285  -1.00137
 Alpha  occ. eigenvalues --   -0.95624  -0.90857  -0.86865  -0.85395  -0.83714
 Alpha  occ. eigenvalues --   -0.78214  -0.75866  -0.74202  -0.69707  -0.69363
 Alpha  occ. eigenvalues --   -0.68302  -0.67914  -0.67780  -0.64564  -0.64087
 Alpha  occ. eigenvalues --   -0.62830  -0.61654  -0.59986  -0.59582  -0.58953
 Alpha  occ. eigenvalues --   -0.56628  -0.55313  -0.54763  -0.52341  -0.46649
 Alpha  occ. eigenvalues --   -0.46015  -0.44483
 Alpha virt. eigenvalues --   -0.25968  -0.14788  -0.14168  -0.12864  -0.11201
 Alpha virt. eigenvalues --   -0.10121  -0.09237  -0.07999  -0.07987  -0.07503
 Alpha virt. eigenvalues --   -0.07204  -0.07133  -0.05695  -0.05589  -0.05320
 Alpha virt. eigenvalues --   -0.03865  -0.03641  -0.03335  -0.03142  -0.02160
 Alpha virt. eigenvalues --   -0.01406  -0.00870   0.00191   0.00326   0.00635
 Alpha virt. eigenvalues --    0.01022   0.01388   0.01870   0.02231   0.02379
 Alpha virt. eigenvalues --    0.02457   0.02572   0.02626   0.03309   0.03628
 Alpha virt. eigenvalues --    0.04143   0.04371   0.04793   0.04945   0.05395
 Alpha virt. eigenvalues --    0.06045   0.06230   0.06573   0.06975   0.07259
 Alpha virt. eigenvalues --    0.07806   0.08100   0.08292   0.08631   0.08854
 Alpha virt. eigenvalues --    0.09047   0.09645   0.09846   0.10393   0.11081
 Alpha virt. eigenvalues --    0.11516   0.11808   0.12137   0.12645   0.12868
 Alpha virt. eigenvalues --    0.13146   0.13214   0.13934   0.14361   0.15507
 Alpha virt. eigenvalues --    0.16438   0.16535   0.17228   0.17465   0.17844
 Alpha virt. eigenvalues --    0.18173   0.19096   0.19192   0.19642   0.20122
 Alpha virt. eigenvalues --    0.21540   0.21715   0.22446   0.23050   0.23521
 Alpha virt. eigenvalues --    0.24117   0.24650   0.25853   0.26791   0.27431
 Alpha virt. eigenvalues --    0.28487   0.28906   0.30469   0.31362   0.35698
 Alpha virt. eigenvalues --    0.35852   0.38477   0.39541   0.40853   0.41381
 Alpha virt. eigenvalues --    0.41734   0.42017   0.43046   0.43757   0.44245
 Alpha virt. eigenvalues --    0.44535   0.45492   0.45884   0.46845   0.47819
 Alpha virt. eigenvalues --    0.48679   0.49031   0.49077   0.49880   0.50447
 Alpha virt. eigenvalues --    0.50989   0.51511   0.51671   0.52056   0.54030
 Alpha virt. eigenvalues --    0.54371   0.55163   0.55396   0.55801   0.57588
 Alpha virt. eigenvalues --    0.58390   0.59674   0.60918   0.62023   0.62510
 Alpha virt. eigenvalues --    0.63479   0.63688   0.64338   0.65404   0.66976
 Alpha virt. eigenvalues --    0.69403   0.70554   0.71260   0.71922   0.72700
 Alpha virt. eigenvalues --    0.74540   0.75792   0.76377   0.77091   0.77398
 Alpha virt. eigenvalues --    0.77923   0.77957   0.78406   0.80025   0.80472
 Alpha virt. eigenvalues --    0.81425   0.81849   0.82374   0.83276   0.85047
 Alpha virt. eigenvalues --    0.86185   0.87370   0.87996   0.90142   0.90147
 Alpha virt. eigenvalues --    0.90175   0.91331   0.93302   0.94520   0.96623
 Alpha virt. eigenvalues --    0.96677   0.97217   1.00386   1.01618   1.02234
 Alpha virt. eigenvalues --    1.02772   1.03038   1.03129   1.04813   1.07277
 Alpha virt. eigenvalues --    1.20552   1.21894   1.23712   1.24315   1.26965
 Alpha virt. eigenvalues --    1.30189   1.33281   1.34972   1.35760   1.35873
 Alpha virt. eigenvalues --    1.38900   1.40805   1.41132   1.41791   1.43242
 Alpha virt. eigenvalues --    1.43294   1.44770   1.46339   1.46439   1.46794
 Alpha virt. eigenvalues --    1.47396   1.48103   1.51769   1.53259   1.54024
 Alpha virt. eigenvalues --    1.55475   1.56248   1.57000   1.57603   1.62462
 Alpha virt. eigenvalues --    1.62962   1.63320   1.63508   1.65493   1.68118
 Alpha virt. eigenvalues --    1.68493   1.69214   1.69586   1.73910   1.74628
 Alpha virt. eigenvalues --    1.76034   1.77569   1.79406   1.79486   1.79797
 Alpha virt. eigenvalues --    1.81154   1.82452   1.83180   1.83679   1.84302
 Alpha virt. eigenvalues --    1.84874   1.85645   1.87449   1.87805   1.90509
 Alpha virt. eigenvalues --    1.92371   1.93923   1.96945   1.97461   1.98463
 Alpha virt. eigenvalues --    1.99643   2.01603   2.05880   2.06632   2.10474
 Alpha virt. eigenvalues --    2.11461   2.14633   2.14696   2.18586   2.21625
 Alpha virt. eigenvalues --    2.22754   2.27656   2.29559   2.32857   2.34044
 Alpha virt. eigenvalues --    2.35107   2.38364   2.39234   2.41745   2.43028
 Alpha virt. eigenvalues --    2.45607   2.46084   2.48431   2.49978   2.52653
 Alpha virt. eigenvalues --    2.54184   2.54786   2.56432   2.58202   2.59591
 Alpha virt. eigenvalues --    2.59723   2.60125   2.62092   2.62963   2.63196
 Alpha virt. eigenvalues --    2.64633   2.64657   2.65726   2.66074   2.68568
 Alpha virt. eigenvalues --    2.69983   2.70795   2.73054   2.74204   2.74918
 Alpha virt. eigenvalues --    2.76467   2.77616   2.79619   2.80983   2.82509
 Alpha virt. eigenvalues --    2.82909   2.86112   2.91622   2.98493   2.99190
 Alpha virt. eigenvalues --    2.99756   3.03598   3.06877   3.10873   3.13033
 Alpha virt. eigenvalues --    3.18474   3.23977   3.25576   3.28533   3.30435
 Alpha virt. eigenvalues --    3.31470   3.32634   3.42520   3.44825   3.46154
 Alpha virt. eigenvalues --    3.48057   3.49743   3.54597   3.62735   3.65544
 Alpha virt. eigenvalues --    3.68387   3.92818   3.93089   3.95501   3.96162
 Alpha virt. eigenvalues --    4.03123   4.05752   4.06427   4.11801   4.34912
 Alpha virt. eigenvalues --    4.56205   4.68833   4.70615  23.45535  23.59861
 Alpha virt. eigenvalues --   23.80708  23.83804  23.85823  23.88288  23.89662
 Alpha virt. eigenvalues --   23.90635  23.96554  23.97991  23.99453  24.01022
 Alpha virt. eigenvalues --   24.10465  24.10605
          Condensed to atoms (all electrons):
               1          2          3          4          5          6
     1  C   10.455341  -0.461619  -0.955279   3.473901   0.020027  -0.156119
     2  C   -0.461619   8.410528   0.243109  -1.541861   0.036532  -0.017521
     3  C   -0.955279   0.243109   6.539447   0.195276  -0.093746   0.021201
     4  C    3.473901  -1.541861   0.195276  13.085998  -0.738397  -0.161796
     5  C    0.020027   0.036532  -0.093746  -0.738397  10.466275   1.249864
     6  C   -0.156119  -0.017521   0.021201  -0.161796   1.249864   7.710422
     7  C   -0.003354  -0.004037  -0.005069  -0.016558  -1.094609   0.186838
     8  C    0.408235   0.059496  -0.057082  -0.294746   1.831642  -0.226491
     9  C   -0.941364  -1.462941   0.196913   0.353894  -0.519699   0.439195
    10  C   -1.774970   0.279489   0.056129  -2.525602  -2.809104  -0.995280
    11  C   -0.074862  -1.207728   0.979148   0.204633  -1.174949  -0.434070
    12  C   -3.955727   2.239434  -0.750511  -4.372222  -0.424356   0.004748
    13  C    0.427810  -0.367065   0.034023  -1.183048  -1.047600   0.405270
    14  C   -1.172807  -0.094535  -0.286107  -0.584007  -0.275509  -1.898435
    15  H    0.406187  -0.155550   0.011961   0.040300   0.003726   0.002999
    16  H   -0.007791   0.381469  -0.031682   0.019536  -0.000510  -0.000393
    17  H   -0.050897  -0.005467   0.394757  -0.092965   0.000407   0.000563
    18  H    0.082855  -0.010695  -0.079371   0.523517   0.004671  -0.004394
    19  H   -0.055532  -0.014407   0.049744  -0.105956   0.025432   0.068919
    20  H    0.011991   0.004835  -0.006585   0.000038   0.441204  -0.108290
    21  H   -0.001239  -0.000428   0.000254   0.000388  -0.040678   0.356320
    22  H    0.000830   0.000465  -0.000135  -0.002103   0.002005  -0.022421
    23  H    0.009822  -0.001348  -0.000093   0.004237   0.027523  -0.002215
    24  H    0.034918   0.014978   0.000876  -0.010495  -0.005585  -0.004004
    25  H    0.034918   0.014978   0.000876  -0.010495  -0.005585  -0.004004
               7          8          9         10         11         12
     1  C   -0.003354   0.408235  -0.941364  -1.774970  -0.074862  -3.955727
     2  C   -0.004037   0.059496  -1.462941   0.279489  -1.207728   2.239434
     3  C   -0.005069  -0.057082   0.196913   0.056129   0.979148  -0.750511
     4  C   -0.016558  -0.294746   0.353894  -2.525602   0.204633  -4.372222
     5  C   -1.094609   1.831642  -0.519699  -2.809104  -1.174949  -0.424356
     6  C    0.186838  -0.226491   0.439195  -0.995280  -0.434070   0.004748
     7  C    6.685872   0.413635  -0.388789   0.290248  -0.190775  -0.156909
     8  C    0.413635   8.719735  -0.629874  -1.188244   0.493206  -1.279839
     9  C   -0.388789  -0.629874   9.872054   0.424153   0.958524  -1.769304
    10  C    0.290248  -1.188244   0.424153   9.249413  -0.352331   2.953662
    11  C   -0.190775   0.493206   0.958524  -0.352331  14.075315  -2.520762
    12  C   -0.156909  -1.279839  -1.769304   2.953662  -2.520762  16.006434
    13  C   -0.183834   0.349216   1.142201   0.522393   0.579362  -3.672896
    14  C    0.537912  -2.895731  -2.051595   1.498101  -4.832091   3.364369
    15  H   -0.002792  -0.001136   0.118203  -0.008236  -0.043755  -0.067429
    16  H    0.000171   0.000552  -0.003208  -0.008096   0.004509  -0.015774
    17  H   -0.000259  -0.001206  -0.004614   0.017711  -0.007254   0.096886
    18  H    0.000586   0.002320  -0.015757  -0.030846   0.044397  -0.142367
    19  H    0.002948  -0.034526   0.069589   0.394061   0.016879   0.012371
    20  H    0.014844   0.048180  -0.033503   0.023620   0.006156  -0.019507
    21  H   -0.021851  -0.013721  -0.006393   0.013635  -0.006746   0.006728
    22  H    0.394921  -0.035485   0.006306  -0.001550   0.001593  -0.009466
    23  H   -0.077600   0.368143   0.033333  -0.015035  -0.006886   0.003400
    24  H    0.013205   0.035686   0.349881   0.004117  -0.009714  -0.051721
    25  H    0.013205   0.035686   0.349881   0.004117  -0.009714  -0.051721
              13         14         15         16         17         18
     1  C    0.427810  -1.172807   0.406187  -0.007791  -0.050897   0.082855
     2  C   -0.367065  -0.094535  -0.155550   0.381469  -0.005467  -0.010695
     3  C    0.034023  -0.286107   0.011961  -0.031682   0.394757  -0.079371
     4  C   -1.183048  -0.584007   0.040300   0.019536  -0.092965   0.523517
     5  C   -1.047600  -0.275509   0.003726  -0.000510   0.000407   0.004671
     6  C    0.405270  -1.898435   0.002999  -0.000393   0.000563  -0.004394
     7  C   -0.183834   0.537912  -0.002792   0.000171  -0.000259   0.000586
     8  C    0.349216  -2.895731  -0.001136   0.000552  -0.001206   0.002320
     9  C    1.142201  -2.051595   0.118203  -0.003208  -0.004614  -0.015757
    10  C    0.522393   1.498101  -0.008236  -0.008096   0.017711  -0.030846
    11  C    0.579362  -4.832091  -0.043755   0.004509  -0.007254   0.044397
    12  C   -3.672896   3.364369  -0.067429  -0.015774   0.096886  -0.142367
    13  C   13.084380  -3.574130   0.018201   0.000666  -0.004913  -0.015597
    14  C   -3.574130  17.502311  -0.002575  -0.004403   0.001807  -0.022149
    15  H    0.018201  -0.002575   0.452981  -0.011536   0.001512   0.000048
    16  H    0.000666  -0.004403  -0.011536   0.422909  -0.006421   0.002017
    17  H   -0.004913   0.001807   0.001512  -0.006421   0.418759  -0.009526
    18  H   -0.015597  -0.022149   0.000048   0.002017  -0.009526   0.447636
    19  H    0.075786  -0.133278   0.000865  -0.000807   0.002153  -0.009109
    20  H   -0.031690  -0.024032  -0.000237   0.000056  -0.000271   0.001449
    21  H   -0.036850   0.090986   0.000037  -0.000007   0.000011  -0.000081
    22  H    0.030039  -0.023700  -0.000189   0.000006  -0.000005  -0.000012
    23  H   -0.036409   0.025739   0.000403  -0.000067   0.000002  -0.000015
    24  H    0.026047  -0.063110  -0.001833   0.000560  -0.000080   0.000109
    25  H    0.026047  -0.063110  -0.001833   0.000560  -0.000080   0.000109
              19         20         21         22         23         24
     1  C   -0.055532   0.011991  -0.001239   0.000830   0.009822   0.034918
     2  C   -0.014407   0.004835  -0.000428   0.000465  -0.001348   0.014978
     3  C    0.049744  -0.006585   0.000254  -0.000135  -0.000093   0.000876
     4  C   -0.105956   0.000038   0.000388  -0.002103   0.004237  -0.010495
     5  C    0.025432   0.441204  -0.040678   0.002005   0.027523  -0.005585
     6  C    0.068919  -0.108290   0.356320  -0.022421  -0.002215  -0.004004
     7  C    0.002948   0.014844  -0.021851   0.394921  -0.077600   0.013205
     8  C   -0.034526   0.048180  -0.013721  -0.035485   0.368143   0.035686
     9  C    0.069589  -0.033503  -0.006393   0.006306   0.033333   0.349881
    10  C    0.394061   0.023620   0.013635  -0.001550  -0.015035   0.004117
    11  C    0.016879   0.006156  -0.006746   0.001593  -0.006886  -0.009714
    12  C    0.012371  -0.019507   0.006728  -0.009466   0.003400  -0.051721
    13  C    0.075786  -0.031690  -0.036850   0.030039  -0.036409   0.026047
    14  C   -0.133278  -0.024032   0.090986  -0.023700   0.025739  -0.063110
    15  H    0.000865  -0.000237   0.000037  -0.000189   0.000403  -0.001833
    16  H   -0.000807   0.000056  -0.000007   0.000006  -0.000067   0.000560
    17  H    0.002153  -0.000271   0.000011  -0.000005   0.000002  -0.000080
    18  H   -0.009109   0.001449  -0.000081  -0.000012  -0.000015   0.000109
    19  H    0.446143  -0.003209   0.000725  -0.000226  -0.000163   0.000510
    20  H   -0.003209   0.475375  -0.011448   0.001861   0.000233   0.000224
    21  H    0.000725  -0.011448   0.420869  -0.006641   0.001726  -0.000186
    22  H   -0.000226   0.001861  -0.006641   0.416785  -0.008540   0.000627
    23  H   -0.000163   0.000233   0.001726  -0.008540   0.428472  -0.000555
    24  H    0.000510   0.000224  -0.000186   0.000627  -0.000555   0.493831
    25  H    0.000510   0.000224  -0.000186   0.000627  -0.000555  -0.080448
              25
     1  C    0.034918
     2  C    0.014978
     3  C    0.000876
     4  C   -0.010495
     5  C   -0.005585
     6  C   -0.004004
     7  C    0.013205
     8  C    0.035686
     9  C    0.349881
    10  C    0.004117
    11  C   -0.009714
    12  C   -0.051721
    13  C    0.026047
    14  C   -0.063110
    15  H   -0.001833
    16  H    0.000560
    17  H   -0.000080
    18  H    0.000109
    19  H    0.000510
    20  H    0.000224
    21  H   -0.000186
    22  H    0.000627
    23  H   -0.000555
    24  H   -0.080448
    25  H    0.493831
 Mulliken charges:
               1
     1  C    0.244727
     2  C   -0.340111
     3  C   -0.458053
     4  C   -0.261469
     5  C    0.121023
     6  C   -0.410908
     7  C   -0.407949
     8  C   -0.107651
     9  C   -0.487089
    10  C   -0.021555
    11  C   -0.492085
    12  C    0.572478
    13  C   -0.567408
    14  C    0.980079
    15  H    0.239679
    16  H    0.257685
    17  H    0.249388
    18  H    0.230206
    19  H    0.190579
    20  H    0.208480
    21  H    0.254777
    22  H    0.254408
    23  H    0.246448
    24  H    0.252161
    25  H    0.252161
 Sum of Mulliken charges =   1.00000
 Mulliken charges with hydrogens summed into heavy atoms:
               1
     1  C    0.484406
     2  C   -0.082426
     3  C   -0.208665
     4  C   -0.031262
     5  C    0.329503
     6  C   -0.156132
     7  C   -0.153540
     8  C    0.138797
     9  C    0.017234
    10  C    0.169024
    11  C   -0.492085
    12  C    0.572478
    13  C   -0.567408
    14  C    0.980079
 Electronic spatial extent (au):  <R**2>=           2861.5893
 Charge=              1.0000 electrons
 Dipole moment (field-independent basis, Debye):
    X=              0.1224    Y=              0.2081    Z=              0.0000  Tot=              0.2414
 Quadrupole moment (field-independent basis, Debye-Ang):
   XX=            -51.1950   YY=            -35.9101   ZZ=            -84.3048
   XY=            -10.2241   XZ=             -0.0000   YZ=             -0.0000
 Traceless Quadrupole moment (field-independent basis, Debye-Ang):
   XX=              5.9417   YY=             21.2265   ZZ=            -27.1681
   XY=            -10.2241   XZ=             -0.0000   YZ=             -0.0000
 Octapole moment (field-independent basis, Debye-Ang**2):
  XXX=              0.5916  YYY=             -2.8657  ZZZ=              0.0000  XYY=             -0.9980
  XXY=              4.8593  XXZ=              0.0000  XZZ=             -2.6341  YZZ=             -1.3924
  YYZ=              0.0000  XYZ=              0.0000
 Hexadecapole moment (field-independent basis, Debye-Ang**3):
 XXXX=           -969.0666 YYYY=          -1865.3013 ZZZZ=            -99.6829 XXXY=            339.8231
 XXXZ=             -0.0000 YYYX=            265.4873 YYYZ=              0.0000 ZZZX=             -0.0000
 ZZZY=             -0.0000 XXYY=           -456.2830 XXZZ=           -238.5175 YYZZ=           -500.5192
 XXYZ=             -0.0000 YYXZ=             -0.0000 ZZXY=            180.5675
 N-N= 7.800814368632D+02 E-N=-2.796362833538D+03  KE= 5.373527889963D+02
 Symmetry A'   KE= 5.227228919154D+02
 Symmetry A"   KE= 1.462989708093D+01
 Unable to Open any file for archive entry.
 1\1\GINC-GADI-CPU-CLX-0359\SP\RM062X TD-FC\6-311++G(d,p)\C14H11(1+)\TS
 1578\02-Aug-2022\0\\#n M062X/6-311++G(d,p) TD(NStates=1) EmpiricalDisp
 ersion=GD3 SP\\SP_-6\\1,1\C,0,0.,2.440655,1.290431\C,0,0.,3.683508,0.6
 67989\C,0,0.,3.721861,-0.71183\C,0,0.,2.511156,-1.465538\C,0,0.,-2.367
 156,-1.357538\C,0,0.,-3.625861,-0.78383\C,0,0.,-3.743508,0.607989\C,0,
 0.,-2.596655,1.422431\C,0,0.,0.024,1.483369\C,0,0.,-0.036,-1.399189\C,
 0,0.,1.232055,0.577065\C,0,0.,1.257471,-0.818804\C,0,0.,-1.304055,0.82
 9065\C,0,0.,-1.209471,-0.590804\H,0,0.,2.384071,2.373647\H,0,0.,4.5867
 53,1.261689\H,0,0.,4.673262,-1.234349\H,0,0.,2.56955,-2.548059\H,0,0.,
 -0.186,-2.478266\H,0,0.,-2.25755,-2.440059\H,0,0.,-4.505262,-1.414349\
 H,0,0.,-4.730753,1.057689\H,0,0.,-2.708071,2.505647\H,0,-0.859585,0.14
 4,2.175787\H,0,0.859585,0.144,2.175787\\Version=ES64L-G16RevC.01\State
 =1-A'\HF=-539.7440487\RMSD=8.209e-09\PG=CS [SG(C14H9),X(H2)]\\@
 The archive entry for this job was punched.


 The best way to pay for a lovely moment is to enjoy it.
 -- Richard Bach
 Job cpu time:       0 days  0 hours 51 minutes 37.4 seconds.
 Elapsed time:       0 days  0 hours  1 minutes  4.7 seconds.
 File lengths (MBytes):  RWF=    460 Int=      0 D2E=      0 Chk=     15 Scr=      1
 Normal termination of Gaussian 16 at Tue Aug  2 12:10:33 2022.
