 Entering Gaussian System, Link 0=g16
 Initial command:
 /apps/gaussian/g16c01/g16/l1.exe "/jobfs/53803768.gadi-pbs/Gau-178175.inp" -scrdir="/jobfs/53803768.gadi-pbs/"
 Entering Link 1 = /apps/gaussian/g16c01/g16/l1.exe PID=    178176.
  
 Copyright (c) 1988-2019, Gaussian, Inc.  All Rights Reserved.
  
 This is part of the Gaussian(R) 16 program.  It is based on
 the Gaussian(R) 09 system (copyright 2009, Gaussian, Inc.),
 the Gaussian(R) 03 system (copyright 2003, Gaussian, Inc.),
 the Gaussian(R) 98 system (copyright 1998, Gaussian, Inc.),
 the Gaussian(R) 94 system (copyright 1995, Gaussian, Inc.),
 the Gaussian 92(TM) system (copyright 1992, Gaussian, Inc.),
 the Gaussian 90(TM) system (copyright 1990, Gaussian, Inc.),
 the Gaussian 88(TM) system (copyright 1988, Gaussian, Inc.),
 the Gaussian 86(TM) system (copyright 1986, Carnegie Mellon
 University), and the Gaussian 82(TM) system (copyright 1983,
 Carnegie Mellon University). Gaussian is a federally registered
 trademark of Gaussian, Inc.
  
 This software contains proprietary and confidential information,
 including trade secrets, belonging to Gaussian, Inc.
  
 This software is provided under written license and may be
 used, copied, transmitted, or stored only in accord with that
 written license.
  
 The following legend is applicable only to US Government
 contracts under FAR:
  
                    RESTRICTED RIGHTS LEGEND
  
 Use, reproduction and disclosure by the US Government is
 subject to restrictions as set forth in subparagraphs (a)
 and (c) of the Commercial Computer Software - Restricted
 Rights clause in FAR 52.227-19.
  
 Gaussian, Inc.
 340 Quinnipiac St., Bldg. 40, Wallingford CT 06492
  
  
 ---------------------------------------------------------------
 Warning -- This program may not be used in any manner that
 competes with the business of Gaussian, Inc. or will provide
 assistance to any competitor of Gaussian, Inc.  The licensee
 of this program is prohibited from giving any competitor of
 Gaussian, Inc. access to this program.  By using this program,
 the user acknowledges that Gaussian, Inc. is engaged in the
 business of creating and licensing software in the field of
 computational chemistry and represents and warrants to the
 licensee that it is not a competitor of Gaussian, Inc. and that
 it will not use this program in any manner prohibited above.
 ---------------------------------------------------------------
  

 Cite this work as:
 Gaussian 16, Revision C.01,
 M. J. Frisch, G. W. Trucks, H. B. Schlegel, G. E. Scuseria, 
 M. A. Robb, J. R. Cheeseman, G. Scalmani, V. Barone, 
 G. A. Petersson, H. Nakatsuji, X. Li, M. Caricato, A. V. Marenich, 
 J. Bloino, B. G. Janesko, R. Gomperts, B. Mennucci, H. P. Hratchian, 
 J. V. Ortiz, A. F. Izmaylov, J. L. Sonnenberg, D. Williams-Young, 
 F. Ding, F. Lipparini, F. Egidi, J. Goings, B. Peng, A. Petrone, 
 T. Henderson, D. Ranasinghe, V. G. Zakrzewski, J. Gao, N. Rega, 
 G. Zheng, W. Liang, M. Hada, M. Ehara, K. Toyota, R. Fukuda, 
 J. Hasegawa, M. Ishida, T. Nakajima, Y. Honda, O. Kitao, H. Nakai, 
 T. Vreven, K. Throssell, J. A. Montgomery, Jr., J. E. Peralta, 
 F. Ogliaro, M. J. Bearpark, J. J. Heyd, E. N. Brothers, K. N. Kudin, 
 V. N. Staroverov, T. A. Keith, R. Kobayashi, J. Normand, 
 K. Raghavachari, A. P. Rendell, J. C. Burant, S. S. Iyengar, 
 J. Tomasi, M. Cossi, J. M. Millam, M. Klene, C. Adamo, R. Cammi, 
 J. W. Ochterski, R. L. Martin, K. Morokuma, O. Farkas, 
 J. B. Foresman, and D. J. Fox, Gaussian, Inc., Wallingford CT, 2019.
 
 ******************************************
 Gaussian 16:  ES64L-G16RevC.01  3-Jul-2019
                 2-Aug-2022 
 ******************************************
 %NProcShared=48
 Will use up to   48 processors via shared memory.
 %mem = 190GB
 ---------------------------------------------------------------
 #n M062X/6-311++G(d,p) TD(NStates=1) EmpiricalDispersion=GD3 SP
 ---------------------------------------------------------------
 1/38=1,172=1/1;
 2/12=2,17=6,18=5,40=1/2;
 3/5=4,6=6,7=1111,11=9,25=1,30=1,74=-55,124=31/1,2,3,8;
 4//1;
 5/5=2,38=5/2;
 8/6=1,10=2,108=1/1;
 9/41=1,42=1,70=2/14;
 6/7=2,8=2,9=2,10=2/1;
 99/5=1,9=1/99;
 -----
 SP_-6
 -----
 Symbolic Z-matrix:
 Charge =  1 Multiplicity = 1
 C                     0.        2.31066   1.31043 
 C                     0.        3.62351   0.83799 
 C                     0.        3.77186  -0.54183 
 C                     0.        2.63116  -1.44554 
 C                     0.       -2.48716  -1.33754 
 C                     0.       -3.67586  -0.61383 
 C                     0.       -3.68351   0.77799 
 C                     0.       -2.46666   1.44243 
 C                     0.        0.024     1.33337 
 C                     0.       -0.036    -1.54919 
 C                     0.        1.20206   0.44707 
 C                     0.        1.27747  -0.9488 
 C                     0.       -1.27406   0.69907 
 C                     0.       -1.22947  -0.7208 
 H                     0.        2.09407   2.39365 
 H                     0.        4.47675   1.52169 
 H                     0.        4.77326  -0.97435 
 H                     0.        2.83955  -2.52806 
 H                     0.       -0.186    -2.63827 
 H                     0.       -2.52755  -2.42006 
 H                     0.       -4.60526  -1.15435 
 H                     0.       -4.62075   1.31769 
 H                     0.       -2.41807   2.52565 
 H                    -0.85959   0.144     2.02579 
 H                     0.85959   0.144     2.02579 
 
                          Input orientation:                          
 ---------------------------------------------------------------------
 Center     Atomic      Atomic             Coordinates (Angstroms)
 Number     Number       Type             X           Y           Z
 ---------------------------------------------------------------------
      1          6           0        0.000000    2.310655    1.310431
      2          6           0        0.000000    3.623508    0.837989
      3          6           0        0.000000    3.771861   -0.541830
      4          6           0        0.000000    2.631156   -1.445538
      5          6           0        0.000000   -2.487156   -1.337538
      6          6           0        0.000000   -3.675861   -0.613830
      7          6           0        0.000000   -3.683508    0.777989
      8          6           0        0.000000   -2.466655    1.442431
      9          6           0        0.000000    0.024000    1.333369
     10          6           0        0.000000   -0.036000   -1.549189
     11          6           0        0.000000    1.202055    0.447065
     12          6           0        0.000000    1.277471   -0.948804
     13          6           0        0.000000   -1.274055    0.699065
     14          6           0        0.000000   -1.229471   -0.720804
     15          1           0        0.000000    2.094071    2.393647
     16          1           0        0.000000    4.476753    1.521689
     17          1           0        0.000000    4.773262   -0.974349
     18          1           0        0.000000    2.839550   -2.528059
     19          1           0        0.000000   -0.186000   -2.638266
     20          1           0        0.000000   -2.527550   -2.420059
     21          1           0        0.000000   -4.605262   -1.154349
     22          1           0        0.000000   -4.620753    1.317689
     23          1           0        0.000000   -2.418071    2.525647
     24          1           0       -0.859585    0.144000    2.025787
     25          1           0        0.859585    0.144000    2.025787
 ---------------------------------------------------------------------
                    Distance matrix (angstroms):
                    1          2          3          4          5
     1  C    0.000000
     2  C    1.395272   0.000000
     3  C    2.359236   1.387771   0.000000
     4  C    2.774542   2.489831   1.455299   0.000000
     5  C    5.480030   6.486381   6.309393   5.119451   0.000000
     6  C    6.288176   7.442350   7.448070   6.361619   1.391680
     7  C    6.017764   7.307262   7.571291   6.694703   2.430373
     8  C    4.779133   6.120085   6.546478   5.859014   2.780045
     9  C    2.286770   3.633436   4.190803   3.810458   3.666013
    10  C    3.699218   4.369281   3.938855   2.669169   2.460277
    11  C    1.405132   2.452806   2.753510   2.371556   4.098181
    12  C    2.484273   2.948986   2.527372   1.441946   3.784644
    13  C    3.636470   4.899533   5.196257   4.455333   2.370520
    14  C    4.081471   5.097180   5.004533   3.928063   1.400761
    15  H    1.104656   2.181570   3.381125   3.876571   5.908416
    16  H    2.176376   1.093377   2.180592   3.494376   7.528028
    17  H    3.359264   2.146277   1.090815   2.193316   7.269496
    18  H    3.874756   3.456135   2.194153   1.102397   5.458126
    19  H    4.671776   5.157199   4.478806   3.059243   2.643334
    20  H    6.109401   6.960632   6.573456   5.249947   1.083274
    21  H    7.342006   8.466526   8.399486   7.242274   2.126013
    22  H    6.931412   8.258205   8.596149   7.760516   3.406239
    23  H    4.882376   6.272867   6.908305   6.423784   3.863803
    24  H    2.438240   3.775808   4.526911   4.356022   4.355895
    25  H    2.438240   3.775808   4.526911   4.356022   4.355895
                    6          7          8          9         10
     6  C    0.000000
     7  C    1.391840   0.000000
     8  C    2.385454   1.386439   0.000000
     9  C    4.180975   3.748875   2.493042   0.000000
    10  C    3.758122   4.326670   3.854591   2.883182   0.000000
    11  C    4.991950   4.896758   3.801340   1.474228   2.349002
    12  C    4.964646   5.252916   4.442576   2.603748   1.444184
    13  C    2.737219   2.410745   1.405307   1.444745   2.566598
    14  C    2.448728   2.875531   2.492029   2.406411   1.452789
    15  H    6.506691   5.999231   4.658866   2.325808   4.481424
    16  H    8.427666   8.194080   6.943860   4.456734   5.458501
    17  H    8.456811   8.636414   7.632642   5.280251   4.843495
    18  H    6.790792   7.313018   6.627262   4.778907   3.037594
    19  H    4.034535   4.889106   4.674770   3.977183   1.099358
    20  H    2.140346   3.400551   3.862970   4.538571   2.639363
    21  H    1.075150   2.140925   3.364061   5.255360   4.586290
    22  H    2.150253   1.081529   2.157707   4.644779   5.407305
    23  H    3.382063   2.157693   1.084305   2.717579   4.720016
    24  H    4.722055   4.116516   2.809753   1.110283   3.681269
    25  H    4.722055   4.116516   2.809753   1.110283   3.681269
                   11         12         13         14         15
    11  C    0.000000
    12  C    1.397905   0.000000
    13  C    2.488900   3.037393   0.000000
    14  C    2.697450   2.517289   1.420569   0.000000
    15  H    2.141232   3.440758   3.770395   4.554749   0.000000
    16  H    3.446515   4.042121   5.809346   6.131049   2.537220
    17  H    3.843688   3.495884   6.274580   6.008085   4.303657
    18  H    3.395991   2.221292   5.228391   4.452314   4.977844
    19  H    3.383188   2.235180   3.510220   2.183001   5.524389
    20  H    4.704291   4.079556   3.361575   2.138335   6.673166
    21  H    6.024073   5.886323   3.812097   3.403517   7.580853
    22  H    5.887536   6.318705   3.403393   3.956798   6.800481
    23  H    4.174424   5.072360   2.155267   3.457197   4.514072
    24  H    2.085840   3.297247   2.123666   3.188898   2.162634
    25  H    2.085840   3.297247   2.123666   3.188898   2.162634
                   16         17         18         19         20
    16  H    0.000000
    17  H    2.513588   0.000000
    18  H    4.368168   2.480576   0.000000
    19  H    6.248719   5.230956   3.027557   0.000000
    20  H    8.037266   7.442576   5.368187   2.351695   0.000000
    21  H    9.468061   9.380251   7.570489   4.661747   2.432881
    22  H    9.099793   9.669589   8.393205   5.942778   4.283954
    23  H    6.967534   7.997827   7.292635   5.625668   4.946918
    24  H    4.445869   5.582989   5.361193   4.754069   5.257529
    25  H    4.445869   5.582989   5.361193   4.754069   5.257529
                   21         22         23         24         25
    21  H    0.000000
    22  H    2.472087   0.000000
    23  H    4.280908   2.512165   0.000000
    24  H    5.779934   4.893175   2.748264   0.000000
    25  H    5.779934   4.893175   2.748264   1.719170   0.000000
 Stoichiometry    C14H11(1+)
 Framework group  CS[SG(C14H9),X(H2)]
 Deg. of freedom    46
 Full point group                 CS      NOp   2
 Largest Abelian subgroup         CS      NOp   2
 Largest concise Abelian subgroup CS      NOp   2
                         Standard orientation:                         
 ---------------------------------------------------------------------
 Center     Atomic      Atomic             Coordinates (Angstroms)
 Number     Number       Type             X           Y           Z
 ---------------------------------------------------------------------
      1          6           0        0.425081    2.620497    0.000000
      2          6           0       -0.473531    3.687868    0.000000
      3          6           0       -1.819105    3.348251    0.000000
      4          6           0       -2.270882    1.964852    0.000000
      5          6           0       -0.393696   -2.798021    0.000000
      6          6           0        0.697497   -3.661775    0.000000
      7          6           0        2.005505   -3.186029    0.000000
      8          6           0        2.206459   -1.814230    0.000000
      9          6           0        1.239992    0.483856    0.000000
     10          6           0       -1.442673   -0.572575    0.000000
     11          6           0        0.000000    1.281206    0.000000
     12          6           0       -1.335320    0.867613    0.000000
     13          6           0        1.095478   -0.953644    0.000000
     14          6           0       -0.251653   -1.404480    0.000000
     15          1           0        1.516152    2.793210    0.000000
     16          1           0       -0.128354    4.725330    0.000000
     17          1           0       -2.572209    4.137371    0.000000
     18          1           0       -3.358459    1.784698    0.000000
     19          1           0       -2.412048   -1.091133    0.000000
     20          1           0       -1.394951   -3.211507    0.000000
     21          1           0        0.513030   -4.720982    0.000000
     22          1           0        2.836872   -3.877790    0.000000
     23          1           0        3.205525   -1.392822    0.000000
     24          1           0        1.847759    0.836648    0.859585
     25          1           0        1.847759    0.836648   -0.859585
 ---------------------------------------------------------------------
 Rotational constants (GHZ):           2.1167659           0.4452998           0.3687040
 Standard basis: 6-311++G(d,p) (5D, 7F)
 There are   299 symmetry adapted cartesian basis functions of A'  symmetry.
 There are   100 symmetry adapted cartesian basis functions of A"  symmetry.
 There are   285 symmetry adapted basis functions of A'  symmetry.
 There are   100 symmetry adapted basis functions of A"  symmetry.
   385 basis functions,   603 primitive gaussians,   399 cartesian basis functions
    47 alpha electrons       47 beta electrons
       nuclear repulsion energy       779.9784590894 Hartrees.
 NAtoms=   25 NActive=   25 NUniq=   24 SFac= 1.09D+00 NAtFMM=   60 NAOKFM=F Big=F
 Integral buffers will be    131072 words long.
 Regular integral format.
 Two-electron integral symmetry is turned on.
 Nuclear repulsion after empirical dispersion term =      779.9774812162 Hartrees.
 One-electron integrals computed using PRISM.
 NBasis=   385 RedAO= T EigKep=  1.27D-06  NBF=   285   100
 NBsUse=   379 1.00D-06 EigRej=  6.88D-07 NBFU=   279   100
 ExpMin= 3.60D-02 ExpMax= 4.56D+03 ExpMxC= 6.82D+02 IAcc=3 IRadAn=         5 AccDes= 0.00D+00
 Harris functional with IExCor= 1009 and IRadAn=       5 diagonalized for initial guess.
 HarFok:  IExCor= 1009 AccDes= 0.00D+00 IRadAn=         5 IDoV= 1 UseB2=F ITyADJ=14
 ICtDFT=  3500011 ScaDFX=  1.000000  1.000000  1.000000  1.000000
 FoFCou: FMM=F IPFlag=           0 FMFlag=      100000 FMFlg1=           0
         NFxFlg=           0 DoJE=T BraDBF=F KetDBF=T FulRan=T
         wScrn=  0.000000 ICntrl=       500 IOpCl=  0 I1Cent=   200000004 NGrid=           0
         NMat0=    1 NMatS0=      1 NMatT0=    0 NMatD0=    1 NMtDS0=    0 NMtDT0=    0
 Petite list used in FoFCou.
 Initial guess orbital symmetries:
       Occupied  (A') (A') (A') (A') (A') (A') (A') (A') (A') (A')
                 (A') (A') (A') (A') (A') (A') (A') (A') (A') (A')
                 (A') (A') (A') (A') (A') (A') (A') (A') (A') (A')
                 (A') (A') (A") (A') (A') (A') (A') (A') (A") (A')
                 (A") (A') (A') (A") (A") (A") (A")
       Virtual   (A") (A") (A") (A") (A") (A') (A') (A') (A') (A")
                 (A") (A') (A') (A') (A') (A") (A') (A') (A') (A")
                 (A') (A') (A") (A') (A") (A') (A') (A") (A') (A')
                 (A') (A') (A') (A') (A") (A') (A') (A") (A') (A")
                 (A') (A') (A') (A") (A') (A') (A') (A') (A') (A")
                 (A') (A') (A") (A') (A") (A') (A') (A") (A') (A")
                 (A') (A') (A') (A') (A') (A") (A') (A') (A') (A")
                 (A') (A') (A') (A') (A') (A') (A') (A') (A') (A')
                 (A') (A') (A') (A') (A') (A') (A') (A') (A') (A')
                 (A') (A') (A') (A') (A') (A') (A') (A") (A') (A")
                 (A') (A') (A") (A") (A') (A') (A") (A') (A") (A")
                 (A") (A') (A') (A") (A') (A') (A") (A') (A") (A")
                 (A') (A") (A') (A') (A') (A') (A") (A') (A') (A")
                 (A') (A') (A') (A') (A') (A') (A") (A') (A') (A')
                 (A') (A') (A') (A') (A') (A') (A') (A') (A') (A")
                 (A") (A') (A") (A') (A") (A') (A') (A") (A") (A')
                 (A') (A") (A') (A") (A") (A") (A') (A') (A') (A')
                 (A') (A') (A") (A') (A") (A') (A') (A') (A") (A')
                 (A') (A') (A') (A") (A') (A") (A') (A") (A") (A')
                 (A") (A') (A') (A') (A") (A') (A') (A') (A") (A')
                 (A") (A") (A") (A') (A") (A") (A') (A') (A') (A')
                 (A") (A') (A") (A') (A") (A') (A') (A") (A') (A")
                 (A') (A') (A') (A') (A") (A') (A') (A") (A") (A')
                 (A') (A') (A') (A") (A') (A") (A') (A') (A") (A")
                 (A') (A') (A') (A') (A") (A') (A') (A') (A') (A')
                 (A") (A') (A') (A") (A") (A') (A') (A") (A') (A')
                 (A") (A') (A') (A") (A') (A') (A') (A") (A') (A')
                 (A") (A') (A') (A") (A') (A') (A") (A') (A") (A')
                 (A") (A') (A") (A") (A") (A') (A') (A') (A') (A')
                 (A') (A') (A') (A') (A') (A') (A') (A') (A') (A')
                 (A') (A') (A') (A') (A") (A') (A') (A') (A') (A')
                 (A') (A') (A') (A') (A') (A') (A') (A') (A') (A')
                 (A') (A') (A') (A') (A') (A') (A') (A') (A') (A')
                 (A') (A')
 The electronic state of the initial guess is 1-A'.
 Requested convergence on RMS density matrix=1.00D-08 within 128 cycles.
 Requested convergence on MAX density matrix=1.00D-06.
 Requested convergence on             energy=1.00D-06.
 No special actions if energy rises.
 SCF Done:  E(RM062X) =  -539.721640923     A.U. after   15 cycles
            NFock= 15  Conv=0.85D-08     -V/T= 2.0047
 DoSCS=F DFT=T ScalE2(SS,OS)=  1.000000  1.000000
 ExpMin= 3.60D-02 ExpMax= 4.56D+03 ExpMxC= 6.82D+02 IAcc=3 IRadAn=         5 AccDes= 0.00D+00
 HarFok:  IExCor=  205 AccDes= 0.00D+00 IRadAn=         5 IDoV=-2 UseB2=F ITyADJ=14
 ICtDFT= 12500011 ScaDFX=  1.000000  1.000000  1.000000  1.000000
 Range of M.O.s used for correlation:    15   379
 NBasis=   385 NAE=    47 NBE=    47 NFC=    14 NFV=     0
 NROrb=    365 NOA=    33 NOB=    33 NVA=   332 NVB=   332

 **** Warning!!: The largest alpha MO coefficient is  0.17428723D+03

 Orbital symmetries:
       Occupied  (A') (A') (A') (A') (A') (A') (A') (A') (A') (A')
                 (A') (A') (A') (A') (A') (A') (A') (A') (A') (A')
                 (A') (A') (A') (A') (A') (A') (A') (A') (A') (A')
                 (A') (A") (A') (A') (A') (A') (A') (A") (A") (A')
                 (A') (A') (A') (A") (A") (A") (A")
       Virtual   (A") (A") (A") (A") (A') (A') (A') (A") (A') (A')
                 (A") (A') (A') (A') (A") (A') (A") (A') (A') (A')
                 (A") (A") (A') (A') (A') (A") (A') (A") (A') (A')
                 (A") (A') (A") (A') (A') (A') (A') (A') (A") (A')
                 (A") (A') (A') (A") (A") (A') (A") (A') (A") (A')
                 (A') (A') (A') (A') (A') (A") (A') (A') (A') (A')
                 (A") (A') (A') (A') (A') (A") (A') (A') (A') (A')
                 (A') (A') (A') (A') (A') (A') (A') (A') (A') (A')
                 (A') (A') (A') (A') (A') (A') (A') (A') (A') (A')
                 (A') (A') (A') (A') (A') (A") (A") (A") (A') (A')
                 (A") (A') (A') (A') (A") (A") (A') (A") (A') (A')
                 (A") (A") (A') (A') (A") (A') (A") (A') (A') (A")
                 (A") (A') (A") (A') (A') (A") (A') (A') (A') (A')
                 (A') (A') (A') (A') (A') (A') (A') (A') (A') (A')
                 (A') (A') (A') (A") (A') (A') (A') (A') (A') (A')
                 (A') (A") (A') (A') (A') (A") (A") (A") (A') (A')
                 (A") (A") (A') (A") (A') (A') (A") (A") (A") (A')
                 (A') (A') (A') (A") (A") (A') (A") (A') (A') (A')
                 (A') (A') (A') (A") (A") (A') (A") (A') (A") (A")
                 (A') (A') (A') (A') (A") (A') (A") (A') (A') (A")
                 (A') (A") (A") (A') (A") (A") (A') (A') (A') (A')
                 (A') (A") (A') (A") (A') (A") (A') (A") (A') (A")
                 (A') (A') (A') (A') (A") (A') (A') (A") (A") (A')
                 (A') (A') (A') (A") (A') (A') (A") (A') (A") (A")
                 (A') (A') (A') (A') (A") (A') (A') (A') (A') (A')
                 (A') (A') (A") (A') (A') (A") (A") (A') (A") (A')
                 (A') (A') (A') (A') (A') (A') (A") (A') (A') (A')
                 (A') (A") (A') (A") (A") (A") (A') (A') (A") (A")
                 (A') (A") (A") (A") (A") (A') (A') (A') (A') (A')
                 (A') (A') (A') (A') (A') (A') (A') (A') (A') (A')
                 (A') (A') (A') (A') (A") (A') (A') (A') (A') (A')
                 (A') (A') (A') (A') (A') (A') (A') (A') (A') (A')
                 (A') (A') (A') (A') (A') (A') (A') (A') (A') (A')
                 (A') (A')
     4 initial guesses have been made.
 Convergence on wavefunction:    0.001000000000000
 Iteration     1 Dimension     4 NMult     0 NNew      4
 CISAX will form     4 AO SS matrices at one time.
 Iteration     2 Dimension     6 NMult     4 NNew      2
 Iteration     3 Dimension     8 NMult     6 NNew      2
 Iteration     4 Dimension    10 NMult     8 NNew      2
 Iteration     5 Dimension    12 NMult    10 NNew      2
 Iteration     6 Dimension    14 NMult    12 NNew      2
 ***********************************************************************
 Excited states from <AA,BB:AA,BB> singles matrix:
 ***********************************************************************
 
 Ground to excited state transition densities written to RWF  633
 Ground to excited state transition electric dipole moments (Au):
       state          X           Y           Z        Dip. S.      Osc.
         1        -0.6369     -0.0199      0.0000      0.4061      0.0253
 Ground to excited state transition velocity dipole moments (Au):
       state          X           Y           Z        Dip. S.      Osc.
         1         0.0679      0.0013      0.0000      0.0046      0.0329
 Ground to excited state transition magnetic dipole moments (Au):
       state          X           Y           Z
         1         0.0000      0.0000      0.0310
 Ground to excited state transition velocity quadrupole moments (Au):
       state          XX          YY          ZZ          XY          XZ          YZ
         1        -0.1139     -0.2077      0.0086      0.1122      0.0000      0.0000
 <0|del|b> * <b|rxdel|0> + <0|del|b> * <b|delr+rdel|0>
 Rotatory Strengths (R) in cgs (10**-40 erg-esu-cm/Gauss)
       state          XX          YY          ZZ    R(velocity)    E-M Angle
         1         0.0000      0.0000      0.0000      0.0000       90.00
 1/2[<0|r|b>*<b|rxdel|0> + (<0|rxdel|b>*<b|r|0>)*]
 Rotatory Strengths (R) in cgs (10**-40 erg-esu-cm/Gauss)
       state          XX          YY          ZZ     R(length)
         1         0.0000      0.0000     -0.0000      0.0000
  1/2[<0|del|b>*<b|r|0> + (<0|r|b>*<b|del|0>)*] (Au)
       state          X           Y           Z        Dip. S.   Osc.(frdel)
         1        -0.0433     -0.0000      0.0000      0.0433      0.0289

 Excitation energies and oscillator strengths:
 
 Excited State   1:      Singlet-A'     2.5429 eV  487.56 nm  f=0.0253  <S**2>=0.000
      47 -> 48         0.70476
 This state for optimization and/or second-order correction.
 Total Energy, E(TD-HF/TD-DFT) =  -539.628189845    
 Copying the excited state density for this state as the 1-particle RhoCI density.
 SavETr:  write IOETrn=   770 NScale= 10 NData=  16 NLR=1 NState=    1 LETran=      28.

 **********************************************************************

            Population analysis using the SCF Density.

 **********************************************************************

 Orbital symmetries:
       Occupied  (A') (A') (A') (A') (A') (A') (A') (A') (A') (A')
                 (A') (A') (A') (A') (A') (A') (A') (A') (A') (A')
                 (A') (A') (A') (A') (A') (A') (A') (A') (A') (A')
                 (A') (A") (A') (A') (A') (A') (A') (A") (A") (A')
                 (A') (A') (A') (A") (A") (A") (A")
       Virtual   (A") (A") (A") (A") (A') (A') (A') (A") (A') (A')
                 (A") (A') (A') (A') (A") (A') (A") (A') (A') (A')
                 (A") (A") (A') (A') (A') (A") (A') (A") (A') (A')
                 (A") (A') (A") (A') (A') (A') (A') (A') (A") (A')
                 (A") (A') (A') (A") (A") (A') (A") (A') (A") (A')
                 (A') (A') (A') (A') (A') (A") (A') (A') (A') (A')
                 (A") (A') (A') (A') (A') (A") (A') (A') (A') (A')
                 (A') (A') (A') (A') (A') (A') (A') (A') (A') (A')
                 (A') (A') (A') (A') (A') (A') (A') (A') (A') (A')
                 (A') (A') (A') (A') (A') (A") (A") (A") (A') (A')
                 (A") (A') (A') (A') (A") (A") (A') (A") (A') (A')
                 (A") (A") (A') (A') (A") (A') (A") (A') (A') (A")
                 (A") (A') (A") (A') (A') (A") (A') (A') (A') (A')
                 (A') (A') (A') (A') (A') (A') (A') (A') (A') (A')
                 (A') (A') (A') (A") (A') (A') (A') (A') (A') (A')
                 (A') (A") (A') (A') (A') (A") (A") (A") (A') (A')
                 (A") (A") (A') (A") (A') (A') (A") (A") (A") (A')
                 (A') (A') (A') (A") (A") (A') (A") (A') (A') (A')
                 (A') (A') (A') (A") (A") (A') (A") (A') (A") (A")
                 (A') (A') (A') (A') (A") (A') (A") (A') (A') (A")
                 (A') (A") (A") (A') (A") (A") (A') (A') (A') (A')
                 (A') (A") (A') (A") (A') (A") (A') (A") (A') (A")
                 (A') (A') (A') (A') (A") (A') (A') (A") (A") (A')
                 (A') (A') (A') (A") (A') (A') (A") (A') (A") (A")
                 (A') (A') (A') (A') (A") (A') (A') (A') (A') (A')
                 (A') (A') (A") (A') (A') (A") (A") (A') (A") (A')
                 (A') (A') (A') (A') (A') (A') (A") (A') (A') (A')
                 (A') (A") (A') (A") (A") (A") (A') (A') (A") (A")
                 (A') (A") (A") (A") (A") (A') (A') (A') (A') (A')
                 (A') (A') (A') (A') (A') (A') (A') (A') (A') (A')
                 (A') (A') (A') (A') (A") (A') (A') (A') (A') (A')
                 (A') (A') (A') (A') (A') (A') (A') (A') (A') (A')
                 (A') (A') (A') (A') (A') (A') (A') (A') (A') (A')
                 (A') (A')
 The electronic state is 1-A'.
 Alpha  occ. eigenvalues --  -10.79036 -10.73749 -10.73028 -10.72918 -10.72917
 Alpha  occ. eigenvalues --  -10.72642 -10.71105 -10.71047 -10.71027 -10.70653
 Alpha  occ. eigenvalues --  -10.70450 -10.70105 -10.69783 -10.69320  -1.16447
 Alpha  occ. eigenvalues --   -1.12197  -1.06684  -1.05931  -1.01226  -0.99978
 Alpha  occ. eigenvalues --   -0.95450  -0.90690  -0.86789  -0.85408  -0.83402
 Alpha  occ. eigenvalues --   -0.78080  -0.75903  -0.73975  -0.69465  -0.69176
 Alpha  occ. eigenvalues --   -0.68777  -0.68464  -0.67862  -0.64723  -0.64346
 Alpha  occ. eigenvalues --   -0.62219  -0.61058  -0.59679  -0.59217  -0.58941
 Alpha  occ. eigenvalues --   -0.56764  -0.55359  -0.54274  -0.52336  -0.46543
 Alpha  occ. eigenvalues --   -0.46011  -0.43801
 Alpha virt. eigenvalues --   -0.26443  -0.15018  -0.14388  -0.12799  -0.11298
 Alpha virt. eigenvalues --   -0.10131  -0.09219  -0.08091  -0.08045  -0.07527
 Alpha virt. eigenvalues --   -0.07380  -0.07377  -0.05703  -0.05609  -0.05388
 Alpha virt. eigenvalues --   -0.03886  -0.03619  -0.03337  -0.03103  -0.02155
 Alpha virt. eigenvalues --   -0.01377  -0.00822   0.00049   0.00298   0.00724
 Alpha virt. eigenvalues --    0.01011   0.01294   0.01706   0.02069   0.02313
 Alpha virt. eigenvalues --    0.02360   0.02590   0.02641   0.03268   0.03593
 Alpha virt. eigenvalues --    0.04149   0.04447   0.04557   0.04618   0.05128
 Alpha virt. eigenvalues --    0.05945   0.05962   0.06612   0.06955   0.07292
 Alpha virt. eigenvalues --    0.07851   0.08094   0.08174   0.08457   0.08710
 Alpha virt. eigenvalues --    0.08842   0.09214   0.09731   0.10164   0.11132
 Alpha virt. eigenvalues --    0.11270   0.11869   0.12207   0.12551   0.12729
 Alpha virt. eigenvalues --    0.13100   0.13171   0.13553   0.14290   0.15744
 Alpha virt. eigenvalues --    0.16441   0.16786   0.17076   0.17273   0.18041
 Alpha virt. eigenvalues --    0.18274   0.18761   0.19158   0.19360   0.20295
 Alpha virt. eigenvalues --    0.21137   0.21494   0.22511   0.22693   0.23339
 Alpha virt. eigenvalues --    0.23951   0.24693   0.25489   0.26661   0.27610
 Alpha virt. eigenvalues --    0.28400   0.28759   0.29457   0.31323   0.35222
 Alpha virt. eigenvalues --    0.35599   0.37927   0.39115   0.41242   0.41513
 Alpha virt. eigenvalues --    0.41640   0.42051   0.43125   0.43573   0.44137
 Alpha virt. eigenvalues --    0.44641   0.44731   0.45729   0.46836   0.48043
 Alpha virt. eigenvalues --    0.48384   0.48644   0.49004   0.49610   0.50108
 Alpha virt. eigenvalues --    0.50475   0.52036   0.52145   0.53455   0.53774
 Alpha virt. eigenvalues --    0.54172   0.55395   0.55894   0.56016   0.57427
 Alpha virt. eigenvalues --    0.58131   0.59720   0.61057   0.61747   0.62214
 Alpha virt. eigenvalues --    0.62782   0.62819   0.64920   0.65472   0.67201
 Alpha virt. eigenvalues --    0.69522   0.70650   0.71215   0.71649   0.72317
 Alpha virt. eigenvalues --    0.74417   0.75169   0.76117   0.76602   0.77366
 Alpha virt. eigenvalues --    0.77768   0.78003   0.78183   0.79362   0.80252
 Alpha virt. eigenvalues --    0.81474   0.81892   0.82509   0.83639   0.84912
 Alpha virt. eigenvalues --    0.85653   0.87259   0.87618   0.89219   0.89751
 Alpha virt. eigenvalues --    0.90375   0.92128   0.93617   0.94501   0.95640
 Alpha virt. eigenvalues --    0.95884   0.96183   0.99964   1.01712   1.01728
 Alpha virt. eigenvalues --    1.02724   1.03024   1.03278   1.04171   1.06755
 Alpha virt. eigenvalues --    1.18036   1.21790   1.22647   1.26360   1.27802
 Alpha virt. eigenvalues --    1.28173   1.33173   1.33523   1.34513   1.36618
 Alpha virt. eigenvalues --    1.38444   1.40592   1.41236   1.41416   1.43401
 Alpha virt. eigenvalues --    1.43596   1.45313   1.45928   1.46401   1.47417
 Alpha virt. eigenvalues --    1.47584   1.48341   1.51016   1.53354   1.53438
 Alpha virt. eigenvalues --    1.55361   1.55876   1.55999   1.57523   1.62260
 Alpha virt. eigenvalues --    1.62301   1.63433   1.63850   1.65234   1.67302
 Alpha virt. eigenvalues --    1.68372   1.68581   1.70969   1.72541   1.73929
 Alpha virt. eigenvalues --    1.76905   1.77386   1.78701   1.79548   1.80156
 Alpha virt. eigenvalues --    1.80896   1.82558   1.82667   1.82983   1.83258
 Alpha virt. eigenvalues --    1.84286   1.85365   1.86959   1.88295   1.90231
 Alpha virt. eigenvalues --    1.94132   1.94297   1.96542   1.97357   1.98309
 Alpha virt. eigenvalues --    2.00503   2.02685   2.03949   2.06679   2.10969
 Alpha virt. eigenvalues --    2.12709   2.14212   2.15489   2.17339   2.21948
 Alpha virt. eigenvalues --    2.22092   2.26306   2.29205   2.32505   2.32902
 Alpha virt. eigenvalues --    2.35491   2.37186   2.39762   2.40339   2.42597
 Alpha virt. eigenvalues --    2.45249   2.45922   2.46050   2.51146   2.51389
 Alpha virt. eigenvalues --    2.54155   2.55687   2.58104   2.58370   2.59985
 Alpha virt. eigenvalues --    2.60271   2.61004   2.61645   2.62874   2.63568
 Alpha virt. eigenvalues --    2.64825   2.65142   2.65460   2.66965   2.68480
 Alpha virt. eigenvalues --    2.69948   2.70745   2.70940   2.72357   2.74906
 Alpha virt. eigenvalues --    2.76126   2.77193   2.77718   2.79701   2.83293
 Alpha virt. eigenvalues --    2.83875   2.86022   2.91569   2.98289   2.99757
 Alpha virt. eigenvalues --    3.01827   3.03705   3.05126   3.11094   3.13746
 Alpha virt. eigenvalues --    3.18360   3.23614   3.25540   3.27396   3.28434
 Alpha virt. eigenvalues --    3.31142   3.32857   3.41994   3.43450   3.44795
 Alpha virt. eigenvalues --    3.46278   3.47560   3.54575   3.64590   3.65198
 Alpha virt. eigenvalues --    3.68763   3.90141   3.93422   3.95234   3.96093
 Alpha virt. eigenvalues --    4.01409   4.03833   4.07497   4.10958   4.35646
 Alpha virt. eigenvalues --    4.55487   4.66452   4.69496  23.45716  23.59703
 Alpha virt. eigenvalues --   23.76583  23.82747  23.84583  23.87581  23.88847
 Alpha virt. eigenvalues --   23.91732  23.93539  23.96638  23.99208  24.01866
 Alpha virt. eigenvalues --   24.07344  24.11219
          Condensed to atoms (all electrons):
               1          2          3          4          5          6
     1  C   10.950094   1.279201  -0.954838   1.884557   0.076019  -0.105258
     2  C    1.279201   8.123592   0.252702  -0.076921  -0.116790  -0.028279
     3  C   -0.954838   0.252702   6.433991   0.289413  -0.040408   0.003711
     4  C    1.884557  -0.076921   0.289413   9.324897   0.413150   0.097200
     5  C    0.076019  -0.116790  -0.040408   0.413150   9.079096   0.001122
     6  C   -0.105258  -0.028279   0.003711   0.097200   0.001122   7.668974
     7  C   -0.016678   0.042074  -0.008070  -0.080753  -0.743000   0.248775
     8  C   -0.504912  -0.104523  -0.019522  -0.447044   2.607435  -1.217652
     9  C   -3.249526  -1.064382   0.039603  -1.096927  -1.531104   0.212603
    10  C   -0.502009   0.349534  -0.232323  -0.182338  -0.399489  -1.112771
    11  C   -1.522905  -2.595470   1.038702  -3.885341  -0.731811  -0.462127
    12  C   -0.711851   0.335620  -0.315005  -0.244914   0.198960  -0.312078
    13  C    0.160709   0.096556  -0.040549  -1.803848  -3.306450   1.120559
    14  C   -1.439915  -0.356661  -0.355452   1.490429  -0.039628  -0.038881
    15  H    0.344001  -0.111306   0.010141   0.032953   0.001947   0.002337
    16  H   -0.021486   0.368147  -0.016853   0.005467  -0.000367  -0.000409
    17  H   -0.018160  -0.040987   0.397630  -0.057838  -0.000718   0.000370
    18  H    0.051189   0.001217  -0.078151   0.413065   0.018118  -0.000831
    19  H   -0.039405  -0.009675   0.030045  -0.083856  -0.044716   0.014697
    20  H    0.014933   0.003299  -0.003870   0.009540   0.461193  -0.127391
    21  H   -0.002594  -0.000528   0.000267   0.000048  -0.039384   0.389596
    22  H    0.003433   0.000792  -0.000250  -0.001441  -0.024128  -0.000152
    23  H   -0.012054  -0.005515   0.000198   0.001529   0.034226  -0.004734
    24  H    0.048869   0.024202   0.003943  -0.021368  -0.009002  -0.004862
    25  H    0.048869   0.024202   0.003943  -0.021368  -0.009002  -0.004862
               7          8          9         10         11         12
     1  C   -0.016678  -0.504912  -3.249526  -0.502009  -1.522905  -0.711851
     2  C    0.042074  -0.104523  -1.064382   0.349534  -2.595470   0.335620
     3  C   -0.008070  -0.019522   0.039603  -0.232323   1.038702  -0.315005
     4  C   -0.080753  -0.447044  -1.096927  -0.182338  -3.885341  -0.244914
     5  C   -0.743000   2.607435  -1.531104  -0.399489  -0.731811   0.198960
     6  C    0.248775  -1.217652   0.212603  -1.112771  -0.462127  -0.312078
     7  C    6.492670   0.455397  -0.031097   0.172516  -0.047484  -0.132277
     8  C    0.455397  12.400901  -2.632566   0.670857   0.072840  -0.903788
     9  C   -0.031097  -2.632566   9.949284   0.342495   1.667035   0.452582
    10  C    0.172516   0.670857   0.342495   9.686090  -1.761043   0.463972
    11  C   -0.047484   0.072840   1.667035  -1.761043  16.116418  -0.115449
    12  C   -0.132277  -0.903788   0.452582   0.463972  -0.115449  11.837511
    13  C   -0.714140  -3.295408   2.568280  -2.160414   3.425571  -3.848652
    14  C    0.362029  -1.263665   0.036609   0.315920  -5.303522  -0.740211
    15  H   -0.004102  -0.022878   0.067344  -0.001632  -0.004970   0.013861
    16  H    0.000348   0.001109  -0.003475  -0.010790   0.038606  -0.029206
    17  H   -0.000199  -0.001857   0.005885   0.009063   0.034230   0.028559
    18  H    0.000125   0.002827  -0.031299   0.013672  -0.004000  -0.058839
    19  H    0.005055  -0.014021   0.054400   0.396283   0.089176   0.062883
    20  H    0.007407   0.048260  -0.031439   0.077797   0.011574   0.005226
    21  H   -0.038258  -0.000260  -0.003088   0.008710  -0.009596   0.004100
    22  H    0.392715  -0.064593   0.011542  -0.013975   0.007458  -0.010204
    23  H   -0.054305   0.422706   0.017553   0.003089  -0.028999   0.003065
    24  H    0.012940   0.040352   0.342625   0.005317   0.011744  -0.057256
    25  H    0.012940   0.040352   0.342625   0.005317   0.011744  -0.057256
              13         14         15         16         17         18
     1  C    0.160709  -1.439915   0.344001  -0.021486  -0.018160   0.051189
     2  C    0.096556  -0.356661  -0.111306   0.368147  -0.040987   0.001217
     3  C   -0.040549  -0.355452   0.010141  -0.016853   0.397630  -0.078151
     4  C   -1.803848   1.490429   0.032953   0.005467  -0.057838   0.413065
     5  C   -3.306450  -0.039628   0.001947  -0.000367  -0.000718   0.018118
     6  C    1.120559  -0.038881   0.002337  -0.000409   0.000370  -0.000831
     7  C   -0.714140   0.362029  -0.004102   0.000348  -0.000199   0.000125
     8  C   -3.295408  -1.263665  -0.022878   0.001109  -0.001857   0.002827
     9  C    2.568280   0.036609   0.067344  -0.003475   0.005885  -0.031299
    10  C   -2.160414   0.315920  -0.001632  -0.010790   0.009063   0.013672
    11  C    3.425571  -5.303522  -0.004970   0.038606   0.034230  -0.004000
    12  C   -3.848652  -0.740211   0.013861  -0.029206   0.028559  -0.058839
    13  C   18.494321  -4.277948  -0.027493   0.004216  -0.004911  -0.009372
    14  C   -4.277948  17.388607   0.013149  -0.003908  -0.002565   0.005758
    15  H   -0.027493   0.013149   0.455073  -0.009328   0.001161  -0.000092
    16  H    0.004216  -0.003908  -0.009328   0.414648  -0.005681   0.001872
    17  H   -0.004911  -0.002565   0.001161  -0.005681   0.420827  -0.008627
    18  H   -0.009372   0.005758  -0.000092   0.001872  -0.008627   0.430076
    19  H    0.054857  -0.157941   0.000238  -0.000434   0.001025  -0.004775
    20  H   -0.040762  -0.096774  -0.000156   0.000047  -0.000149   0.000813
    21  H   -0.007938   0.040555   0.000004  -0.000008   0.000006  -0.000069
    22  H    0.097406  -0.061954  -0.000224   0.000011  -0.000005   0.000009
    23  H   -0.084716   0.053189   0.000481  -0.000083  -0.000020  -0.000054
    24  H    0.031408  -0.095890  -0.003554   0.000397  -0.000037   0.000104
    25  H    0.031408  -0.095890  -0.003554   0.000397  -0.000037   0.000104
              19         20         21         22         23         24
     1  C   -0.039405   0.014933  -0.002594   0.003433  -0.012054   0.048869
     2  C   -0.009675   0.003299  -0.000528   0.000792  -0.005515   0.024202
     3  C    0.030045  -0.003870   0.000267  -0.000250   0.000198   0.003943
     4  C   -0.083856   0.009540   0.000048  -0.001441   0.001529  -0.021368
     5  C   -0.044716   0.461193  -0.039384  -0.024128   0.034226  -0.009002
     6  C    0.014697  -0.127391   0.389596  -0.000152  -0.004734  -0.004862
     7  C    0.005055   0.007407  -0.038258   0.392715  -0.054305   0.012940
     8  C   -0.014021   0.048260  -0.000260  -0.064593   0.422706   0.040352
     9  C    0.054400  -0.031439  -0.003088   0.011542   0.017553   0.342625
    10  C    0.396283   0.077797   0.008710  -0.013975   0.003089   0.005317
    11  C    0.089176   0.011574  -0.009596   0.007458  -0.028999   0.011744
    12  C    0.062883   0.005226   0.004100  -0.010204   0.003065  -0.057256
    13  C    0.054857  -0.040762  -0.007938   0.097406  -0.084716   0.031408
    14  C   -0.157941  -0.096774   0.040555  -0.061954   0.053189  -0.095890
    15  H    0.000238  -0.000156   0.000004  -0.000224   0.000481  -0.003554
    16  H   -0.000434   0.000047  -0.000008   0.000011  -0.000083   0.000397
    17  H    0.001025  -0.000149   0.000006  -0.000005  -0.000020  -0.000037
    18  H   -0.004775   0.000813  -0.000069   0.000009  -0.000054   0.000104
    19  H    0.415681  -0.001154   0.000163  -0.000054  -0.000160   0.000976
    20  H   -0.001154   0.463224  -0.011468   0.001885   0.000241   0.000246
    21  H    0.000163  -0.011468   0.428876  -0.007277   0.001349  -0.000216
    22  H   -0.000054   0.001885  -0.007277   0.415023  -0.007645   0.000712
    23  H   -0.000160   0.000241   0.001349  -0.007645   0.433544  -0.000300
    24  H    0.000976   0.000246  -0.000216   0.000712  -0.000300   0.501252
    25  H    0.000976   0.000246  -0.000216   0.000712  -0.000300  -0.083193
              25
     1  C    0.048869
     2  C    0.024202
     3  C    0.003943
     4  C   -0.021368
     5  C   -0.009002
     6  C   -0.004862
     7  C    0.012940
     8  C    0.040352
     9  C    0.342625
    10  C    0.005317
    11  C    0.011744
    12  C   -0.057256
    13  C    0.031408
    14  C   -0.095890
    15  H   -0.003554
    16  H    0.000397
    17  H   -0.000037
    18  H    0.000104
    19  H    0.000976
    20  H    0.000246
    21  H   -0.000216
    22  H    0.000712
    23  H   -0.000300
    24  H   -0.083193
    25  H    0.501252
 Mulliken charges:
               1
     1  C    0.239718
     2  C   -0.390104
     3  C   -0.439000
     4  C    0.041712
     5  C    0.144728
     6  C   -0.339657
     7  C   -0.334629
     8  C   -0.270349
     9  C   -0.435560
    10  C   -0.143848
    11  C   -0.052381
    12  C    0.130649
    13  C   -0.462688
    14  C    0.624560
    15  H    0.246596
    16  H    0.266760
    17  H    0.243035
    18  H    0.257157
    19  H    0.229738
    20  H    0.207233
    21  H    0.247225
    22  H    0.260206
    23  H    0.227715
    24  H    0.250593
    25  H    0.250593
 Sum of Mulliken charges =   1.00000
 Mulliken charges with hydrogens summed into heavy atoms:
               1
     1  C    0.486314
     2  C   -0.123343
     3  C   -0.195966
     4  C    0.298869
     5  C    0.351961
     6  C   -0.092432
     7  C   -0.074422
     8  C   -0.042634
     9  C    0.065625
    10  C    0.085890
    11  C   -0.052381
    12  C    0.130649
    13  C   -0.462688
    14  C    0.624560
 Electronic spatial extent (au):  <R**2>=           2857.0754
 Charge=              1.0000 electrons
 Dipole moment (field-independent basis, Debye):
    X=             -0.0773    Y=             -0.0437    Z=             -0.0000  Tot=              0.0888
 Quadrupole moment (field-independent basis, Debye-Ang):
   XX=            -52.8768   YY=            -34.8111   ZZ=            -84.4684
   XY=             -8.0172   XZ=             -0.0000   YZ=             -0.0000
 Traceless Quadrupole moment (field-independent basis, Debye-Ang):
   XX=              4.5086   YY=             22.5743   ZZ=            -27.0830
   XY=             -8.0172   XZ=             -0.0000   YZ=             -0.0000
 Octapole moment (field-independent basis, Debye-Ang**2):
  XXX=             -1.8500  YYY=              8.6572  ZZZ=             -0.0000  XYY=              4.1784
  XXY=             -6.6354  XXZ=             -0.0000  XZZ=              3.3866  YZZ=              0.4706
  YYZ=             -0.0000  XYZ=             -0.0000
 Hexadecapole moment (field-independent basis, Debye-Ang**3):
 XXXX=           -840.1759 YYYY=          -1966.2048 ZZZZ=           -100.0924 XXXY=            291.3528
 XXXZ=             -0.0000 YYYX=            217.8465 YYYZ=             -0.0000 ZZZX=             -0.0000
 ZZZY=             -0.0000 XXYY=           -471.1399 XXZZ=           -206.7081 YYZZ=           -534.4513
 XXYZ=             -0.0000 YYXZ=             -0.0000 ZZXY=            150.7477
 N-N= 7.799774812162D+02 E-N=-2.796015652567D+03  KE= 5.372194081911D+02
 Symmetry A'   KE= 5.225882826377D+02
 Symmetry A"   KE= 1.463112555332D+01
 Unable to Open any file for archive entry.
 1\1\GINC-GADI-CPU-CLX-0359\SP\RM062X TD-FC\6-311++G(d,p)\C14H11(1+)\TS
 1578\02-Aug-2022\0\\#n M062X/6-311++G(d,p) TD(NStates=1) EmpiricalDisp
 ersion=GD3 SP\\SP_-6\\1,1\C,0,0.,2.310655,1.310431\C,0,0.,3.623508,0.8
 37989\C,0,0.,3.771861,-0.54183\C,0,0.,2.631156,-1.445538\C,0,0.,-2.487
 156,-1.337538\C,0,0.,-3.675861,-0.61383\C,0,0.,-3.683508,0.777989\C,0,
 0.,-2.466655,1.442431\C,0,0.,0.024,1.333369\C,0,0.,-0.036,-1.549189\C,
 0,0.,1.202055,0.447065\C,0,0.,1.277471,-0.948804\C,0,0.,-1.274055,0.69
 9065\C,0,0.,-1.229471,-0.720804\H,0,0.,2.094071,2.393647\H,0,0.,4.4767
 53,1.521689\H,0,0.,4.773262,-0.974349\H,0,0.,2.83955,-2.528059\H,0,0.,
 -0.186,-2.638266\H,0,0.,-2.52755,-2.420059\H,0,0.,-4.605262,-1.154349\
 H,0,0.,-4.620753,1.317689\H,0,0.,-2.418071,2.525647\H,0,-0.859585,0.14
 4,2.025787\H,0,0.859585,0.144,2.025787\\Version=ES64L-G16RevC.01\State
 =1-A'\HF=-539.7216409\RMSD=8.550e-09\PG=CS [SG(C14H9),X(H2)]\\@
 The archive entry for this job was punched.


 THE MOST INCOMPREHENSIBLE THING ABOUT THE WORLD
 IS THAT IT IS COMPREHENSIBLE. -- A. EINSTEIN
 Job cpu time:       0 days  0 hours 52 minutes 26.3 seconds.
 Elapsed time:       0 days  0 hours  1 minutes  5.7 seconds.
 File lengths (MBytes):  RWF=    460 Int=      0 D2E=      0 Chk=     15 Scr=      1
 Normal termination of Gaussian 16 at Tue Aug  2 12:16:09 2022.
