 Entering Gaussian System, Link 0=g16
 Initial command:
 /apps/gaussian/g16c01/g16/l1.exe "/jobfs/53803768.gadi-pbs/Gau-227645.inp" -scrdir="/jobfs/53803768.gadi-pbs/"
 Entering Link 1 = /apps/gaussian/g16c01/g16/l1.exe PID=    227646.
  
 Copyright (c) 1988-2019, Gaussian, Inc.  All Rights Reserved.
  
 This is part of the Gaussian(R) 16 program.  It is based on
 the Gaussian(R) 09 system (copyright 2009, Gaussian, Inc.),
 the Gaussian(R) 03 system (copyright 2003, Gaussian, Inc.),
 the Gaussian(R) 98 system (copyright 1998, Gaussian, Inc.),
 the Gaussian(R) 94 system (copyright 1995, Gaussian, Inc.),
 the Gaussian 92(TM) system (copyright 1992, Gaussian, Inc.),
 the Gaussian 90(TM) system (copyright 1990, Gaussian, Inc.),
 the Gaussian 88(TM) system (copyright 1988, Gaussian, Inc.),
 the Gaussian 86(TM) system (copyright 1986, Carnegie Mellon
 University), and the Gaussian 82(TM) system (copyright 1983,
 Carnegie Mellon University). Gaussian is a federally registered
 trademark of Gaussian, Inc.
  
 This software contains proprietary and confidential information,
 including trade secrets, belonging to Gaussian, Inc.
  
 This software is provided under written license and may be
 used, copied, transmitted, or stored only in accord with that
 written license.
  
 The following legend is applicable only to US Government
 contracts under FAR:
  
                    RESTRICTED RIGHTS LEGEND
  
 Use, reproduction and disclosure by the US Government is
 subject to restrictions as set forth in subparagraphs (a)
 and (c) of the Commercial Computer Software - Restricted
 Rights clause in FAR 52.227-19.
  
 Gaussian, Inc.
 340 Quinnipiac St., Bldg. 40, Wallingford CT 06492
  
  
 ---------------------------------------------------------------
 Warning -- This program may not be used in any manner that
 competes with the business of Gaussian, Inc. or will provide
 assistance to any competitor of Gaussian, Inc.  The licensee
 of this program is prohibited from giving any competitor of
 Gaussian, Inc. access to this program.  By using this program,
 the user acknowledges that Gaussian, Inc. is engaged in the
 business of creating and licensing software in the field of
 computational chemistry and represents and warrants to the
 licensee that it is not a competitor of Gaussian, Inc. and that
 it will not use this program in any manner prohibited above.
 ---------------------------------------------------------------
  

 Cite this work as:
 Gaussian 16, Revision C.01,
 M. J. Frisch, G. W. Trucks, H. B. Schlegel, G. E. Scuseria, 
 M. A. Robb, J. R. Cheeseman, G. Scalmani, V. Barone, 
 G. A. Petersson, H. Nakatsuji, X. Li, M. Caricato, A. V. Marenich, 
 J. Bloino, B. G. Janesko, R. Gomperts, B. Mennucci, H. P. Hratchian, 
 J. V. Ortiz, A. F. Izmaylov, J. L. Sonnenberg, D. Williams-Young, 
 F. Ding, F. Lipparini, F. Egidi, J. Goings, B. Peng, A. Petrone, 
 T. Henderson, D. Ranasinghe, V. G. Zakrzewski, J. Gao, N. Rega, 
 G. Zheng, W. Liang, M. Hada, M. Ehara, K. Toyota, R. Fukuda, 
 J. Hasegawa, M. Ishida, T. Nakajima, Y. Honda, O. Kitao, H. Nakai, 
 T. Vreven, K. Throssell, J. A. Montgomery, Jr., J. E. Peralta, 
 F. Ogliaro, M. J. Bearpark, J. J. Heyd, E. N. Brothers, K. N. Kudin, 
 V. N. Staroverov, T. A. Keith, R. Kobayashi, J. Normand, 
 K. Raghavachari, A. P. Rendell, J. C. Burant, S. S. Iyengar, 
 J. Tomasi, M. Cossi, J. M. Millam, M. Klene, C. Adamo, R. Cammi, 
 J. W. Ochterski, R. L. Martin, K. Morokuma, O. Farkas, 
 J. B. Foresman, and D. J. Fox, Gaussian, Inc., Wallingford CT, 2019.
 
 ******************************************
 Gaussian 16:  ES64L-G16RevC.01  3-Jul-2019
                 2-Aug-2022 
 ******************************************
 %NProcShared=48
 Will use up to   48 processors via shared memory.
 %mem = 190GB
 ---------------------------------------------------------------
 #n M062X/6-311++G(d,p) TD(NStates=1) EmpiricalDispersion=GD3 SP
 ---------------------------------------------------------------
 1/38=1,172=1/1;
 2/12=2,17=6,18=5,40=1/2;
 3/5=4,6=6,7=1111,11=9,25=1,30=1,74=-55,124=31/1,2,3,8;
 4//1;
 5/5=2,38=5/2;
 8/6=1,10=2,108=1/1;
 9/41=1,42=1,70=2/14;
 6/7=2,8=2,9=2,10=2/1;
 99/5=1,9=1/99;
 -----
 SP_10
 -----
 Symbolic Z-matrix:
 Charge =  1 Multiplicity = 1
 C                     0.        2.72666   1.45443 
 C                     0.        3.79951   0.48599 
 C                     0.        3.56386  -0.90983 
 C                     0.        2.24716  -1.33354 
 C                     0.       -2.48716  -1.51354 
 C                     0.       -3.72386  -0.78983 
 C                     0.       -3.69951   0.58599 
 C                     0.       -2.46666   1.23443 
 C                     0.       -0.04      1.57337 
 C                     0.        0.06     -1.30919 
 C                     0.        1.34606   0.99107 
 C                     0.        1.18147  -0.4368 
 C                     0.       -1.22606   0.57107 
 C                     0.       -1.26147  -0.8168 
 H                     0.        2.99007   2.53765 
 H                     0.        4.84475   0.83369 
 H                     0.        4.38926  -1.63035 
 H                     0.        1.99155  -2.41606 
 H                     0.        0.31     -2.38227 
 H                     0.       -2.51155  -2.59606 
 H                     0.       -4.66926  -1.33035 
 H                     0.       -4.60475   1.17369 
 H                     0.       -2.45007   2.31765 
 H                    -0.85959  -0.24      2.26579 
 H                     0.85959  -0.24      2.26579 
 
                          Input orientation:                          
 ---------------------------------------------------------------------
 Center     Atomic      Atomic             Coordinates (Angstroms)
 Number     Number       Type             X           Y           Z
 ---------------------------------------------------------------------
      1          6           0        0.000000    2.726655    1.454431
      2          6           0        0.000000    3.799508    0.485989
      3          6           0        0.000000    3.563861   -0.909830
      4          6           0        0.000000    2.247156   -1.333538
      5          6           0        0.000000   -2.487156   -1.513538
      6          6           0        0.000000   -3.723861   -0.789830
      7          6           0        0.000000   -3.699508    0.585989
      8          6           0        0.000000   -2.466655    1.234431
      9          6           0        0.000000   -0.040000    1.573369
     10          6           0        0.000000    0.060000   -1.309189
     11          6           0        0.000000    1.346055    0.991065
     12          6           0        0.000000    1.181471   -0.436804
     13          6           0        0.000000   -1.226055    0.571065
     14          6           0        0.000000   -1.261471   -0.816804
     15          1           0        0.000000    2.990071    2.537647
     16          1           0        0.000000    4.844753    0.833689
     17          1           0        0.000000    4.389262   -1.630349
     18          1           0        0.000000    1.991550   -2.416059
     19          1           0        0.000000    0.310000   -2.382266
     20          1           0        0.000000   -2.511550   -2.596059
     21          1           0        0.000000   -4.669262   -1.330349
     22          1           0        0.000000   -4.604753    1.173689
     23          1           0        0.000000   -2.450071    2.317647
     24          1           0       -0.859585   -0.240000    2.265787
     25          1           0        0.859585   -0.240000    2.265787
 ---------------------------------------------------------------------
                    Distance matrix (angstroms):
                    1          2          3          4          5
     1  C    0.000000
     2  C    1.445300   0.000000
     3  C    2.508116   1.415571   0.000000
     4  C    2.828903   2.391751   1.383199   0.000000
     5  C    5.999389   6.596988   6.081058   4.737733   0.000000
     6  C    6.829778   7.630779   7.288710   5.995720   1.432897
     7  C    6.484579   7.499683   7.415794   6.248792   2.424420
     8  C    5.197968   6.310702   6.400389   5.367912   2.748045
     9  C    2.769210   3.990516   4.376539   3.698809   3.939234
    10  C    3.840396   4.148082   3.526546   2.187292   2.555340
    11  C    1.456284   2.504902   2.920970   2.493143   4.578924
    12  C    2.442205   2.775908   2.428896   1.392773   3.823373
    13  C    4.050216   5.026283   5.013616   3.961150   2.436380
    14  C    4.589516   5.225971   4.826229   3.546474   1.409873
    15  H    1.114785   2.205559   3.494901   3.941826   6.812644
    16  H    2.207184   1.101559   2.163456   3.382955   7.698465
    17  H    3.504302   2.196974   1.095643   2.162571   6.877410
    18  H    3.939679   3.419151   2.177358   1.112289   4.568736
    19  H    4.534365   4.517029   3.571509   2.202817   2.928954
    20  H    6.621575   7.023423   6.305076   4.923336   1.082796
    21  H    7.902822   8.661360   8.243855   6.916419   2.189782
    22  H    7.336781   8.432350   8.430143   7.296221   3.421316
    23  H    5.248203   6.512466   6.825246   5.949378   3.831364
    24  H    3.193466   4.497132   5.029194   4.458696   4.480167
    25  H    3.193466   4.497132   5.029194   4.458696   4.480167
                    6          7          8          9         10
     6  C    0.000000
     7  C    1.376035   0.000000
     8  C    2.382897   1.392984   0.000000
     9  C    4.376704   3.790372   2.450211   0.000000
    10  C    3.819337   4.210178   3.585246   2.884292   0.000000
    11  C    5.373605   5.061797   3.820469   1.503405   2.635357
    12  C    4.918019   4.986989   4.012711   2.352188   1.420828
    13  C    2.844481   2.473498   1.406820   1.552849   2.278002
    14  C    2.462538   2.812802   2.379082   2.684198   1.410223
    15  H    7.493263   6.968460   5.610190   3.179805   4.835645
    16  H    8.721064   8.547851   7.322382   4.940439   5.242689
    17  H    8.156546   8.386916   7.430381   5.466459   4.341158
    18  H    5.942268   6.434317   5.762089   4.476911   2.226218
    19  H    4.336806   4.988656   4.559639   3.971089   1.101814
    20  H    2.175353   3.396568   3.830753   4.846926   2.875570
    21  H    1.089010   2.147737   3.380765   5.464581   4.729309
    22  H    2.152064   1.079287   2.138961   4.582217   5.284374
    23  H    3.358415   2.135353   1.083343   2.522378   4.410714
    24  H    4.713064   3.940660   2.600110   1.121753   3.689084
    25  H    4.713064   3.940660   2.600110   1.121753   3.689084
                   11         12         13         14         15
    11  C    0.000000
    12  C    1.437323   0.000000
    13  C    2.606175   2.609977   0.000000
    14  C    3.172945   2.472320   1.388321   0.000000
    15  H    2.257145   3.481148   4.652221   5.415529   0.000000
    16  H    3.502236   3.877343   6.076486   6.325354   2.518594
    17  H    4.016581   3.422641   6.031418   5.708996   4.396581
    18  H    3.467731   2.138616   4.390432   3.624881   5.053340
    19  H    3.528849   2.131733   3.328908   2.218151   5.602528
    20  H    5.267692   4.277942   3.418066   2.174499   7.524810
    21  H    6.447713   5.918572   3.933326   3.446269   8.580605
    22  H    5.953610   6.006170   3.432019   3.890963   7.716329
    23  H    4.021243   4.557971   2.132783   3.352246   5.444589
    24  H    2.208930   3.172296   2.140858   3.359264   3.353528
    25  H    2.208930   3.172296   2.140858   3.359264   3.353528
                   16         17         18         19         20
    16  H    0.000000
    17  H    2.505784   0.000000
    18  H    4.324538   2.523165   0.000000
    19  H    5.559348   4.147982   1.681890   0.000000
    20  H    8.116549   6.968056   4.506696   2.829638   0.000000
    21  H    9.757025   9.063490   6.748717   5.089163   2.501548
    22  H    9.455621   9.420984   7.509827   6.066268   4.311902
    23  H    7.444232   7.897034   6.491223   5.450429   4.914091
    24  H    5.352056   6.111369   5.257222   4.758759   5.434738
    25  H    5.352056   6.111369   5.257222   4.758759   5.434738
                   21         22         23         24         25
    21  H    0.000000
    22  H    2.504869   0.000000
    23  H    4.269975   2.439528   0.000000
    24  H    5.769700   4.580680   2.371917   0.000000
    25  H    5.769700   4.580680   2.371917   1.719170   0.000000
 Stoichiometry    C14H11(1+)
 Framework group  CS[SG(C14H9),X(H2)]
 Deg. of freedom    46
 Full point group                 CS      NOp   2
 Largest Abelian subgroup         CS      NOp   2
 Largest concise Abelian subgroup CS      NOp   2
                         Standard orientation:                         
 ---------------------------------------------------------------------
 Center     Atomic      Atomic             Coordinates (Angstroms)
 Number     Number       Type             X           Y           Z
 ---------------------------------------------------------------------
      1          6           0        2.308050    2.057741    0.000000
      2          6           0        1.768938    3.398730    0.000000
      3          6           0        0.377470    3.658835    0.000000
      4          6           0       -0.474273    2.568984    0.000000
      5          6           0       -2.275698   -1.812908    0.000000
      6          6           0       -2.022810   -3.223312    0.000000
      7          6           0       -0.722972   -3.674856    0.000000
      8          6           0        0.310808   -2.741207    0.000000
      9          6           0        1.465708   -0.580248    0.000000
     10          6           0       -1.205583    0.507569    0.000000
     11          6           0        1.397050    0.921588    0.000000
     12          6           0        0.000000    1.259449    0.000000
     13          6           0        0.115904   -1.347953    0.000000
     14          6           0       -1.199059   -0.902638    0.000000
     15          1           0        3.415663    1.931492    0.000000
     16          1           0        2.455731    4.259978    0.000000
     17          1           0       -0.014249    4.682061    0.000000
     18          1           0       -1.578540    2.702324    0.000000
     19          1           0       -2.126644    1.112251    0.000000
     20          1           0       -3.300240   -1.462536    0.000000
     21          1           0       -2.856168   -3.924353    0.000000
     22          1           0       -0.483458   -4.727231    0.000000
     23          1           0        1.333310   -3.099149    0.000000
     24          1           0        2.046697   -1.006739    0.859585
     25          1           0        2.046697   -1.006739   -0.859585
 ---------------------------------------------------------------------
 Rotational constants (GHZ):           2.0956203           0.4420643           0.3658440
 Standard basis: 6-311++G(d,p) (5D, 7F)
 There are   299 symmetry adapted cartesian basis functions of A'  symmetry.
 There are   100 symmetry adapted cartesian basis functions of A"  symmetry.
 There are   285 symmetry adapted basis functions of A'  symmetry.
 There are   100 symmetry adapted basis functions of A"  symmetry.
   385 basis functions,   603 primitive gaussians,   399 cartesian basis functions
    47 alpha electrons       47 beta electrons
       nuclear repulsion energy       776.7916138474 Hartrees.
 NAtoms=   25 NActive=   25 NUniq=   24 SFac= 1.09D+00 NAtFMM=   60 NAOKFM=F Big=F
 Integral buffers will be    131072 words long.
 Regular integral format.
 Two-electron integral symmetry is turned on.
 Nuclear repulsion after empirical dispersion term =      776.7906350863 Hartrees.
 One-electron integrals computed using PRISM.
 NBasis=   385 RedAO= T EigKep=  1.38D-06  NBF=   285   100
 NBsUse=   379 1.00D-06 EigRej=  8.48D-07 NBFU=   279   100
 ExpMin= 3.60D-02 ExpMax= 4.56D+03 ExpMxC= 6.82D+02 IAcc=3 IRadAn=         5 AccDes= 0.00D+00
 Harris functional with IExCor= 1009 and IRadAn=       5 diagonalized for initial guess.
 HarFok:  IExCor= 1009 AccDes= 0.00D+00 IRadAn=         5 IDoV= 1 UseB2=F ITyADJ=14
 ICtDFT=  3500011 ScaDFX=  1.000000  1.000000  1.000000  1.000000
 FoFCou: FMM=F IPFlag=           0 FMFlag=      100000 FMFlg1=           0
         NFxFlg=           0 DoJE=T BraDBF=F KetDBF=T FulRan=T
         wScrn=  0.000000 ICntrl=       500 IOpCl=  0 I1Cent=   200000004 NGrid=           0
         NMat0=    1 NMatS0=      1 NMatT0=    0 NMatD0=    1 NMtDS0=    0 NMtDT0=    0
 Petite list used in FoFCou.
 Initial guess orbital symmetries:
       Occupied  (A') (A') (A') (A') (A') (A') (A') (A') (A') (A')
                 (A') (A') (A') (A') (A') (A') (A') (A') (A') (A')
                 (A') (A') (A') (A') (A') (A') (A') (A') (A') (A')
                 (A') (A') (A') (A") (A') (A') (A') (A') (A") (A")
                 (A') (A') (A') (A") (A") (A") (A")
       Virtual   (A") (A") (A") (A") (A") (A') (A') (A') (A') (A")
                 (A") (A') (A') (A') (A") (A') (A') (A') (A') (A')
                 (A") (A") (A') (A') (A') (A") (A') (A') (A") (A')
                 (A') (A') (A') (A") (A') (A') (A') (A') (A") (A")
                 (A') (A') (A') (A") (A') (A') (A') (A') (A') (A")
                 (A') (A") (A') (A") (A') (A') (A') (A") (A') (A")
                 (A') (A') (A') (A') (A') (A') (A") (A') (A') (A")
                 (A') (A') (A') (A') (A') (A') (A') (A') (A') (A')
                 (A') (A') (A') (A') (A') (A') (A') (A') (A') (A')
                 (A') (A') (A') (A') (A') (A') (A') (A") (A") (A')
                 (A") (A') (A") (A') (A') (A') (A") (A') (A") (A')
                 (A") (A") (A') (A") (A') (A') (A") (A') (A") (A")
                 (A') (A") (A') (A") (A') (A') (A') (A') (A') (A")
                 (A') (A') (A') (A') (A') (A') (A') (A') (A') (A")
                 (A') (A') (A') (A') (A') (A') (A') (A') (A") (A')
                 (A') (A") (A") (A') (A") (A') (A') (A") (A') (A")
                 (A') (A') (A") (A") (A") (A") (A') (A') (A') (A')
                 (A') (A") (A') (A") (A') (A') (A') (A') (A') (A")
                 (A') (A') (A") (A') (A') (A") (A') (A') (A") (A")
                 (A") (A') (A') (A') (A") (A') (A') (A") (A') (A")
                 (A') (A") (A") (A') (A') (A") (A') (A") (A') (A')
                 (A") (A') (A") (A") (A') (A') (A') (A") (A') (A')
                 (A") (A') (A') (A') (A") (A') (A') (A") (A') (A')
                 (A") (A') (A") (A') (A') (A') (A") (A") (A') (A')
                 (A") (A') (A') (A') (A") (A') (A') (A') (A') (A')
                 (A") (A') (A') (A') (A") (A') (A") (A') (A") (A')
                 (A') (A") (A') (A') (A') (A") (A') (A') (A") (A')
                 (A') (A") (A') (A') (A") (A') (A") (A') (A") (A')
                 (A") (A") (A") (A') (A') (A") (A') (A') (A') (A')
                 (A') (A') (A') (A') (A') (A') (A') (A') (A') (A')
                 (A') (A') (A') (A") (A') (A') (A') (A') (A') (A')
                 (A') (A') (A') (A') (A') (A') (A') (A') (A') (A')
                 (A') (A') (A') (A') (A') (A') (A') (A') (A') (A')
                 (A') (A')
 The electronic state of the initial guess is 1-A'.
 Requested convergence on RMS density matrix=1.00D-08 within 128 cycles.
 Requested convergence on MAX density matrix=1.00D-06.
 Requested convergence on             energy=1.00D-06.
 No special actions if energy rises.
 SCF Done:  E(RM062X) =  -539.701901235     A.U. after   15 cycles
            NFock= 15  Conv=0.74D-08     -V/T= 2.0051
 DoSCS=F DFT=T ScalE2(SS,OS)=  1.000000  1.000000
 ExpMin= 3.60D-02 ExpMax= 4.56D+03 ExpMxC= 6.82D+02 IAcc=3 IRadAn=         5 AccDes= 0.00D+00
 HarFok:  IExCor=  205 AccDes= 0.00D+00 IRadAn=         5 IDoV=-2 UseB2=F ITyADJ=14
 ICtDFT= 12500011 ScaDFX=  1.000000  1.000000  1.000000  1.000000
 Range of M.O.s used for correlation:    15   379
 NBasis=   385 NAE=    47 NBE=    47 NFC=    14 NFV=     0
 NROrb=    365 NOA=    33 NOB=    33 NVA=   332 NVB=   332

 **** Warning!!: The largest alpha MO coefficient is  0.18942599D+03

 Orbital symmetries:
       Occupied  (A') (A') (A') (A') (A') (A') (A') (A') (A') (A')
                 (A') (A') (A') (A') (A') (A') (A') (A') (A') (A')
                 (A') (A') (A') (A') (A') (A') (A') (A') (A') (A')
                 (A') (A') (A") (A') (A') (A') (A') (A") (A") (A')
                 (A') (A') (A') (A") (A") (A") (A")
       Virtual   (A") (A") (A") (A") (A') (A') (A') (A') (A") (A')
                 (A') (A") (A') (A') (A") (A') (A") (A') (A') (A')
                 (A") (A") (A') (A') (A') (A") (A') (A") (A') (A")
                 (A') (A") (A') (A') (A') (A') (A') (A") (A') (A')
                 (A') (A") (A') (A") (A") (A') (A') (A") (A') (A')
                 (A") (A') (A') (A') (A') (A") (A') (A') (A') (A")
                 (A') (A') (A') (A') (A') (A') (A") (A') (A') (A')
                 (A') (A') (A') (A') (A') (A') (A') (A') (A') (A')
                 (A') (A') (A') (A') (A') (A') (A') (A') (A') (A')
                 (A') (A') (A') (A') (A") (A") (A') (A') (A") (A')
                 (A") (A') (A') (A') (A") (A') (A') (A") (A") (A')
                 (A") (A') (A") (A') (A") (A') (A') (A") (A') (A")
                 (A") (A") (A') (A') (A') (A') (A') (A") (A') (A')
                 (A') (A') (A') (A') (A') (A') (A') (A') (A') (A')
                 (A') (A') (A') (A') (A") (A') (A') (A') (A') (A')
                 (A') (A') (A") (A') (A") (A') (A') (A") (A") (A')
                 (A") (A") (A') (A') (A") (A') (A") (A") (A") (A')
                 (A') (A') (A") (A") (A') (A') (A') (A') (A") (A')
                 (A') (A") (A') (A') (A") (A') (A') (A') (A") (A")
                 (A") (A') (A') (A") (A') (A') (A') (A") (A') (A")
                 (A") (A') (A") (A') (A") (A') (A") (A') (A') (A')
                 (A') (A") (A') (A") (A") (A') (A') (A') (A") (A')
                 (A") (A') (A') (A') (A") (A') (A') (A") (A') (A')
                 (A") (A') (A") (A') (A') (A') (A") (A") (A') (A')
                 (A") (A') (A') (A") (A') (A') (A') (A') (A') (A')
                 (A') (A") (A') (A') (A') (A") (A') (A") (A') (A")
                 (A') (A') (A') (A') (A') (A') (A") (A') (A') (A')
                 (A') (A") (A') (A") (A") (A') (A") (A") (A') (A")
                 (A") (A') (A") (A") (A') (A') (A") (A') (A') (A')
                 (A') (A') (A') (A') (A') (A') (A') (A') (A') (A')
                 (A') (A') (A') (A") (A') (A') (A') (A') (A') (A')
                 (A') (A') (A') (A') (A') (A') (A') (A') (A') (A')
                 (A') (A') (A') (A') (A') (A') (A') (A') (A') (A')
                 (A') (A')
     4 initial guesses have been made.
 Convergence on wavefunction:    0.001000000000000
 Iteration     1 Dimension     4 NMult     0 NNew      4
 CISAX will form     4 AO SS matrices at one time.
 Iteration     2 Dimension     6 NMult     4 NNew      2
 Iteration     3 Dimension     8 NMult     6 NNew      2
 Iteration     4 Dimension    10 NMult     8 NNew      2
 Iteration     5 Dimension    12 NMult    10 NNew      2
 Iteration     6 Dimension    14 NMult    12 NNew      2
 ***********************************************************************
 Excited states from <AA,BB:AA,BB> singles matrix:
 ***********************************************************************
 
 Ground to excited state transition densities written to RWF  633
 Ground to excited state transition electric dipole moments (Au):
       state          X           Y           Z        Dip. S.      Osc.
         1        -0.6612      0.0439      0.0000      0.4391      0.0319
 Ground to excited state transition velocity dipole moments (Au):
       state          X           Y           Z        Dip. S.      Osc.
         1         0.0805     -0.0053     -0.0000      0.0065      0.0398
 Ground to excited state transition magnetic dipole moments (Au):
       state          X           Y           Z
         1        -0.0000     -0.0000     -0.0104
 Ground to excited state transition velocity quadrupole moments (Au):
       state          XX          YY          ZZ          XY          XZ          YZ
         1        -0.1036     -0.2322      0.0085     -0.1579      0.0000      0.0000
 <0|del|b> * <b|rxdel|0> + <0|del|b> * <b|delr+rdel|0>
 Rotatory Strengths (R) in cgs (10**-40 erg-esu-cm/Gauss)
       state          XX          YY          ZZ    R(velocity)    E-M Angle
         1         0.0000      0.0000     -0.0000     -0.0000       90.00
 1/2[<0|r|b>*<b|rxdel|0> + (<0|rxdel|b>*<b|r|0>)*]
 Rotatory Strengths (R) in cgs (10**-40 erg-esu-cm/Gauss)
       state          XX          YY          ZZ     R(length)
         1        -0.0000      0.0000      0.0000     -0.0000
  1/2[<0|del|b>*<b|r|0> + (<0|r|b>*<b|del|0>)*] (Au)
       state          X           Y           Z        Dip. S.   Osc.(frdel)
         1        -0.0532     -0.0002     -0.0000      0.0534      0.0356

 Excitation energies and oscillator strengths:
 
 Excited State   1:      Singlet-A'     2.9643 eV  418.25 nm  f=0.0319  <S**2>=0.000
      47 -> 48         0.70316
 This state for optimization and/or second-order correction.
 Total Energy, E(TD-HF/TD-DFT) =  -539.592964358    
 Copying the excited state density for this state as the 1-particle RhoCI density.
 SavETr:  write IOETrn=   770 NScale= 10 NData=  16 NLR=1 NState=    1 LETran=      28.

 **********************************************************************

            Population analysis using the SCF Density.

 **********************************************************************

 Orbital symmetries:
       Occupied  (A') (A') (A') (A') (A') (A') (A') (A') (A') (A')
                 (A') (A') (A') (A') (A') (A') (A') (A') (A') (A')
                 (A') (A') (A') (A') (A') (A') (A') (A') (A') (A')
                 (A') (A') (A") (A') (A') (A') (A') (A") (A") (A')
                 (A') (A') (A') (A") (A") (A") (A")
       Virtual   (A") (A") (A") (A") (A') (A') (A') (A') (A") (A')
                 (A') (A") (A') (A') (A") (A') (A") (A') (A') (A')
                 (A") (A") (A') (A') (A') (A") (A') (A") (A') (A")
                 (A') (A") (A') (A') (A') (A') (A') (A") (A') (A')
                 (A') (A") (A') (A") (A") (A') (A') (A") (A') (A')
                 (A") (A') (A') (A') (A') (A") (A') (A') (A') (A")
                 (A') (A') (A') (A') (A') (A') (A") (A') (A') (A')
                 (A') (A') (A') (A') (A') (A') (A') (A') (A') (A')
                 (A') (A') (A') (A') (A') (A') (A') (A') (A') (A')
                 (A') (A') (A') (A') (A") (A") (A') (A') (A") (A')
                 (A") (A') (A') (A') (A") (A') (A') (A") (A") (A')
                 (A") (A') (A") (A') (A") (A') (A') (A") (A') (A")
                 (A") (A") (A') (A') (A') (A') (A') (A") (A') (A')
                 (A') (A') (A') (A') (A') (A') (A') (A') (A') (A')
                 (A') (A') (A') (A') (A") (A') (A') (A') (A') (A')
                 (A') (A') (A") (A') (A") (A') (A') (A") (A") (A')
                 (A") (A") (A') (A') (A") (A') (A") (A") (A") (A')
                 (A') (A') (A") (A") (A') (A') (A') (A') (A") (A')
                 (A') (A") (A') (A') (A") (A') (A') (A') (A") (A")
                 (A") (A') (A') (A") (A') (A') (A') (A") (A') (A")
                 (A") (A') (A") (A') (A") (A') (A") (A') (A') (A')
                 (A') (A") (A') (A") (A") (A') (A') (A') (A") (A')
                 (A") (A') (A') (A') (A") (A') (A') (A") (A') (A')
                 (A") (A') (A") (A') (A') (A') (A") (A") (A') (A')
                 (A") (A') (A') (A") (A') (A') (A') (A') (A') (A')
                 (A') (A") (A') (A') (A') (A") (A') (A") (A') (A")
                 (A') (A') (A') (A') (A') (A') (A") (A') (A') (A')
                 (A') (A") (A') (A") (A") (A') (A") (A") (A') (A")
                 (A") (A') (A") (A") (A') (A') (A") (A') (A') (A')
                 (A') (A') (A') (A') (A') (A') (A') (A') (A') (A')
                 (A') (A') (A') (A") (A') (A') (A') (A') (A') (A')
                 (A') (A') (A') (A') (A') (A') (A') (A') (A') (A')
                 (A') (A') (A') (A') (A') (A') (A') (A') (A') (A')
                 (A') (A')
 The electronic state is 1-A'.
 Alpha  occ. eigenvalues --  -10.77389 -10.75023 -10.73208 -10.72594 -10.72545
 Alpha  occ. eigenvalues --  -10.72534 -10.72341 -10.72144 -10.71835 -10.71494
 Alpha  occ. eigenvalues --  -10.70530 -10.70013 -10.70011 -10.69434  -1.16417
 Alpha  occ. eigenvalues --   -1.12106  -1.06520  -1.05221  -1.01080  -0.99955
 Alpha  occ. eigenvalues --   -0.95224  -0.90386  -0.87186  -0.84962  -0.83421
 Alpha  occ. eigenvalues --   -0.77729  -0.75513  -0.73600  -0.70279  -0.69260
 Alpha  occ. eigenvalues --   -0.67785  -0.67436  -0.67108  -0.64070  -0.63581
 Alpha  occ. eigenvalues --   -0.62098  -0.61328  -0.59934  -0.59333  -0.58510
 Alpha  occ. eigenvalues --   -0.56097  -0.55429  -0.54445  -0.52081  -0.46575
 Alpha  occ. eigenvalues --   -0.45858  -0.44532
 Alpha virt. eigenvalues --   -0.25597  -0.15142  -0.14315  -0.13156  -0.11267
 Alpha virt. eigenvalues --   -0.10196  -0.09256  -0.08044  -0.07971  -0.07543
 Alpha virt. eigenvalues --   -0.07214  -0.07027  -0.05798  -0.05632  -0.05296
 Alpha virt. eigenvalues --   -0.03928  -0.03605  -0.03510  -0.03167  -0.02064
 Alpha virt. eigenvalues --   -0.01454  -0.00769  -0.00187   0.00107   0.00552
 Alpha virt. eigenvalues --    0.00883   0.01320   0.01680   0.02128   0.02176
 Alpha virt. eigenvalues --    0.02394   0.02481   0.02578   0.03099   0.03690
 Alpha virt. eigenvalues --    0.04085   0.04324   0.04747   0.04845   0.05230
 Alpha virt. eigenvalues --    0.06009   0.06070   0.06508   0.06797   0.07203
 Alpha virt. eigenvalues --    0.07382   0.07850   0.08018   0.08375   0.08605
 Alpha virt. eigenvalues --    0.08842   0.09397   0.09616   0.10262   0.10528
 Alpha virt. eigenvalues --    0.10939   0.11172   0.11828   0.12337   0.12618
 Alpha virt. eigenvalues --    0.12704   0.13269   0.13911   0.14769   0.15032
 Alpha virt. eigenvalues --    0.16276   0.16477   0.16704   0.16975   0.17873
 Alpha virt. eigenvalues --    0.18522   0.18986   0.19367   0.19783   0.20712
 Alpha virt. eigenvalues --    0.21359   0.21584   0.21989   0.22902   0.23340
 Alpha virt. eigenvalues --    0.24322   0.24370   0.25828   0.26265   0.27130
 Alpha virt. eigenvalues --    0.27707   0.28811   0.31149   0.31525   0.34810
 Alpha virt. eigenvalues --    0.35425   0.38960   0.39590   0.40297   0.41319
 Alpha virt. eigenvalues --    0.41627   0.42024   0.43002   0.43142   0.43767
 Alpha virt. eigenvalues --    0.44287   0.45254   0.46026   0.46697   0.47614
 Alpha virt. eigenvalues --    0.48401   0.48667   0.48812   0.49178   0.50156
 Alpha virt. eigenvalues --    0.50475   0.50827   0.51970   0.52035   0.53765
 Alpha virt. eigenvalues --    0.54360   0.54939   0.55056   0.55840   0.57555
 Alpha virt. eigenvalues --    0.58659   0.60076   0.60253   0.61816   0.62652
 Alpha virt. eigenvalues --    0.63070   0.63569   0.63756   0.65416   0.67719
 Alpha virt. eigenvalues --    0.68221   0.69597   0.70934   0.71568   0.72226
 Alpha virt. eigenvalues --    0.74010   0.75126   0.76215   0.76566   0.77030
 Alpha virt. eigenvalues --    0.77527   0.78395   0.78835   0.79852   0.80588
 Alpha virt. eigenvalues --    0.81478   0.82254   0.82735   0.83469   0.84997
 Alpha virt. eigenvalues --    0.85785   0.86668   0.87511   0.88994   0.89648
 Alpha virt. eigenvalues --    0.90625   0.91228   0.91378   0.93094   0.94337
 Alpha virt. eigenvalues --    0.96598   0.97150   1.00103   1.00908   1.01308
 Alpha virt. eigenvalues --    1.02092   1.02381   1.03546   1.05226   1.06257
 Alpha virt. eigenvalues --    1.17677   1.20370   1.21621   1.25154   1.25862
 Alpha virt. eigenvalues --    1.26970   1.32928   1.34345   1.35989   1.36306
 Alpha virt. eigenvalues --    1.38984   1.39706   1.40046   1.41202   1.42036
 Alpha virt. eigenvalues --    1.42786   1.43662   1.45312   1.46097   1.46622
 Alpha virt. eigenvalues --    1.47219   1.49794   1.50782   1.52878   1.54050
 Alpha virt. eigenvalues --    1.54577   1.56917   1.56964   1.58642   1.61397
 Alpha virt. eigenvalues --    1.62283   1.62424   1.63537   1.65244   1.66623
 Alpha virt. eigenvalues --    1.66704   1.68734   1.69510   1.70671   1.73989
 Alpha virt. eigenvalues --    1.74750   1.75550   1.76284   1.77459   1.78860
 Alpha virt. eigenvalues --    1.79788   1.81704   1.82210   1.82898   1.84074
 Alpha virt. eigenvalues --    1.84147   1.85131   1.85553   1.87322   1.88942
 Alpha virt. eigenvalues --    1.89813   1.91903   1.95145   1.96726   1.98697
 Alpha virt. eigenvalues --    1.98919   2.01348   2.05353   2.05627   2.07534
 Alpha virt. eigenvalues --    2.11003   2.13083   2.16684   2.17225   2.21864
 Alpha virt. eigenvalues --    2.22545   2.26416   2.27578   2.29398   2.31200
 Alpha virt. eigenvalues --    2.34038   2.35361   2.37650   2.39263   2.41749
 Alpha virt. eigenvalues --    2.42803   2.44924   2.45094   2.47287   2.49789
 Alpha virt. eigenvalues --    2.54345   2.54349   2.56452   2.57263   2.58241
 Alpha virt. eigenvalues --    2.59509   2.60585   2.60973   2.63006   2.63195
 Alpha virt. eigenvalues --    2.63495   2.64019   2.65029   2.65538   2.66420
 Alpha virt. eigenvalues --    2.67520   2.70264   2.72520   2.72671   2.74395
 Alpha virt. eigenvalues --    2.75524   2.76511   2.79402   2.80499   2.82253
 Alpha virt. eigenvalues --    2.85801   2.90333   2.90703   2.97242   2.97351
 Alpha virt. eigenvalues --    2.99387   2.99818   3.02755   3.07226   3.12829
 Alpha virt. eigenvalues --    3.16882   3.20543   3.22338   3.27486   3.28878
 Alpha virt. eigenvalues --    3.29234   3.31043   3.38105   3.42546   3.44301
 Alpha virt. eigenvalues --    3.44995   3.48670   3.52191   3.56818   3.63371
 Alpha virt. eigenvalues --    3.68852   3.88180   3.92217   3.94479   3.95787
 Alpha virt. eigenvalues --    4.00256   4.02092   4.05475   4.10944   4.31830
 Alpha virt. eigenvalues --    4.47486   4.64209   4.69409  23.44896  23.58489
 Alpha virt. eigenvalues --   23.77631  23.79156  23.79568  23.83651  23.88199
 Alpha virt. eigenvalues --   23.89260  23.90322  23.97252  23.97844  24.03278
 Alpha virt. eigenvalues --   24.07357  24.10856
          Condensed to atoms (all electrons):
               1          2          3          4          5          6
     1  C    9.490006   0.629863  -0.224801   1.928989  -0.403086  -0.028541
     2  C    0.629863   6.401882   0.160310  -0.873504  -0.004879   0.001573
     3  C   -0.224801   0.160310  10.162109   0.810216  -0.268998   0.040571
     4  C    1.928989  -0.873504   0.810216  11.097635  -1.345405   0.000832
     5  C   -0.403086  -0.004879  -0.268998  -1.345405  13.587121  -0.111904
     6  C   -0.028541   0.001573   0.040571   0.000832  -0.111904   6.937156
     7  C    0.140444   0.000983  -0.028486  -0.033722  -1.586052  -0.130066
     8  C    0.439183   0.042527  -0.267719  -0.062807   4.609584  -1.217385
     9  C   -0.314177   0.045997   0.248275  -1.168589   0.681777   0.159093
    10  C   -1.234722   0.204325  -1.924155  -3.214031  -2.356193   0.227112
    11  C   -0.718369  -0.120432  -0.358161  -1.694932  -0.409127   0.148768
    12  C   -2.912483  -0.328714  -1.727442   0.997483  -1.598008  -0.276237
    13  C    0.306854  -0.181274  -0.512709  -0.605221   0.123094   0.849255
    14  C   -1.176957  -0.033524   0.135720  -0.536604  -4.943603  -0.457150
    15  H    0.396683  -0.047581   0.000370   0.036793   0.000042  -0.000213
    16  H   -0.057183   0.410962  -0.052798   0.010570  -0.001627  -0.000005
    17  H    0.002108  -0.021468   0.374825  -0.034297  -0.001147   0.000232
    18  H    0.058352   0.017286  -0.163578   0.436966   0.006292  -0.009333
    19  H   -0.033554   0.010778   0.127781   0.151572  -0.154051   0.057271
    20  H   -0.000504  -0.000083  -0.005648  -0.003124   0.553840  -0.084411
    21  H   -0.000758  -0.000142   0.000860   0.001726  -0.097142   0.399454
    22  H   -0.000103   0.000048  -0.000401  -0.000803   0.024212  -0.054461
    23  H   -0.002818  -0.002119   0.004188   0.004787   0.036031   0.034075
    24  H    0.027235   0.009561  -0.003618  -0.000281  -0.001796  -0.000292
    25  H    0.027235   0.009561  -0.003618  -0.000281  -0.001796  -0.000292
               7          8          9         10         11         12
     1  C    0.140444   0.439183  -0.314177  -1.234722  -0.718369  -2.912483
     2  C    0.000983   0.042527   0.045997   0.204325  -0.120432  -0.328714
     3  C   -0.028486  -0.267719   0.248275  -1.924155  -0.358161  -1.727442
     4  C   -0.033722  -0.062807  -1.168589  -3.214031  -1.694932   0.997483
     5  C   -1.586052   4.609584   0.681777  -2.356193  -0.409127  -1.598008
     6  C   -0.130066  -1.217385   0.159093   0.227112   0.148768  -0.276237
     7  C    9.230084  -0.959257  -1.488997   0.253967  -0.280920  -0.129070
     8  C   -0.959257  12.531818  -0.587449  -2.091447   0.700130  -1.742675
     9  C   -1.488997  -0.587449   9.626824   0.998647   0.832632  -2.298571
    10  C    0.253967  -2.091447   0.998647  10.059540   1.495750   0.207424
    11  C   -0.280920   0.700130   0.832632   1.495750  11.681436  -2.592258
    12  C   -0.129070  -1.742675  -2.298571   0.207424  -2.592258  17.972972
    13  C   -0.878985  -1.247474   0.213911   0.245576  -0.567938  -2.604810
    14  C    1.945615  -4.917082  -1.051935   2.997788  -1.712737   2.120238
    15  H   -0.000279   0.008540  -0.007608  -0.021184  -0.047475   0.021616
    16  H    0.000418   0.001208   0.010788   0.009925   0.025037  -0.008181
    17  H   -0.000355  -0.002147  -0.005465  -0.007065  -0.035464   0.067780
    18  H    0.005690   0.021352  -0.046969   0.028503  -0.047145   0.003180
    19  H   -0.019788  -0.080157   0.069079   0.323715   0.033890  -0.131528
    20  H   -0.006778   0.109571  -0.011955  -0.049123  -0.013896  -0.024690
    21  H    0.007923  -0.076556  -0.005088   0.015906  -0.002131   0.000170
    22  H    0.394731   0.003075  -0.002431  -0.008064  -0.002479  -0.001387
    23  H   -0.171306   0.426013   0.080062  -0.008485   0.024182  -0.023284
    24  H    0.011833   0.036688   0.350919   0.001101   0.016584  -0.046289
    25  H    0.011833   0.036688   0.350919   0.001101   0.016584  -0.046289
              13         14         15         16         17         18
     1  C    0.306854  -1.176957   0.396683  -0.057183   0.002108   0.058352
     2  C   -0.181274  -0.033524  -0.047581   0.410962  -0.021468   0.017286
     3  C   -0.512709   0.135720   0.000370  -0.052798   0.374825  -0.163578
     4  C   -0.605221  -0.536604   0.036793   0.010570  -0.034297   0.436966
     5  C    0.123094  -4.943603   0.000042  -0.001627  -0.001147   0.006292
     6  C    0.849255  -0.457150  -0.000213  -0.000005   0.000232  -0.009333
     7  C   -0.878985   1.945615  -0.000279   0.000418  -0.000355   0.005690
     8  C   -1.247474  -4.917082   0.008540   0.001208  -0.002147   0.021352
     9  C    0.213911  -1.051935  -0.007608   0.010788  -0.005465  -0.046969
    10  C    0.245576   2.997788  -0.021184   0.009925  -0.007065   0.028503
    11  C   -0.567938  -1.712737  -0.047475   0.025037  -0.035464  -0.047145
    12  C   -2.604810   2.120238   0.021616  -0.008181   0.067780   0.003180
    13  C   10.979415   0.043921  -0.005784  -0.001450  -0.006022   0.029652
    14  C    0.043921  13.323766  -0.006533  -0.005942   0.004422  -0.028489
    15  H   -0.005784  -0.006533   0.410259  -0.009131   0.001870   0.000630
    16  H   -0.001450  -0.005942  -0.009131   0.415721  -0.006619   0.001871
    17  H   -0.006022   0.004422   0.001870  -0.006619   0.412042  -0.009812
    18  H    0.029652  -0.028489   0.000630   0.001871  -0.009812   0.497945
    19  H   -0.047414   0.060538  -0.000300  -0.000136   0.000790  -0.013839
    20  H    0.047970  -0.179652  -0.000003  -0.000024  -0.000089   0.002863
    21  H    0.001593   0.099828   0.000002  -0.000004   0.000014  -0.000527
    22  H   -0.010480  -0.005369  -0.000040   0.000004  -0.000007   0.000108
    23  H   -0.041172  -0.054035   0.000234  -0.000158   0.000044  -0.000243
    24  H   -0.030820  -0.032447  -0.000468   0.000471  -0.000165   0.000159
    25  H   -0.030820  -0.032447  -0.000468   0.000471  -0.000165   0.000159
              19         20         21         22         23         24
     1  C   -0.033554  -0.000504  -0.000758  -0.000103  -0.002818   0.027235
     2  C    0.010778  -0.000083  -0.000142   0.000048  -0.002119   0.009561
     3  C    0.127781  -0.005648   0.000860  -0.000401   0.004188  -0.003618
     4  C    0.151572  -0.003124   0.001726  -0.000803   0.004787  -0.000281
     5  C   -0.154051   0.553840  -0.097142   0.024212   0.036031  -0.001796
     6  C    0.057271  -0.084411   0.399454  -0.054461   0.034075  -0.000292
     7  C   -0.019788  -0.006778   0.007923   0.394731  -0.171306   0.011833
     8  C   -0.080157   0.109571  -0.076556   0.003075   0.426013   0.036688
     9  C    0.069079  -0.011955  -0.005088  -0.002431   0.080062   0.350919
    10  C    0.323715  -0.049123   0.015906  -0.008064  -0.008485   0.001101
    11  C    0.033890  -0.013896  -0.002131  -0.002479   0.024182   0.016584
    12  C   -0.131528  -0.024690   0.000170  -0.001387  -0.023284  -0.046289
    13  C   -0.047414   0.047970   0.001593  -0.010480  -0.041172  -0.030820
    14  C    0.060538  -0.179652   0.099828  -0.005369  -0.054035  -0.032447
    15  H   -0.000300  -0.000003   0.000002  -0.000040   0.000234  -0.000468
    16  H   -0.000136  -0.000024  -0.000004   0.000004  -0.000158   0.000471
    17  H    0.000790  -0.000089   0.000014  -0.000007   0.000044  -0.000165
    18  H   -0.013839   0.002863  -0.000527   0.000108  -0.000243   0.000159
    19  H    0.486908  -0.013625   0.003383  -0.001210   0.001148   0.000255
    20  H   -0.013625   0.450546  -0.009628   0.002494  -0.000295   0.000144
    21  H    0.003383  -0.009628   0.415061  -0.007057   0.002030  -0.000079
    22  H   -0.001210   0.002494  -0.007057   0.428482  -0.014873   0.000591
    23  H    0.001148  -0.000295   0.002030  -0.014873   0.469419  -0.002650
    24  H    0.000255   0.000144  -0.000079   0.000591  -0.002650   0.493913
    25  H    0.000255   0.000144  -0.000079   0.000591  -0.002650  -0.082088
              25
     1  C    0.027235
     2  C    0.009561
     3  C   -0.003618
     4  C   -0.000281
     5  C   -0.001796
     6  C   -0.000292
     7  C    0.011833
     8  C    0.036688
     9  C    0.350919
    10  C    0.001101
    11  C    0.016584
    12  C   -0.046289
    13  C   -0.030820
    14  C   -0.032447
    15  H   -0.000468
    16  H    0.000471
    17  H   -0.000165
    18  H    0.000159
    19  H    0.000255
    20  H    0.000144
    21  H   -0.000079
    22  H    0.000591
    23  H   -0.002650
    24  H   -0.082088
    25  H    0.493913
 Mulliken charges:
               1
     1  C   -0.338897
     2  C   -0.331938
     3  C   -0.523092
     4  C    0.096030
     5  C   -0.337179
     6  C   -0.485101
     7  C   -0.289459
     8  C    0.285778
     9  C   -0.679690
    10  C   -0.155912
    11  C   -0.371529
    12  C    1.101054
    13  C   -0.068868
    14  C    0.442667
    15  H    0.270028
    16  H    0.255811
    17  H    0.266159
    18  H    0.208924
    19  H    0.168239
    20  H    0.235954
    21  H    0.251241
    22  H    0.254830
    23  H    0.241873
    24  H    0.251539
    25  H    0.251539
 Sum of Mulliken charges =   1.00000
 Mulliken charges with hydrogens summed into heavy atoms:
               1
     1  C   -0.068869
     2  C   -0.076127
     3  C   -0.256933
     4  C    0.304954
     5  C   -0.101224
     6  C   -0.233860
     7  C   -0.034629
     8  C    0.527651
     9  C   -0.176613
    10  C    0.012327
    11  C   -0.371529
    12  C    1.101054
    13  C   -0.068868
    14  C    0.442667
 Electronic spatial extent (au):  <R**2>=           2878.8806
 Charge=              1.0000 electrons
 Dipole moment (field-independent basis, Debye):
    X=             -0.1015    Y=              0.4502    Z=              0.0000  Tot=              0.4615
 Quadrupole moment (field-independent basis, Debye-Ang):
   XX=            -52.8883   YY=            -33.3721   ZZ=            -84.7282
   XY=              8.9195   XZ=              0.0000   YZ=             -0.0000
 Traceless Quadrupole moment (field-independent basis, Debye-Ang):
   XX=              4.1079   YY=             23.6241   ZZ=            -27.7320
   XY=              8.9195   XZ=              0.0000   YZ=             -0.0000
 Octapole moment (field-independent basis, Debye-Ang**2):
  XXX=             -1.1995  YYY=              3.6939  ZZZ=              0.0000  XYY=              1.4454
  XXY=              3.8551  XXZ=              0.0000  XZZ=              2.1862  YZZ=             -1.8019
  YYZ=              0.0000  XYZ=             -0.0000
 Hexadecapole moment (field-independent basis, Debye-Ang**3):
 XXXX=           -858.5692 YYYY=          -1949.3804 ZZZZ=           -100.6138 XXXY=           -290.7874
 XXXZ=              0.0000 YYYX=           -213.8750 YYYZ=             -0.0000 ZZZX=              0.0000
 ZZZY=             -0.0000 XXYY=           -469.7525 XXZZ=           -211.1409 YYZZ=           -535.6286
 XXYZ=             -0.0000 YYXZ=              0.0000 ZZXY=           -155.3820
 N-N= 7.767906350863D+02 E-N=-2.789422511174D+03  KE= 5.369555805864D+02
 Symmetry A'   KE= 5.223687483105D+02
 Symmetry A"   KE= 1.458683227592D+01
 Unable to Open any file for archive entry.
 1\1\GINC-GADI-CPU-CLX-0359\SP\RM062X TD-FC\6-311++G(d,p)\C14H11(1+)\TS
 1578\02-Aug-2022\0\\#n M062X/6-311++G(d,p) TD(NStates=1) EmpiricalDisp
 ersion=GD3 SP\\SP_10\\1,1\C,0,0.,2.726655,1.454431\C,0,0.,3.799508,0.4
 85989\C,0,0.,3.563861,-0.90983\C,0,0.,2.247156,-1.333538\C,0,0.,-2.487
 156,-1.513538\C,0,0.,-3.723861,-0.78983\C,0,0.,-3.699508,0.585989\C,0,
 0.,-2.466655,1.234431\C,0,0.,-0.04,1.573369\C,0,0.,0.06,-1.309189\C,0,
 0.,1.346055,0.991065\C,0,0.,1.181471,-0.436804\C,0,0.,-1.226055,0.5710
 65\C,0,0.,-1.261471,-0.816804\H,0,0.,2.990071,2.537647\H,0,0.,4.844753
 ,0.833689\H,0,0.,4.389262,-1.630349\H,0,0.,1.99155,-2.416059\H,0,0.,0.
 31,-2.382266\H,0,0.,-2.51155,-2.596059\H,0,0.,-4.669262,-1.330349\H,0,
 0.,-4.604753,1.173689\H,0,0.,-2.450071,2.317647\H,0,-0.859585,-0.24,2.
 265787\H,0,0.859585,-0.24,2.265787\\Version=ES64L-G16RevC.01\State=1-A
 '\HF=-539.7019012\RMSD=7.363e-09\PG=CS [SG(C14H9),X(H2)]\\@
 The archive entry for this job was punched.


 I FIND THAT THE THREE TRULY GREAT TIMES FOR THINKING THOUGHTS
 ARE WHEN I AM STANDING IN THE SHOWER, SITTING ON THE JOHN, OR WALKING.

                                    -- COLIN FLETCHER
 Job cpu time:       0 days  0 hours 51 minutes  3.0 seconds.
 Elapsed time:       0 days  0 hours  1 minutes  3.9 seconds.
 File lengths (MBytes):  RWF=    460 Int=      0 D2E=      0 Chk=     15 Scr=      1
 Normal termination of Gaussian 16 at Tue Aug  2 13:38:59 2022.
