 Entering Gaussian System, Link 0=g16
 Initial command:
 /apps/gaussian/g16c01/g16/l1.exe "/jobfs/53803768.gadi-pbs/Gau-225786.inp" -scrdir="/jobfs/53803768.gadi-pbs/"
 Entering Link 1 = /apps/gaussian/g16c01/g16/l1.exe PID=    225787.
  
 Copyright (c) 1988-2019, Gaussian, Inc.  All Rights Reserved.
  
 This is part of the Gaussian(R) 16 program.  It is based on
 the Gaussian(R) 09 system (copyright 2009, Gaussian, Inc.),
 the Gaussian(R) 03 system (copyright 2003, Gaussian, Inc.),
 the Gaussian(R) 98 system (copyright 1998, Gaussian, Inc.),
 the Gaussian(R) 94 system (copyright 1995, Gaussian, Inc.),
 the Gaussian 92(TM) system (copyright 1992, Gaussian, Inc.),
 the Gaussian 90(TM) system (copyright 1990, Gaussian, Inc.),
 the Gaussian 88(TM) system (copyright 1988, Gaussian, Inc.),
 the Gaussian 86(TM) system (copyright 1986, Carnegie Mellon
 University), and the Gaussian 82(TM) system (copyright 1983,
 Carnegie Mellon University). Gaussian is a federally registered
 trademark of Gaussian, Inc.
  
 This software contains proprietary and confidential information,
 including trade secrets, belonging to Gaussian, Inc.
  
 This software is provided under written license and may be
 used, copied, transmitted, or stored only in accord with that
 written license.
  
 The following legend is applicable only to US Government
 contracts under FAR:
  
                    RESTRICTED RIGHTS LEGEND
  
 Use, reproduction and disclosure by the US Government is
 subject to restrictions as set forth in subparagraphs (a)
 and (c) of the Commercial Computer Software - Restricted
 Rights clause in FAR 52.227-19.
  
 Gaussian, Inc.
 340 Quinnipiac St., Bldg. 40, Wallingford CT 06492
  
  
 ---------------------------------------------------------------
 Warning -- This program may not be used in any manner that
 competes with the business of Gaussian, Inc. or will provide
 assistance to any competitor of Gaussian, Inc.  The licensee
 of this program is prohibited from giving any competitor of
 Gaussian, Inc. access to this program.  By using this program,
 the user acknowledges that Gaussian, Inc. is engaged in the
 business of creating and licensing software in the field of
 computational chemistry and represents and warrants to the
 licensee that it is not a competitor of Gaussian, Inc. and that
 it will not use this program in any manner prohibited above.
 ---------------------------------------------------------------
  

 Cite this work as:
 Gaussian 16, Revision C.01,
 M. J. Frisch, G. W. Trucks, H. B. Schlegel, G. E. Scuseria, 
 M. A. Robb, J. R. Cheeseman, G. Scalmani, V. Barone, 
 G. A. Petersson, H. Nakatsuji, X. Li, M. Caricato, A. V. Marenich, 
 J. Bloino, B. G. Janesko, R. Gomperts, B. Mennucci, H. P. Hratchian, 
 J. V. Ortiz, A. F. Izmaylov, J. L. Sonnenberg, D. Williams-Young, 
 F. Ding, F. Lipparini, F. Egidi, J. Goings, B. Peng, A. Petrone, 
 T. Henderson, D. Ranasinghe, V. G. Zakrzewski, J. Gao, N. Rega, 
 G. Zheng, W. Liang, M. Hada, M. Ehara, K. Toyota, R. Fukuda, 
 J. Hasegawa, M. Ishida, T. Nakajima, Y. Honda, O. Kitao, H. Nakai, 
 T. Vreven, K. Throssell, J. A. Montgomery, Jr., J. E. Peralta, 
 F. Ogliaro, M. J. Bearpark, J. J. Heyd, E. N. Brothers, K. N. Kudin, 
 V. N. Staroverov, T. A. Keith, R. Kobayashi, J. Normand, 
 K. Raghavachari, A. P. Rendell, J. C. Burant, S. S. Iyengar, 
 J. Tomasi, M. Cossi, J. M. Millam, M. Klene, C. Adamo, R. Cammi, 
 J. W. Ochterski, R. L. Martin, K. Morokuma, O. Farkas, 
 J. B. Foresman, and D. J. Fox, Gaussian, Inc., Wallingford CT, 2019.
 
 ******************************************
 Gaussian 16:  ES64L-G16RevC.01  3-Jul-2019
                 2-Aug-2022 
 ******************************************
 %NProcShared=48
 Will use up to   48 processors via shared memory.
 %mem = 190GB
 ---------------------------------------------------------------
 #n M062X/6-311++G(d,p) TD(NStates=1) EmpiricalDispersion=GD3 SP
 ---------------------------------------------------------------
 1/38=1,172=1/1;
 2/12=2,17=6,18=5,40=1/2;
 3/5=4,6=6,7=1111,11=9,25=1,30=1,74=-55,124=31/1,2,3,8;
 4//1;
 5/5=2,38=5/2;
 8/6=1,10=2,108=1/1;
 9/41=1,42=1,70=2/14;
 6/7=2,8=2,9=2,10=2/1;
 99/5=1,9=1/99;
 ----
 SP_8
 ----
 Symbolic Z-matrix:
 Charge =  1 Multiplicity = 1
 C                     0.        2.49266   1.46443 
 C                     0.        3.69351   0.76799 
 C                     0.        3.65986  -0.62583 
 C                     0.        2.46316  -1.31954 
 C                     0.       -2.65516  -1.46354 
 C                     0.       -3.78786  -0.52983 
 C                     0.       -3.61351   0.84799 
 C                     0.       -2.28465   1.28843 
 C                     0.       -0.032     1.33337 
 C                     0.        0.048    -1.54919 
 C                     0.        1.28606   0.74107 
 C                     0.        1.22147  -0.6828 
 C                     0.       -1.19006   0.40507 
 C                     0.       -1.28547  -0.9868 
 H                     0.        2.47207   2.54765 
 H                     0.        4.64475   1.28369 
 H                     0.        4.57726  -1.18435 
 H                     0.        2.47555  -2.40206 
 H                     0.        0.248    -2.63827 
 H                     0.       -2.89155  -2.54606 
 H                     0.       -4.80126  -0.94435 
 H                     0.       -4.45275   1.55569 
 H                     0.       -2.04007   2.37165 
 H                    -0.85959  -0.192     2.02579 
 H                     0.85959  -0.192     2.02579 
 
                          Input orientation:                          
 ---------------------------------------------------------------------
 Center     Atomic      Atomic             Coordinates (Angstroms)
 Number     Number       Type             X           Y           Z
 ---------------------------------------------------------------------
      1          6           0        0.000000    2.492655    1.464431
      2          6           0        0.000000    3.693508    0.767989
      3          6           0        0.000000    3.659861   -0.625830
      4          6           0        0.000000    2.463156   -1.319538
      5          6           0        0.000000   -2.655156   -1.463538
      6          6           0        0.000000   -3.787861   -0.529830
      7          6           0        0.000000   -3.613508    0.847989
      8          6           0        0.000000   -2.284655    1.288431
      9          6           0        0.000000   -0.032000    1.333369
     10          6           0        0.000000    0.048000   -1.549189
     11          6           0        0.000000    1.286055    0.741065
     12          6           0        0.000000    1.221471   -0.682804
     13          6           0        0.000000   -1.190055    0.405065
     14          6           0        0.000000   -1.285471   -0.986804
     15          1           0        0.000000    2.472071    2.547647
     16          1           0        0.000000    4.644753    1.283689
     17          1           0        0.000000    4.577262   -1.184349
     18          1           0        0.000000    2.475550   -2.402059
     19          1           0        0.000000    0.248000   -2.638266
     20          1           0        0.000000   -2.891550   -2.546059
     21          1           0        0.000000   -4.801262   -0.944349
     22          1           0        0.000000   -4.452753    1.555689
     23          1           0        0.000000   -2.040071    2.371647
     24          1           0       -0.859585   -0.192000    2.025787
     25          1           0        0.859585   -0.192000    2.025787
 ---------------------------------------------------------------------
                    Distance matrix (angstroms):
                    1          2          3          4          5
     1  C    0.000000
     2  C    1.388193   0.000000
     3  C    2.394068   1.394225   0.000000
     4  C    2.784125   2.423125   1.383233   0.000000
     5  C    5.922243   6.729431   6.370337   5.120337   0.000000
     6  C    6.589534   7.593103   7.448341   6.300703   1.467934
     7  C    6.137200   7.307454   7.421189   6.451668   2.502318
     8  C    4.780551   6.000774   6.245131   5.416937   2.776798
     9  C    2.528055   3.768165   4.179509   3.641939   3.834532
    10  C    3.880495   4.319611   3.728020   2.426050   2.704513
    11  C    1.406820   2.407604   2.739226   2.373110   4.515907
    12  C    2.495301   2.866316   2.439056   1.395425   3.954464
    13  C    3.832050   4.897030   4.958269   4.039827   2.374489
    14  C    4.503642   5.279160   4.958489   3.763365   1.450280
    15  H    1.083412   2.158493   3.388481   3.867195   6.509843
    16  H    2.159674   1.082041   2.148552   3.396492   7.799739
    17  H    3.370700   2.143046   1.074043   2.118424   7.237805
    18  H    3.866528   3.395972   2.134849   1.082592   5.215838
    19  H    4.676601   4.845008   3.961148   2.577976   3.131821
    20  H    6.713694   7.371967   6.827025   5.493381   1.108032
    21  H    7.681370   8.665634   8.467116   7.274100   2.208015
    22  H    6.946008   8.184256   8.400805   7.489775   3.513842
    23  H    4.622623   5.953625   6.440038   5.822706   3.884195
    24  H    2.874262   4.173501   4.754660   4.356597   4.356766
    25  H    2.874262   4.173501   4.754660   4.356597   4.356766
                    6          7          8          9         10
     6  C    0.000000
     7  C    1.388807   0.000000
     8  C    2.359174   1.399943   0.000000
     9  C    4.192613   3.614249   2.253103   0.000000
    10  C    3.968995   4.376426   3.673332   2.883668   0.000000
    11  C    5.230659   4.900730   3.612420   1.445024   2.603468
    12  C    5.011667   5.071523   4.022274   2.374056   1.458649
    13  C    2.760910   2.463596   1.406586   1.484197   2.313415
    14  C    2.543773   2.964156   2.484967   2.637118   1.447212
    15  H    6.975501   6.318474   4.920576   2.782956   4.760272
    16  H    8.625418   8.269747   6.929410   4.677017   5.399568
    17  H    8.390690   8.439142   7.293870   5.252066   4.543932
    18  H    6.537244   6.902133   6.023227   4.499025   2.573011
    19  H    4.553425   5.202424   4.672611   3.981493   1.107289
    20  H    2.206480   3.469983   3.882220   4.819439   3.103982
    21  H    1.094901   2.150171   3.364315   5.285249   4.886837
    22  H    2.188943   1.097803   2.184508   4.426340   5.467819
    23  H    3.387232   2.190260   1.110486   2.260613   4.442184
    24  H    4.494472   3.719249   2.379451   1.115316   3.684690
    25  H    4.494472   3.719249   2.379451   1.115316   3.684690
                   11         12         13         14         15
    11  C    0.000000
    12  C    1.425333   0.000000
    13  C    2.498803   2.645547   0.000000
    14  C    3.098109   2.525307   1.395136   0.000000
    15  H    2.161104   3.464075   4.242856   5.158630   0.000000
    16  H    3.402248   3.947905   5.900590   6.350015   2.513590
    17  H    3.813038   3.393064   5.982322   5.866060   4.284813
    18  H    3.360674   2.128039   4.616991   4.018485   4.949707
    19  H    3.535171   2.184371   3.365987   2.253633   5.642711
    20  H    5.315785   4.515380   3.406496   2.238474   7.396910
    21  H    6.316332   6.028409   3.855092   3.516047   8.068173
    22  H    5.796338   6.099809   3.459644   4.061520   6.995511
    23  H    3.704310   4.468482   2.142422   3.442182   4.515573
    24  H    2.138701   3.173839   2.088478   3.318173   2.847543
    25  H    2.138701   3.173839   2.088478   3.318173   2.847543
                   16         17         18         19         20
    16  H    0.000000
    17  H    2.468961   0.000000
    18  H    4.276702   2.428994   0.000000
    19  H    5.891788   4.566879   2.240039   0.000000
    20  H    8.453569   7.591930   5.369031   3.140904   0.000000
    21  H    9.705223   9.381594   7.421382   5.325824   2.492484
    22  H    9.101571   9.436577   7.979045   6.299709   4.388814
    23  H    6.772778   7.512270   6.571081   5.507676   4.990877
    24  H    4.968277   5.812893   5.240280   4.762969   5.378497
    25  H    4.968277   5.812893   5.240280   4.762969   5.378497
                   21         22         23         24         25
    21  H    0.000000
    22  H    2.524212   0.000000
    23  H    4.315090   2.546924   0.000000
    24  H    5.550305   4.371944   2.067334   0.000000
    25  H    5.550305   4.371944   2.067334   1.719170   0.000000
 Stoichiometry    C14H11(1+)
 Framework group  CS[SG(C14H9),X(H2)]
 Deg. of freedom    46
 Full point group                 CS      NOp   2
 Largest Abelian subgroup         CS      NOp   2
 Largest concise Abelian subgroup CS      NOp   2
                         Standard orientation:                         
 ---------------------------------------------------------------------
 Center     Atomic      Atomic             Coordinates (Angstroms)
 Number     Number       Type             X           Y           Z
 ---------------------------------------------------------------------
      1          6           0       -2.183993   -1.893042    0.000000
      2          6           0       -1.909250   -3.253775    0.000000
      3          6           0       -0.578200   -3.668707    0.000000
      4          6           0        0.462516   -2.757531    0.000000
      5          6           0        2.239647    2.044517    0.000000
      6          6           0        1.718313    3.416757    0.000000
      7          6           0        0.357314    3.693280    0.000000
      8          6           0       -0.485863    2.575741    0.000000
      9          6           0       -1.250542    0.456369    0.000000
     10          6           0        1.454252   -0.543444    0.000000
     11          6           0       -1.112012   -0.981999    0.000000
     12          6           0        0.257419   -1.377260    0.000000
     13          6           0        0.000000    1.255733    0.000000
     14          6           0        1.349004    0.899935    0.000000
     15          1           0       -3.203447   -1.526308    0.000000
     16          1           0       -2.702667   -3.989508    0.000000
     17          1           0       -0.343238   -4.716735    0.000000
     18          1           0        1.483937   -3.116284    0.000000
     19          1           0        2.421744   -1.082005    0.000000
     20          1           0        3.340820    1.921422    0.000000
     21          1           0        2.435814    4.243800    0.000000
     22          1           0       -0.044010    4.715097    0.000000
     23          1           0       -1.590320    2.691301    0.000000
     24          1           0       -1.855130    0.829887    0.859585
     25          1           0       -1.855130    0.829887   -0.859585
 ---------------------------------------------------------------------
 Rotational constants (GHZ):           2.1116422           0.4450420           0.3683716
 Standard basis: 6-311++G(d,p) (5D, 7F)
 There are   299 symmetry adapted cartesian basis functions of A'  symmetry.
 There are   100 symmetry adapted cartesian basis functions of A"  symmetry.
 There are   285 symmetry adapted basis functions of A'  symmetry.
 There are   100 symmetry adapted basis functions of A"  symmetry.
   385 basis functions,   603 primitive gaussians,   399 cartesian basis functions
    47 alpha electrons       47 beta electrons
       nuclear repulsion energy       779.3785303337 Hartrees.
 NAtoms=   25 NActive=   25 NUniq=   24 SFac= 1.09D+00 NAtFMM=   60 NAOKFM=F Big=F
 Integral buffers will be    131072 words long.
 Regular integral format.
 Two-electron integral symmetry is turned on.
 Nuclear repulsion after empirical dispersion term =      779.3775533015 Hartrees.
 One-electron integrals computed using PRISM.
 NBasis=   385 RedAO= T EigKep=  1.23D-06  NBF=   285   100
 NBsUse=   379 1.00D-06 EigRej=  8.09D-07 NBFU=   279   100
 ExpMin= 3.60D-02 ExpMax= 4.56D+03 ExpMxC= 6.82D+02 IAcc=3 IRadAn=         5 AccDes= 0.00D+00
 Harris functional with IExCor= 1009 and IRadAn=       5 diagonalized for initial guess.
 HarFok:  IExCor= 1009 AccDes= 0.00D+00 IRadAn=         5 IDoV= 1 UseB2=F ITyADJ=14
 ICtDFT=  3500011 ScaDFX=  1.000000  1.000000  1.000000  1.000000
 FoFCou: FMM=F IPFlag=           0 FMFlag=      100000 FMFlg1=           0
         NFxFlg=           0 DoJE=T BraDBF=F KetDBF=T FulRan=T
         wScrn=  0.000000 ICntrl=       500 IOpCl=  0 I1Cent=   200000004 NGrid=           0
         NMat0=    1 NMatS0=      1 NMatT0=    0 NMatD0=    1 NMtDS0=    0 NMtDT0=    0
 Petite list used in FoFCou.
 Initial guess orbital symmetries:
       Occupied  (A') (A') (A') (A') (A') (A') (A') (A') (A') (A')
                 (A') (A') (A') (A') (A') (A') (A') (A') (A') (A')
                 (A') (A') (A') (A') (A') (A') (A') (A') (A') (A')
                 (A') (A') (A") (A') (A') (A') (A') (A') (A") (A')
                 (A") (A') (A') (A") (A") (A") (A")
       Virtual   (A") (A") (A") (A") (A") (A') (A') (A') (A') (A")
                 (A") (A') (A') (A') (A') (A") (A') (A') (A') (A")
                 (A') (A') (A") (A') (A') (A") (A') (A') (A") (A')
                 (A') (A') (A') (A') (A') (A") (A') (A") (A') (A")
                 (A') (A') (A') (A") (A') (A') (A') (A') (A') (A")
                 (A') (A") (A') (A') (A") (A') (A') (A") (A') (A")
                 (A') (A') (A') (A') (A') (A") (A') (A') (A') (A")
                 (A') (A') (A') (A') (A') (A') (A') (A') (A') (A')
                 (A') (A') (A') (A') (A') (A') (A') (A') (A') (A')
                 (A') (A') (A') (A') (A') (A') (A') (A") (A') (A")
                 (A') (A') (A") (A") (A') (A') (A') (A") (A") (A")
                 (A") (A') (A') (A") (A') (A") (A') (A') (A") (A")
                 (A') (A") (A') (A') (A') (A") (A') (A') (A') (A")
                 (A') (A') (A') (A') (A') (A') (A') (A") (A') (A')
                 (A') (A') (A') (A') (A') (A') (A') (A') (A") (A')
                 (A") (A') (A") (A') (A') (A") (A') (A") (A") (A')
                 (A') (A') (A") (A") (A") (A") (A') (A') (A') (A')
                 (A') (A') (A") (A') (A") (A') (A') (A') (A") (A')
                 (A') (A') (A") (A') (A') (A") (A') (A") (A") (A')
                 (A") (A') (A') (A') (A") (A') (A') (A') (A") (A")
                 (A') (A") (A") (A') (A") (A") (A') (A') (A') (A')
                 (A") (A') (A") (A') (A") (A') (A') (A") (A") (A')
                 (A') (A') (A') (A') (A") (A') (A') (A") (A") (A')
                 (A') (A') (A') (A") (A') (A") (A') (A') (A") (A")
                 (A') (A') (A') (A') (A") (A') (A') (A') (A') (A')
                 (A") (A') (A') (A") (A") (A') (A') (A") (A') (A')
                 (A") (A') (A') (A') (A") (A') (A') (A') (A") (A')
                 (A") (A') (A') (A") (A') (A") (A') (A') (A") (A')
                 (A") (A') (A") (A") (A") (A') (A') (A') (A') (A')
                 (A') (A') (A') (A') (A') (A') (A') (A') (A') (A')
                 (A') (A') (A') (A") (A') (A') (A') (A') (A') (A')
                 (A') (A') (A') (A') (A') (A') (A') (A') (A') (A')
                 (A') (A') (A') (A') (A') (A') (A') (A') (A') (A')
                 (A') (A')
 The electronic state of the initial guess is 1-A'.
 Requested convergence on RMS density matrix=1.00D-08 within 128 cycles.
 Requested convergence on MAX density matrix=1.00D-06.
 Requested convergence on             energy=1.00D-06.
 No special actions if energy rises.
 SCF Done:  E(RM062X) =  -539.706000119     A.U. after   15 cycles
            NFock= 15  Conv=0.92D-08     -V/T= 2.0048
 DoSCS=F DFT=T ScalE2(SS,OS)=  1.000000  1.000000
 ExpMin= 3.60D-02 ExpMax= 4.56D+03 ExpMxC= 6.82D+02 IAcc=3 IRadAn=         5 AccDes= 0.00D+00
 HarFok:  IExCor=  205 AccDes= 0.00D+00 IRadAn=         5 IDoV=-2 UseB2=F ITyADJ=14
 ICtDFT= 12500011 ScaDFX=  1.000000  1.000000  1.000000  1.000000
 Range of M.O.s used for correlation:    15   379
 NBasis=   385 NAE=    47 NBE=    47 NFC=    14 NFV=     0
 NROrb=    365 NOA=    33 NOB=    33 NVA=   332 NVB=   332

 **** Warning!!: The largest alpha MO coefficient is  0.17928841D+03

 Orbital symmetries:
       Occupied  (A') (A') (A') (A') (A') (A') (A') (A') (A') (A')
                 (A') (A') (A') (A') (A') (A') (A') (A') (A') (A')
                 (A') (A') (A') (A') (A') (A') (A') (A') (A') (A')
                 (A') (A") (A') (A') (A') (A') (A') (A") (A") (A')
                 (A') (A') (A') (A") (A") (A") (A")
       Virtual   (A") (A") (A") (A") (A') (A') (A') (A") (A') (A')
                 (A") (A') (A') (A') (A") (A') (A") (A') (A') (A')
                 (A") (A") (A') (A') (A') (A") (A') (A") (A') (A')
                 (A") (A') (A") (A') (A') (A') (A') (A") (A') (A')
                 (A') (A") (A') (A") (A") (A') (A") (A') (A') (A")
                 (A') (A') (A') (A') (A') (A") (A') (A') (A') (A')
                 (A") (A') (A') (A') (A') (A") (A') (A') (A') (A')
                 (A') (A') (A') (A') (A') (A') (A') (A') (A') (A')
                 (A') (A') (A') (A') (A') (A') (A') (A') (A') (A')
                 (A') (A') (A') (A') (A') (A") (A") (A") (A') (A')
                 (A") (A') (A') (A') (A") (A") (A') (A") (A') (A')
                 (A") (A") (A') (A') (A") (A') (A") (A') (A') (A")
                 (A") (A') (A") (A') (A') (A") (A') (A') (A') (A')
                 (A') (A') (A') (A') (A') (A') (A') (A') (A') (A')
                 (A') (A') (A') (A") (A') (A') (A') (A') (A') (A')
                 (A') (A") (A') (A') (A') (A") (A") (A") (A') (A')
                 (A") (A") (A') (A') (A") (A') (A") (A") (A") (A')
                 (A') (A') (A') (A") (A') (A") (A") (A') (A') (A')
                 (A') (A') (A") (A') (A") (A') (A") (A') (A") (A')
                 (A") (A') (A') (A") (A') (A') (A') (A") (A') (A")
                 (A') (A") (A") (A') (A") (A") (A') (A') (A') (A')
                 (A') (A") (A') (A") (A') (A") (A') (A') (A") (A")
                 (A') (A') (A') (A') (A") (A') (A') (A") (A") (A')
                 (A') (A') (A') (A") (A') (A') (A") (A') (A") (A")
                 (A') (A') (A') (A') (A") (A') (A') (A') (A') (A')
                 (A') (A') (A") (A') (A') (A") (A") (A') (A") (A')
                 (A') (A') (A') (A') (A') (A') (A") (A') (A') (A')
                 (A") (A') (A') (A") (A") (A') (A") (A') (A") (A")
                 (A') (A") (A") (A") (A") (A') (A') (A') (A') (A')
                 (A') (A') (A') (A') (A') (A') (A') (A') (A') (A')
                 (A') (A') (A') (A") (A') (A') (A') (A') (A') (A')
                 (A') (A') (A') (A') (A') (A') (A') (A') (A') (A')
                 (A') (A') (A') (A') (A') (A') (A') (A') (A') (A')
                 (A') (A')
     4 initial guesses have been made.
 Convergence on wavefunction:    0.001000000000000
 Iteration     1 Dimension     4 NMult     0 NNew      4
 CISAX will form     4 AO SS matrices at one time.
 Iteration     2 Dimension     6 NMult     4 NNew      2
 Iteration     3 Dimension     8 NMult     6 NNew      2
 Iteration     4 Dimension    10 NMult     8 NNew      2
 Iteration     5 Dimension    12 NMult    10 NNew      2
 Iteration     6 Dimension    14 NMult    12 NNew      2
 ***********************************************************************
 Excited states from <AA,BB:AA,BB> singles matrix:
 ***********************************************************************
 
 Ground to excited state transition densities written to RWF  633
 Ground to excited state transition electric dipole moments (Au):
       state          X           Y           Z        Dip. S.      Osc.
         1         0.6438      0.0508     -0.0000      0.4171      0.0257
 Ground to excited state transition velocity dipole moments (Au):
       state          X           Y           Z        Dip. S.      Osc.
         1        -0.0682     -0.0063      0.0000      0.0047      0.0339
 Ground to excited state transition magnetic dipole moments (Au):
       state          X           Y           Z
         1         0.0000      0.0000     -0.0492
 Ground to excited state transition velocity quadrupole moments (Au):
       state          XX          YY          ZZ          XY          XZ          YZ
         1        -0.1145     -0.2032      0.0081     -0.1203     -0.0000      0.0000
 <0|del|b> * <b|rxdel|0> + <0|del|b> * <b|delr+rdel|0>
 Rotatory Strengths (R) in cgs (10**-40 erg-esu-cm/Gauss)
       state          XX          YY          ZZ    R(velocity)    E-M Angle
         1        -0.0000     -0.0000     -0.0000     -0.0000       90.00
 1/2[<0|r|b>*<b|rxdel|0> + (<0|rxdel|b>*<b|r|0>)*]
 Rotatory Strengths (R) in cgs (10**-40 erg-esu-cm/Gauss)
       state          XX          YY          ZZ     R(length)
         1        -0.0000     -0.0000     -0.0000     -0.0000
  1/2[<0|del|b>*<b|r|0> + (<0|r|b>*<b|del|0>)*] (Au)
       state          X           Y           Z        Dip. S.   Osc.(frdel)
         1        -0.0439     -0.0003     -0.0000      0.0443      0.0295

 Excitation energies and oscillator strengths:
 
 Excited State   1:      Singlet-A'     2.5112 eV  493.73 nm  f=0.0257  <S**2>=0.000
      47 -> 48         0.70462
 This state for optimization and/or second-order correction.
 Total Energy, E(TD-HF/TD-DFT) =  -539.613716288    
 Copying the excited state density for this state as the 1-particle RhoCI density.
 SavETr:  write IOETrn=   770 NScale= 10 NData=  16 NLR=1 NState=    1 LETran=      28.

 **********************************************************************

            Population analysis using the SCF Density.

 **********************************************************************

 Orbital symmetries:
       Occupied  (A') (A') (A') (A') (A') (A') (A') (A') (A') (A')
                 (A') (A') (A') (A') (A') (A') (A') (A') (A') (A')
                 (A') (A') (A') (A') (A') (A') (A') (A') (A') (A')
                 (A') (A") (A') (A') (A') (A') (A') (A") (A") (A')
                 (A') (A') (A') (A") (A") (A") (A")
       Virtual   (A") (A") (A") (A") (A') (A') (A') (A") (A') (A')
                 (A") (A') (A') (A') (A") (A') (A") (A') (A') (A')
                 (A") (A") (A') (A') (A') (A") (A') (A") (A') (A')
                 (A") (A') (A") (A') (A') (A') (A') (A") (A') (A')
                 (A') (A") (A') (A") (A") (A') (A") (A') (A') (A")
                 (A') (A') (A') (A') (A') (A") (A') (A') (A') (A')
                 (A") (A') (A') (A') (A') (A") (A') (A') (A') (A')
                 (A') (A') (A') (A') (A') (A') (A') (A') (A') (A')
                 (A') (A') (A') (A') (A') (A') (A') (A') (A') (A')
                 (A') (A') (A') (A') (A') (A") (A") (A") (A') (A')
                 (A") (A') (A') (A') (A") (A") (A') (A") (A') (A')
                 (A") (A") (A') (A') (A") (A') (A") (A') (A') (A")
                 (A") (A') (A") (A') (A') (A") (A') (A') (A') (A')
                 (A') (A') (A') (A') (A') (A') (A') (A') (A') (A')
                 (A') (A') (A') (A") (A') (A') (A') (A') (A') (A')
                 (A') (A") (A') (A') (A') (A") (A") (A") (A') (A')
                 (A") (A") (A') (A') (A") (A') (A") (A") (A") (A')
                 (A') (A') (A') (A") (A') (A") (A") (A') (A') (A')
                 (A') (A') (A") (A') (A") (A') (A") (A') (A") (A')
                 (A") (A') (A') (A") (A') (A') (A') (A") (A') (A")
                 (A') (A") (A") (A') (A") (A") (A') (A') (A') (A')
                 (A') (A") (A') (A") (A') (A") (A') (A') (A") (A")
                 (A') (A') (A') (A') (A") (A') (A') (A") (A") (A')
                 (A') (A') (A') (A") (A') (A') (A") (A') (A") (A")
                 (A') (A') (A') (A') (A") (A') (A') (A') (A') (A')
                 (A') (A') (A") (A') (A') (A") (A") (A') (A") (A')
                 (A') (A') (A') (A') (A') (A') (A") (A') (A') (A')
                 (A") (A') (A') (A") (A") (A') (A") (A') (A") (A")
                 (A') (A") (A") (A") (A") (A') (A') (A') (A') (A')
                 (A') (A') (A') (A') (A') (A') (A') (A') (A') (A')
                 (A') (A') (A') (A") (A') (A') (A') (A') (A') (A')
                 (A') (A') (A') (A') (A') (A') (A') (A') (A') (A')
                 (A') (A') (A') (A') (A') (A') (A') (A') (A') (A')
                 (A') (A')
 The electronic state is 1-A'.
 Alpha  occ. eigenvalues --  -10.79278 -10.73972 -10.73127 -10.72990 -10.72957
 Alpha  occ. eigenvalues --  -10.72891 -10.71190 -10.71076 -10.70897 -10.70843
 Alpha  occ. eigenvalues --  -10.70698 -10.70267 -10.69825 -10.69202  -1.16439
 Alpha  occ. eigenvalues --   -1.12163  -1.06614  -1.05873  -1.01245  -0.99956
 Alpha  occ. eigenvalues --   -0.95306  -0.90545  -0.86975  -0.85198  -0.83288
 Alpha  occ. eigenvalues --   -0.77959  -0.75830  -0.73821  -0.69572  -0.69171
 Alpha  occ. eigenvalues --   -0.68692  -0.68323  -0.67712  -0.64680  -0.64251
 Alpha  occ. eigenvalues --   -0.62038  -0.60804  -0.59695  -0.59074  -0.58872
 Alpha  occ. eigenvalues --   -0.56575  -0.55383  -0.54148  -0.52271  -0.46589
 Alpha  occ. eigenvalues --   -0.45987  -0.43682
 Alpha virt. eigenvalues --   -0.26432  -0.15146  -0.14453  -0.12794  -0.11326
 Alpha virt. eigenvalues --   -0.10156  -0.09220  -0.08136  -0.08056  -0.07571
 Alpha virt. eigenvalues --   -0.07400  -0.07384  -0.05735  -0.05620  -0.05384
 Alpha virt. eigenvalues --   -0.03904  -0.03609  -0.03371  -0.03108  -0.02149
 Alpha virt. eigenvalues --   -0.01395  -0.00793   0.00016   0.00209   0.00734
 Alpha virt. eigenvalues --    0.01005   0.01142   0.01547   0.02068   0.02279
 Alpha virt. eigenvalues --    0.02350   0.02569   0.02604   0.03255   0.03479
 Alpha virt. eigenvalues --    0.04107   0.04346   0.04559   0.04590   0.05148
 Alpha virt. eigenvalues --    0.05895   0.05935   0.06604   0.06939   0.07256
 Alpha virt. eigenvalues --    0.07681   0.08094   0.08159   0.08473   0.08534
 Alpha virt. eigenvalues --    0.08807   0.09112   0.09645   0.09959   0.11046
 Alpha virt. eigenvalues --    0.11286   0.11725   0.12125   0.12507   0.12729
 Alpha virt. eigenvalues --    0.12910   0.13091   0.13379   0.14302   0.15609
 Alpha virt. eigenvalues --    0.16500   0.16507   0.17096   0.17317   0.18009
 Alpha virt. eigenvalues --    0.18339   0.18772   0.19024   0.19352   0.20360
 Alpha virt. eigenvalues --    0.21203   0.21595   0.22231   0.22525   0.23317
 Alpha virt. eigenvalues --    0.24005   0.24678   0.25647   0.26580   0.27548
 Alpha virt. eigenvalues --    0.28127   0.28642   0.29676   0.31174   0.35041
 Alpha virt. eigenvalues --    0.35577   0.38067   0.39214   0.40964   0.41310
 Alpha virt. eigenvalues --    0.41649   0.41958   0.43156   0.43438   0.43918
 Alpha virt. eigenvalues --    0.44598   0.44657   0.45728   0.46888   0.48047
 Alpha virt. eigenvalues --    0.48400   0.48562   0.49090   0.49671   0.49985
 Alpha virt. eigenvalues --    0.50496   0.52016   0.52273   0.53075   0.53737
 Alpha virt. eigenvalues --    0.54478   0.55233   0.55963   0.56081   0.57418
 Alpha virt. eigenvalues --    0.58185   0.60071   0.60780   0.61652   0.62053
 Alpha virt. eigenvalues --    0.62820   0.62892   0.64907   0.65753   0.67175
 Alpha virt. eigenvalues --    0.69149   0.70557   0.71122   0.71533   0.72189
 Alpha virt. eigenvalues --    0.73611   0.75105   0.76155   0.76643   0.77488
 Alpha virt. eigenvalues --    0.77716   0.78144   0.78411   0.79279   0.80111
 Alpha virt. eigenvalues --    0.81557   0.82065   0.82765   0.83545   0.84810
 Alpha virt. eigenvalues --    0.85337   0.86772   0.87482   0.88793   0.89829
 Alpha virt. eigenvalues --    0.90196   0.92218   0.93721   0.93861   0.94473
 Alpha virt. eigenvalues --    0.95848   0.96162   0.99886   1.01276   1.01711
 Alpha virt. eigenvalues --    1.02140   1.03112   1.03557   1.04050   1.06809
 Alpha virt. eigenvalues --    1.18402   1.21473   1.22213   1.25933   1.26187
 Alpha virt. eigenvalues --    1.27351   1.32684   1.33591   1.34661   1.37073
 Alpha virt. eigenvalues --    1.38251   1.40588   1.40808   1.42078   1.43292
 Alpha virt. eigenvalues --    1.43411   1.45107   1.46043   1.46205   1.46708
 Alpha virt. eigenvalues --    1.47217   1.49095   1.51096   1.53189   1.53349
 Alpha virt. eigenvalues --    1.55255   1.56179   1.56337   1.58010   1.61710
 Alpha virt. eigenvalues --    1.62922   1.63319   1.63796   1.64803   1.67190
 Alpha virt. eigenvalues --    1.67784   1.68749   1.70706   1.72084   1.73669
 Alpha virt. eigenvalues --    1.76093   1.77279   1.78268   1.78934   1.79702
 Alpha virt. eigenvalues --    1.80366   1.82627   1.82690   1.82866   1.83288
 Alpha virt. eigenvalues --    1.84607   1.85147   1.86990   1.88301   1.89579
 Alpha virt. eigenvalues --    1.93853   1.94565   1.96165   1.97375   1.97891
 Alpha virt. eigenvalues --    2.00447   2.04079   2.04707   2.06232   2.10346
 Alpha virt. eigenvalues --    2.12759   2.13883   2.15264   2.16878   2.21913
 Alpha virt. eigenvalues --    2.22457   2.25799   2.28750   2.31867   2.31871
 Alpha virt. eigenvalues --    2.34884   2.36685   2.38723   2.40246   2.41804
 Alpha virt. eigenvalues --    2.44516   2.45362   2.46059   2.50571   2.51269
 Alpha virt. eigenvalues --    2.54281   2.55309   2.56837   2.58746   2.59972
 Alpha virt. eigenvalues --    2.60113   2.60396   2.61002   2.62981   2.63498
 Alpha virt. eigenvalues --    2.64635   2.64842   2.65223   2.67041   2.68360
 Alpha virt. eigenvalues --    2.70567   2.71451   2.71727   2.72287   2.75006
 Alpha virt. eigenvalues --    2.75873   2.76160   2.77741   2.79563   2.83296
 Alpha virt. eigenvalues --    2.83766   2.85770   2.91185   2.97896   2.99756
 Alpha virt. eigenvalues --    3.00094   3.01789   3.04296   3.09887   3.13731
 Alpha virt. eigenvalues --    3.16877   3.22845   3.25275   3.26949   3.27474
 Alpha virt. eigenvalues --    3.31115   3.32954   3.41746   3.42418   3.44634
 Alpha virt. eigenvalues --    3.46231   3.47517   3.53599   3.63176   3.63836
 Alpha virt. eigenvalues --    3.68919   3.88978   3.92953   3.95087   3.96274
 Alpha virt. eigenvalues --    4.00226   4.02817   4.07354   4.10613   4.35092
 Alpha virt. eigenvalues --    4.51539   4.65069   4.69421  23.45665  23.59212
 Alpha virt. eigenvalues --   23.74925  23.80505  23.83395  23.86953  23.88775
 Alpha virt. eigenvalues --   23.90563  23.92754  23.96557  23.99115  24.02636
 Alpha virt. eigenvalues --   24.06200  24.11900
          Condensed to atoms (all electrons):
               1          2          3          4          5          6
     1  C   13.007043   0.283258  -1.490121   2.825456  -0.510262  -0.001961
     2  C    0.283258   6.469396   0.214515  -0.858963  -0.073795  -0.005789
     3  C   -1.490121   0.214515   8.290150  -0.323382   0.147019   0.002052
     4  C    2.825456  -0.858963  -0.323382   9.257583   0.369053  -0.045265
     5  C   -0.510262  -0.073795   0.147019   0.369053   9.332093   0.288644
     6  C   -0.001961  -0.005789   0.002052  -0.045265   0.288644   6.397894
     7  C   -0.085776   0.046681  -0.037758  -0.107735  -0.111481   0.267057
     8  C   -0.405104   0.018126  -0.141881   0.235632   1.742996  -0.961500
     9  C   -2.592940   0.109889   0.243203  -1.526093  -0.874499  -0.027531
    10  C    0.949089   0.117641  -1.388568  -0.399484  -0.160182  -0.187058
    11  C   -3.745302  -0.339149   1.138883  -3.028445  -1.892817   0.016829
    12  C   -1.708409   0.150909   0.271347  -0.480741   1.663268  -0.376408
    13  C    0.132232  -0.025758  -0.542264  -0.419505  -3.675159   1.014576
    14  C   -0.795653  -0.129654  -0.319461  -0.017282  -0.490372  -0.300478
    15  H    0.440281  -0.052096  -0.008070   0.036750   0.001285   0.000087
    16  H   -0.069893   0.399518   0.000463  -0.026572  -0.001569  -0.000195
    17  H    0.000742  -0.042306   0.395749  -0.043207   0.000459   0.000232
    18  H    0.051693   0.010346  -0.140966   0.472619   0.005185  -0.004251
    19  H   -0.006456   0.007100   0.009428  -0.022346  -0.075660   0.029064
    20  H    0.001282  -0.000072   0.000078   0.018845   0.406510  -0.072875
    21  H   -0.001577  -0.000146   0.000335  -0.000717  -0.059241   0.399645
    22  H    0.000620   0.000270  -0.000380  -0.000112   0.008329  -0.019986
    23  H   -0.026074  -0.003895   0.003186   0.002004   0.036869   0.010473
    24  H    0.040503   0.012144  -0.006085  -0.004622  -0.021146   0.005487
    25  H    0.040503   0.012144  -0.006085  -0.004622  -0.021146   0.005487
               7          8          9         10         11         12
     1  C   -0.085776  -0.405104  -2.592940   0.949089  -3.745302  -1.708409
     2  C    0.046681   0.018126   0.109889   0.117641  -0.339149   0.150909
     3  C   -0.037758  -0.141881   0.243203  -1.388568   1.138883   0.271347
     4  C   -0.107735   0.235632  -1.526093  -0.399484  -3.028445  -0.480741
     5  C   -0.111481   1.742996  -0.874499  -0.160182  -1.892817   1.663268
     6  C    0.267057  -0.961500  -0.027531  -0.187058   0.016829  -0.376408
     7  C    8.663471   1.294910  -1.362724   0.340790   0.206578  -0.477655
     8  C    1.294910  11.029979  -3.488384  -0.678373   0.213483  -1.662434
     9  C   -1.362724  -3.488384  10.464834   0.406255   2.505496   0.100435
    10  C    0.340790  -0.678373   0.406255   9.944408  -2.259670   0.242163
    11  C    0.206578   0.213483   2.505496  -2.259670  19.021415  -4.977518
    12  C   -0.477655  -1.662434   0.100435   0.242163  -4.977518  19.332716
    13  C   -2.770665  -1.261040   1.346559  -1.677445   3.084308  -5.327807
    14  C    0.297156  -0.690199   0.437303   0.467377  -3.450238  -1.030543
    15  H   -0.005436  -0.009497   0.006218   0.004282  -0.105232   0.065400
    16  H    0.000914   0.003956   0.014021  -0.013445   0.100688  -0.067975
    17  H   -0.000628  -0.002877  -0.004464   0.006699  -0.013048   0.048323
    18  H    0.004657   0.018567  -0.033739   0.086909  -0.043017  -0.108893
    19  H   -0.011514  -0.037161   0.047561   0.389317   0.035759  -0.188703
    20  H    0.001418   0.052457  -0.030995   0.004732  -0.012811   0.007661
    21  H   -0.043119  -0.020109   0.006458   0.007492  -0.003860  -0.004341
    22  H    0.364174  -0.015650  -0.004336  -0.009464   0.003631  -0.002293
    23  H   -0.128928   0.332535   0.082234  -0.002720  -0.027500   0.020541
    24  H    0.028107   0.051923   0.334150   0.004750   0.030529  -0.100590
    25  H    0.028107   0.051923   0.334150   0.004750   0.030529  -0.100590
              13         14         15         16         17         18
     1  C    0.132232  -0.795653   0.440281  -0.069893   0.000742   0.051693
     2  C   -0.025758  -0.129654  -0.052096   0.399518  -0.042306   0.010346
     3  C   -0.542264  -0.319461  -0.008070   0.000463   0.395749  -0.140966
     4  C   -0.419505  -0.017282   0.036750  -0.026572  -0.043207   0.472619
     5  C   -3.675159  -0.490372   0.001285  -0.001569   0.000459   0.005185
     6  C    1.014576  -0.300478   0.000087  -0.000195   0.000232  -0.004251
     7  C   -2.770665   0.297156  -0.005436   0.000914  -0.000628   0.004657
     8  C   -1.261040  -0.690199  -0.009497   0.003956  -0.002877   0.018567
     9  C    1.346559   0.437303   0.006218   0.014021  -0.004464  -0.033739
    10  C   -1.677445   0.467377   0.004282  -0.013445   0.006699   0.086909
    11  C    3.084308  -3.450238  -0.105232   0.100688  -0.013048  -0.043017
    12  C   -5.327807  -1.030543   0.065400  -0.067975   0.048323  -0.108893
    13  C   15.264776   0.603921  -0.027618   0.007403  -0.010307   0.017969
    14  C    0.603921  11.376688   0.002556  -0.010129   0.004478   0.004751
    15  H   -0.027618   0.002556   0.431665  -0.007451   0.001443   0.000314
    16  H    0.007403  -0.010129  -0.007451   0.414346  -0.007619   0.001935
    17  H   -0.010307   0.004478   0.001443  -0.007619   0.430223  -0.012216
    18  H    0.017969   0.004751   0.000314   0.001935  -0.012216   0.470303
    19  H    0.082247   0.092882  -0.000216   0.000020  -0.000080   0.000389
    20  H   -0.001589  -0.053101  -0.000038   0.000004  -0.000057   0.000806
    21  H    0.041123   0.026524  -0.000020  -0.000005   0.000006  -0.000168
    22  H    0.029436  -0.023869  -0.000059   0.000010  -0.000007   0.000056
    23  H   -0.003854   0.011684   0.000505  -0.000247   0.000012  -0.000171
    24  H    0.004799  -0.047108  -0.000190   0.000705  -0.000234   0.000278
    25  H    0.004799  -0.047108  -0.000190   0.000705  -0.000234   0.000278
              19         20         21         22         23         24
     1  C   -0.006456   0.001282  -0.001577   0.000620  -0.026074   0.040503
     2  C    0.007100  -0.000072  -0.000146   0.000270  -0.003895   0.012144
     3  C    0.009428   0.000078   0.000335  -0.000380   0.003186  -0.006085
     4  C   -0.022346   0.018845  -0.000717  -0.000112   0.002004  -0.004622
     5  C   -0.075660   0.406510  -0.059241   0.008329   0.036869  -0.021146
     6  C    0.029064  -0.072875   0.399645  -0.019986   0.010473   0.005487
     7  C   -0.011514   0.001418  -0.043119   0.364174  -0.128928   0.028107
     8  C   -0.037161   0.052457  -0.020109  -0.015650   0.332535   0.051923
     9  C    0.047561  -0.030995   0.006458  -0.004336   0.082234   0.334150
    10  C    0.389317   0.004732   0.007492  -0.009464  -0.002720   0.004750
    11  C    0.035759  -0.012811  -0.003860   0.003631  -0.027500   0.030529
    12  C   -0.188703   0.007661  -0.004341  -0.002293   0.020541  -0.100590
    13  C    0.082247  -0.001589   0.041123   0.029436  -0.003854   0.004799
    14  C    0.092882  -0.053101   0.026524  -0.023869   0.011684  -0.047108
    15  H   -0.000216  -0.000038  -0.000020  -0.000059   0.000505  -0.000190
    16  H    0.000020   0.000004  -0.000005   0.000010  -0.000247   0.000705
    17  H   -0.000080  -0.000057   0.000006  -0.000007   0.000012  -0.000234
    18  H    0.000389   0.000806  -0.000168   0.000056  -0.000171   0.000278
    19  H    0.412846  -0.004720   0.001098  -0.000469   0.000305   0.000941
    20  H   -0.004720   0.425307  -0.008365   0.001906  -0.000095   0.000061
    21  H    0.001098  -0.008365   0.419467  -0.005495   0.001151   0.000003
    22  H   -0.000469   0.001906  -0.005495   0.414298  -0.009580   0.000284
    23  H    0.000305  -0.000095   0.001151  -0.009580   0.462420  -0.004985
    24  H    0.000941   0.000061   0.000003   0.000284  -0.004985   0.501989
    25  H    0.000941   0.000061   0.000003   0.000284  -0.004985  -0.083566
              25
     1  C    0.040503
     2  C    0.012144
     3  C   -0.006085
     4  C   -0.004622
     5  C   -0.021146
     6  C    0.005487
     7  C    0.028107
     8  C    0.051923
     9  C    0.334150
    10  C    0.004750
    11  C    0.030529
    12  C   -0.100590
    13  C    0.004799
    14  C   -0.047108
    15  H   -0.000190
    16  H    0.000705
    17  H   -0.000234
    18  H    0.000278
    19  H    0.000941
    20  H    0.000061
    21  H    0.000003
    22  H    0.000284
    23  H   -0.004985
    24  H   -0.083566
    25  H    0.501989
 Mulliken charges:
               1
     1  C   -0.333175
     2  C   -0.320316
     3  C   -0.311387
     4  C    0.091151
     5  C   -0.034384
     6  C   -0.434228
     7  C   -0.400601
     8  C    0.327724
     9  C   -0.493059
    10  C   -0.200241
    11  C   -0.489521
    12  C    0.712136
    13  C    0.108863
    14  C    0.079876
    15  H    0.225329
    16  H    0.260413
    17  H    0.248918
    18  H    0.196364
    19  H    0.237427
    20  H    0.263589
    21  H    0.243861
    22  H    0.268404
    23  H    0.249113
    24  H    0.251872
    25  H    0.251872
 Sum of Mulliken charges =   1.00000
 Mulliken charges with hydrogens summed into heavy atoms:
               1
     1  C   -0.107846
     2  C   -0.059903
     3  C   -0.062469
     4  C    0.287515
     5  C    0.229206
     6  C   -0.190367
     7  C   -0.132197
     8  C    0.576837
     9  C    0.010685
    10  C    0.037186
    11  C   -0.489521
    12  C    0.712136
    13  C    0.108863
    14  C    0.079876
 Electronic spatial extent (au):  <R**2>=           2859.6584
 Charge=              1.0000 electrons
 Dipole moment (field-independent basis, Debye):
    X=              0.0663    Y=             -0.0464    Z=              0.0000  Tot=              0.0810
 Quadrupole moment (field-independent basis, Debye-Ang):
   XX=            -53.2586   YY=            -34.3495   ZZ=            -84.5830
   XY=              7.5715   XZ=             -0.0000   YZ=              0.0000
 Traceless Quadrupole moment (field-independent basis, Debye-Ang):
   XX=              4.1384   YY=             23.0476   ZZ=            -27.1860
   XY=              7.5715   XZ=             -0.0000   YZ=              0.0000
 Octapole moment (field-independent basis, Debye-Ang**2):
  XXX=              2.1798  YYY=              8.5654  ZZZ=              0.0000  XYY=             -4.6699
  XXY=             -6.2345  XXZ=              0.0000  XZZ=             -3.4644  YZZ=              0.1431
  YYZ=              0.0000  XYZ=             -0.0000
 Hexadecapole moment (field-independent basis, Debye-Ang**3):
 XXXX=           -814.7494 YYYY=          -1985.7120 ZZZZ=           -100.3439 XXXY=           -276.7229
 XXXZ=             -0.0000 YYYX=           -204.5463 YYYZ=              0.0000 ZZZX=              0.0000
 ZZZY=             -0.0000 XXYY=           -474.0302 XXZZ=           -200.7860 YYZZ=           -542.0052
 XXYZ=              0.0000 YYXZ=             -0.0000 ZZXY=           -143.5210
 N-N= 7.793775533015D+02 E-N=-2.794717139060D+03  KE= 5.371223706154D+02
 Symmetry A'   KE= 5.225015458437D+02
 Symmetry A"   KE= 1.462082477170D+01
 Unable to Open any file for archive entry.
 1\1\GINC-GADI-CPU-CLX-0359\SP\RM062X TD-FC\6-311++G(d,p)\C14H11(1+)\TS
 1578\02-Aug-2022\0\\#n M062X/6-311++G(d,p) TD(NStates=1) EmpiricalDisp
 ersion=GD3 SP\\SP_8\\1,1\C,0,0.,2.492655,1.464431\C,0,0.,3.693508,0.76
 7989\C,0,0.,3.659861,-0.62583\C,0,0.,2.463156,-1.319538\C,0,0.,-2.6551
 56,-1.463538\C,0,0.,-3.787861,-0.52983\C,0,0.,-3.613508,0.847989\C,0,0
 .,-2.284655,1.288431\C,0,0.,-0.032,1.333369\C,0,0.,0.048,-1.549189\C,0
 ,0.,1.286055,0.741065\C,0,0.,1.221471,-0.682804\C,0,0.,-1.190055,0.405
 065\C,0,0.,-1.285471,-0.986804\H,0,0.,2.472071,2.547647\H,0,0.,4.64475
 3,1.283689\H,0,0.,4.577262,-1.184349\H,0,0.,2.47555,-2.402059\H,0,0.,0
 .248,-2.638266\H,0,0.,-2.89155,-2.546059\H,0,0.,-4.801262,-0.944349\H,
 0,0.,-4.452753,1.555689\H,0,0.,-2.040071,2.371647\H,0,-0.859585,-0.192
 ,2.025787\H,0,0.859585,-0.192,2.025787\\Version=ES64L-G16RevC.01\State
 =1-A'\HF=-539.7060001\RMSD=9.214e-09\PG=CS [SG(C14H9),X(H2)]\\@
 The archive entry for this job was punched.


 BREAD HAS TO MOLD IN ORDER TO GET PENICILLIN.
          -- JERRY BOATZ
 Job cpu time:       0 days  0 hours 51 minutes 46.6 seconds.
 Elapsed time:       0 days  0 hours  1 minutes  4.8 seconds.
 File lengths (MBytes):  RWF=    460 Int=      0 D2E=      0 Chk=     15 Scr=      1
 Normal termination of Gaussian 16 at Tue Aug  2 13:35:37 2022.
