 Entering Gaussian System, Link 0=g16
 Initial command:
 /apps/gaussian/g16c01/g16/l1.exe "/jobfs/53803768.gadi-pbs/Gau-222691.inp" -scrdir="/jobfs/53803768.gadi-pbs/"
 Entering Link 1 = /apps/gaussian/g16c01/g16/l1.exe PID=    222692.
  
 Copyright (c) 1988-2019, Gaussian, Inc.  All Rights Reserved.
  
 This is part of the Gaussian(R) 16 program.  It is based on
 the Gaussian(R) 09 system (copyright 2009, Gaussian, Inc.),
 the Gaussian(R) 03 system (copyright 2003, Gaussian, Inc.),
 the Gaussian(R) 98 system (copyright 1998, Gaussian, Inc.),
 the Gaussian(R) 94 system (copyright 1995, Gaussian, Inc.),
 the Gaussian 92(TM) system (copyright 1992, Gaussian, Inc.),
 the Gaussian 90(TM) system (copyright 1990, Gaussian, Inc.),
 the Gaussian 88(TM) system (copyright 1988, Gaussian, Inc.),
 the Gaussian 86(TM) system (copyright 1986, Carnegie Mellon
 University), and the Gaussian 82(TM) system (copyright 1983,
 Carnegie Mellon University). Gaussian is a federally registered
 trademark of Gaussian, Inc.
  
 This software contains proprietary and confidential information,
 including trade secrets, belonging to Gaussian, Inc.
  
 This software is provided under written license and may be
 used, copied, transmitted, or stored only in accord with that
 written license.
  
 The following legend is applicable only to US Government
 contracts under FAR:
  
                    RESTRICTED RIGHTS LEGEND
  
 Use, reproduction and disclosure by the US Government is
 subject to restrictions as set forth in subparagraphs (a)
 and (c) of the Commercial Computer Software - Restricted
 Rights clause in FAR 52.227-19.
  
 Gaussian, Inc.
 340 Quinnipiac St., Bldg. 40, Wallingford CT 06492
  
  
 ---------------------------------------------------------------
 Warning -- This program may not be used in any manner that
 competes with the business of Gaussian, Inc. or will provide
 assistance to any competitor of Gaussian, Inc.  The licensee
 of this program is prohibited from giving any competitor of
 Gaussian, Inc. access to this program.  By using this program,
 the user acknowledges that Gaussian, Inc. is engaged in the
 business of creating and licensing software in the field of
 computational chemistry and represents and warrants to the
 licensee that it is not a competitor of Gaussian, Inc. and that
 it will not use this program in any manner prohibited above.
 ---------------------------------------------------------------
  

 Cite this work as:
 Gaussian 16, Revision C.01,
 M. J. Frisch, G. W. Trucks, H. B. Schlegel, G. E. Scuseria, 
 M. A. Robb, J. R. Cheeseman, G. Scalmani, V. Barone, 
 G. A. Petersson, H. Nakatsuji, X. Li, M. Caricato, A. V. Marenich, 
 J. Bloino, B. G. Janesko, R. Gomperts, B. Mennucci, H. P. Hratchian, 
 J. V. Ortiz, A. F. Izmaylov, J. L. Sonnenberg, D. Williams-Young, 
 F. Ding, F. Lipparini, F. Egidi, J. Goings, B. Peng, A. Petrone, 
 T. Henderson, D. Ranasinghe, V. G. Zakrzewski, J. Gao, N. Rega, 
 G. Zheng, W. Liang, M. Hada, M. Ehara, K. Toyota, R. Fukuda, 
 J. Hasegawa, M. Ishida, T. Nakajima, Y. Honda, O. Kitao, H. Nakai, 
 T. Vreven, K. Throssell, J. A. Montgomery, Jr., J. E. Peralta, 
 F. Ogliaro, M. J. Bearpark, J. J. Heyd, E. N. Brothers, K. N. Kudin, 
 V. N. Staroverov, T. A. Keith, R. Kobayashi, J. Normand, 
 K. Raghavachari, A. P. Rendell, J. C. Burant, S. S. Iyengar, 
 J. Tomasi, M. Cossi, J. M. Millam, M. Klene, C. Adamo, R. Cammi, 
 J. W. Ochterski, R. L. Martin, K. Morokuma, O. Farkas, 
 J. B. Foresman, and D. J. Fox, Gaussian, Inc., Wallingford CT, 2019.
 
 ******************************************
 Gaussian 16:  ES64L-G16RevC.01  3-Jul-2019
                 2-Aug-2022 
 ******************************************
 %NProcShared=48
 Will use up to   48 processors via shared memory.
 %mem = 190GB
 ---------------------------------------------------------------
 #n M062X/6-311++G(d,p) TD(NStates=1) EmpiricalDispersion=GD3 SP
 ---------------------------------------------------------------
 1/38=1,172=1/1;
 2/12=2,17=6,18=5,40=1/2;
 3/5=4,6=6,7=1111,11=9,25=1,30=1,74=-55,124=31/1,2,3,8;
 4//1;
 5/5=2,38=5/2;
 8/6=1,10=2,108=1/1;
 9/41=1,42=1,70=2/14;
 6/7=2,8=2,9=2,10=2/1;
 99/5=1,9=1/99;
 ----
 SP_8
 ----
 Symbolic Z-matrix:
 Charge =  1 Multiplicity = 1
 C                     0.        2.62265   1.44443 
 C                     0.        3.75351   0.59799 
 C                     0.        3.60986  -0.79583 
 C                     0.        2.34316  -1.33954 
 C                     0.       -2.53516  -1.48354 
 C                     0.       -3.73786  -0.69983 
 C                     0.       -3.67351   0.67799 
 C                     0.       -2.41466   1.26843 
 C                     0.       -0.032     1.48337 
 C                     0.        0.048    -1.39919 
 C                     0.        1.31606   0.87107 
 C                     0.        1.20147  -0.5528 
 C                     0.       -1.22006   0.53507 
 C                     0.       -1.26547  -0.8568 
 H                     0.        2.76207   2.52765 
 H                     0.        4.75475   1.02369 
 H                     0.        4.47726  -1.44435 
 H                     0.        2.20555  -2.42206 
 H                     0.        0.248    -2.47827 
 H                     0.       -2.62155  -2.56606 
 H                     0.       -4.70126  -1.20435 
 H                     0.       -4.56275   1.29569 
 H                     0.       -2.33007   2.35165 
 H                    -0.85959  -0.192     2.17579 
 H                     0.85959  -0.192     2.17579 
 
                          Input orientation:                          
 ---------------------------------------------------------------------
 Center     Atomic      Atomic             Coordinates (Angstroms)
 Number     Number       Type             X           Y           Z
 ---------------------------------------------------------------------
      1          6           0        0.000000    2.622655    1.444431
      2          6           0        0.000000    3.753508    0.597989
      3          6           0        0.000000    3.609861   -0.795830
      4          6           0        0.000000    2.343156   -1.339538
      5          6           0        0.000000   -2.535156   -1.483538
      6          6           0        0.000000   -3.737861   -0.699830
      7          6           0        0.000000   -3.673508    0.677989
      8          6           0        0.000000   -2.414655    1.268431
      9          6           0        0.000000   -0.032000    1.483369
     10          6           0        0.000000    0.048000   -1.399189
     11          6           0        0.000000    1.316055    0.871065
     12          6           0        0.000000    1.201471   -0.552804
     13          6           0        0.000000   -1.220055    0.535065
     14          6           0        0.000000   -1.265471   -0.856804
     15          1           0        0.000000    2.762071    2.527647
     16          1           0        0.000000    4.754753    1.023689
     17          1           0        0.000000    4.477262   -1.444349
     18          1           0        0.000000    2.205550   -2.422059
     19          1           0        0.000000    0.248000   -2.478266
     20          1           0        0.000000   -2.621550   -2.566059
     21          1           0        0.000000   -4.701262   -1.204349
     22          1           0        0.000000   -4.562753    1.295689
     23          1           0        0.000000   -2.330071    2.351647
     24          1           0       -0.859585   -0.192000    2.175787
     25          1           0        0.859585   -0.192000    2.175787
 ---------------------------------------------------------------------
                    Distance matrix (angstroms):
                    1          2          3          4          5
     1  C    0.000000
     2  C    1.412548   0.000000
     3  C    2.448131   1.401202   0.000000
     4  C    2.797964   2.396477   1.378463   0.000000
     5  C    5.930937   6.624202   6.183379   4.880437   0.000000
     6  C    6.712229   7.602956   7.348349   6.114572   1.435513
     7  C    6.342642   7.427447   7.430990   6.345917   2.442958
     8  C    5.040384   6.204493   6.368357   5.425704   2.754606
     9  C    2.654941   3.887669   4.296266   3.689196   3.881794
    10  C    3.836017   4.209455   3.612602   2.295931   2.584533
    11  C    1.426868   2.452702   2.835504   2.437561   4.513976
    12  C    2.451267   2.799503   2.420621   1.386505   3.850798
    13  C    3.948844   4.973961   5.009927   4.026240   2.409201
    14  C    4.518098   5.225569   4.875713   3.640772   1.415943
    15  H    1.092151   2.169453   3.429905   3.889808   6.644563
    16  H    2.173216   1.087985   2.149750   3.376484   7.709018
    17  H    3.432873   2.166787   1.083033   2.136678   7.012528
    18  H    3.888923   3.393651   2.148653   1.091232   4.832713
    19  H    4.585470   4.663897   3.759348   2.384613   2.955578
    20  H    6.601948   7.117061   6.477978   5.113967   1.085963
    21  H    7.788183   8.644742   8.321157   7.045715   2.184024
    22  H    7.186947   8.345477   8.435999   7.391617   3.440240
    23  H    5.035130   6.331291   6.722306   5.955157   3.840665
    24  H    3.032499   4.335362   4.901382   4.418531   4.429439
    25  H    3.032499   4.335362   4.901382   4.418531   4.429439
                    6          7          8          9         10
     6  C    0.000000
     7  C    1.379321   0.000000
     8  C    2.371693   1.390443   0.000000
     9  C    4.301135   3.729506   2.392330   0.000000
    10  C    3.849915   4.261958   3.630546   2.883668   0.000000
    11  C    5.292426   4.993297   3.751812   1.480597   2.600388
    12  C    4.941520   5.027949   4.048860   2.380641   1.430686
    13  C    2.804338   2.457612   1.401747   1.520117   2.312856
    14  C    2.477368   2.855562   2.416040   2.645347   1.421052
    15  H    7.257115   6.696112   5.327675   2.982842   4.773492
    16  H    8.665738   8.435348   7.173584   4.808774   5.293757
    17  H    8.248791   8.422551   7.406598   5.376335   4.429492
    18  H    6.187908   6.646324   5.913206   4.501000   2.387736
    19  H    4.364622   5.033902   4.596463   3.971518   1.097455
    20  H    2.174617   3.410346   3.840068   4.806624   2.913431
    21  H    1.087511   2.144639   3.367969   5.387563   4.753257
    22  H    2.159292   1.082733   2.148271   4.534639   5.340544
    23  H    3.360563   2.146149   1.086513   2.456631   4.441170
    24  H    4.645556   3.886281   2.549976   1.115316   3.684690
    25  H    4.645556   3.886281   2.549976   1.115316   3.684690
                   11         12         13         14         15
    11  C    0.000000
    12  C    1.428472   0.000000
    13  C    2.558271   2.654665   0.000000
    14  C    3.106414   2.485602   1.392610   0.000000
    15  H    2.198915   3.453209   4.452832   5.260761   0.000000
    16  H    3.442083   3.887305   5.994755   6.307087   2.496532
    17  H    3.918465   3.394946   6.031376   5.772711   4.326503
    18  H    3.411139   2.121860   4.525412   3.807625   4.980894
    19  H    3.515503   2.148607   3.351917   2.218047   5.601760
    20  H    5.226715   4.320727   3.403110   2.181858   7.411425
    21  H    6.365175   5.938583   3.891576   3.453324   8.344407
    22  H    5.894123   6.053363   3.428145   3.937676   7.427703
    23  H    3.935271   4.572486   2.128874   3.380463   5.095183
    24  H    2.171501   3.182115   2.118432   3.329840   3.096648
    25  H    2.171501   3.182115   2.118432   3.329840   3.096648
                   16         17         18         19         20
    16  H    0.000000
    17  H    2.483589   0.000000
    18  H    4.286212   2.473175   0.000000
    19  H    5.707408   4.353808   1.958357   0.000000
    20  H    8.203422   7.186888   4.829247   2.870893   0.000000
    21  H    9.714956   9.181661   7.013335   5.110583   2.485851
    22  H    9.321475   9.446146   7.722148   6.114416   4.322195
    23  H    7.208204   7.794188   6.584841   5.474898   4.926337
    24  H    5.151367   5.970450   5.256170   4.753177   5.396916
    25  H    5.151367   5.970450   5.256170   4.753177   5.396916
                   21         22         23         24         25
    21  H    0.000000
    22  H    2.503872   0.000000
    23  H    4.274068   2.469801   0.000000
    24  H    5.700671   4.540588   2.311095   0.000000
    25  H    5.700671   4.540588   2.311095   1.719170   0.000000
 Stoichiometry    C14H11(1+)
 Framework group  CS[SG(C14H9),X(H2)]
 Deg. of freedom    46
 Full point group                 CS      NOp   2
 Largest Abelian subgroup         CS      NOp   2
 Largest concise Abelian subgroup CS      NOp   2
                         Standard orientation:                         
 ---------------------------------------------------------------------
 Center     Atomic      Atomic             Coordinates (Angstroms)
 Number     Number       Type             X           Y           Z
 ---------------------------------------------------------------------
      1          6           0        2.408146    1.780575    0.000000
      2          6           0        2.111016    3.161519    0.000000
      3          6           0        0.784474    3.612796    0.000000
      4          6           0       -0.238351    2.688680    0.000000
      5          6           0       -2.405519   -1.684196    0.000000
      6          6           0       -2.195389   -3.104246    0.000000
      7          6           0       -0.916485   -3.620899    0.000000
      8          6           0        0.145530   -2.723427    0.000000
      9          6           0        1.335419   -0.647997    0.000000
     10          6           0       -1.250605    0.627942    0.000000
     11          6           0        1.341718    0.832587    0.000000
     12          6           0        0.000000    1.322817    0.000000
     13          6           0       -0.022237   -1.331755    0.000000
     14          6           0       -1.306004   -0.792029    0.000000
     15          1           0        3.450674    1.455107    0.000000
     16          1           0        2.915797    3.893667    0.000000
     17          1           0        0.557228    4.671720    0.000000
     18          1           0       -1.279492    3.015504    0.000000
     19          1           0       -2.147692    1.260115    0.000000
     20          1           0       -3.425283   -1.310835    0.000000
     21          1           0       -3.055996   -3.769104    0.000000
     22          1           0       -0.726363   -4.686809    0.000000
     23          1           0        1.165170   -3.098722    0.000000
     24          1           0        1.897841   -1.082422    0.859585
     25          1           0        1.897841   -1.082422   -0.859585
 ---------------------------------------------------------------------
 Rotational constants (GHZ):           2.1220795           0.4436855           0.3677565
 Standard basis: 6-311++G(d,p) (5D, 7F)
 There are   299 symmetry adapted cartesian basis functions of A'  symmetry.
 There are   100 symmetry adapted cartesian basis functions of A"  symmetry.
 There are   285 symmetry adapted basis functions of A'  symmetry.
 There are   100 symmetry adapted basis functions of A"  symmetry.
   385 basis functions,   603 primitive gaussians,   399 cartesian basis functions
    47 alpha electrons       47 beta electrons
       nuclear repulsion energy       779.4629408784 Hartrees.
 NAtoms=   25 NActive=   25 NUniq=   24 SFac= 1.09D+00 NAtFMM=   60 NAOKFM=F Big=F
 Integral buffers will be    131072 words long.
 Regular integral format.
 Two-electron integral symmetry is turned on.
 Nuclear repulsion after empirical dispersion term =      779.4619622946 Hartrees.
 One-electron integrals computed using PRISM.
 NBasis=   385 RedAO= T EigKep=  1.13D-06  NBF=   285   100
 NBsUse=   379 1.00D-06 EigRej=  8.17D-07 NBFU=   279   100
 ExpMin= 3.60D-02 ExpMax= 4.56D+03 ExpMxC= 6.82D+02 IAcc=3 IRadAn=         5 AccDes= 0.00D+00
 Harris functional with IExCor= 1009 and IRadAn=       5 diagonalized for initial guess.
 HarFok:  IExCor= 1009 AccDes= 0.00D+00 IRadAn=         5 IDoV= 1 UseB2=F ITyADJ=14
 ICtDFT=  3500011 ScaDFX=  1.000000  1.000000  1.000000  1.000000
 FoFCou: FMM=F IPFlag=           0 FMFlag=      100000 FMFlg1=           0
         NFxFlg=           0 DoJE=T BraDBF=F KetDBF=T FulRan=T
         wScrn=  0.000000 ICntrl=       500 IOpCl=  0 I1Cent=   200000004 NGrid=           0
         NMat0=    1 NMatS0=      1 NMatT0=    0 NMatD0=    1 NMtDS0=    0 NMtDT0=    0
 Petite list used in FoFCou.
 Initial guess orbital symmetries:
       Occupied  (A') (A') (A') (A') (A') (A') (A') (A') (A') (A')
                 (A') (A') (A') (A') (A') (A') (A') (A') (A') (A')
                 (A') (A') (A') (A') (A') (A') (A') (A') (A') (A')
                 (A') (A') (A") (A') (A') (A') (A') (A') (A") (A")
                 (A') (A') (A') (A") (A") (A") (A")
       Virtual   (A") (A") (A") (A") (A") (A') (A') (A') (A') (A")
                 (A") (A') (A') (A') (A") (A') (A') (A') (A') (A')
                 (A") (A") (A') (A') (A') (A") (A') (A") (A') (A')
                 (A') (A') (A') (A') (A") (A') (A') (A") (A') (A")
                 (A') (A') (A') (A") (A') (A') (A') (A') (A') (A")
                 (A') (A") (A') (A") (A') (A') (A') (A") (A") (A')
                 (A') (A') (A') (A') (A') (A') (A") (A') (A') (A")
                 (A') (A') (A') (A') (A') (A') (A') (A') (A') (A')
                 (A') (A') (A') (A') (A') (A') (A') (A') (A') (A')
                 (A') (A') (A') (A') (A') (A') (A') (A") (A') (A")
                 (A') (A") (A') (A") (A') (A") (A') (A") (A') (A")
                 (A') (A") (A') (A") (A') (A') (A") (A') (A") (A")
                 (A') (A") (A') (A') (A") (A') (A') (A') (A') (A")
                 (A') (A') (A') (A') (A') (A') (A') (A") (A') (A')
                 (A') (A') (A') (A') (A') (A') (A') (A') (A') (A")
                 (A") (A') (A") (A') (A") (A') (A') (A") (A") (A')
                 (A') (A") (A') (A") (A") (A") (A') (A') (A') (A')
                 (A') (A") (A') (A") (A') (A') (A') (A') (A') (A")
                 (A') (A') (A') (A") (A') (A") (A') (A') (A") (A")
                 (A") (A') (A') (A') (A") (A') (A') (A') (A") (A')
                 (A") (A") (A") (A') (A") (A') (A') (A") (A') (A')
                 (A') (A") (A") (A") (A') (A') (A') (A") (A') (A")
                 (A') (A') (A') (A') (A") (A') (A') (A") (A') (A")
                 (A') (A') (A") (A') (A') (A') (A") (A') (A") (A')
                 (A") (A') (A') (A') (A") (A') (A') (A') (A') (A")
                 (A') (A') (A') (A") (A') (A") (A') (A") (A') (A')
                 (A') (A") (A') (A') (A") (A') (A') (A") (A') (A')
                 (A") (A') (A') (A') (A") (A") (A') (A") (A') (A')
                 (A") (A') (A") (A") (A") (A') (A') (A') (A') (A')
                 (A') (A') (A') (A') (A') (A') (A') (A') (A') (A')
                 (A') (A') (A') (A") (A') (A') (A') (A') (A') (A')
                 (A') (A') (A') (A') (A') (A') (A') (A') (A') (A')
                 (A') (A') (A') (A') (A') (A') (A') (A') (A') (A')
                 (A') (A')
 The electronic state of the initial guess is 1-A'.
 Requested convergence on RMS density matrix=1.00D-08 within 128 cycles.
 Requested convergence on MAX density matrix=1.00D-06.
 Requested convergence on             energy=1.00D-06.
 No special actions if energy rises.
 SCF Done:  E(RM062X) =  -539.729802684     A.U. after   15 cycles
            NFock= 15  Conv=0.93D-08     -V/T= 2.0046
 DoSCS=F DFT=T ScalE2(SS,OS)=  1.000000  1.000000
 ExpMin= 3.60D-02 ExpMax= 4.56D+03 ExpMxC= 6.82D+02 IAcc=3 IRadAn=         5 AccDes= 0.00D+00
 HarFok:  IExCor=  205 AccDes= 0.00D+00 IRadAn=         5 IDoV=-2 UseB2=F ITyADJ=14
 ICtDFT= 12500011 ScaDFX=  1.000000  1.000000  1.000000  1.000000
 Range of M.O.s used for correlation:    15   379
 NBasis=   385 NAE=    47 NBE=    47 NFC=    14 NFV=     0
 NROrb=    365 NOA=    33 NOB=    33 NVA=   332 NVB=   332

 **** Warning!!: The largest alpha MO coefficient is  0.16741840D+03

 Orbital symmetries:
       Occupied  (A') (A') (A') (A') (A') (A') (A') (A') (A') (A')
                 (A') (A') (A') (A') (A') (A') (A') (A') (A') (A')
                 (A') (A') (A') (A') (A') (A') (A') (A') (A') (A')
                 (A') (A') (A") (A') (A') (A') (A') (A") (A") (A')
                 (A') (A') (A') (A") (A") (A") (A")
       Virtual   (A") (A") (A") (A") (A') (A') (A') (A') (A") (A')
                 (A') (A") (A') (A') (A") (A') (A") (A') (A') (A')
                 (A") (A") (A') (A') (A') (A") (A') (A") (A') (A')
                 (A") (A") (A') (A') (A') (A') (A') (A') (A") (A')
                 (A") (A') (A') (A") (A") (A') (A") (A') (A") (A')
                 (A') (A') (A') (A') (A") (A') (A') (A') (A') (A')
                 (A") (A') (A') (A') (A') (A') (A") (A') (A') (A')
                 (A') (A') (A') (A') (A') (A') (A') (A') (A') (A')
                 (A') (A') (A') (A') (A') (A') (A') (A') (A') (A')
                 (A') (A') (A') (A') (A") (A") (A') (A") (A') (A")
                 (A') (A') (A') (A') (A") (A") (A') (A") (A') (A")
                 (A') (A') (A') (A") (A") (A') (A") (A') (A') (A")
                 (A") (A') (A") (A') (A') (A') (A") (A') (A') (A')
                 (A') (A') (A') (A') (A') (A') (A') (A') (A') (A')
                 (A') (A') (A') (A") (A') (A') (A') (A') (A') (A')
                 (A') (A') (A") (A') (A") (A') (A") (A") (A') (A')
                 (A") (A") (A') (A') (A") (A') (A") (A") (A") (A')
                 (A') (A') (A") (A') (A") (A') (A') (A') (A") (A')
                 (A') (A") (A') (A') (A') (A") (A') (A') (A") (A")
                 (A") (A') (A') (A") (A') (A') (A") (A') (A') (A')
                 (A") (A") (A") (A') (A") (A') (A") (A') (A') (A')
                 (A') (A") (A') (A") (A") (A') (A') (A") (A') (A")
                 (A') (A') (A') (A') (A") (A') (A') (A") (A') (A")
                 (A') (A') (A") (A') (A') (A') (A") (A') (A") (A')
                 (A") (A') (A') (A") (A') (A') (A') (A') (A') (A')
                 (A') (A") (A') (A') (A') (A") (A') (A") (A") (A')
                 (A') (A') (A') (A') (A') (A") (A') (A') (A') (A')
                 (A') (A") (A") (A") (A') (A") (A') (A") (A') (A')
                 (A") (A") (A") (A") (A') (A") (A') (A') (A') (A')
                 (A') (A') (A') (A') (A') (A') (A') (A') (A') (A')
                 (A') (A') (A') (A") (A') (A') (A') (A') (A') (A')
                 (A') (A') (A') (A') (A') (A') (A') (A') (A') (A')
                 (A') (A') (A') (A') (A') (A') (A') (A') (A') (A')
                 (A') (A')
     4 initial guesses have been made.
 Convergence on wavefunction:    0.001000000000000
 Iteration     1 Dimension     4 NMult     0 NNew      4
 CISAX will form     4 AO SS matrices at one time.
 Iteration     2 Dimension     6 NMult     4 NNew      2
 Iteration     3 Dimension     8 NMult     6 NNew      2
 Iteration     4 Dimension    10 NMult     8 NNew      2
 Iteration     5 Dimension    12 NMult    10 NNew      2
 Iteration     6 Dimension    14 NMult    12 NNew      2
 ***********************************************************************
 Excited states from <AA,BB:AA,BB> singles matrix:
 ***********************************************************************
 
 Ground to excited state transition densities written to RWF  633
 Ground to excited state transition electric dipole moments (Au):
       state          X           Y           Z        Dip. S.      Osc.
         1        -0.6553      0.0823      0.0000      0.4361      0.0302
 Ground to excited state transition velocity dipole moments (Au):
       state          X           Y           Z        Dip. S.      Osc.
         1         0.0767     -0.0094      0.0000      0.0060      0.0383
 Ground to excited state transition magnetic dipole moments (Au):
       state          X           Y           Z
         1        -0.0000     -0.0000     -0.0126
 Ground to excited state transition velocity quadrupole moments (Au):
       state          XX          YY          ZZ          XY          XZ          YZ
         1        -0.1291     -0.2003      0.0089     -0.1467      0.0000      0.0000
 <0|del|b> * <b|rxdel|0> + <0|del|b> * <b|delr+rdel|0>
 Rotatory Strengths (R) in cgs (10**-40 erg-esu-cm/Gauss)
       state          XX          YY          ZZ    R(velocity)    E-M Angle
         1         0.0000     -0.0000     -0.0000     -0.0000       90.00
 1/2[<0|r|b>*<b|rxdel|0> + (<0|rxdel|b>*<b|r|0>)*]
 Rotatory Strengths (R) in cgs (10**-40 erg-esu-cm/Gauss)
       state          XX          YY          ZZ     R(length)
         1        -0.0000      0.0000      0.0000      0.0000
  1/2[<0|del|b>*<b|r|0> + (<0|r|b>*<b|del|0>)*] (Au)
       state          X           Y           Z        Dip. S.   Osc.(frdel)
         1        -0.0502     -0.0008      0.0000      0.0510      0.0340

 Excitation energies and oscillator strengths:
 
 Excited State   1:      Singlet-A'     2.8292 eV  438.23 nm  f=0.0302  <S**2>=0.000
      47 -> 48         0.70386
 This state for optimization and/or second-order correction.
 Total Energy, E(TD-HF/TD-DFT) =  -539.625831196    
 Copying the excited state density for this state as the 1-particle RhoCI density.
 SavETr:  write IOETrn=   770 NScale= 10 NData=  16 NLR=1 NState=    1 LETran=      28.

 **********************************************************************

            Population analysis using the SCF Density.

 **********************************************************************

 Orbital symmetries:
       Occupied  (A') (A') (A') (A') (A') (A') (A') (A') (A') (A')
                 (A') (A') (A') (A') (A') (A') (A') (A') (A') (A')
                 (A') (A') (A') (A') (A') (A') (A') (A') (A') (A')
                 (A') (A') (A") (A') (A') (A') (A') (A") (A") (A')
                 (A') (A') (A') (A") (A") (A") (A")
       Virtual   (A") (A") (A") (A") (A') (A') (A') (A') (A") (A')
                 (A') (A") (A') (A') (A") (A') (A") (A') (A') (A')
                 (A") (A") (A') (A') (A') (A") (A') (A") (A') (A')
                 (A") (A") (A') (A') (A') (A') (A') (A') (A") (A')
                 (A") (A') (A') (A") (A") (A') (A") (A') (A") (A')
                 (A') (A') (A') (A') (A") (A') (A') (A') (A') (A')
                 (A") (A') (A') (A') (A') (A') (A") (A') (A') (A')
                 (A') (A') (A') (A') (A') (A') (A') (A') (A') (A')
                 (A') (A') (A') (A') (A') (A') (A') (A') (A') (A')
                 (A') (A') (A') (A') (A") (A") (A') (A") (A') (A")
                 (A') (A') (A') (A') (A") (A") (A') (A") (A') (A")
                 (A') (A') (A') (A") (A") (A') (A") (A') (A') (A")
                 (A") (A') (A") (A') (A') (A') (A") (A') (A') (A')
                 (A') (A') (A') (A') (A') (A') (A') (A') (A') (A')
                 (A') (A') (A') (A") (A') (A') (A') (A') (A') (A')
                 (A') (A') (A") (A') (A") (A') (A") (A") (A') (A')
                 (A") (A") (A') (A') (A") (A') (A") (A") (A") (A')
                 (A') (A') (A") (A') (A") (A') (A') (A') (A") (A')
                 (A') (A") (A') (A') (A') (A") (A') (A') (A") (A")
                 (A") (A') (A') (A") (A') (A') (A") (A') (A') (A')
                 (A") (A") (A") (A') (A") (A') (A") (A') (A') (A')
                 (A') (A") (A') (A") (A") (A') (A') (A") (A') (A")
                 (A') (A') (A') (A') (A") (A') (A') (A") (A') (A")
                 (A') (A') (A") (A') (A') (A') (A") (A') (A") (A')
                 (A") (A') (A') (A") (A') (A') (A') (A') (A') (A')
                 (A') (A") (A') (A') (A') (A") (A') (A") (A") (A')
                 (A') (A') (A') (A') (A') (A") (A') (A') (A') (A')
                 (A') (A") (A") (A") (A') (A") (A') (A") (A') (A')
                 (A") (A") (A") (A") (A') (A") (A') (A') (A') (A')
                 (A') (A') (A') (A') (A') (A') (A') (A') (A') (A')
                 (A') (A') (A') (A") (A') (A') (A') (A') (A') (A')
                 (A') (A') (A') (A') (A') (A') (A') (A') (A') (A')
                 (A') (A') (A') (A') (A') (A') (A') (A') (A') (A')
                 (A') (A')
 The electronic state is 1-A'.
 Alpha  occ. eigenvalues --  -10.77950 -10.74051 -10.73061 -10.72687 -10.72334
 Alpha  occ. eigenvalues --  -10.72007 -10.71741 -10.71693 -10.71197 -10.70993
 Alpha  occ. eigenvalues --  -10.70702 -10.70088 -10.69505 -10.69466  -1.16421
 Alpha  occ. eigenvalues --   -1.12333  -1.06765  -1.05547  -1.01275  -1.00091
 Alpha  occ. eigenvalues --   -0.95514  -0.90711  -0.87051  -0.85155  -0.83631
 Alpha  occ. eigenvalues --   -0.78082  -0.75787  -0.74052  -0.69790  -0.69382
 Alpha  occ. eigenvalues --   -0.68227  -0.67767  -0.67634  -0.64497  -0.63997
 Alpha  occ. eigenvalues --   -0.62574  -0.61445  -0.59906  -0.59510  -0.58851
 Alpha  occ. eigenvalues --   -0.56423  -0.55375  -0.54685  -0.52283  -0.46657
 Alpha  occ. eigenvalues --   -0.45999  -0.44395
 Alpha virt. eigenvalues --   -0.25953  -0.14877  -0.14235  -0.12911  -0.11228
 Alpha virt. eigenvalues --   -0.10148  -0.09240  -0.08014  -0.08008  -0.07527
 Alpha virt. eigenvalues --   -0.07223  -0.07156  -0.05728  -0.05596  -0.05319
 Alpha virt. eigenvalues --   -0.03890  -0.03634  -0.03372  -0.03148  -0.02148
 Alpha virt. eigenvalues --   -0.01424  -0.00837   0.00178   0.00197   0.00624
 Alpha virt. eigenvalues --    0.00998   0.01300   0.01820   0.02196   0.02400
 Alpha virt. eigenvalues --    0.02406   0.02510   0.02614   0.03267   0.03679
 Alpha virt. eigenvalues --    0.04114   0.04289   0.04832   0.04838   0.05379
 Alpha virt. eigenvalues --    0.06045   0.06172   0.06557   0.06970   0.07222
 Alpha virt. eigenvalues --    0.07796   0.08058   0.08229   0.08696   0.08769
 Alpha virt. eigenvalues --    0.08793   0.09630   0.09769   0.10278   0.11094
 Alpha virt. eigenvalues --    0.11568   0.11620   0.12009   0.12489   0.12814
 Alpha virt. eigenvalues --    0.12953   0.13193   0.13860   0.14146   0.15303
 Alpha virt. eigenvalues --    0.16387   0.16600   0.17132   0.17372   0.17784
 Alpha virt. eigenvalues --    0.18342   0.19072   0.19378   0.19724   0.20243
 Alpha virt. eigenvalues --    0.21523   0.21774   0.22289   0.23026   0.23570
 Alpha virt. eigenvalues --    0.24115   0.24665   0.26046   0.26647   0.27411
 Alpha virt. eigenvalues --    0.28133   0.28880   0.30604   0.31279   0.35469
 Alpha virt. eigenvalues --    0.35663   0.38603   0.39734   0.40471   0.41388
 Alpha virt. eigenvalues --    0.41911   0.41985   0.43082   0.43765   0.44247
 Alpha virt. eigenvalues --    0.44285   0.45617   0.45760   0.46889   0.47781
 Alpha virt. eigenvalues --    0.48748   0.49036   0.49092   0.49328   0.50468
 Alpha virt. eigenvalues --    0.50817   0.51328   0.51478   0.51998   0.53975
 Alpha virt. eigenvalues --    0.54358   0.55238   0.55298   0.55784   0.57601
 Alpha virt. eigenvalues --    0.58476   0.60303   0.60636   0.61931   0.62695
 Alpha virt. eigenvalues --    0.63408   0.63693   0.64120   0.65269   0.67148
 Alpha virt. eigenvalues --    0.69077   0.70322   0.71269   0.71861   0.72562
 Alpha virt. eigenvalues --    0.74012   0.75691   0.76404   0.77043   0.77497
 Alpha virt. eigenvalues --    0.77923   0.78076   0.78598   0.79996   0.80395
 Alpha virt. eigenvalues --    0.81379   0.82132   0.82549   0.83295   0.85082
 Alpha virt. eigenvalues --    0.85843   0.86995   0.87618   0.89572   0.89909
 Alpha virt. eigenvalues --    0.90600   0.91496   0.93498   0.94218   0.95310
 Alpha virt. eigenvalues --    0.96551   0.96670   1.00097   1.01432   1.01604
 Alpha virt. eigenvalues --    1.02146   1.03059   1.03286   1.04825   1.07256
 Alpha virt. eigenvalues --    1.19576   1.21266   1.23888   1.24027   1.26405
 Alpha virt. eigenvalues --    1.28649   1.33790   1.34894   1.35384   1.36024
 Alpha virt. eigenvalues --    1.38840   1.41141   1.41274   1.41486   1.42661
 Alpha virt. eigenvalues --    1.42913   1.44840   1.45700   1.46408   1.46840
 Alpha virt. eigenvalues --    1.47319   1.49185   1.51645   1.53052   1.53233
 Alpha virt. eigenvalues --    1.55444   1.56545   1.56990   1.58117   1.62434
 Alpha virt. eigenvalues --    1.62690   1.63100   1.63420   1.65823   1.67796
 Alpha virt. eigenvalues --    1.68406   1.68779   1.69874   1.73274   1.74409
 Alpha virt. eigenvalues --    1.75329   1.77288   1.78354   1.79138   1.79492
 Alpha virt. eigenvalues --    1.80937   1.81640   1.83020   1.83411   1.84184
 Alpha virt. eigenvalues --    1.85136   1.85805   1.87493   1.87988   1.89942
 Alpha virt. eigenvalues --    1.91287   1.93717   1.96590   1.98163   1.98392
 Alpha virt. eigenvalues --    1.99295   2.01746   2.06262   2.06516   2.09629
 Alpha virt. eigenvalues --    2.11274   2.14352   2.15164   2.18150   2.22023
 Alpha virt. eigenvalues --    2.22691   2.27026   2.29043   2.31634   2.33691
 Alpha virt. eigenvalues --    2.34320   2.38060   2.38855   2.40691   2.41783
 Alpha virt. eigenvalues --    2.45054   2.45874   2.47045   2.48025   2.51879
 Alpha virt. eigenvalues --    2.54282   2.54361   2.56229   2.58405   2.59268
 Alpha virt. eigenvalues --    2.59943   2.60318   2.61670   2.62919   2.63148
 Alpha virt. eigenvalues --    2.64465   2.64669   2.65991   2.66278   2.68705
 Alpha virt. eigenvalues --    2.69355   2.70748   2.72775   2.74951   2.75601
 Alpha virt. eigenvalues --    2.76511   2.78641   2.79600   2.80516   2.81038
 Alpha virt. eigenvalues --    2.82860   2.85984   2.91291   2.98927   2.99410
 Alpha virt. eigenvalues --    2.99570   3.02467   3.03976   3.10697   3.12612
 Alpha virt. eigenvalues --    3.17152   3.23692   3.24796   3.28826   3.29732
 Alpha virt. eigenvalues --    3.30788   3.32191   3.41903   3.44618   3.45974
 Alpha virt. eigenvalues --    3.47346   3.49490   3.53529   3.60742   3.64776
 Alpha virt. eigenvalues --    3.68657   3.91964   3.92406   3.95476   3.96075
 Alpha virt. eigenvalues --    4.02306   4.04904   4.05769   4.11244   4.34472
 Alpha virt. eigenvalues --    4.52636   4.68209   4.69878  23.45557  23.59241
 Alpha virt. eigenvalues --   23.79205  23.82993  23.84608  23.87428  23.88884
 Alpha virt. eigenvalues --   23.89293  23.95761  23.97501  23.98588  24.01386
 Alpha virt. eigenvalues --   24.10412  24.10864
          Condensed to atoms (all electrons):
               1          2          3          4          5          6
     1  C    8.865870   0.551521  -0.288518   1.662029  -0.313829  -0.043084
     2  C    0.551521   6.660382   0.033703  -1.044029  -0.000589  -0.002307
     3  C   -0.288518   0.033703   8.622310   1.177493  -0.203379   0.020760
     4  C    1.662029  -1.044029   1.177493  10.048917  -0.834458  -0.077661
     5  C   -0.313829  -0.000589  -0.203379  -0.834458  13.895652   0.128228
     6  C   -0.043084  -0.002307   0.020760  -0.077661   0.128228   6.567362
     7  C    0.078226  -0.007296  -0.015712   0.053153  -1.895936   0.228388
     8  C    0.468374   0.008902  -0.195657   0.092293   3.941991  -1.076448
     9  C   -0.584432  -0.291431   0.455978  -0.749967   0.687962   0.139996
    10  C   -1.006410   0.358251  -1.412409  -2.778019  -2.444279   0.133816
    11  C    0.426032  -0.170562   0.093001  -1.129370  -0.861037   0.065659
    12  C   -3.245622   0.262637  -1.692968   0.199871  -1.050290  -0.302179
    13  C    0.515381  -0.215879  -0.487798  -0.757070   0.399641   0.868327
    14  C   -1.324533  -0.103250   0.036361  -0.487474  -5.440471  -0.537816
    15  H    0.369577  -0.066104  -0.001296   0.027267   0.003211  -0.000317
    16  H   -0.037904   0.402047  -0.029346   0.002724  -0.001972  -0.000080
    17  H   -0.011081  -0.024436   0.357382  -0.031667  -0.000171   0.000185
    18  H    0.049106   0.018966  -0.129086   0.432142   0.001094  -0.006900
    19  H   -0.030363   0.005508   0.081319   0.068384  -0.121780   0.045277
    20  H    0.001456   0.000381  -0.003954   0.006246   0.543263  -0.077352
    21  H   -0.001123  -0.000203   0.000584   0.000246  -0.095394   0.400397
    22  H    0.000463   0.000076  -0.000346   0.000098   0.017440  -0.036809
    23  H   -0.003214  -0.002648   0.003584   0.002565   0.048642   0.016585
    24  H    0.037880   0.012321  -0.004414  -0.001974  -0.010068   0.001582
    25  H    0.037880   0.012321  -0.004414  -0.001974  -0.010068   0.001582
               7          8          9         10         11         12
     1  C    0.078226   0.468374  -0.584432  -1.006410   0.426032  -3.245622
     2  C   -0.007296   0.008902  -0.291431   0.358251  -0.170562   0.262637
     3  C   -0.015712  -0.195657   0.455978  -1.412409   0.093001  -1.692968
     4  C    0.053153   0.092293  -0.749967  -2.778019  -1.129370   0.199871
     5  C   -1.895936   3.941991   0.687962  -2.444279  -0.861037  -1.050290
     6  C    0.228388  -1.076448   0.139996   0.133816   0.065659  -0.302179
     7  C    9.164747  -0.885180  -1.851246   0.293971  -0.425776  -0.008609
     8  C   -0.885180  11.261177  -0.893885  -1.838644   0.614758  -1.482493
     9  C   -1.851246  -0.893885  10.181489   0.545502   1.072548  -1.925100
    10  C    0.293971  -1.838644   0.545502   9.370269   0.750116   0.969586
    11  C   -0.425776   0.614758   1.072548   0.750116  12.833775  -3.715283
    12  C   -0.008609  -1.482493  -1.925100   0.969586  -3.715283  18.462408
    13  C   -1.248822  -0.194919   0.644210  -0.311995   0.227106  -4.579671
    14  C    2.631442  -4.604624  -1.701645   3.098787  -3.264983   3.239710
    15  H   -0.000699   0.011013   0.015668  -0.016096  -0.036166   0.033575
    16  H    0.000470   0.001167   0.006527   0.002014   0.026974  -0.022880
    17  H   -0.000362  -0.001488  -0.005711   0.007811  -0.037306   0.088191
    18  H    0.005712   0.015625  -0.038732   0.034268  -0.030460  -0.024849
    19  H   -0.012850  -0.056116   0.062818   0.364481   0.056639  -0.129193
    20  H   -0.017670   0.093987  -0.011703  -0.042863  -0.012935  -0.028092
    21  H   -0.003701  -0.055733  -0.003876   0.015033  -0.004313   0.000066
    22  H    0.384708  -0.007442  -0.006548  -0.006564  -0.001092  -0.001526
    23  H   -0.180243   0.420873   0.132637  -0.008337   0.026852  -0.009722
    24  H    0.016419   0.035954   0.346154   0.003675   0.025000  -0.065271
    25  H    0.016419   0.035954   0.346154   0.003675   0.025000  -0.065271
              13         14         15         16         17         18
     1  C    0.515381  -1.324533   0.369577  -0.037904  -0.011081   0.049106
     2  C   -0.215879  -0.103250  -0.066104   0.402047  -0.024436   0.018966
     3  C   -0.487798   0.036361  -0.001296  -0.029346   0.357382  -0.129086
     4  C   -0.757070  -0.487474   0.027267   0.002724  -0.031667   0.432142
     5  C    0.399641  -5.440471   0.003211  -0.001972  -0.000171   0.001094
     6  C    0.868327  -0.537816  -0.000317  -0.000080   0.000185  -0.006900
     7  C   -1.248822   2.631442  -0.000699   0.000470  -0.000362   0.005712
     8  C   -0.194919  -4.604624   0.011013   0.001167  -0.001488   0.015625
     9  C    0.644210  -1.701645   0.015668   0.006527  -0.005711  -0.038732
    10  C   -0.311995   3.098787  -0.016096   0.002014   0.007811   0.034268
    11  C    0.227106  -3.264983  -0.036166   0.026974  -0.037306  -0.030460
    12  C   -4.579671   3.239710   0.033575  -0.022880   0.088191  -0.024849
    13  C   13.413548  -1.893881  -0.007412   0.000651  -0.007050   0.020094
    14  C   -1.893881  16.046843   0.000173  -0.008578   0.005692  -0.020537
    15  H   -0.007412   0.000173   0.424097  -0.008438   0.001754   0.000316
    16  H    0.000651  -0.008578  -0.008438   0.415549  -0.006675   0.001893
    17  H   -0.007050   0.005692   0.001754  -0.006675   0.419313  -0.011668
    18  H    0.020094  -0.020537   0.000316   0.001893  -0.011668   0.484443
    19  H   -0.008809   0.038586  -0.000302  -0.000103   0.000441  -0.002637
    20  H    0.061126  -0.175861   0.000002  -0.000015  -0.000067   0.001570
    21  H    0.002866   0.090126  -0.000002  -0.000004   0.000010  -0.000314
    22  H   -0.001279  -0.006862  -0.000050   0.000006  -0.000007   0.000071
    23  H   -0.056001  -0.078612   0.000356  -0.000210   0.000042  -0.000251
    24  H   -0.015981  -0.045890  -0.000429   0.000611  -0.000193   0.000225
    25  H   -0.015981  -0.045890  -0.000429   0.000611  -0.000193   0.000225
              19         20         21         22         23         24
     1  C   -0.030363   0.001456  -0.001123   0.000463  -0.003214   0.037880
     2  C    0.005508   0.000381  -0.000203   0.000076  -0.002648   0.012321
     3  C    0.081319  -0.003954   0.000584  -0.000346   0.003584  -0.004414
     4  C    0.068384   0.006246   0.000246   0.000098   0.002565  -0.001974
     5  C   -0.121780   0.543263  -0.095394   0.017440   0.048642  -0.010068
     6  C    0.045277  -0.077352   0.400397  -0.036809   0.016585   0.001582
     7  C   -0.012850  -0.017670  -0.003701   0.384708  -0.180243   0.016419
     8  C   -0.056116   0.093987  -0.055733  -0.007442   0.420873   0.035954
     9  C    0.062818  -0.011703  -0.003876  -0.006548   0.132637   0.346154
    10  C    0.364481  -0.042863   0.015033  -0.006564  -0.008337   0.003675
    11  C    0.056639  -0.012935  -0.004313  -0.001092   0.026852   0.025000
    12  C   -0.129193  -0.028092   0.000066  -0.001526  -0.009722  -0.065271
    13  C   -0.008809   0.061126   0.002866  -0.001279  -0.056001  -0.015981
    14  C    0.038586  -0.175861   0.090126  -0.006862  -0.078612  -0.045890
    15  H   -0.000302   0.000002  -0.000002  -0.000050   0.000356  -0.000429
    16  H   -0.000103  -0.000015  -0.000004   0.000006  -0.000210   0.000611
    17  H    0.000441  -0.000067   0.000010  -0.000007   0.000042  -0.000193
    18  H   -0.002637   0.001570  -0.000314   0.000071  -0.000251   0.000225
    19  H    0.444164  -0.009253   0.002211  -0.000802   0.000908   0.000534
    20  H   -0.009253   0.445487  -0.009401   0.002030   0.000019   0.000085
    21  H    0.002211  -0.009401   0.417517  -0.006344   0.001483  -0.000056
    22  H   -0.000802   0.002030  -0.006344   0.423388  -0.012600   0.000534
    23  H    0.000908   0.000019   0.001483  -0.012600   0.461087  -0.002544
    24  H    0.000534   0.000085  -0.000056   0.000534  -0.002544   0.494606
    25  H    0.000534   0.000085  -0.000056   0.000534  -0.002544  -0.081396
              25
     1  C    0.037880
     2  C    0.012321
     3  C   -0.004414
     4  C   -0.001974
     5  C   -0.010068
     6  C    0.001582
     7  C    0.016419
     8  C    0.035954
     9  C    0.346154
    10  C    0.003675
    11  C    0.025000
    12  C   -0.065271
    13  C   -0.015981
    14  C   -0.045890
    15  H   -0.000429
    16  H    0.000611
    17  H   -0.000193
    18  H    0.000225
    19  H    0.000534
    20  H    0.000085
    21  H   -0.000056
    22  H    0.000534
    23  H   -0.002544
    24  H   -0.081396
    25  H    0.494606
 Mulliken charges:
               1
     1  C   -0.173682
     2  C   -0.398283
     3  C   -0.413175
     4  C    0.120235
     5  C   -0.383407
     6  C   -0.457193
     7  C   -0.319555
     8  C    0.290561
     9  C   -0.573369
    10  C   -0.085640
    11  C   -0.554175
    12  C    1.092974
    13  C   -0.350403
    14  C    0.553189
    15  H    0.250728
    16  H    0.254961
    17  H    0.257253
    18  H    0.199684
    19  H    0.200403
    20  H    0.233427
    21  H    0.249981
    22  H    0.258923
    23  H    0.241292
    24  H    0.252635
    25  H    0.252635
 Sum of Mulliken charges =   1.00000
 Mulliken charges with hydrogens summed into heavy atoms:
               1
     1  C    0.077046
     2  C   -0.143322
     3  C   -0.155922
     4  C    0.319920
     5  C   -0.149980
     6  C   -0.207211
     7  C   -0.060632
     8  C    0.531853
     9  C   -0.068099
    10  C    0.114762
    11  C   -0.554175
    12  C    1.092974
    13  C   -0.350403
    14  C    0.553189
 Electronic spatial extent (au):  <R**2>=           2864.1606
 Charge=              1.0000 electrons
 Dipole moment (field-independent basis, Debye):
    X=             -0.1044    Y=              0.2473    Z=              0.0000  Tot=              0.2684
 Quadrupole moment (field-independent basis, Debye-Ang):
   XX=            -51.5774   YY=            -35.4303   ZZ=            -84.4211
   XY=              9.9523   XZ=              0.0000   YZ=              0.0000
 Traceless Quadrupole moment (field-independent basis, Debye-Ang):
   XX=              5.5655   YY=             21.7127   ZZ=            -27.2782
   XY=              9.9523   XZ=              0.0000   YZ=              0.0000
 Octapole moment (field-independent basis, Debye-Ang**2):
  XXX=             -0.5848  YYY=             -2.3741  ZZZ=             -0.0000  XYY=              1.3727
  XXY=              4.9468  XXZ=              0.0000  XZZ=              2.6193  YZZ=             -1.3412
  YYZ=              0.0000  XYZ=             -0.0000
 Hexadecapole moment (field-independent basis, Debye-Ang**3):
 XXXX=           -944.4818 YYYY=          -1884.3070 ZZZZ=            -99.9431 XXXY=           -330.8707
 XXXZ=              0.0000 YYYX=           -256.0178 YYYZ=              0.0000 ZZZX=              0.0000
 ZZZY=             -0.0000 XXYY=           -458.8263 XXZZ=           -232.9954 YYZZ=           -507.6863
 XXYZ=              0.0000 YYXZ=              0.0000 ZZXY=           -176.1575
 N-N= 7.794619622946D+02 E-N=-2.795022073358D+03  KE= 5.372488310308D+02
 Symmetry A'   KE= 5.226297948802D+02
 Symmetry A"   KE= 1.461903615056D+01
 Unable to Open any file for archive entry.
 1\1\GINC-GADI-CPU-CLX-0359\SP\RM062X TD-FC\6-311++G(d,p)\C14H11(1+)\TS
 1578\02-Aug-2022\0\\#n M062X/6-311++G(d,p) TD(NStates=1) EmpiricalDisp
 ersion=GD3 SP\\SP_8\\1,1\C,0,0.,2.622655,1.444431\C,0,0.,3.753508,0.59
 7989\C,0,0.,3.609861,-0.79583\C,0,0.,2.343156,-1.339538\C,0,0.,-2.5351
 56,-1.483538\C,0,0.,-3.737861,-0.69983\C,0,0.,-3.673508,0.677989\C,0,0
 .,-2.414655,1.268431\C,0,0.,-0.032,1.483369\C,0,0.,0.048,-1.399189\C,0
 ,0.,1.316055,0.871065\C,0,0.,1.201471,-0.552804\C,0,0.,-1.220055,0.535
 065\C,0,0.,-1.265471,-0.856804\H,0,0.,2.762071,2.527647\H,0,0.,4.75475
 3,1.023689\H,0,0.,4.477262,-1.444349\H,0,0.,2.20555,-2.422059\H,0,0.,0
 .248,-2.478266\H,0,0.,-2.62155,-2.566059\H,0,0.,-4.701262,-1.204349\H,
 0,0.,-4.562753,1.295689\H,0,0.,-2.330071,2.351647\H,0,-0.859585,-0.192
 ,2.175787\H,0,0.859585,-0.192,2.175787\\Version=ES64L-G16RevC.01\State
 =1-A'\HF=-539.7298027\RMSD=9.298e-09\PG=CS [SG(C14H9),X(H2)]\\@
 The archive entry for this job was punched.


 YOU CAN LEAD A BOY TO COLLEGE....
 BUT YOU CANNOT MAKE HIM THINK....
           ELBERT HUBBARD
 Job cpu time:       0 days  0 hours 51 minutes 59.6 seconds.
 Elapsed time:       0 days  0 hours  1 minutes  5.2 seconds.
 File lengths (MBytes):  RWF=    460 Int=      0 D2E=      0 Chk=     15 Scr=      1
 Normal termination of Gaussian 16 at Tue Aug  2 13:30:07 2022.
