 Entering Gaussian System, Link 0=g16
 Initial command:
 /apps/gaussian/g16c01/g16/l1.exe "/jobfs/53803768.gadi-pbs/Gau-212174.inp" -scrdir="/jobfs/53803768.gadi-pbs/"
 Entering Link 1 = /apps/gaussian/g16c01/g16/l1.exe PID=    212175.
  
 Copyright (c) 1988-2019, Gaussian, Inc.  All Rights Reserved.
  
 This is part of the Gaussian(R) 16 program.  It is based on
 the Gaussian(R) 09 system (copyright 2009, Gaussian, Inc.),
 the Gaussian(R) 03 system (copyright 2003, Gaussian, Inc.),
 the Gaussian(R) 98 system (copyright 1998, Gaussian, Inc.),
 the Gaussian(R) 94 system (copyright 1995, Gaussian, Inc.),
 the Gaussian 92(TM) system (copyright 1992, Gaussian, Inc.),
 the Gaussian 90(TM) system (copyright 1990, Gaussian, Inc.),
 the Gaussian 88(TM) system (copyright 1988, Gaussian, Inc.),
 the Gaussian 86(TM) system (copyright 1986, Carnegie Mellon
 University), and the Gaussian 82(TM) system (copyright 1983,
 Carnegie Mellon University). Gaussian is a federally registered
 trademark of Gaussian, Inc.
  
 This software contains proprietary and confidential information,
 including trade secrets, belonging to Gaussian, Inc.
  
 This software is provided under written license and may be
 used, copied, transmitted, or stored only in accord with that
 written license.
  
 The following legend is applicable only to US Government
 contracts under FAR:
  
                    RESTRICTED RIGHTS LEGEND
  
 Use, reproduction and disclosure by the US Government is
 subject to restrictions as set forth in subparagraphs (a)
 and (c) of the Commercial Computer Software - Restricted
 Rights clause in FAR 52.227-19.
  
 Gaussian, Inc.
 340 Quinnipiac St., Bldg. 40, Wallingford CT 06492
  
  
 ---------------------------------------------------------------
 Warning -- This program may not be used in any manner that
 competes with the business of Gaussian, Inc. or will provide
 assistance to any competitor of Gaussian, Inc.  The licensee
 of this program is prohibited from giving any competitor of
 Gaussian, Inc. access to this program.  By using this program,
 the user acknowledges that Gaussian, Inc. is engaged in the
 business of creating and licensing software in the field of
 computational chemistry and represents and warrants to the
 licensee that it is not a competitor of Gaussian, Inc. and that
 it will not use this program in any manner prohibited above.
 ---------------------------------------------------------------
  

 Cite this work as:
 Gaussian 16, Revision C.01,
 M. J. Frisch, G. W. Trucks, H. B. Schlegel, G. E. Scuseria, 
 M. A. Robb, J. R. Cheeseman, G. Scalmani, V. Barone, 
 G. A. Petersson, H. Nakatsuji, X. Li, M. Caricato, A. V. Marenich, 
 J. Bloino, B. G. Janesko, R. Gomperts, B. Mennucci, H. P. Hratchian, 
 J. V. Ortiz, A. F. Izmaylov, J. L. Sonnenberg, D. Williams-Young, 
 F. Ding, F. Lipparini, F. Egidi, J. Goings, B. Peng, A. Petrone, 
 T. Henderson, D. Ranasinghe, V. G. Zakrzewski, J. Gao, N. Rega, 
 G. Zheng, W. Liang, M. Hada, M. Ehara, K. Toyota, R. Fukuda, 
 J. Hasegawa, M. Ishida, T. Nakajima, Y. Honda, O. Kitao, H. Nakai, 
 T. Vreven, K. Throssell, J. A. Montgomery, Jr., J. E. Peralta, 
 F. Ogliaro, M. J. Bearpark, J. J. Heyd, E. N. Brothers, K. N. Kudin, 
 V. N. Staroverov, T. A. Keith, R. Kobayashi, J. Normand, 
 K. Raghavachari, A. P. Rendell, J. C. Burant, S. S. Iyengar, 
 J. Tomasi, M. Cossi, J. M. Millam, M. Klene, C. Adamo, R. Cammi, 
 J. W. Ochterski, R. L. Martin, K. Morokuma, O. Farkas, 
 J. B. Foresman, and D. J. Fox, Gaussian, Inc., Wallingford CT, 2019.
 
 ******************************************
 Gaussian 16:  ES64L-G16RevC.01  3-Jul-2019
                 2-Aug-2022 
 ******************************************
 %NProcShared=48
 Will use up to   48 processors via shared memory.
 %mem = 190GB
 ---------------------------------------------------------------
 #n M062X/6-311++G(d,p) TD(NStates=1) EmpiricalDispersion=GD3 SP
 ---------------------------------------------------------------
 1/38=1,172=1/1;
 2/12=2,17=6,18=5,40=1/2;
 3/5=4,6=6,7=1111,11=9,25=1,30=1,74=-55,124=31/1,2,3,8;
 4//1;
 5/5=2,38=5/2;
 8/6=1,10=2,108=1/1;
 9/41=1,42=1,70=2/14;
 6/7=2,8=2,9=2,10=2/1;
 99/5=1,9=1/99;
 ----
 SP_4
 ----
 Symbolic Z-matrix:
 Charge =  1 Multiplicity = 1
 C                     0.        2.44066   1.42043 
 C                     0.        3.67351   0.78799 
 C                     0.        3.69186  -0.60183 
 C                     0.        2.51116  -1.35554 
 C                     0.       -2.60716  -1.42754 
 C                     0.       -3.75586  -0.55383 
 C                     0.       -3.63351   0.82799 
 C                     0.       -2.33666   1.33243 
 C                     0.       -0.016     1.33337 
 C                     0.        0.024    -1.54919 
 C                     0.        1.26206   0.65707 
 C                     0.        1.23747  -0.7588 
 C                     0.       -1.21406   0.48907 
 C                     0.       -1.26947  -0.9108 
 H                     0.        2.36407   2.50365 
 H                     0.        4.59675   1.35169 
 H                     0.        4.63326  -1.12435 
 H                     0.        2.57955  -2.43806 
 H                     0.        0.124    -2.63827 
 H                     0.       -2.78755  -2.51006 
 H                     0.       -4.74526  -1.00435 
 H                     0.       -4.50075   1.48769 
 H                     0.       -2.14807   2.41565 
 H                    -0.85959  -0.096     2.02579 
 H                     0.85959  -0.096     2.02579 
 
                          Input orientation:                          
 ---------------------------------------------------------------------
 Center     Atomic      Atomic             Coordinates (Angstroms)
 Number     Number       Type             X           Y           Z
 ---------------------------------------------------------------------
      1          6           0        0.000000    2.440655    1.420431
      2          6           0        0.000000    3.673508    0.787989
      3          6           0        0.000000    3.691861   -0.601830
      4          6           0        0.000000    2.511156   -1.355538
      5          6           0        0.000000   -2.607156   -1.427538
      6          6           0        0.000000   -3.755861   -0.553830
      7          6           0        0.000000   -3.633508    0.827989
      8          6           0        0.000000   -2.336655    1.332431
      9          6           0        0.000000   -0.016000    1.333369
     10          6           0        0.000000    0.024000   -1.549189
     11          6           0        0.000000    1.262055    0.657065
     12          6           0        0.000000    1.237471   -0.758804
     13          6           0        0.000000   -1.214055    0.489065
     14          6           0        0.000000   -1.269471   -0.910804
     15          1           0        0.000000    2.364071    2.503647
     16          1           0        0.000000    4.596753    1.351689
     17          1           0        0.000000    4.633262   -1.124349
     18          1           0        0.000000    2.579550   -2.438059
     19          1           0        0.000000    0.124000   -2.638266
     20          1           0        0.000000   -2.787550   -2.510059
     21          1           0        0.000000   -4.745262   -1.004349
     22          1           0        0.000000   -4.500753    1.487689
     23          1           0        0.000000   -2.148071    2.415647
     24          1           0       -0.859585   -0.096000    2.025787
     25          1           0        0.859585   -0.096000    2.025787
 ---------------------------------------------------------------------
                    Distance matrix (angstroms):
                    1          2          3          4          5
     1  C    0.000000
     2  C    1.385608   0.000000
     3  C    2.378036   1.389940   0.000000
     4  C    2.776864   2.438395   1.400764   0.000000
     5  C    5.795802   6.659977   6.352906   5.118818   0.000000
     6  C    6.503423   7.549570   7.447877   6.318088   1.443222
     7  C    6.102986   7.307125   7.463606   6.521095   2.478064
     8  C    4.778120   6.034772   6.331222   5.543144   2.773193
     9  C    2.458197   3.729599   4.182491   3.690086   3.786383
    10  C    3.828690   4.333741   3.788231   2.494683   2.633967
    11  C    1.404217   2.415004   2.736562   2.368718   4.395039
    12  C    2.489321   2.885627   2.459405   1.406544   3.902353
    13  C    3.771518   4.896696   5.025740   4.156893   2.369409
    14  C    4.381745   5.226752   4.970944   3.806695   1.434021
    15  H    1.085920   2.158265   3.377427   3.861987   6.337769
    16  H    2.157194   1.081730   2.152920   3.417425   7.721425
    17  H    3.359082   2.139665   1.076690   2.134662   7.246763
    18  H    3.860989   3.406483   2.146852   1.084679   5.284229
    19  H    4.673319   4.933379   4.108127   2.709964   2.987486
    20  H    6.540862   7.254129   6.754562   5.423025   1.097449
    21  H    7.583994   8.607448   8.446719   7.264911   2.179584
    22  H    6.941734   8.204153   8.454881   7.566426   3.476242
    23  H    4.695409   6.044837   6.573429   5.994183   3.870508
    24  H    2.745899   4.059584   4.689472   4.355400   4.355484
    25  H    2.745899   4.059584   4.689472   4.355400   4.355484
                    6          7          8          9         10
     6  C    0.000000
     7  C    1.387225   0.000000
     8  C    2.360535   1.391506   0.000000
     9  C    4.189043   3.652639   2.320655   0.000000
    10  C    3.908720   4.362149   3.725107   2.882836   0.000000
    11  C    5.161952   4.898546   3.661534   1.445964   2.529889
    12  C    4.997537   5.122924   4.140971   2.438930   1.448178
    13  C    2.747437   2.443076   1.404100   1.465669   2.384798
    14  C    2.511885   2.934633   2.484147   2.570506   1.442429
    15  H    6.841179   6.227261   4.844437   2.652223   4.679894
    16  H    8.567214   8.246906   6.933435   4.612789   5.415271
    17  H    8.408500   8.494181   7.390231   5.258899   4.628800
    18  H    6.609671   7.019199   6.195617   4.578269   2.705721
    19  H    4.404338   5.112122   4.671323   3.974102   1.093658
    20  H    2.182764   3.443575   3.868855   4.738505   2.971209
    21  H    1.087144   2.143236   3.355880   5.275495   4.800282
    22  H    2.173169   1.089641   2.169660   4.487407   5.449405
    23  H    3.376801   2.174208   1.099509   2.391036   4.520820
    24  H    4.559374   3.832436   2.498032   1.106675   3.678823
    25  H    4.559374   3.832436   2.498032   1.106675   3.678823
                   11         12         13         14         15
    11  C    0.000000
    12  C    1.416082   0.000000
    13  C    2.481803   2.750847   0.000000
    14  C    2.977723   2.511546   1.400965   0.000000
    15  H    2.150420   3.451494   4.106279   4.986091   0.000000
    16  H    3.406276   3.967235   5.874488   6.287405   2.512345
    17  H    3.812935   3.415409   6.065824   5.906594   4.279204
    18  H    3.363865   2.149668   4.791607   4.140950   4.946402
    19  H    3.486313   2.184535   3.401557   2.219434   5.608671
    20  H    5.141009   4.389497   3.386832   2.205035   7.188633
    21  H    6.232829   5.987770   3.834020   3.477050   7.927714
    22  H    5.822361   6.162300   3.435059   4.024171   6.939595
    23  H    3.836870   4.641016   2.141052   3.440525   4.513000
    24  H    2.111066   3.204837   2.085773   3.277116   2.649375
    25  H    2.111066   3.204837   2.085773   3.277116   2.649375
                   16         17         18         19         20
    16  H    0.000000
    17  H    2.476307   0.000000
    18  H    4.293169   2.437943   0.000000
    19  H    5.993768   4.756615   2.463698   0.000000
    20  H    8.333128   7.549082   5.367583   2.914371   0.000000
    21  H    9.634530   9.379292   7.463806   5.136088   2.469777
    22  H    9.098522   9.500156   8.095813   6.197729   4.349374
    23  H    6.828225   7.649709   6.775608   5.541150   4.967043
    24  H    4.818218   5.747013   5.274787   4.747702   5.343896
    25  H    4.818218   5.747013   5.274787   4.747702   5.343896
                   21         22         23         24         25
    21  H    0.000000
    22  H    2.504004   0.000000
    23  H    4.294389   2.529075   0.000000
    24  H    5.615714   4.519987   2.258733   0.000000
    25  H    5.615714   4.519987   2.258733   1.719170   0.000000
 Stoichiometry    C14H11(1+)
 Framework group  CS[SG(C14H9),X(H2)]
 Deg. of freedom    46
 Full point group                 CS      NOp   2
 Largest Abelian subgroup         CS      NOp   2
 Largest concise Abelian subgroup CS      NOp   2
                         Standard orientation:                         
 ---------------------------------------------------------------------
 Center     Atomic      Atomic             Coordinates (Angstroms)
 Number     Number       Type             X           Y           Z
 ---------------------------------------------------------------------
      1          6           0       -2.224315   -1.738135    0.000000
      2          6           0       -2.095991   -3.117788    0.000000
      3          6           0       -0.812784   -3.651937    0.000000
      4          6           0        0.326118   -2.836436    0.000000
      5          6           0        2.297333    1.887610    0.000000
      6          6           0        1.913755    3.278925    0.000000
      7          6           0        0.585622    3.679494    0.000000
      8          6           0       -0.365127    2.663439    0.000000
      9          6           0       -1.229449    0.509748    0.000000
     10          6           0        1.431268   -0.599901    0.000000
     11          6           0       -1.077231   -0.928182    0.000000
     12          6           0        0.246131   -1.432169    0.000000
     13          6           0       -0.000000    1.307644    0.000000
     14          6           0        1.319982    0.838229    0.000000
     15          1           0       -3.201265   -1.264014    0.000000
     16          1           0       -2.962733   -3.765010    0.000000
     17          1           0       -0.678050   -4.720164    0.000000
     18          1           0        1.305471   -3.302696    0.000000
     19          1           0        2.404946   -1.097937    0.000000
     20          1           0        3.369252    1.652276    0.000000
     21          1           0        2.700058    4.029665    0.000000
     22          1           0        0.295964    4.729930    0.000000
     23          1           0       -1.440739    2.891430    0.000000
     24          1           0       -1.842389    0.841634    0.859585
     25          1           0       -1.842389    0.841634   -0.859585
 ---------------------------------------------------------------------
 Rotational constants (GHZ):           2.1204411           0.4454841           0.3689418
 Standard basis: 6-311++G(d,p) (5D, 7F)
 There are   299 symmetry adapted cartesian basis functions of A'  symmetry.
 There are   100 symmetry adapted cartesian basis functions of A"  symmetry.
 There are   285 symmetry adapted basis functions of A'  symmetry.
 There are   100 symmetry adapted basis functions of A"  symmetry.
   385 basis functions,   603 primitive gaussians,   399 cartesian basis functions
    47 alpha electrons       47 beta electrons
       nuclear repulsion energy       780.4102579962 Hartrees.
 NAtoms=   25 NActive=   25 NUniq=   24 SFac= 1.09D+00 NAtFMM=   60 NAOKFM=F Big=F
 Integral buffers will be    131072 words long.
 Regular integral format.
 Two-electron integral symmetry is turned on.
 Nuclear repulsion after empirical dispersion term =      780.4092795936 Hartrees.
 One-electron integrals computed using PRISM.
 NBasis=   385 RedAO= T EigKep=  1.31D-06  NBF=   285   100
 NBsUse=   379 1.00D-06 EigRej=  7.01D-07 NBFU=   279   100
 ExpMin= 3.60D-02 ExpMax= 4.56D+03 ExpMxC= 6.82D+02 IAcc=3 IRadAn=         5 AccDes= 0.00D+00
 Harris functional with IExCor= 1009 and IRadAn=       5 diagonalized for initial guess.
 HarFok:  IExCor= 1009 AccDes= 0.00D+00 IRadAn=         5 IDoV= 1 UseB2=F ITyADJ=14
 ICtDFT=  3500011 ScaDFX=  1.000000  1.000000  1.000000  1.000000
 FoFCou: FMM=F IPFlag=           0 FMFlag=      100000 FMFlg1=           0
         NFxFlg=           0 DoJE=T BraDBF=F KetDBF=T FulRan=T
         wScrn=  0.000000 ICntrl=       500 IOpCl=  0 I1Cent=   200000004 NGrid=           0
         NMat0=    1 NMatS0=      1 NMatT0=    0 NMatD0=    1 NMtDS0=    0 NMtDT0=    0
 Petite list used in FoFCou.
 Initial guess orbital symmetries:
       Occupied  (A') (A') (A') (A') (A') (A') (A') (A') (A') (A')
                 (A') (A') (A') (A') (A') (A') (A') (A') (A') (A')
                 (A') (A') (A') (A') (A') (A') (A') (A') (A') (A')
                 (A') (A') (A") (A') (A') (A') (A') (A') (A") (A')
                 (A") (A') (A') (A") (A") (A") (A")
       Virtual   (A") (A") (A") (A") (A") (A') (A') (A') (A') (A")
                 (A") (A') (A') (A') (A') (A") (A') (A') (A') (A")
                 (A') (A") (A') (A') (A") (A') (A') (A") (A') (A')
                 (A') (A') (A') (A') (A") (A') (A') (A") (A') (A")
                 (A') (A') (A') (A") (A') (A') (A') (A') (A') (A")
                 (A') (A') (A") (A') (A") (A') (A') (A") (A') (A")
                 (A') (A') (A') (A') (A') (A") (A') (A') (A') (A")
                 (A') (A') (A') (A') (A') (A') (A') (A') (A') (A')
                 (A') (A') (A') (A') (A') (A') (A') (A') (A') (A')
                 (A') (A') (A') (A') (A') (A') (A') (A") (A') (A')
                 (A") (A') (A") (A") (A') (A') (A") (A') (A") (A")
                 (A") (A') (A') (A") (A') (A') (A") (A') (A") (A")
                 (A') (A") (A') (A') (A') (A') (A") (A') (A') (A")
                 (A') (A') (A') (A') (A') (A') (A") (A') (A') (A')
                 (A') (A') (A') (A') (A') (A') (A') (A') (A') (A")
                 (A") (A') (A") (A') (A") (A') (A') (A") (A") (A')
                 (A') (A") (A") (A") (A") (A') (A') (A') (A') (A')
                 (A') (A") (A') (A') (A") (A') (A') (A') (A") (A')
                 (A') (A') (A') (A") (A') (A") (A') (A") (A") (A')
                 (A') (A") (A') (A') (A") (A') (A') (A") (A') (A')
                 (A") (A") (A") (A') (A") (A') (A") (A') (A') (A')
                 (A") (A') (A") (A') (A") (A') (A') (A") (A') (A")
                 (A') (A') (A') (A') (A") (A') (A') (A") (A") (A')
                 (A') (A') (A') (A") (A') (A') (A") (A') (A") (A")
                 (A') (A') (A') (A') (A") (A') (A') (A') (A') (A")
                 (A') (A') (A') (A") (A") (A') (A') (A") (A') (A')
                 (A") (A') (A') (A") (A') (A') (A") (A') (A') (A")
                 (A') (A') (A') (A") (A') (A') (A") (A') (A") (A')
                 (A") (A') (A") (A") (A") (A') (A') (A') (A') (A')
                 (A') (A') (A') (A') (A') (A') (A') (A') (A') (A')
                 (A') (A') (A') (A') (A") (A') (A') (A') (A') (A')
                 (A') (A') (A') (A') (A') (A') (A') (A') (A') (A')
                 (A') (A') (A') (A') (A') (A') (A') (A') (A') (A')
                 (A') (A')
 The electronic state of the initial guess is 1-A'.
 Requested convergence on RMS density matrix=1.00D-08 within 128 cycles.
 Requested convergence on MAX density matrix=1.00D-06.
 Requested convergence on             energy=1.00D-06.
 No special actions if energy rises.
 SCF Done:  E(RM062X) =  -539.732485365     A.U. after   15 cycles
            NFock= 15  Conv=0.82D-08     -V/T= 2.0045
 DoSCS=F DFT=T ScalE2(SS,OS)=  1.000000  1.000000
 ExpMin= 3.60D-02 ExpMax= 4.56D+03 ExpMxC= 6.82D+02 IAcc=3 IRadAn=         5 AccDes= 0.00D+00
 HarFok:  IExCor=  205 AccDes= 0.00D+00 IRadAn=         5 IDoV=-2 UseB2=F ITyADJ=14
 ICtDFT= 12500011 ScaDFX=  1.000000  1.000000  1.000000  1.000000
 Range of M.O.s used for correlation:    15   379
 NBasis=   385 NAE=    47 NBE=    47 NFC=    14 NFV=     0
 NROrb=    365 NOA=    33 NOB=    33 NVA=   332 NVB=   332

 **** Warning!!: The largest alpha MO coefficient is  0.17948278D+03

 Orbital symmetries:
       Occupied  (A') (A') (A') (A') (A') (A') (A') (A') (A') (A')
                 (A') (A') (A') (A') (A') (A') (A') (A') (A') (A')
                 (A') (A') (A') (A') (A') (A') (A') (A') (A') (A')
                 (A') (A") (A') (A') (A') (A') (A') (A") (A") (A')
                 (A') (A') (A') (A") (A") (A") (A")
       Virtual   (A") (A") (A") (A") (A') (A') (A') (A") (A') (A')
                 (A') (A") (A') (A') (A") (A') (A") (A') (A') (A')
                 (A") (A") (A') (A') (A') (A") (A') (A") (A') (A')
                 (A") (A') (A") (A') (A') (A') (A') (A') (A") (A')
                 (A") (A') (A') (A") (A") (A') (A") (A') (A") (A')
                 (A') (A') (A') (A') (A') (A") (A') (A') (A') (A')
                 (A') (A") (A') (A') (A') (A") (A') (A') (A') (A')
                 (A') (A') (A') (A') (A') (A') (A') (A') (A') (A')
                 (A') (A') (A') (A') (A') (A') (A') (A') (A') (A')
                 (A') (A') (A') (A') (A") (A') (A") (A") (A') (A')
                 (A") (A') (A') (A') (A") (A") (A') (A") (A') (A")
                 (A') (A') (A") (A') (A") (A') (A") (A') (A') (A")
                 (A") (A') (A") (A') (A') (A") (A') (A') (A') (A')
                 (A') (A') (A') (A') (A') (A') (A') (A') (A') (A')
                 (A') (A') (A') (A") (A') (A') (A') (A') (A') (A')
                 (A') (A") (A') (A') (A') (A") (A") (A") (A') (A")
                 (A") (A') (A') (A") (A') (A") (A") (A') (A") (A')
                 (A') (A') (A') (A") (A") (A') (A') (A") (A') (A')
                 (A') (A') (A') (A") (A") (A') (A") (A') (A") (A')
                 (A") (A') (A') (A') (A") (A') (A") (A') (A') (A')
                 (A") (A") (A") (A') (A") (A') (A") (A') (A') (A')
                 (A") (A') (A') (A") (A') (A") (A') (A") (A") (A')
                 (A') (A') (A') (A') (A") (A') (A') (A") (A") (A')
                 (A') (A') (A') (A") (A') (A') (A") (A') (A") (A')
                 (A") (A') (A') (A') (A") (A') (A') (A') (A') (A')
                 (A') (A") (A') (A') (A') (A") (A") (A") (A') (A')
                 (A') (A') (A') (A') (A') (A') (A") (A') (A') (A')
                 (A') (A') (A") (A") (A") (A") (A') (A') (A") (A")
                 (A') (A") (A") (A") (A") (A') (A') (A') (A') (A')
                 (A') (A') (A') (A') (A') (A') (A') (A') (A') (A')
                 (A') (A') (A') (A') (A") (A') (A') (A') (A') (A')
                 (A') (A') (A') (A') (A') (A') (A') (A') (A') (A')
                 (A') (A') (A') (A') (A') (A') (A') (A') (A') (A')
                 (A') (A')
     4 initial guesses have been made.
 Convergence on wavefunction:    0.001000000000000
 Iteration     1 Dimension     4 NMult     0 NNew      4
 CISAX will form     4 AO SS matrices at one time.
 Iteration     2 Dimension     6 NMult     4 NNew      2
 Iteration     3 Dimension     8 NMult     6 NNew      2
 Iteration     4 Dimension    10 NMult     8 NNew      2
 Iteration     5 Dimension    12 NMult    10 NNew      2
 Iteration     6 Dimension    14 NMult    12 NNew      2
 ***********************************************************************
 Excited states from <AA,BB:AA,BB> singles matrix:
 ***********************************************************************
 
 Ground to excited state transition densities written to RWF  633
 Ground to excited state transition electric dipole moments (Au):
       state          X           Y           Z        Dip. S.      Osc.
         1         0.6216     -0.0970      0.0000      0.3958      0.0249
 Ground to excited state transition velocity dipole moments (Au):
       state          X           Y           Z        Dip. S.      Osc.
         1        -0.0665      0.0097     -0.0000      0.0045      0.0320
 Ground to excited state transition magnetic dipole moments (Au):
       state          X           Y           Z
         1        -0.0000      0.0000     -0.0173
 Ground to excited state transition velocity quadrupole moments (Au):
       state          XX          YY          ZZ          XY          XZ          YZ
         1        -0.1100     -0.2147      0.0091     -0.1029      0.0000      0.0000
 <0|del|b> * <b|rxdel|0> + <0|del|b> * <b|delr+rdel|0>
 Rotatory Strengths (R) in cgs (10**-40 erg-esu-cm/Gauss)
       state          XX          YY          ZZ    R(velocity)    E-M Angle
         1         0.0000     -0.0000      0.0000      0.0000       90.00
 1/2[<0|r|b>*<b|rxdel|0> + (<0|rxdel|b>*<b|r|0>)*]
 Rotatory Strengths (R) in cgs (10**-40 erg-esu-cm/Gauss)
       state          XX          YY          ZZ     R(length)
         1         0.0000      0.0000      0.0000      0.0000
  1/2[<0|del|b>*<b|r|0> + (<0|r|b>*<b|del|0>)*] (Au)
       state          X           Y           Z        Dip. S.   Osc.(frdel)
         1        -0.0414     -0.0009     -0.0000      0.0423      0.0282

 Excitation energies and oscillator strengths:
 
 Excited State   1:      Singlet-A'     2.5664 eV  483.10 nm  f=0.0249  <S**2>=0.000
      47 -> 48         0.70492
 This state for optimization and/or second-order correction.
 Total Energy, E(TD-HF/TD-DFT) =  -539.638170482    
 Copying the excited state density for this state as the 1-particle RhoCI density.
 SavETr:  write IOETrn=   770 NScale= 10 NData=  16 NLR=1 NState=    1 LETran=      28.

 **********************************************************************

            Population analysis using the SCF Density.

 **********************************************************************

 Orbital symmetries:
       Occupied  (A') (A') (A') (A') (A') (A') (A') (A') (A') (A')
                 (A') (A') (A') (A') (A') (A') (A') (A') (A') (A')
                 (A') (A') (A') (A') (A') (A') (A') (A') (A') (A')
                 (A') (A") (A') (A') (A') (A') (A') (A") (A") (A')
                 (A') (A') (A') (A") (A") (A") (A")
       Virtual   (A") (A") (A") (A") (A') (A') (A') (A") (A') (A')
                 (A') (A") (A') (A') (A") (A') (A") (A') (A') (A')
                 (A") (A") (A') (A') (A') (A") (A') (A") (A') (A')
                 (A") (A') (A") (A') (A') (A') (A') (A') (A") (A')
                 (A") (A') (A') (A") (A") (A') (A") (A') (A") (A')
                 (A') (A') (A') (A') (A') (A") (A') (A') (A') (A')
                 (A') (A") (A') (A') (A') (A") (A') (A') (A') (A')
                 (A') (A') (A') (A') (A') (A') (A') (A') (A') (A')
                 (A') (A') (A') (A') (A') (A') (A') (A') (A') (A')
                 (A') (A') (A') (A') (A") (A') (A") (A") (A') (A')
                 (A") (A') (A') (A') (A") (A") (A') (A") (A') (A")
                 (A') (A') (A") (A') (A") (A') (A") (A') (A') (A")
                 (A") (A') (A") (A') (A') (A") (A') (A') (A') (A')
                 (A') (A') (A') (A') (A') (A') (A') (A') (A') (A')
                 (A') (A') (A') (A") (A') (A') (A') (A') (A') (A')
                 (A') (A") (A') (A') (A') (A") (A") (A") (A') (A")
                 (A") (A') (A') (A") (A') (A") (A") (A') (A") (A')
                 (A') (A') (A') (A") (A") (A') (A') (A") (A') (A')
                 (A') (A') (A') (A") (A") (A') (A") (A') (A") (A')
                 (A") (A') (A') (A') (A") (A') (A") (A') (A') (A')
                 (A") (A") (A") (A') (A") (A') (A") (A') (A') (A')
                 (A") (A') (A') (A") (A') (A") (A') (A") (A") (A')
                 (A') (A') (A') (A') (A") (A') (A') (A") (A") (A')
                 (A') (A') (A') (A") (A') (A') (A") (A') (A") (A')
                 (A") (A') (A') (A') (A") (A') (A') (A') (A') (A')
                 (A') (A") (A') (A') (A') (A") (A") (A") (A') (A')
                 (A') (A') (A') (A') (A') (A') (A") (A') (A') (A')
                 (A') (A') (A") (A") (A") (A") (A') (A') (A") (A")
                 (A') (A") (A") (A") (A") (A') (A') (A') (A') (A')
                 (A') (A') (A') (A') (A') (A') (A') (A') (A') (A')
                 (A') (A') (A') (A') (A") (A') (A') (A') (A') (A')
                 (A') (A') (A') (A') (A') (A') (A') (A') (A') (A')
                 (A') (A') (A') (A') (A') (A') (A') (A') (A') (A')
                 (A') (A')
 The electronic state is 1-A'.
 Alpha  occ. eigenvalues --  -10.78861 -10.73547 -10.73010 -10.72921 -10.72869
 Alpha  occ. eigenvalues --  -10.72339 -10.71271 -10.71041 -10.70993 -10.70478
 Alpha  occ. eigenvalues --  -10.70217 -10.69975 -10.69765 -10.69459  -1.16453
 Alpha  occ. eigenvalues --   -1.12222  -1.06741  -1.05968  -1.01212  -0.99993
 Alpha  occ. eigenvalues --   -0.95555  -0.90796  -0.86600  -0.85616  -0.83482
 Alpha  occ. eigenvalues --   -0.78163  -0.75961  -0.74088  -0.69395  -0.69162
 Alpha  occ. eigenvalues --   -0.68813  -0.68570  -0.68009  -0.64756  -0.64409
 Alpha  occ. eigenvalues --   -0.62345  -0.61249  -0.59646  -0.59341  -0.58990
 Alpha  occ. eigenvalues --   -0.56897  -0.55330  -0.54361  -0.52383  -0.46507
 Alpha  occ. eigenvalues --   -0.46027  -0.43888
 Alpha virt. eigenvalues --   -0.26450  -0.14923  -0.14341  -0.12805  -0.11277
 Alpha virt. eigenvalues --   -0.10114  -0.09217  -0.08061  -0.08036  -0.07497
 Alpha virt. eigenvalues --   -0.07372  -0.07362  -0.05680  -0.05602  -0.05391
 Alpha virt. eigenvalues --   -0.03874  -0.03625  -0.03312  -0.03101  -0.02158
 Alpha virt. eigenvalues --   -0.01360  -0.00847   0.00060   0.00378   0.00712
 Alpha virt. eigenvalues --    0.01016   0.01401   0.01822   0.02070   0.02328
 Alpha virt. eigenvalues --    0.02354   0.02603   0.02682   0.03275   0.03672
 Alpha virt. eigenvalues --    0.04191   0.04506   0.04532   0.04660   0.05114
 Alpha virt. eigenvalues --    0.05954   0.06014   0.06617   0.06967   0.07320
 Alpha virt. eigenvalues --    0.07959   0.08098   0.08179   0.08401   0.08855
 Alpha virt. eigenvalues --    0.08912   0.09311   0.09748   0.10393   0.11127
 Alpha virt. eigenvalues --    0.11259   0.11959   0.12269   0.12497   0.12805
 Alpha virt. eigenvalues --    0.13208   0.13262   0.13801   0.14283   0.15795
 Alpha virt. eigenvalues --    0.16362   0.16891   0.17093   0.17287   0.18095
 Alpha virt. eigenvalues --    0.18227   0.18684   0.19245   0.19476   0.20185
 Alpha virt. eigenvalues --    0.21097   0.21397   0.22732   0.22830   0.23358
 Alpha virt. eigenvalues --    0.23860   0.24728   0.25348   0.26777   0.27633
 Alpha virt. eigenvalues --    0.28607   0.28851   0.29276   0.31445   0.35304
 Alpha virt. eigenvalues --    0.35672   0.37835   0.39038   0.41256   0.41629
 Alpha virt. eigenvalues --    0.41907   0.42120   0.43097   0.43685   0.44306
 Alpha virt. eigenvalues --    0.44675   0.44794   0.45729   0.46668   0.48036
 Alpha virt. eigenvalues --    0.48369   0.48700   0.48945   0.49399   0.50461
 Alpha virt. eigenvalues --    0.50486   0.51969   0.52051   0.53773   0.53799
 Alpha virt. eigenvalues --    0.53924   0.55524   0.55673   0.55984   0.57410
 Alpha virt. eigenvalues --    0.58091   0.59471   0.61291   0.61835   0.62363
 Alpha virt. eigenvalues --    0.62726   0.62768   0.64901   0.65258   0.67214
 Alpha virt. eigenvalues --    0.69843   0.70592   0.71228   0.72003   0.72416
 Alpha virt. eigenvalues --    0.75069   0.75319   0.75973   0.76589   0.77284
 Alpha virt. eigenvalues --    0.77733   0.77903   0.77984   0.79418   0.80381
 Alpha virt. eigenvalues --    0.81348   0.81810   0.82302   0.83681   0.84979
 Alpha virt. eigenvalues --    0.86068   0.87694   0.87748   0.88922   0.90157
 Alpha virt. eigenvalues --    0.90394   0.92103   0.93530   0.94551   0.95903
 Alpha virt. eigenvalues --    0.96198   0.97471   0.99999   1.01703   1.02185
 Alpha virt. eigenvalues --    1.02866   1.03154   1.03349   1.04246   1.07029
 Alpha virt. eigenvalues --    1.16874   1.22589   1.23028   1.26646   1.28166
 Alpha virt. eigenvalues --    1.30022   1.33387   1.33531   1.34335   1.35661
 Alpha virt. eigenvalues --    1.38525   1.39766   1.41213   1.41957   1.43370
 Alpha virt. eigenvalues --    1.43888   1.45493   1.45802   1.46345   1.47100
 Alpha virt. eigenvalues --    1.47680   1.48421   1.51009   1.53454   1.53637
 Alpha virt. eigenvalues --    1.55369   1.55551   1.55808   1.57708   1.61514
 Alpha virt. eigenvalues --    1.62636   1.63490   1.63872   1.65786   1.67384
 Alpha virt. eigenvalues --    1.68482   1.68847   1.71006   1.73032   1.74300
 Alpha virt. eigenvalues --    1.77444   1.77708   1.78818   1.80043   1.80681
 Alpha virt. eigenvalues --    1.81376   1.82267   1.82453   1.83175   1.83374
 Alpha virt. eigenvalues --    1.84265   1.85541   1.86737   1.88316   1.90751
 Alpha virt. eigenvalues --    1.93428   1.94520   1.96796   1.97300   1.98349
 Alpha virt. eigenvalues --    1.99859   2.01738   2.03555   2.07024   2.11242
 Alpha virt. eigenvalues --    2.13089   2.14441   2.15472   2.17673   2.21762
 Alpha virt. eigenvalues --    2.21951   2.26905   2.29238   2.33447   2.33679
 Alpha virt. eigenvalues --    2.35703   2.37766   2.39730   2.41009   2.43142
 Alpha virt. eigenvalues --    2.45971   2.46004   2.46305   2.50930   2.51809
 Alpha virt. eigenvalues --    2.54167   2.56055   2.58034   2.58749   2.59797
 Alpha virt. eigenvalues --    2.60084   2.61018   2.62097   2.62782   2.64048
 Alpha virt. eigenvalues --    2.64690   2.65394   2.65834   2.66669   2.68556
 Alpha virt. eigenvalues --    2.69090   2.70395   2.70899   2.72372   2.74810
 Alpha virt. eigenvalues --    2.76116   2.77415   2.79170   2.79804   2.83279
 Alpha virt. eigenvalues --    2.83642   2.86217   2.91844   2.98631   2.99689
 Alpha virt. eigenvalues --    3.02037   3.05532   3.06271   3.11854   3.13523
 Alpha virt. eigenvalues --    3.19608   3.23986   3.25613   3.27566   3.29408
 Alpha virt. eigenvalues --    3.31081   3.32624   3.42229   3.43745   3.44984
 Alpha virt. eigenvalues --    3.46588   3.47428   3.55521   3.65420   3.66679
 Alpha virt. eigenvalues --    3.68419   3.91235   3.93815   3.94946   3.96075
 Alpha virt. eigenvalues --    4.02199   4.04854   4.07550   4.11190   4.35976
 Alpha virt. eigenvalues --    4.58427   4.67607   4.69452  23.45656  23.60032
 Alpha virt. eigenvalues --   23.77816  23.84502  23.85579  23.87984  23.88624
 Alpha virt. eigenvalues --   23.92895  23.94233  23.96624  23.99172  24.00810
 Alpha virt. eigenvalues --   24.08337  24.10746
          Condensed to atoms (all electrons):
               1          2          3          4          5          6
     1  C   11.928357   0.636762  -1.056328   2.460153  -0.379319  -0.033731
     2  C    0.636762   6.578731   0.272523  -0.595951  -0.088047  -0.010303
     3  C   -1.056328   0.272523   7.227089   0.163279   0.055335   0.004271
     4  C    2.460153  -0.595951   0.163279   9.044321   0.435203  -0.033021
     5  C   -0.379319  -0.088047   0.055335   0.435203   9.275060   0.281267
     6  C   -0.033731  -0.010303   0.004271  -0.033021   0.281267   6.489645
     7  C   -0.110560   0.038538  -0.021945  -0.115598  -0.100507   0.257660
     8  C   -0.574439  -0.047540  -0.080812  -0.045751   2.013360  -0.942924
     9  C   -2.681351  -0.176716   0.184083  -1.526864  -1.259407   0.085002
    10  C    0.434511   0.218452  -0.880187  -0.377408  -0.218145  -0.302508
    11  C   -2.937889  -1.089541   1.102834  -3.538601  -1.680493  -0.096431
    12  C   -0.973279   0.488418  -0.195860   0.166201   1.298024  -0.340816
    13  C    0.016405  -0.067255  -0.372661  -0.985526  -3.956388   1.054254
    14  C   -0.962810  -0.137120  -0.313002   0.421841  -0.056334  -0.312464
    15  H    0.407039  -0.058192  -0.001669   0.032125   0.001655   0.000337
    16  H   -0.058421   0.386573  -0.001382  -0.020074  -0.001288  -0.000299
    17  H   -0.002642  -0.035422   0.387478  -0.040094  -0.000251   0.000299
    18  H    0.046715   0.005096  -0.116838   0.450867   0.012288  -0.003461
    19  H   -0.021797   0.002607   0.020211  -0.062598  -0.088168   0.030551
    20  H    0.004399   0.000367  -0.001543   0.017233   0.418716  -0.084141
    21  H   -0.002068  -0.000252   0.000382  -0.000720  -0.055280   0.394917
    22  H    0.001547   0.000416  -0.000416  -0.000574   0.001533  -0.013158
    23  H   -0.020393  -0.004325   0.001686   0.001861   0.030304   0.008997
    24  H    0.040000   0.013784  -0.003585  -0.012835  -0.020993   0.002349
    25  H    0.040000   0.013784  -0.003585  -0.012835  -0.020993   0.002349
               7          8          9         10         11         12
     1  C   -0.110560  -0.574439  -2.681351   0.434511  -2.937889  -0.973279
     2  C    0.038538  -0.047540  -0.176716   0.218452  -1.089541   0.488418
     3  C   -0.021945  -0.080812   0.184083  -0.880187   1.102834  -0.195860
     4  C   -0.115598  -0.045751  -1.526864  -0.377408  -3.538601   0.166201
     5  C   -0.100507   2.013360  -1.259407  -0.218145  -1.680493   1.298024
     6  C    0.257660  -0.942924   0.085002  -0.302508  -0.096431  -0.340816
     7  C    7.658118   1.214408  -0.833868   0.342780   0.011159  -0.262585
     8  C    1.214408  10.956538  -3.058530  -0.322019   0.091239  -1.261113
     9  C   -0.833868  -3.058530   9.637409   0.289617   2.587346   0.011466
    10  C    0.342780  -0.322019   0.289617   9.480064  -2.049150   0.342954
    11  C    0.011159   0.091239   2.587346  -2.049150  18.058946  -3.552618
    12  C   -0.262585  -1.261113   0.011466   0.342954  -3.552618  15.833638
    13  C   -2.387093  -1.806297   1.984993  -1.798705   3.600472  -5.136981
    14  C    0.419533  -0.691852   0.359075   0.441280  -4.155907  -0.598078
    15  H   -0.005344  -0.013931   0.027537   0.002150  -0.065368   0.040611
    16  H    0.000690   0.002987   0.008892  -0.014282   0.091495  -0.056194
    17  H   -0.000454  -0.002434  -0.001694   0.010160  -0.002553   0.036212
    18  H    0.002331   0.012093  -0.029917   0.067819  -0.034100  -0.088312
    19  H   -0.007779  -0.040046   0.059933   0.400716   0.069272  -0.122755
    20  H    0.000953   0.049421  -0.030760   0.023889  -0.006207   0.004559
    21  H   -0.038107  -0.015611   0.004726   0.010328  -0.005812  -0.000897
    22  H    0.371027  -0.028295  -0.001777  -0.012064   0.004791  -0.005430
    23  H   -0.095812   0.355779   0.056814  -0.000753  -0.027357   0.008011
    24  H    0.020688   0.045420   0.350026   0.005849   0.030827  -0.090328
    25  H    0.020688   0.045420   0.350026   0.005849   0.030827  -0.090328
              13         14         15         16         17         18
     1  C    0.016405  -0.962810   0.407039  -0.058421  -0.002642   0.046715
     2  C   -0.067255  -0.137120  -0.058192   0.386573  -0.035422   0.005096
     3  C   -0.372661  -0.313002  -0.001669  -0.001382   0.387478  -0.116838
     4  C   -0.985526   0.421841   0.032125  -0.020074  -0.040094   0.450867
     5  C   -3.956388  -0.056334   0.001655  -0.001288  -0.000251   0.012288
     6  C    1.054254  -0.312464   0.000337  -0.000299   0.000299  -0.003461
     7  C   -2.387093   0.419533  -0.005344   0.000690  -0.000454   0.002331
     8  C   -1.806297  -0.691852  -0.013931   0.002987  -0.002434   0.012093
     9  C    1.984993   0.359075   0.027537   0.008892  -0.001694  -0.029917
    10  C   -1.798705   0.441280   0.002150  -0.014282   0.010160   0.067819
    11  C    3.600472  -4.155907  -0.065368   0.091495  -0.002553  -0.034100
    12  C   -5.136981  -0.598078   0.040611  -0.056194   0.036212  -0.088312
    13  C   16.682298  -0.804647  -0.029222   0.007137  -0.008820   0.006461
    14  C   -0.804647  12.337350   0.003196  -0.009882   0.003622   0.005028
    15  H   -0.029222   0.003196   0.435561  -0.007871   0.001269   0.000173
    16  H    0.007137  -0.009882  -0.007871   0.415401  -0.006951   0.001855
    17  H   -0.008820   0.003622   0.001269  -0.006951   0.427582  -0.010848
    18  H    0.006461   0.005028   0.000173   0.001855  -0.010848   0.456862
    19  H    0.092144   0.029912  -0.000093  -0.000130   0.000372  -0.002312
    20  H   -0.007049  -0.064159  -0.000072   0.000013  -0.000079   0.000801
    21  H    0.026402   0.030163  -0.000019  -0.000006   0.000006  -0.000131
    22  H    0.049329  -0.034560  -0.000106   0.000011  -0.000008   0.000038
    23  H   -0.010071   0.014773   0.000470  -0.000200  -0.000003  -0.000141
    24  H    0.017669  -0.065199  -0.000482   0.000708  -0.000197   0.000226
    25  H    0.017669  -0.065199  -0.000482   0.000708  -0.000197   0.000226
              19         20         21         22         23         24
     1  C   -0.021797   0.004399  -0.002068   0.001547  -0.020393   0.040000
     2  C    0.002607   0.000367  -0.000252   0.000416  -0.004325   0.013784
     3  C    0.020211  -0.001543   0.000382  -0.000416   0.001686  -0.003585
     4  C   -0.062598   0.017233  -0.000720  -0.000574   0.001861  -0.012835
     5  C   -0.088168   0.418716  -0.055280   0.001533   0.030304  -0.020993
     6  C    0.030551  -0.084141   0.394917  -0.013158   0.008997   0.002349
     7  C   -0.007779   0.000953  -0.038107   0.371027  -0.095812   0.020688
     8  C   -0.040046   0.049421  -0.015611  -0.028295   0.355779   0.045420
     9  C    0.059933  -0.030760   0.004726  -0.001777   0.056814   0.350026
    10  C    0.400716   0.023889   0.010328  -0.012064  -0.000753   0.005849
    11  C    0.069272  -0.006207  -0.005812   0.004791  -0.027357   0.030827
    12  C   -0.122755   0.004559  -0.000897  -0.005430   0.008011  -0.090328
    13  C    0.092144  -0.007049   0.026402   0.049329  -0.010071   0.017669
    14  C    0.029912  -0.064159   0.030163  -0.034560   0.014773  -0.065199
    15  H   -0.000093  -0.000072  -0.000019  -0.000106   0.000470  -0.000482
    16  H   -0.000130   0.000013  -0.000006   0.000011  -0.000200   0.000708
    17  H    0.000372  -0.000079   0.000006  -0.000008  -0.000003  -0.000197
    18  H   -0.002312   0.000801  -0.000131   0.000038  -0.000141   0.000226
    19  H    0.417907  -0.004615   0.000938  -0.000389   0.000179   0.000990
    20  H   -0.004615   0.434939  -0.008932   0.001842  -0.000070   0.000143
    21  H    0.000938  -0.008932   0.422205  -0.005858   0.001164  -0.000075
    22  H   -0.000389   0.001842  -0.005858   0.414964  -0.009049   0.000499
    23  H    0.000179  -0.000070   0.001164  -0.009049   0.449270  -0.002483
    24  H    0.000990   0.000143  -0.000075   0.000499  -0.002483   0.500778
    25  H    0.000990   0.000143  -0.000075   0.000499  -0.002483  -0.082868
              25
     1  C    0.040000
     2  C    0.013784
     3  C   -0.003585
     4  C   -0.012835
     5  C   -0.020993
     6  C    0.002349
     7  C    0.020688
     8  C    0.045420
     9  C    0.350026
    10  C    0.005849
    11  C    0.030827
    12  C   -0.090328
    13  C    0.017669
    14  C   -0.065199
    15  H   -0.000482
    16  H    0.000708
    17  H   -0.000197
    18  H    0.000226
    19  H    0.000990
    20  H    0.000143
    21  H   -0.000075
    22  H    0.000499
    23  H   -0.002483
    24  H   -0.082868
    25  H    0.500778
 Mulliken charges:
               1
     1  C   -0.200859
     2  C   -0.345388
     3  C   -0.369357
     4  C    0.175365
     5  C    0.102869
     6  C   -0.438641
     7  C   -0.378923
     8  C    0.144927
     9  C   -0.396061
    10  C   -0.101198
    11  C   -0.437179
    12  C    0.545481
    13  C   -0.184519
    14  C    0.205438
    15  H    0.230727
    16  H    0.260510
    17  H    0.245646
    18  H    0.217184
    19  H    0.223960
    20  H    0.250208
    21  H    0.242613
    22  H    0.265187
    23  H    0.243831
    24  H    0.249089
    25  H    0.249089
 Sum of Mulliken charges =   1.00000
 Mulliken charges with hydrogens summed into heavy atoms:
               1
     1  C    0.029868
     2  C   -0.084877
     3  C   -0.123711
     4  C    0.392549
     5  C    0.353077
     6  C   -0.196028
     7  C   -0.113736
     8  C    0.388758
     9  C    0.102117
    10  C    0.122762
    11  C   -0.437179
    12  C    0.545481
    13  C   -0.184519
    14  C    0.205438
 Electronic spatial extent (au):  <R**2>=           2855.2310
 Charge=              1.0000 electrons
 Dipole moment (field-independent basis, Debye):
    X=              0.0846    Y=             -0.0428    Z=             -0.0000  Tot=              0.0949
 Quadrupole moment (field-independent basis, Debye-Ang):
   XX=            -52.4905   YY=            -35.2561   ZZ=            -84.3857
   XY=              8.4241   XZ=             -0.0000   YZ=             -0.0000
 Traceless Quadrupole moment (field-independent basis, Debye-Ang):
   XX=              4.8869   YY=             22.1213   ZZ=            -27.0083
   XY=              8.4241   XZ=             -0.0000   YZ=             -0.0000
 Octapole moment (field-independent basis, Debye-Ang**2):
  XXX=              1.4400  YYY=              8.6805  ZZZ=              0.0000  XYY=             -3.6954
  XXY=             -6.9833  XXZ=              0.0000  XZZ=             -3.2907  YZZ=              0.7903
  YYZ=              0.0000  XYZ=              0.0000
 Hexadecapole moment (field-independent basis, Debye-Ang**3):
 XXXX=           -865.9407 YYYY=          -1946.3184 ZZZZ=            -99.9113 XXXY=           -304.4029
 XXXZ=             -0.0000 YYYX=           -230.2285 YYYZ=             -0.0000 ZZZX=             -0.0000
 ZZZY=             -0.0000 XXYY=           -468.2649 XXZZ=           -212.7604 YYZZ=           -527.2313
 XXYZ=              0.0000 YYXZ=              0.0000 ZZXY=           -157.3713
 N-N= 7.804092795936D+02 E-N=-2.796950369073D+03  KE= 5.372901461078D+02
 Symmetry A'   KE= 5.226516108268D+02
 Symmetry A"   KE= 1.463853528102D+01
 Unable to Open any file for archive entry.
 1\1\GINC-GADI-CPU-CLX-0359\SP\RM062X TD-FC\6-311++G(d,p)\C14H11(1+)\TS
 1578\02-Aug-2022\0\\#n M062X/6-311++G(d,p) TD(NStates=1) EmpiricalDisp
 ersion=GD3 SP\\SP_4\\1,1\C,0,0.,2.440655,1.420431\C,0,0.,3.673508,0.78
 7989\C,0,0.,3.691861,-0.60183\C,0,0.,2.511156,-1.355538\C,0,0.,-2.6071
 56,-1.427538\C,0,0.,-3.755861,-0.55383\C,0,0.,-3.633508,0.827989\C,0,0
 .,-2.336655,1.332431\C,0,0.,-0.016,1.333369\C,0,0.,0.024,-1.549189\C,0
 ,0.,1.262055,0.657065\C,0,0.,1.237471,-0.758804\C,0,0.,-1.214055,0.489
 065\C,0,0.,-1.269471,-0.910804\H,0,0.,2.364071,2.503647\H,0,0.,4.59675
 3,1.351689\H,0,0.,4.633262,-1.124349\H,0,0.,2.57955,-2.438059\H,0,0.,0
 .124,-2.638266\H,0,0.,-2.78755,-2.510059\H,0,0.,-4.745262,-1.004349\H,
 0,0.,-4.500753,1.487689\H,0,0.,-2.148071,2.415647\H,0,-0.859585,-0.096
 ,2.025787\H,0,0.859585,-0.096,2.025787\\Version=ES64L-G16RevC.01\State
 =1-A'\HF=-539.7324854\RMSD=8.168e-09\PG=CS [SG(C14H9),X(H2)]\\@
 The archive entry for this job was punched.


 THE WHOLE OF SCIENCE IS NOTHING MORE THAN A REFINEMENT OF EVERYDAY THINKING.
                                                              -- A. EINSTEIN
 Job cpu time:       0 days  0 hours 51 minutes 55.1 seconds.
 Elapsed time:       0 days  0 hours  1 minutes  5.0 seconds.
 File lengths (MBytes):  RWF=    460 Int=      0 D2E=      0 Chk=     15 Scr=      1
 Normal termination of Gaussian 16 at Tue Aug  2 13:11:22 2022.
