 Entering Gaussian System, Link 0=g16
 Initial command:
 /apps/gaussian/g16c01/g16/l1.exe "/jobfs/53803768.gadi-pbs/Gau-169338.inp" -scrdir="/jobfs/53803768.gadi-pbs/"
 Entering Link 1 = /apps/gaussian/g16c01/g16/l1.exe PID=    169339.
  
 Copyright (c) 1988-2019, Gaussian, Inc.  All Rights Reserved.
  
 This is part of the Gaussian(R) 16 program.  It is based on
 the Gaussian(R) 09 system (copyright 2009, Gaussian, Inc.),
 the Gaussian(R) 03 system (copyright 2003, Gaussian, Inc.),
 the Gaussian(R) 98 system (copyright 1998, Gaussian, Inc.),
 the Gaussian(R) 94 system (copyright 1995, Gaussian, Inc.),
 the Gaussian 92(TM) system (copyright 1992, Gaussian, Inc.),
 the Gaussian 90(TM) system (copyright 1990, Gaussian, Inc.),
 the Gaussian 88(TM) system (copyright 1988, Gaussian, Inc.),
 the Gaussian 86(TM) system (copyright 1986, Carnegie Mellon
 University), and the Gaussian 82(TM) system (copyright 1983,
 Carnegie Mellon University). Gaussian is a federally registered
 trademark of Gaussian, Inc.
  
 This software contains proprietary and confidential information,
 including trade secrets, belonging to Gaussian, Inc.
  
 This software is provided under written license and may be
 used, copied, transmitted, or stored only in accord with that
 written license.
  
 The following legend is applicable only to US Government
 contracts under FAR:
  
                    RESTRICTED RIGHTS LEGEND
  
 Use, reproduction and disclosure by the US Government is
 subject to restrictions as set forth in subparagraphs (a)
 and (c) of the Commercial Computer Software - Restricted
 Rights clause in FAR 52.227-19.
  
 Gaussian, Inc.
 340 Quinnipiac St., Bldg. 40, Wallingford CT 06492
  
  
 ---------------------------------------------------------------
 Warning -- This program may not be used in any manner that
 competes with the business of Gaussian, Inc. or will provide
 assistance to any competitor of Gaussian, Inc.  The licensee
 of this program is prohibited from giving any competitor of
 Gaussian, Inc. access to this program.  By using this program,
 the user acknowledges that Gaussian, Inc. is engaged in the
 business of creating and licensing software in the field of
 computational chemistry and represents and warrants to the
 licensee that it is not a competitor of Gaussian, Inc. and that
 it will not use this program in any manner prohibited above.
 ---------------------------------------------------------------
  

 Cite this work as:
 Gaussian 16, Revision C.01,
 M. J. Frisch, G. W. Trucks, H. B. Schlegel, G. E. Scuseria, 
 M. A. Robb, J. R. Cheeseman, G. Scalmani, V. Barone, 
 G. A. Petersson, H. Nakatsuji, X. Li, M. Caricato, A. V. Marenich, 
 J. Bloino, B. G. Janesko, R. Gomperts, B. Mennucci, H. P. Hratchian, 
 J. V. Ortiz, A. F. Izmaylov, J. L. Sonnenberg, D. Williams-Young, 
 F. Ding, F. Lipparini, F. Egidi, J. Goings, B. Peng, A. Petrone, 
 T. Henderson, D. Ranasinghe, V. G. Zakrzewski, J. Gao, N. Rega, 
 G. Zheng, W. Liang, M. Hada, M. Ehara, K. Toyota, R. Fukuda, 
 J. Hasegawa, M. Ishida, T. Nakajima, Y. Honda, O. Kitao, H. Nakai, 
 T. Vreven, K. Throssell, J. A. Montgomery, Jr., J. E. Peralta, 
 F. Ogliaro, M. J. Bearpark, J. J. Heyd, E. N. Brothers, K. N. Kudin, 
 V. N. Staroverov, T. A. Keith, R. Kobayashi, J. Normand, 
 K. Raghavachari, A. P. Rendell, J. C. Burant, S. S. Iyengar, 
 J. Tomasi, M. Cossi, J. M. Millam, M. Klene, C. Adamo, R. Cammi, 
 J. W. Ochterski, R. L. Martin, K. Morokuma, O. Farkas, 
 J. B. Foresman, and D. J. Fox, Gaussian, Inc., Wallingford CT, 2019.
 
 ******************************************
 Gaussian 16:  ES64L-G16RevC.01  3-Jul-2019
                 2-Aug-2022 
 ******************************************
 %NProcShared=48
 Will use up to   48 processors via shared memory.
 %mem = 190GB
 ---------------------------------------------------------------
 #n M062X/6-311++G(d,p) TD(NStates=1) EmpiricalDispersion=GD3 SP
 ---------------------------------------------------------------
 1/38=1,172=1/1;
 2/12=2,17=6,18=5,40=1/2;
 3/5=4,6=6,7=1111,11=9,25=1,30=1,74=-55,124=31/1,2,3,8;
 4//1;
 5/5=2,38=5/2;
 8/6=1,10=2,108=1/1;
 9/41=1,42=1,70=2/14;
 6/7=2,8=2,9=2,10=2/1;
 99/5=1,9=1/99;
 -----
 SP_-8
 -----
 Symbolic Z-matrix:
 Charge =  1 Multiplicity = 1
 C                     0.        2.36266   1.27643 
 C                     0.        3.64951   0.74599 
 C                     0.        3.75786  -0.63183 
 C                     0.        2.58316  -1.47554 
 C                     0.       -2.39116  -1.33154 
 C                     0.       -3.62986  -0.72783 
 C                     0.       -3.72951   0.66599 
 C                     0.       -2.57066   1.45243 
 C                     0.        0.032     1.42337 
 C                     0.       -0.048    -1.45919 
 C                     0.        1.20806   0.48307 
 C                     0.        1.27347  -0.9088 
 C                     0.       -1.30406   0.81907 
 C                     0.       -1.20947  -0.6048 
 H                     0.        2.21407   2.35965 
 H                     0.        4.51875   1.39969 
 H                     0.        4.74126  -1.10035 
 H                     0.        2.72955  -2.55806 
 H                     0.       -0.248    -2.54227 
 H                     0.       -2.31355  -2.41406 
 H                     0.       -4.51726  -1.34035 
 H                     0.       -4.71075   1.12769 
 H                     0.       -2.64607   2.53565 
 H                    -0.85959   0.192     2.11579 
 H                     0.85959   0.192     2.11579 
 
                          Input orientation:                          
 ---------------------------------------------------------------------
 Center     Atomic      Atomic             Coordinates (Angstroms)
 Number     Number       Type             X           Y           Z
 ---------------------------------------------------------------------
      1          6           0        0.000000    2.362655    1.276431
      2          6           0        0.000000    3.649508    0.745989
      3          6           0        0.000000    3.757861   -0.631830
      4          6           0        0.000000    2.583156   -1.475538
      5          6           0        0.000000   -2.391156   -1.331538
      6          6           0        0.000000   -3.629861   -0.727830
      7          6           0        0.000000   -3.729508    0.665989
      8          6           0        0.000000   -2.570655    1.452431
      9          6           0        0.000000    0.032000    1.423369
     10          6           0        0.000000   -0.048000   -1.459189
     11          6           0        0.000000    1.208055    0.483065
     12          6           0        0.000000    1.273471   -0.908804
     13          6           0        0.000000   -1.304055    0.819065
     14          6           0        0.000000   -1.209471   -0.604804
     15          1           0        0.000000    2.214071    2.359647
     16          1           0        0.000000    4.518753    1.399689
     17          1           0        0.000000    4.741262   -1.100349
     18          1           0        0.000000    2.729550   -2.558059
     19          1           0        0.000000   -0.248000   -2.542266
     20          1           0        0.000000   -2.313550   -2.414059
     21          1           0        0.000000   -4.517262   -1.340349
     22          1           0        0.000000   -4.710753    1.127689
     23          1           0        0.000000   -2.646071    2.535647
     24          1           0       -0.859585    0.192000    2.115787
     25          1           0        0.859585    0.192000    2.115787
 ---------------------------------------------------------------------
                    Distance matrix (angstroms):
                    1          2          3          4          5
     1  C    0.000000
     2  C    1.391891   0.000000
     3  C    2.363908   1.382073   0.000000
     4  C    2.760789   2.464201   1.446297   0.000000
     5  C    5.422197   6.387937   6.188699   4.976396   0.000000
     6  C    6.318806   7.427069   7.388346   6.257847   1.377989
     7  C    6.122670   7.379450   7.599015   6.666023   2.404433
     8  C    4.936448   6.260151   6.662902   5.927459   2.789750
     9  C    2.335282   3.680381   4.255101   3.861613   3.668950
    10  C    3.646214   4.305157   3.894753   2.631207   2.346631
    11  C    1.400904   2.455570   2.782894   2.393121   4.030770
    12  C    2.441633   2.895495   2.499782   1.427047   3.688929
    13  C    3.695125   4.954102   5.265747   4.513935   2.409747
    14  C    4.037218   5.043245   4.967406   3.891298   1.387271
    15  H    1.093359   2.159716   3.366337   3.852904   5.901946
    16  H    2.159618   1.087617   2.169338   3.466045   7.430104
    17  H    3.362567   2.144969   1.089306   2.190477   7.136164
    18  H    3.852003   3.429731   2.183525   1.092375   5.265547
    19  H    4.625794   5.099332   4.438095   3.025451   2.461500
    20  H    5.957064   6.748627   6.327588   4.985835   1.085299
    21  H    7.360761   8.429053   8.305399   7.101705   2.126124
    22  H    7.074972   8.368970   8.649470   7.744540   3.380581
    23  H    5.164587   6.545013   7.144456   6.590480   3.875578
    24  H    2.480957   3.817014   4.582974   4.399333   4.392679
    25  H    2.480957   3.817014   4.582974   4.399333   4.392679
                    6          7          8          9         10
     6  C    0.000000
     7  C    1.397376   0.000000
     8  C    2.423934   1.400511   0.000000
     9  C    4.246985   3.837000   2.602817   0.000000
    10  C    3.655765   4.250868   3.852443   2.883668   0.000000
    11  C    4.987153   4.940950   3.901066   1.505748   2.313012
    12  C    4.906671   5.244976   4.511401   2.642022   1.431506
    13  C    2.793252   2.430279   1.416131   1.466365   2.601560
    14  C    2.423515   2.822322   2.466787   2.377969   1.441870
    15  H    6.609391   6.180179   4.869974   2.374458   4.438522
    16  H    8.421772   8.280829   7.089604   4.486815   5.387803
    17  H    8.379408   8.652970   7.744728   5.342874   4.802686
    18  H    6.617541   7.218997   6.646518   4.809215   2.987022
    19  H    3.837859   4.734321   4.620858   3.975508   1.101388
    20  H    2.139169   3.389931   3.875029   4.497495   2.458555
    21  H    1.078267   2.155446   3.404247   5.322962   4.470842
    22  H    2.147389   1.084439   2.164596   4.751961   5.332279
    23  H    3.408537   2.160893   1.085838   2.899867   4.765363
    24  H    4.840627   4.268375   2.968365   1.115316   3.684690
    25  H    4.840627   4.268375   2.968365   1.115316   3.684690
                   11         12         13         14         15
    11  C    0.000000
    12  C    1.393405   0.000000
    13  C    2.534481   3.103091   0.000000
    14  C    2.651017   2.501483   1.427007   0.000000
    15  H    2.129232   3.401103   3.840651   4.528643   0.000000
    16  H    3.435247   3.982586   5.851685   6.068817   2.496613
    17  H    3.871789   3.473077   6.342713   5.971331   4.284655
    18  H    3.400497   2.200047   5.260697   4.396714   4.944649
    19  H    3.357488   2.232280   3.523322   2.162911   5.485485
    20  H    4.560157   3.890053   3.387059   2.119527   6.579333
    21  H    6.008668   5.806791   3.871404   3.388585   7.681199
    22  H    5.953808   6.321253   3.420649   3.906470   7.033556
    23  H    4.366621   5.217955   2.178913   3.453441   4.863328
    24  H    2.106427   3.325149   2.158369   3.178777   2.210684
    25  H    2.106427   3.325149   2.158369   3.178777   2.210684
                   16         17         18         19         20
    16  H    0.000000
    17  H    2.509920   0.000000
    18  H    4.343388   2.484332   0.000000
    19  H    6.185543   5.193444   2.977592   0.000000
    20  H    7.824643   7.176086   5.045155   2.069525   0.000000
    21  H    9.442318   9.261634   7.348408   4.435223   2.451367
    22  H    9.233513   9.711063   8.303183   5.777952   4.276747
    23  H    7.254316   8.233660   7.405616   5.615687   4.960863
    24  H    4.469057   5.637216   5.387289   4.757094   5.247492
    25  H    4.469057   5.637216   5.387289   4.757094   5.247492
                   21         22         23         24         25
    21  H    0.000000
    22  H    2.475611   0.000000
    23  H    4.304033   2.499051   0.000000
    24  H    5.904313   5.074664   2.994965   0.000000
    25  H    5.904313   5.074664   2.994965   1.719170   0.000000
 Stoichiometry    C14H11(1+)
 Framework group  CS[SG(C14H9),X(H2)]
 Deg. of freedom    46
 Full point group                 CS      NOp   2
 Largest Abelian subgroup         CS      NOp   2
 Largest concise Abelian subgroup CS      NOp   2
                         Standard orientation:                         
 ---------------------------------------------------------------------
 Center     Atomic      Atomic             Coordinates (Angstroms)
 Number     Number       Type             X           Y           Z
 ---------------------------------------------------------------------
      1          6           0        0.308354    2.666821    0.000000
      2          6           0       -0.661681    3.665016    0.000000
      3          6           0       -1.981357    3.254431    0.000000
      4          6           0       -2.329000    1.850537    0.000000
      5          6           0       -0.349688   -2.715297    0.000000
      6          6           0        0.670518   -3.641597    0.000000
      7          6           0        2.001823   -3.216991    0.000000
      8          6           0        2.302168   -1.849065    0.000000
      9          6           0        1.309533    0.557038    0.000000
     10          6           0       -1.337595   -0.586750    0.000000
     11          6           0        0.000000    1.300275    0.000000
     12          6           0       -1.316793    0.844605    0.000000
     13          6           0        1.244071   -0.907865    0.000000
     14          6           0       -0.113260   -1.348321    0.000000
     15          1           0        1.369381    2.930742    0.000000
     16          1           0       -0.377151    4.714756    0.000000
     17          1           0       -2.781300    3.993808    0.000000
     18          1           0       -3.388570    1.584840    0.000000
     19          1           0       -2.269161   -1.174322    0.000000
     20          1           0       -1.383736   -3.044872    0.000000
     21          1           0        0.430966   -4.692918    0.000000
     22          1           0        2.794634   -3.956896    0.000000
     23          1           0        3.336049   -1.517198    0.000000
     24          1           0        1.893165    0.962522    0.859585
     25          1           0        1.893165    0.962522   -0.859585
 ---------------------------------------------------------------------
 Rotational constants (GHZ):           2.1245205           0.4443481           0.3682850
 Standard basis: 6-311++G(d,p) (5D, 7F)
 There are   299 symmetry adapted cartesian basis functions of A'  symmetry.
 There are   100 symmetry adapted cartesian basis functions of A"  symmetry.
 There are   285 symmetry adapted basis functions of A'  symmetry.
 There are   100 symmetry adapted basis functions of A"  symmetry.
   385 basis functions,   603 primitive gaussians,   399 cartesian basis functions
    47 alpha electrons       47 beta electrons
       nuclear repulsion energy       779.9180044141 Hartrees.
 NAtoms=   25 NActive=   25 NUniq=   24 SFac= 1.09D+00 NAtFMM=   60 NAOKFM=F Big=F
 Integral buffers will be    131072 words long.
 Regular integral format.
 Two-electron integral symmetry is turned on.
 Nuclear repulsion after empirical dispersion term =      779.9170268425 Hartrees.
 One-electron integrals computed using PRISM.
 NBasis=   385 RedAO= T EigKep=  1.71D-06  NBF=   285   100
 NBsUse=   378 1.00D-06 EigRej=  9.89D-07 NBFU=   278   100
 ExpMin= 3.60D-02 ExpMax= 4.56D+03 ExpMxC= 6.82D+02 IAcc=3 IRadAn=         5 AccDes= 0.00D+00
 Harris functional with IExCor= 1009 and IRadAn=       5 diagonalized for initial guess.
 HarFok:  IExCor= 1009 AccDes= 0.00D+00 IRadAn=         5 IDoV= 1 UseB2=F ITyADJ=14
 ICtDFT=  3500011 ScaDFX=  1.000000  1.000000  1.000000  1.000000
 FoFCou: FMM=F IPFlag=           0 FMFlag=      100000 FMFlg1=           0
         NFxFlg=           0 DoJE=T BraDBF=F KetDBF=T FulRan=T
         wScrn=  0.000000 ICntrl=       500 IOpCl=  0 I1Cent=   200000004 NGrid=           0
         NMat0=    1 NMatS0=      1 NMatT0=    0 NMatD0=    1 NMtDS0=    0 NMtDT0=    0
 Petite list used in FoFCou.
 Initial guess orbital symmetries:
       Occupied  (A') (A') (A') (A') (A') (A') (A') (A') (A') (A')
                 (A') (A') (A') (A') (A') (A') (A') (A') (A') (A')
                 (A') (A') (A') (A') (A') (A') (A') (A') (A') (A')
                 (A') (A') (A") (A') (A') (A') (A') (A') (A") (A')
                 (A") (A') (A') (A") (A") (A") (A")
       Virtual   (A") (A") (A") (A") (A") (A') (A') (A') (A') (A")
                 (A") (A') (A') (A') (A") (A') (A') (A') (A') (A")
                 (A') (A") (A') (A') (A') (A") (A') (A") (A') (A')
                 (A') (A') (A') (A') (A") (A') (A') (A") (A') (A')
                 (A") (A') (A') (A") (A') (A') (A') (A') (A') (A")
                 (A') (A") (A') (A') (A") (A') (A') (A") (A") (A')
                 (A') (A') (A') (A') (A') (A") (A') (A') (A') (A")
                 (A') (A') (A') (A') (A') (A') (A') (A') (A') (A')
                 (A') (A') (A') (A') (A') (A') (A') (A') (A') (A')
                 (A') (A') (A') (A') (A') (A') (A') (A") (A") (A')
                 (A') (A") (A') (A") (A') (A") (A') (A") (A') (A")
                 (A') (A") (A") (A') (A') (A") (A') (A") (A") (A')
                 (A") (A') (A') (A') (A') (A") (A') (A') (A") (A')
                 (A') (A') (A') (A') (A') (A') (A") (A') (A') (A')
                 (A') (A') (A') (A') (A') (A') (A') (A') (A") (A")
                 (A') (A") (A') (A") (A') (A') (A") (A") (A') (A')
                 (A") (A') (A") (A") (A") (A') (A') (A') (A') (A')
                 (A") (A') (A') (A") (A') (A') (A') (A') (A") (A')
                 (A') (A') (A") (A') (A") (A') (A") (A') (A") (A")
                 (A') (A') (A') (A") (A') (A') (A') (A") (A') (A")
                 (A") (A") (A') (A") (A") (A') (A') (A') (A') (A')
                 (A") (A") (A") (A') (A') (A') (A") (A") (A') (A')
                 (A') (A') (A') (A") (A') (A') (A") (A") (A') (A')
                 (A') (A') (A") (A') (A') (A") (A') (A") (A") (A')
                 (A') (A') (A') (A") (A') (A') (A') (A') (A') (A")
                 (A') (A') (A") (A") (A') (A') (A") (A') (A') (A')
                 (A") (A') (A') (A") (A') (A') (A") (A') (A') (A")
                 (A') (A') (A") (A') (A") (A') (A") (A') (A') (A')
                 (A") (A") (A") (A") (A') (A') (A') (A') (A') (A')
                 (A') (A') (A') (A') (A') (A') (A') (A') (A') (A')
                 (A') (A') (A") (A') (A') (A') (A') (A') (A') (A')
                 (A') (A') (A') (A') (A') (A') (A') (A') (A') (A')
                 (A') (A') (A') (A') (A') (A') (A') (A') (A') (A')
                 (A')
 The electronic state of the initial guess is 1-A'.
 Requested convergence on RMS density matrix=1.00D-08 within 128 cycles.
 Requested convergence on MAX density matrix=1.00D-06.
 Requested convergence on             energy=1.00D-06.
 No special actions if energy rises.
 SCF Done:  E(RM062X) =  -539.725620295     A.U. after   15 cycles
            NFock= 15  Conv=0.49D-08     -V/T= 2.0046
 DoSCS=F DFT=T ScalE2(SS,OS)=  1.000000  1.000000
 ExpMin= 3.60D-02 ExpMax= 4.56D+03 ExpMxC= 6.82D+02 IAcc=3 IRadAn=         5 AccDes= 0.00D+00
 HarFok:  IExCor=  205 AccDes= 0.00D+00 IRadAn=         5 IDoV=-2 UseB2=F ITyADJ=14
 ICtDFT= 12500011 ScaDFX=  1.000000  1.000000  1.000000  1.000000
 Range of M.O.s used for correlation:    15   378
 NBasis=   385 NAE=    47 NBE=    47 NFC=    14 NFV=     0
 NROrb=    364 NOA=    33 NOB=    33 NVA=   331 NVB=   331

 **** Warning!!: The largest alpha MO coefficient is  0.19932176D+03

 Orbital symmetries:
       Occupied  (A') (A') (A') (A') (A') (A') (A') (A') (A') (A')
                 (A') (A') (A') (A') (A') (A') (A') (A') (A') (A')
                 (A') (A') (A') (A') (A') (A') (A') (A') (A') (A')
                 (A') (A") (A') (A') (A') (A') (A') (A") (A") (A')
                 (A') (A') (A') (A") (A") (A") (A")
       Virtual   (A") (A") (A") (A") (A') (A') (A') (A") (A') (A')
                 (A') (A") (A') (A') (A") (A') (A") (A') (A') (A')
                 (A") (A") (A') (A') (A') (A") (A') (A") (A') (A')
                 (A") (A") (A') (A') (A') (A') (A') (A") (A') (A')
                 (A") (A') (A') (A") (A") (A') (A") (A') (A") (A')
                 (A') (A') (A') (A') (A") (A') (A') (A') (A') (A')
                 (A") (A') (A') (A') (A') (A') (A") (A') (A') (A')
                 (A') (A') (A') (A') (A') (A') (A') (A') (A') (A')
                 (A') (A') (A') (A') (A') (A') (A') (A') (A') (A')
                 (A') (A') (A') (A') (A") (A") (A") (A') (A') (A")
                 (A') (A') (A') (A") (A') (A") (A') (A") (A") (A')
                 (A') (A') (A") (A") (A') (A") (A') (A') (A") (A")
                 (A') (A") (A') (A') (A') (A") (A') (A') (A') (A')
                 (A') (A') (A') (A') (A') (A') (A') (A') (A') (A')
                 (A') (A') (A") (A') (A') (A') (A') (A') (A') (A')
                 (A') (A") (A') (A") (A') (A") (A") (A') (A') (A")
                 (A") (A') (A') (A") (A') (A") (A") (A") (A') (A')
                 (A') (A') (A") (A") (A') (A') (A') (A") (A') (A')
                 (A') (A") (A') (A") (A') (A') (A') (A") (A") (A")
                 (A') (A') (A') (A") (A') (A') (A") (A') (A") (A')
                 (A") (A") (A') (A") (A") (A') (A') (A') (A') (A')
                 (A") (A') (A") (A") (A') (A') (A") (A') (A") (A')
                 (A') (A') (A') (A") (A') (A') (A") (A") (A') (A')
                 (A') (A") (A') (A') (A') (A') (A") (A") (A') (A")
                 (A') (A') (A") (A') (A') (A') (A') (A') (A') (A')
                 (A") (A') (A') (A') (A") (A') (A") (A") (A') (A')
                 (A') (A') (A') (A') (A") (A') (A') (A') (A') (A')
                 (A") (A") (A') (A") (A") (A') (A') (A") (A') (A")
                 (A") (A") (A") (A") (A') (A') (A') (A') (A') (A')
                 (A') (A') (A') (A') (A') (A') (A') (A') (A') (A')
                 (A') (A') (A") (A') (A') (A') (A') (A') (A') (A')
                 (A') (A') (A') (A') (A') (A') (A') (A') (A') (A')
                 (A') (A') (A') (A') (A') (A') (A') (A') (A') (A')
                 (A')
     4 initial guesses have been made.
 Convergence on wavefunction:    0.001000000000000
 Iteration     1 Dimension     4 NMult     0 NNew      4
 CISAX will form     4 AO SS matrices at one time.
 Iteration     2 Dimension     6 NMult     4 NNew      2
 Iteration     3 Dimension     8 NMult     6 NNew      2
 Iteration     4 Dimension    10 NMult     8 NNew      2
 Iteration     5 Dimension    12 NMult    10 NNew      2
 Iteration     6 Dimension    14 NMult    12 NNew      2
 ***********************************************************************
 Excited states from <AA,BB:AA,BB> singles matrix:
 ***********************************************************************
 
 Ground to excited state transition densities written to RWF  633
 Ground to excited state transition electric dipole moments (Au):
       state          X           Y           Z        Dip. S.      Osc.
         1        -0.6568     -0.0210     -0.0000      0.4318      0.0287
 Ground to excited state transition velocity dipole moments (Au):
       state          X           Y           Z        Dip. S.      Osc.
         1         0.0742      0.0019     -0.0000      0.0055      0.0369
 Ground to excited state transition magnetic dipole moments (Au):
       state          X           Y           Z
         1         0.0000      0.0000      0.0233
 Ground to excited state transition velocity quadrupole moments (Au):
       state          XX          YY          ZZ          XY          XZ          YZ
         1        -0.1212     -0.2038      0.0087      0.1355     -0.0000      0.0000
 <0|del|b> * <b|rxdel|0> + <0|del|b> * <b|delr+rdel|0>
 Rotatory Strengths (R) in cgs (10**-40 erg-esu-cm/Gauss)
       state          XX          YY          ZZ    R(velocity)    E-M Angle
         1        -0.0000      0.0000     -0.0000      0.0000       90.00
 1/2[<0|r|b>*<b|rxdel|0> + (<0|rxdel|b>*<b|r|0>)*]
 Rotatory Strengths (R) in cgs (10**-40 erg-esu-cm/Gauss)
       state          XX          YY          ZZ     R(length)
         1         0.0000      0.0000      0.0000      0.0000
  1/2[<0|del|b>*<b|r|0> + (<0|r|b>*<b|del|0>)*] (Au)
       state          X           Y           Z        Dip. S.   Osc.(frdel)
         1        -0.0488     -0.0000      0.0000      0.0488      0.0325

 Excitation energies and oscillator strengths:
 
 Excited State   1:      Singlet-A'     2.7116 eV  457.24 nm  f=0.0287  <S**2>=0.000
      47 -> 48         0.70422
 This state for optimization and/or second-order correction.
 Total Energy, E(TD-HF/TD-DFT) =  -539.625971151    
 Copying the excited state density for this state as the 1-particle RhoCI density.
 SavETr:  write IOETrn=   770 NScale= 10 NData=  16 NLR=1 NState=    1 LETran=      28.

 **********************************************************************

            Population analysis using the SCF Density.

 **********************************************************************

 Orbital symmetries:
       Occupied  (A') (A') (A') (A') (A') (A') (A') (A') (A') (A')
                 (A') (A') (A') (A') (A') (A') (A') (A') (A') (A')
                 (A') (A') (A') (A') (A') (A') (A') (A') (A') (A')
                 (A') (A") (A') (A') (A') (A') (A') (A") (A") (A')
                 (A') (A') (A') (A") (A") (A") (A")
       Virtual   (A") (A") (A") (A") (A') (A') (A') (A") (A') (A')
                 (A') (A") (A') (A') (A") (A') (A") (A') (A') (A')
                 (A") (A") (A') (A') (A') (A") (A') (A") (A') (A')
                 (A") (A") (A') (A') (A') (A') (A') (A") (A') (A')
                 (A") (A') (A') (A") (A") (A') (A") (A') (A") (A')
                 (A') (A') (A') (A') (A") (A') (A') (A') (A') (A')
                 (A") (A') (A') (A') (A') (A') (A") (A') (A') (A')
                 (A') (A') (A') (A') (A') (A') (A') (A') (A') (A')
                 (A') (A') (A') (A') (A') (A') (A') (A') (A') (A')
                 (A') (A') (A') (A') (A") (A") (A") (A') (A') (A")
                 (A') (A') (A') (A") (A') (A") (A') (A") (A") (A')
                 (A') (A') (A") (A") (A') (A") (A') (A') (A") (A")
                 (A') (A") (A') (A') (A') (A") (A') (A') (A') (A')
                 (A') (A') (A') (A') (A') (A') (A') (A') (A') (A')
                 (A') (A') (A") (A') (A') (A') (A') (A') (A') (A')
                 (A') (A") (A') (A") (A') (A") (A") (A') (A') (A")
                 (A") (A') (A') (A") (A') (A") (A") (A") (A') (A')
                 (A') (A') (A") (A") (A') (A') (A') (A") (A') (A')
                 (A') (A") (A') (A") (A') (A') (A') (A") (A") (A")
                 (A') (A') (A') (A") (A') (A') (A") (A') (A") (A')
                 (A") (A") (A') (A") (A") (A') (A') (A') (A') (A')
                 (A") (A') (A") (A") (A') (A') (A") (A') (A") (A')
                 (A') (A') (A') (A") (A') (A') (A") (A") (A') (A')
                 (A') (A") (A') (A') (A') (A') (A") (A") (A') (A")
                 (A') (A') (A") (A') (A') (A') (A') (A') (A') (A')
                 (A") (A') (A') (A') (A") (A') (A") (A") (A') (A')
                 (A') (A') (A') (A') (A") (A') (A') (A') (A') (A')
                 (A") (A") (A') (A") (A") (A') (A') (A") (A') (A")
                 (A") (A") (A") (A") (A') (A') (A') (A') (A') (A')
                 (A') (A') (A') (A') (A') (A') (A') (A') (A') (A')
                 (A') (A') (A") (A') (A') (A') (A') (A') (A') (A')
                 (A') (A') (A') (A') (A') (A') (A') (A') (A') (A')
                 (A') (A') (A') (A') (A') (A') (A') (A') (A') (A')
                 (A')
 The electronic state is 1-A'.
 Alpha  occ. eigenvalues --  -10.78495 -10.73640 -10.73184 -10.72971 -10.72515
 Alpha  occ. eigenvalues --  -10.72322 -10.71469 -10.71348 -10.70843 -10.70814
 Alpha  occ. eigenvalues --  -10.70728 -10.70283 -10.69518 -10.69322  -1.16425
 Alpha  occ. eigenvalues --   -1.12333  -1.06757  -1.05703  -1.01314  -1.00072
 Alpha  occ. eigenvalues --   -0.95504  -0.90706  -0.87044  -0.85154  -0.83574
 Alpha  occ. eigenvalues --   -0.78099  -0.75856  -0.74056  -0.69621  -0.69363
 Alpha  occ. eigenvalues --   -0.68463  -0.67889  -0.67782  -0.64645  -0.64151
 Alpha  occ. eigenvalues --   -0.62439  -0.61249  -0.59825  -0.59416  -0.58902
 Alpha  occ. eigenvalues --   -0.56486  -0.55380  -0.54563  -0.52313  -0.46663
 Alpha  occ. eigenvalues --   -0.46024  -0.44160
 Alpha virt. eigenvalues --   -0.26158  -0.14913  -0.14290  -0.12832  -0.11253
 Alpha virt. eigenvalues --   -0.10146  -0.09231  -0.08049  -0.08020  -0.07530
 Alpha virt. eigenvalues --   -0.07278  -0.07257  -0.05718  -0.05593  -0.05343
 Alpha virt. eigenvalues --   -0.03885  -0.03635  -0.03348  -0.03133  -0.02129
 Alpha virt. eigenvalues --   -0.01415  -0.00835   0.00203   0.00293   0.00731
 Alpha virt. eigenvalues --    0.01012   0.01232   0.01770   0.02187   0.02343
 Alpha virt. eigenvalues --    0.02401   0.02560   0.02842   0.03347   0.04008
 Alpha virt. eigenvalues --    0.04258   0.04664   0.04752   0.04786   0.05336
 Alpha virt. eigenvalues --    0.06004   0.06155   0.06577   0.07054   0.07159
 Alpha virt. eigenvalues --    0.07924   0.08075   0.08239   0.08642   0.08793
 Alpha virt. eigenvalues --    0.08867   0.09538   0.09879   0.10020   0.11194
 Alpha virt. eigenvalues --    0.11723   0.11912   0.12271   0.12455   0.12967
 Alpha virt. eigenvalues --    0.12990   0.12999   0.13535   0.14431   0.15691
 Alpha virt. eigenvalues --    0.16479   0.16606   0.17217   0.17692   0.18145
 Alpha virt. eigenvalues --    0.18959   0.19250   0.19515   0.19626   0.21132
 Alpha virt. eigenvalues --    0.21542   0.22259   0.22424   0.23305   0.23827
 Alpha virt. eigenvalues --    0.24582   0.25066   0.26565   0.27434   0.28165
 Alpha virt. eigenvalues --    0.28791   0.30071   0.30802   0.35375   0.35749
 Alpha virt. eigenvalues --    0.38400   0.39519   0.40564   0.41170   0.41474
 Alpha virt. eigenvalues --    0.41970   0.43094   0.43559   0.44138   0.44330
 Alpha virt. eigenvalues --    0.44552   0.45778   0.46090   0.47888   0.47967
 Alpha virt. eigenvalues --    0.48656   0.49028   0.49070   0.50476   0.50731
 Alpha virt. eigenvalues --    0.50832   0.51882   0.51983   0.53945   0.54246
 Alpha virt. eigenvalues --    0.55251   0.55507   0.55809   0.57552   0.58382
 Alpha virt. eigenvalues --    0.60283   0.60750   0.61665   0.62155   0.63034
 Alpha virt. eigenvalues --    0.63425   0.64114   0.65383   0.66530   0.69218
 Alpha virt. eigenvalues --    0.70633   0.70918   0.71708   0.72452   0.73961
 Alpha virt. eigenvalues --    0.75093   0.76237   0.76678   0.77565   0.77789
 Alpha virt. eigenvalues --    0.78186   0.78627   0.79657   0.80152   0.81446
 Alpha virt. eigenvalues --    0.81545   0.82275   0.83065   0.85070   0.85649
 Alpha virt. eigenvalues --    0.86253   0.87342   0.88863   0.90012   0.90518
 Alpha virt. eigenvalues --    0.91760   0.93770   0.94330   0.95934   0.96278
 Alpha virt. eigenvalues --    0.96416   0.99790   1.01079   1.01708   1.02055
 Alpha virt. eigenvalues --    1.03173   1.03361   1.04566   1.07341   1.20043
 Alpha virt. eigenvalues --    1.21057   1.22456   1.24819   1.26801   1.27543
 Alpha virt. eigenvalues --    1.33821   1.34189   1.34356   1.36320   1.38630
 Alpha virt. eigenvalues --    1.40888   1.41191   1.41784   1.43113   1.43563
 Alpha virt. eigenvalues --    1.44619   1.45752   1.45985   1.46894   1.47357
 Alpha virt. eigenvalues --    1.49211   1.51590   1.52832   1.53127   1.55635
 Alpha virt. eigenvalues --    1.56142   1.56450   1.57996   1.62462   1.62690
 Alpha virt. eigenvalues --    1.63362   1.63542   1.65246   1.67688   1.68468
 Alpha virt. eigenvalues --    1.68654   1.70419   1.73662   1.74117   1.74748
 Alpha virt. eigenvalues --    1.77648   1.77904   1.79445   1.79878   1.80430
 Alpha virt. eigenvalues --    1.81988   1.82814   1.83274   1.83918   1.85539
 Alpha virt. eigenvalues --    1.85728   1.87267   1.88007   1.89941   1.92494
 Alpha virt. eigenvalues --    1.94289   1.97063   1.97686   1.98672   1.99740
 Alpha virt. eigenvalues --    2.02677   2.06398   2.06403   2.11137   2.11321
 Alpha virt. eigenvalues --    2.13620   2.14450   2.18006   2.22144   2.22552
 Alpha virt. eigenvalues --    2.26610   2.29413   2.31880   2.33079   2.34860
 Alpha virt. eigenvalues --    2.37798   2.39337   2.40930   2.41275   2.45446
 Alpha virt. eigenvalues --    2.45999   2.46960   2.49516   2.51929   2.54296
 Alpha virt. eigenvalues --    2.54885   2.55914   2.58576   2.59698   2.60204
 Alpha virt. eigenvalues --    2.60732   2.61300   2.62736   2.63082   2.64643
 Alpha virt. eigenvalues --    2.64947   2.65804   2.67255   2.68974   2.69738
 Alpha virt. eigenvalues --    2.70821   2.72580   2.74753   2.75078   2.76404
 Alpha virt. eigenvalues --    2.76931   2.79204   2.79670   2.82618   2.83096
 Alpha virt. eigenvalues --    2.85922   2.91331   2.98982   2.99522   3.00216
 Alpha virt. eigenvalues --    3.02464   3.03882   3.11245   3.12268   3.16681
 Alpha virt. eigenvalues --    3.23923   3.25218   3.28408   3.28899   3.31262
 Alpha virt. eigenvalues --    3.31989   3.42298   3.43964   3.45731   3.47569
 Alpha virt. eigenvalues --    3.48337   3.53543   3.61723   3.64539   3.68712
 Alpha virt. eigenvalues --    3.91373   3.93018   3.95288   3.96350   4.02547
 Alpha virt. eigenvalues --    4.03373   4.06867   4.10932   4.35014   4.52732
 Alpha virt. eigenvalues --    4.67864   4.69933  23.45773  23.59187  23.77923
 Alpha virt. eigenvalues --   23.83737  23.86058  23.86429  23.87830  23.89227
 Alpha virt. eigenvalues --   23.95809  23.96563  24.00565  24.00650  24.09354
 Alpha virt. eigenvalues --   24.11834
          Condensed to atoms (all electrons):
               1          2          3          4          5          6
     1  C    9.099294   0.877318  -1.020417   1.384315   0.413661  -0.154089
     2  C    0.877318   7.824687   0.375574  -0.235608  -0.095180  -0.057803
     3  C   -1.020417   0.375574   6.421002   0.139517  -0.070853   0.015998
     4  C    1.384315  -0.235608   0.139517   8.732494   0.274336   0.083747
     5  C    0.413661  -0.095180  -0.070853   0.274336   8.422698   0.412605
     6  C   -0.154089  -0.057803   0.015998   0.083747   0.412605   7.344932
     7  C   -0.040992   0.026122  -0.003612  -0.094660  -0.761613   0.401382
     8  C    0.439827   0.091008  -0.043643  -0.346111   1.496948  -0.559937
     9  C   -2.578340  -0.919726   0.053840  -0.645629  -1.083823  -0.107054
    10  C   -1.056530  -0.217230   0.147419  -0.598697  -1.742290  -0.417665
    11  C   -0.418976  -1.091110   0.641836  -2.839885  -0.236772  -0.492957
    12  C   -0.586355  -0.178263  -0.354558   0.339294  -0.443538   0.296890
    13  C   -0.272066   0.254949   0.037343  -1.909297  -0.920322  -0.579452
    14  C   -0.821823  -0.597329  -0.265905   1.421445  -0.177332  -0.173760
    15  H    0.338851  -0.124565   0.015245   0.025468   0.004653   0.003901
    16  H   -0.018893   0.387937  -0.026694   0.016656   0.000154  -0.000412
    17  H   -0.024578  -0.029835   0.401961  -0.059048  -0.000926   0.000362
    18  H    0.050331   0.006474  -0.077435   0.406738   0.023755   0.000887
    19  H   -0.037781  -0.015503   0.037611  -0.065111  -0.003747   0.039872
    20  H    0.017191   0.005079  -0.005807   0.002332   0.443058  -0.103613
    21  H   -0.001263  -0.000577   0.000174   0.001278  -0.046703   0.388473
    22  H    0.001290   0.000558  -0.000106  -0.002072   0.002208  -0.017866
    23  H    0.011364  -0.001248  -0.000426   0.004488   0.021828  -0.003895
    24  H    0.034815   0.022700   0.003229  -0.017799  -0.000804  -0.004467
    25  H    0.034815   0.022700   0.003229  -0.017799  -0.000804  -0.004467
               7          8          9         10         11         12
     1  C   -0.040992   0.439827  -2.578340  -1.056530  -0.418976  -0.586355
     2  C    0.026122   0.091008  -0.919726  -0.217230  -1.091110  -0.178263
     3  C   -0.003612  -0.043643   0.053840   0.147419   0.641836  -0.354558
     4  C   -0.094660  -0.346111  -0.645629  -0.598697  -2.839885   0.339294
     5  C   -0.761613   1.496948  -1.083823  -1.742290  -0.236772  -0.443538
     6  C    0.401382  -0.559937  -0.107054  -0.417665  -0.492957   0.296890
     7  C    6.376128   0.588222   0.131858   0.111325  -0.082751  -0.164820
     8  C    0.588222   8.959498  -0.754760  -0.680576   0.627540  -1.372492
     9  C    0.131858  -0.754760   8.575389   1.562095   0.165028   0.752592
    10  C    0.111325  -0.680576   1.562095   7.189585   0.546163   0.435650
    11  C   -0.082751   0.627540   0.165028   0.546163  10.868504   0.154235
    12  C   -0.164820  -1.372492   0.752592   0.435650   0.154235   7.630910
    13  C   -0.223903   0.760560   0.579480   1.131491   1.636293  -1.782744
    14  C   -0.264629  -3.479091   0.186968  -0.467474  -3.598853   1.217657
    15  H   -0.004730  -0.012099   0.062054  -0.000467  -0.008981   0.023537
    16  H    0.000107   0.000553  -0.012938  -0.006878  -0.003136  -0.003371
    17  H   -0.000169  -0.001238   0.004891   0.004109   0.033905   0.027662
    18  H   -0.000491   0.001469  -0.028540   0.002984  -0.004684  -0.055338
    19  H    0.010299  -0.023185   0.057316   0.377156   0.057296   0.039035
    20  H    0.017788   0.045491  -0.033043   0.008819   0.020833  -0.029468
    21  H   -0.035608  -0.004415  -0.002861  -0.000212  -0.007422   0.004438
    22  H    0.397294  -0.028944   0.003473  -0.000161   0.001154  -0.009140
    23  H   -0.064554   0.358153   0.026821  -0.012265  -0.010401   0.001673
    24  H    0.012334   0.044562   0.340443   0.004293  -0.002785  -0.045533
    25  H    0.012334   0.044562   0.340443   0.004293  -0.002785  -0.045533
              13         14         15         16         17         18
     1  C   -0.272066  -0.821823   0.338851  -0.018893  -0.024578   0.050331
     2  C    0.254949  -0.597329  -0.124565   0.387937  -0.029835   0.006474
     3  C    0.037343  -0.265905   0.015245  -0.026694   0.401961  -0.077435
     4  C   -1.909297   1.421445   0.025468   0.016656  -0.059048   0.406738
     5  C   -0.920322  -0.177332   0.004653   0.000154  -0.000926   0.023755
     6  C   -0.579452  -0.173760   0.003901  -0.000412   0.000362   0.000887
     7  C   -0.223903  -0.264629  -0.004730   0.000107  -0.000169  -0.000491
     8  C    0.760560  -3.479091  -0.012099   0.000553  -0.001238   0.001469
     9  C    0.579480   0.186968   0.062054  -0.012938   0.004891  -0.028540
    10  C    1.131491  -0.467474  -0.000467  -0.006878   0.004109   0.002984
    11  C    1.636293  -3.598853  -0.008981  -0.003136   0.033905  -0.004684
    12  C   -1.782744   1.217657   0.023537  -0.003371   0.027662  -0.055338
    13  C   10.799196  -2.946491  -0.029581  -0.000029  -0.003259  -0.018077
    14  C   -2.946491  15.386875   0.014565  -0.001854  -0.005775   0.014859
    15  H   -0.029581   0.014565   0.464308  -0.010571   0.001378  -0.000312
    16  H   -0.000029  -0.001854  -0.010571   0.420997  -0.006063   0.001870
    17  H   -0.003259  -0.005775   0.001378  -0.006063   0.417529  -0.008304
    18  H   -0.018077   0.014859  -0.000312   0.001870  -0.008304   0.435138
    19  H    0.057856  -0.173044   0.000656  -0.000653   0.001606  -0.005805
    20  H   -0.000982  -0.056174  -0.000222   0.000066  -0.000252   0.001114
    21  H   -0.009753   0.051514   0.000049  -0.000007   0.000008  -0.000051
    22  H    0.025884  -0.033043  -0.000262   0.000006  -0.000005  -0.000006
    23  H   -0.035370   0.037923   0.000455  -0.000053  -0.000006   0.000004
    24  H    0.021739  -0.077819  -0.003576   0.000477  -0.000036   0.000046
    25  H    0.021739  -0.077819  -0.003576   0.000477  -0.000036   0.000046
              19         20         21         22         23         24
     1  C   -0.037781   0.017191  -0.001263   0.001290   0.011364   0.034815
     2  C   -0.015503   0.005079  -0.000577   0.000558  -0.001248   0.022700
     3  C    0.037611  -0.005807   0.000174  -0.000106  -0.000426   0.003229
     4  C   -0.065111   0.002332   0.001278  -0.002072   0.004488  -0.017799
     5  C   -0.003747   0.443058  -0.046703   0.002208   0.021828  -0.000804
     6  C    0.039872  -0.103613   0.388473  -0.017866  -0.003895  -0.004467
     7  C    0.010299   0.017788  -0.035608   0.397294  -0.064554   0.012334
     8  C   -0.023185   0.045491  -0.004415  -0.028944   0.358153   0.044562
     9  C    0.057316  -0.033043  -0.002861   0.003473   0.026821   0.340443
    10  C    0.377156   0.008819  -0.000212  -0.000161  -0.012265   0.004293
    11  C    0.057296   0.020833  -0.007422   0.001154  -0.010401  -0.002785
    12  C    0.039035  -0.029468   0.004438  -0.009140   0.001673  -0.045533
    13  C    0.057856  -0.000982  -0.009753   0.025884  -0.035370   0.021739
    14  C   -0.173044  -0.056174   0.051514  -0.033043   0.037923  -0.077819
    15  H    0.000656  -0.000222   0.000049  -0.000262   0.000455  -0.003576
    16  H   -0.000653   0.000066  -0.000007   0.000006  -0.000053   0.000477
    17  H    0.001606  -0.000252   0.000008  -0.000005  -0.000006  -0.000036
    18  H   -0.005805   0.001114  -0.000051  -0.000006   0.000004   0.000046
    19  H    0.426943  -0.000310  -0.000057   0.000013  -0.000392   0.000778
    20  H   -0.000310   0.481407  -0.011560   0.001875   0.000182   0.000265
    21  H   -0.000057  -0.011560   0.427776  -0.007557   0.001546  -0.000217
    22  H    0.000013   0.001875  -0.007557   0.414477  -0.007382   0.000670
    23  H   -0.000392   0.000182   0.001546  -0.007382   0.429061  -0.000391
    24  H    0.000778   0.000265  -0.000217   0.000670  -0.000391   0.496813
    25  H    0.000778   0.000265  -0.000217   0.000670  -0.000391  -0.082130
              25
     1  C    0.034815
     2  C    0.022700
     3  C    0.003229
     4  C   -0.017799
     5  C   -0.000804
     6  C   -0.004467
     7  C    0.012334
     8  C    0.044562
     9  C    0.340443
    10  C    0.004293
    11  C   -0.002785
    12  C   -0.045533
    13  C    0.021739
    14  C   -0.077819
    15  H   -0.003576
    16  H    0.000477
    17  H   -0.000036
    18  H    0.000046
    19  H    0.000778
    20  H    0.000265
    21  H   -0.000217
    22  H    0.000670
    23  H   -0.000391
    24  H   -0.082130
    25  H    0.496813
 Mulliken charges:
               1
     1  C    0.329030
     2  C   -0.331129
     3  C   -0.424522
     4  C   -0.000396
     5  C    0.068803
     6  C   -0.311613
     7  C   -0.342661
     8  C   -0.151903
     9  C   -0.675979
    10  C   -0.324937
    11  C    0.048709
    12  C    0.147579
    13  C   -0.595204
    14  C    0.886409
    15  H    0.243822
    16  H    0.262251
    17  H    0.246119
    18  H    0.253330
    19  H    0.218373
    20  H    0.195667
    21  H    0.253224
    22  H    0.256972
    23  H    0.243276
    24  H    0.252390
    25  H    0.252390
 Sum of Mulliken charges =   1.00000
 Mulliken charges with hydrogens summed into heavy atoms:
               1
     1  C    0.572852
     2  C   -0.068878
     3  C   -0.178403
     4  C    0.252934
     5  C    0.264470
     6  C   -0.058389
     7  C   -0.085689
     8  C    0.091373
     9  C   -0.171199
    10  C   -0.106563
    11  C    0.048709
    12  C    0.147579
    13  C   -0.595204
    14  C    0.886409
 Electronic spatial extent (au):  <R**2>=           2860.1742
 Charge=              1.0000 electrons
 Dipole moment (field-independent basis, Debye):
    X=             -0.1033    Y=             -0.1603    Z=             -0.0000  Tot=              0.1907
 Quadrupole moment (field-independent basis, Debye-Ang):
   XX=            -52.5176   YY=            -34.7829   ZZ=            -84.4252
   XY=             -8.8888   XZ=             -0.0000   YZ=             -0.0000
 Traceless Quadrupole moment (field-independent basis, Debye-Ang):
   XX=              4.7243   YY=             22.4590   ZZ=            -27.1833
   XY=             -8.8888   XZ=             -0.0000   YZ=             -0.0000
 Octapole moment (field-independent basis, Debye-Ang**2):
  XXX=             -1.2664  YYY=              5.0684  ZZZ=             -0.0000  XYY=              2.5774
  XXY=             -5.5355  XXZ=             -0.0000  XZZ=              2.9851  YZZ=              0.8552
  YYZ=             -0.0000  XYZ=             -0.0000
 Hexadecapole moment (field-independent basis, Debye-Ang**3):
 XXXX=           -877.9167 YYYY=          -1935.5318 ZZZZ=            -99.9774 XXXY=            307.3817
 XXXZ=             -0.0000 YYYX=            231.6398 YYYZ=             -0.0000 ZZZX=             -0.0000
 ZZZY=              0.0000 XXYY=           -466.3722 XXZZ=           -215.8942 YYZZ=           -524.3571
 XXYZ=             -0.0000 YYXZ=             -0.0000 ZZXY=            161.1367
 N-N= 7.799170268425D+02 E-N=-2.795931776212D+03  KE= 5.372602777527D+02
 Symmetry A'   KE= 5.226361389652D+02
 Symmetry A"   KE= 1.462413878744D+01
 Unable to Open any file for archive entry.
 1\1\GINC-GADI-CPU-CLX-0359\SP\RM062X TD-FC\6-311++G(d,p)\C14H11(1+)\TS
 1578\02-Aug-2022\0\\#n M062X/6-311++G(d,p) TD(NStates=1) EmpiricalDisp
 ersion=GD3 SP\\SP_-8\\1,1\C,0,0.,2.362655,1.276431\C,0,0.,3.649508,0.7
 45989\C,0,0.,3.757861,-0.63183\C,0,0.,2.583156,-1.475538\C,0,0.,-2.391
 156,-1.331538\C,0,0.,-3.629861,-0.72783\C,0,0.,-3.729508,0.665989\C,0,
 0.,-2.570655,1.452431\C,0,0.,0.032,1.423369\C,0,0.,-0.048,-1.459189\C,
 0,0.,1.208055,0.483065\C,0,0.,1.273471,-0.908804\C,0,0.,-1.304055,0.81
 9065\C,0,0.,-1.209471,-0.604804\H,0,0.,2.214071,2.359647\H,0,0.,4.5187
 53,1.399689\H,0,0.,4.741262,-1.100349\H,0,0.,2.72955,-2.558059\H,0,0.,
 -0.248,-2.542266\H,0,0.,-2.31355,-2.414059\H,0,0.,-4.517262,-1.340349\
 H,0,0.,-4.710753,1.127689\H,0,0.,-2.646071,2.535647\H,0,-0.859585,0.19
 2,2.115787\H,0,0.859585,0.192,2.115787\\Version=ES64L-G16RevC.01\State
 =1-A'\HF=-539.7256203\RMSD=4.925e-09\PG=CS [SG(C14H9),X(H2)]\\@
 The archive entry for this job was punched.


 Sometimes the fool who rushes in gets the job done.
                                    -- Al Bernstein
 Job cpu time:       0 days  0 hours 51 minutes 40.8 seconds.
 Elapsed time:       0 days  0 hours  1 minutes  4.7 seconds.
 File lengths (MBytes):  RWF=    459 Int=      0 D2E=      0 Chk=     15 Scr=      1
 Normal termination of Gaussian 16 at Tue Aug  2 12:00:37 2022.
