 Entering Gaussian System, Link 0=g16
 Initial command:
 /apps/gaussian/g16c01/g16/l1.exe "/jobfs/53803768.gadi-pbs/Gau-160059.inp" -scrdir="/jobfs/53803768.gadi-pbs/"
 Entering Link 1 = /apps/gaussian/g16c01/g16/l1.exe PID=    160060.
  
 Copyright (c) 1988-2019, Gaussian, Inc.  All Rights Reserved.
  
 This is part of the Gaussian(R) 16 program.  It is based on
 the Gaussian(R) 09 system (copyright 2009, Gaussian, Inc.),
 the Gaussian(R) 03 system (copyright 2003, Gaussian, Inc.),
 the Gaussian(R) 98 system (copyright 1998, Gaussian, Inc.),
 the Gaussian(R) 94 system (copyright 1995, Gaussian, Inc.),
 the Gaussian 92(TM) system (copyright 1992, Gaussian, Inc.),
 the Gaussian 90(TM) system (copyright 1990, Gaussian, Inc.),
 the Gaussian 88(TM) system (copyright 1988, Gaussian, Inc.),
 the Gaussian 86(TM) system (copyright 1986, Carnegie Mellon
 University), and the Gaussian 82(TM) system (copyright 1983,
 Carnegie Mellon University). Gaussian is a federally registered
 trademark of Gaussian, Inc.
  
 This software contains proprietary and confidential information,
 including trade secrets, belonging to Gaussian, Inc.
  
 This software is provided under written license and may be
 used, copied, transmitted, or stored only in accord with that
 written license.
  
 The following legend is applicable only to US Government
 contracts under FAR:
  
                    RESTRICTED RIGHTS LEGEND
  
 Use, reproduction and disclosure by the US Government is
 subject to restrictions as set forth in subparagraphs (a)
 and (c) of the Commercial Computer Software - Restricted
 Rights clause in FAR 52.227-19.
  
 Gaussian, Inc.
 340 Quinnipiac St., Bldg. 40, Wallingford CT 06492
  
  
 ---------------------------------------------------------------
 Warning -- This program may not be used in any manner that
 competes with the business of Gaussian, Inc. or will provide
 assistance to any competitor of Gaussian, Inc.  The licensee
 of this program is prohibited from giving any competitor of
 Gaussian, Inc. access to this program.  By using this program,
 the user acknowledges that Gaussian, Inc. is engaged in the
 business of creating and licensing software in the field of
 computational chemistry and represents and warrants to the
 licensee that it is not a competitor of Gaussian, Inc. and that
 it will not use this program in any manner prohibited above.
 ---------------------------------------------------------------
  

 Cite this work as:
 Gaussian 16, Revision C.01,
 M. J. Frisch, G. W. Trucks, H. B. Schlegel, G. E. Scuseria, 
 M. A. Robb, J. R. Cheeseman, G. Scalmani, V. Barone, 
 G. A. Petersson, H. Nakatsuji, X. Li, M. Caricato, A. V. Marenich, 
 J. Bloino, B. G. Janesko, R. Gomperts, B. Mennucci, H. P. Hratchian, 
 J. V. Ortiz, A. F. Izmaylov, J. L. Sonnenberg, D. Williams-Young, 
 F. Ding, F. Lipparini, F. Egidi, J. Goings, B. Peng, A. Petrone, 
 T. Henderson, D. Ranasinghe, V. G. Zakrzewski, J. Gao, N. Rega, 
 G. Zheng, W. Liang, M. Hada, M. Ehara, K. Toyota, R. Fukuda, 
 J. Hasegawa, M. Ishida, T. Nakajima, Y. Honda, O. Kitao, H. Nakai, 
 T. Vreven, K. Throssell, J. A. Montgomery, Jr., J. E. Peralta, 
 F. Ogliaro, M. J. Bearpark, J. J. Heyd, E. N. Brothers, K. N. Kudin, 
 V. N. Staroverov, T. A. Keith, R. Kobayashi, J. Normand, 
 K. Raghavachari, A. P. Rendell, J. C. Burant, S. S. Iyengar, 
 J. Tomasi, M. Cossi, J. M. Millam, M. Klene, C. Adamo, R. Cammi, 
 J. W. Ochterski, R. L. Martin, K. Morokuma, O. Farkas, 
 J. B. Foresman, and D. J. Fox, Gaussian, Inc., Wallingford CT, 2019.
 
 ******************************************
 Gaussian 16:  ES64L-G16RevC.01  3-Jul-2019
                 2-Aug-2022 
 ******************************************
 %NProcShared=48
 Will use up to   48 processors via shared memory.
 %mem = 190GB
 ---------------------------------------------------------------
 #n M062X/6-311++G(d,p) TD(NStates=1) EmpiricalDispersion=GD3 SP
 ---------------------------------------------------------------
 1/38=1,172=1/1;
 2/12=2,17=6,18=5,40=1/2;
 3/5=4,6=6,7=1111,11=9,25=1,30=1,74=-55,124=31/1,2,3,8;
 4//1;
 5/5=2,38=5/2;
 8/6=1,10=2,108=1/1;
 9/41=1,42=1,70=2/14;
 6/7=2,8=2,9=2,10=2/1;
 99/5=1,9=1/99;
 ------
 SP_-10
 ------
 Symbolic Z-matrix:
 Charge =  1 Multiplicity = 1
 C                     0.        2.44066   1.23843 
 C                     0.        3.68751   0.61999 
 C                     0.        3.73386  -0.75583 
 C                     0.        2.51116  -1.50954 
 C                     0.       -2.27116  -1.32954 
 C                     0.       -3.57386  -0.87583 
 C                     0.       -3.78751   0.51999 
 C                     0.       -2.70066   1.45843 
 C                     0.        0.04      1.54337 
 C                     0.       -0.06     -1.33919 
 C                     0.        1.22006   0.54507 
 C                     0.        1.26547  -0.8428 
 C                     0.       -1.34005   0.96507 
 C                     0.       -1.18547  -0.4628 
 H                     0.        2.39207   2.32165 
 H                     0.        4.58275   1.22569 
 H                     0.        4.68926  -1.27835 
 H                     0.        2.56555  -2.59206 
 H                     0.       -0.31     -2.41427 
 H                     0.       -2.04555  -2.41206 
 H                     0.       -4.40926  -1.57835 
 H                     0.       -4.82275   0.88569 
 H                     0.       -2.93207   2.54165 
 H                    -0.85959   0.24      2.23579 
 H                     0.85959   0.24      2.23579 
 
                          Input orientation:                          
 ---------------------------------------------------------------------
 Center     Atomic      Atomic             Coordinates (Angstroms)
 Number     Number       Type             X           Y           Z
 ---------------------------------------------------------------------
      1          6           0        0.000000    2.440655    1.238431
      2          6           0        0.000000    3.687508    0.619989
      3          6           0        0.000000    3.733861   -0.755830
      4          6           0        0.000000    2.511156   -1.509538
      5          6           0        0.000000   -2.271156   -1.329538
      6          6           0        0.000000   -3.573861   -0.875830
      7          6           0        0.000000   -3.787508    0.519989
      8          6           0        0.000000   -2.700655    1.458431
      9          6           0        0.000000    0.040000    1.543369
     10          6           0        0.000000   -0.060000   -1.339189
     11          6           0        0.000000    1.220055    0.545065
     12          6           0        0.000000    1.265471   -0.842804
     13          6           0        0.000000   -1.340055    0.965065
     14          6           0        0.000000   -1.185471   -0.462804
     15          1           0        0.000000    2.392071    2.321647
     16          1           0        0.000000    4.582753    1.225689
     17          1           0        0.000000    4.689262   -1.278349
     18          1           0        0.000000    2.565550   -2.592059
     19          1           0        0.000000   -0.310000   -2.414266
     20          1           0        0.000000   -2.045550   -2.412059
     21          1           0        0.000000   -4.409262   -1.578349
     22          1           0        0.000000   -4.822753    0.885689
     23          1           0        0.000000   -2.932071    2.541647
     24          1           0       -0.859585    0.240000    2.235787
     25          1           0        0.859585    0.240000    2.235787
 ---------------------------------------------------------------------
                    Distance matrix (angstroms):
                    1          2          3          4          5
     1  C    0.000000
     2  C    1.391802   0.000000
     3  C    2.376859   1.376600   0.000000
     4  C    2.748873   2.432836   1.436344   0.000000
     5  C    5.366156   6.269476   6.032360   4.785698   0.000000
     6  C    6.375304   7.413835   7.308707   6.117926   1.379453
     7  C    6.269464   7.475685   7.628808   6.617564   2.391668
     8  C    5.146015   6.442951   6.804847   5.997651   2.820858
     9  C    2.419945   3.762572   4.350968   3.927703   3.687145
    10  C    3.591295   4.228734   3.838449   2.576793   2.211177
    11  C    1.403788   2.468590   2.830468   2.426589   3.962662
    12  C    2.390104   2.829492   2.469922   1.412893   3.569964
    13  C    3.790580   5.039392   5.357808   4.577716   2.476318
    14  C    4.005370   4.991830   4.928051   3.841966   1.389223
    15  H    1.084305   2.138644   3.357270   3.833035   5.922570
    16  H    2.142136   1.080896   2.155698   3.431178   7.314729
    17  H    3.374969   2.146439   1.088952   2.190341   6.960606
    18  H    3.832526   3.402358   2.176393   1.083887   4.998768
    19  H    4.572559   5.018643   4.370723   2.962677   2.241153
    20  H    5.783780   6.485466   6.012045   4.645225   1.105780
    21  H    7.406457   8.389897   8.184558   6.920760   2.152534
    22  H    7.271968   8.514408   8.712648   7.715137   3.379035
    23  H    5.528522   6.892866   7.436935   6.785339   3.927198
    24  H    2.564466   3.903204   4.679287   4.463686   4.444810
    25  H    2.564466   3.903204   4.679287   4.463686   4.444810
                    6          7          8          9         10
     6  C    0.000000
     7  C    1.412075   0.000000
     8  C    2.492241   1.435940   0.000000
     9  C    4.348852   3.961960   2.741971   0.000000
    10  C    3.544280   4.165436   3.847043   2.884292   0.000000
    11  C    5.000057   5.007626   4.025693   1.545685   2.277928
    12  C    4.839445   5.233527   4.585394   2.682462   1.415370
    13  C    2.894613   2.487593   1.447288   1.496325   2.635930
    14  C    2.423839   2.781453   2.446820   2.350853   1.426442
    15  H    6.768767   6.436860   5.165365   2.477490   4.406174
    16  H    8.422988   8.399957   7.287126   4.553847   5.304126
    17  H    8.272921   8.665428   7.880408   5.438541   4.749652
    18  H    6.374779   7.074333   6.643748   4.845634   2.909157
    19  H    3.608265   4.550046   4.551155   3.973081   1.103762
    20  H    2.166964   3.410473   3.925539   4.471569   2.256869
    21  H    1.091525   2.188516   3.484447   5.435168   4.355833
    22  H    2.159324   1.097938   2.198029   4.907027   5.256795
    23  H    3.477218   2.195193   1.107660   3.135246   4.828010
    24  H    4.996657   4.461353   3.160794   1.121753   3.689084
    25  H    4.996657   4.461353   3.160794   1.121753   3.689084
                   11         12         13         14         15
    11  C    0.000000
    12  C    1.388612   0.000000
    13  C    2.594333   3.171302   0.000000
    14  C    2.608133   2.480225   1.436212   0.000000
    15  H    2.128348   3.359014   3.971030   4.533429   0.000000
    16  H    3.430887   3.909351   5.928539   6.010276   2.449533
    17  H    3.919214   3.451383   6.433162   5.931071   4.270487
    18  H    3.413489   2.179472   5.282696   4.313222   4.916767
    19  H    3.331472   2.225219   3.532830   2.138844   5.452528
    20  H    4.405537   3.664072   3.450027   2.130571   6.488486
    21  H    6.016485   5.722204   3.986099   3.411344   7.840159
    22  H    6.052401   6.328836   3.483602   3.879208   7.356335
    23  H    4.607222   5.392019   2.240564   3.475246   5.328685
    24  H    2.134932   3.356814   2.202316   3.170686   2.318980
    25  H    2.134932   3.356814   2.202316   3.170686   2.318980
                   16         17         18         19         20
    16  H    0.000000
    17  H    2.506302   0.000000
    18  H    4.317905   2.497196   0.000000
    19  H    6.098221   5.126688   2.881041   0.000000
    20  H    7.560927   6.829567   4.614612   1.735551   0.000000
    21  H    9.419074   9.103469   7.048093   4.183624   2.506433
    22  H    9.411649   9.755075   8.165890   5.590585   4.311380
    23  H    7.629176   8.525086   7.521886   5.606811   5.032407
    24  H    4.540781   5.734455   5.427261   4.760712   5.250247
    25  H    4.540781   5.734455   5.427261   4.760712   5.250247
                   21         22         23         24         25
    21  H    0.000000
    22  H    2.498491   0.000000
    23  H    4.376809   2.513339   0.000000
    24  H    6.074715   5.309719   3.300677   0.000000
    25  H    6.074715   5.309719   3.300677   1.719170   0.000000
 Stoichiometry    C14H11(1+)
 Framework group  CS[SG(C14H9),X(H2)]
 Deg. of freedom    46
 Full point group                 CS      NOp   2
 Largest Abelian subgroup         CS      NOp   2
 Largest concise Abelian subgroup CS      NOp   2
                         Standard orientation:                         
 ---------------------------------------------------------------------
 Center     Atomic      Atomic             Coordinates (Angstroms)
 Number     Number       Type             X           Y           Z
 ---------------------------------------------------------------------
      1          6           0       -0.272436   -2.723488    0.000000
      2          6           0        0.755602   -3.661705    0.000000
      3          6           0        2.054803   -3.206621    0.000000
      4          6           0        2.314505   -1.793950    0.000000
      5          6           0        0.414680    2.598495    0.000000
      6          6           0       -0.480036    3.648435    0.000000
      7          6           0       -1.858470    3.342043    0.000000
      8          6           0       -2.339566    1.989095    0.000000
      9          6           0       -1.426134   -0.596257    0.000000
     10          6           0        1.224507    0.540951    0.000000
     11          6           0       -0.068217   -1.334634    0.000000
     12          6           0        1.241877   -0.874312    0.000000
     13          6           0       -1.386917    0.899553    0.000000
     14          6           0        0.000000    1.272606    0.000000
     15          1           0       -1.299707   -3.070519    0.000000
     16          1           0        0.515261   -4.715542    0.000000
     17          1           0        2.887873   -3.907914    0.000000
     18          1           0        3.343233   -1.452587    0.000000
     19          1           0        2.136051    1.163347    0.000000
     20          1           0        1.505417    2.780270    0.000000
     21          1           0       -0.127775    4.681557    0.000000
     22          1           0       -2.574284    4.174556    0.000000
     23          1           0       -3.433055    1.812484    0.000000
     24          1           0       -1.999108   -1.033457    0.859585
     25          1           0       -1.999108   -1.033457   -0.859585
 ---------------------------------------------------------------------
 Rotational constants (GHZ):           2.1043817           0.4425335           0.3664318
 Standard basis: 6-311++G(d,p) (5D, 7F)
 There are   299 symmetry adapted cartesian basis functions of A'  symmetry.
 There are   100 symmetry adapted cartesian basis functions of A"  symmetry.
 There are   285 symmetry adapted basis functions of A'  symmetry.
 There are   100 symmetry adapted basis functions of A"  symmetry.
   385 basis functions,   603 primitive gaussians,   399 cartesian basis functions
    47 alpha electrons       47 beta electrons
       nuclear repulsion energy       777.5774437862 Hartrees.
 NAtoms=   25 NActive=   25 NUniq=   24 SFac= 1.09D+00 NAtFMM=   60 NAOKFM=F Big=F
 Integral buffers will be    131072 words long.
 Regular integral format.
 Two-electron integral symmetry is turned on.
 Nuclear repulsion after empirical dispersion term =      777.5764655007 Hartrees.
 One-electron integrals computed using PRISM.
 NBasis=   385 RedAO= T EigKep=  1.29D-06  NBF=   285   100
 NBsUse=   379 1.00D-06 EigRej=  8.40D-07 NBFU=   279   100
 ExpMin= 3.60D-02 ExpMax= 4.56D+03 ExpMxC= 6.82D+02 IAcc=3 IRadAn=         5 AccDes= 0.00D+00
 Harris functional with IExCor= 1009 and IRadAn=       5 diagonalized for initial guess.
 HarFok:  IExCor= 1009 AccDes= 0.00D+00 IRadAn=         5 IDoV= 1 UseB2=F ITyADJ=14
 ICtDFT=  3500011 ScaDFX=  1.000000  1.000000  1.000000  1.000000
 FoFCou: FMM=F IPFlag=           0 FMFlag=      100000 FMFlg1=           0
         NFxFlg=           0 DoJE=T BraDBF=F KetDBF=T FulRan=T
         wScrn=  0.000000 ICntrl=       500 IOpCl=  0 I1Cent=   200000004 NGrid=           0
         NMat0=    1 NMatS0=      1 NMatT0=    0 NMatD0=    1 NMtDS0=    0 NMtDT0=    0
 Petite list used in FoFCou.
 Initial guess orbital symmetries:
       Occupied  (A') (A') (A') (A') (A') (A') (A') (A') (A') (A')
                 (A') (A') (A') (A') (A') (A') (A') (A') (A') (A')
                 (A') (A') (A') (A') (A') (A') (A') (A') (A') (A')
                 (A') (A') (A') (A") (A') (A') (A') (A') (A") (A")
                 (A') (A') (A') (A") (A") (A") (A")
       Virtual   (A") (A") (A") (A") (A") (A') (A') (A') (A') (A")
                 (A") (A') (A') (A') (A") (A') (A') (A') (A') (A')
                 (A") (A") (A') (A') (A') (A") (A') (A') (A") (A')
                 (A') (A') (A') (A') (A") (A') (A') (A') (A") (A")
                 (A') (A') (A') (A") (A') (A') (A') (A') (A') (A")
                 (A') (A") (A') (A") (A') (A') (A') (A") (A') (A")
                 (A') (A') (A') (A') (A') (A') (A") (A') (A') (A")
                 (A') (A') (A') (A') (A') (A') (A') (A') (A') (A')
                 (A') (A') (A') (A') (A') (A') (A') (A') (A') (A')
                 (A') (A') (A') (A') (A') (A') (A') (A") (A") (A')
                 (A") (A') (A") (A') (A') (A") (A') (A') (A") (A')
                 (A") (A") (A') (A") (A') (A') (A") (A') (A") (A")
                 (A') (A") (A') (A") (A') (A') (A') (A') (A') (A")
                 (A') (A') (A') (A') (A') (A') (A') (A') (A") (A')
                 (A') (A') (A') (A') (A') (A') (A') (A') (A") (A')
                 (A") (A') (A") (A') (A") (A') (A') (A") (A") (A')
                 (A') (A') (A") (A") (A") (A") (A') (A') (A') (A')
                 (A') (A") (A') (A") (A') (A') (A') (A') (A') (A")
                 (A') (A') (A") (A') (A') (A") (A') (A') (A") (A")
                 (A") (A') (A') (A') (A") (A') (A') (A") (A') (A')
                 (A") (A") (A") (A') (A') (A") (A") (A') (A') (A')
                 (A") (A') (A") (A") (A') (A') (A') (A") (A') (A")
                 (A') (A') (A') (A') (A") (A') (A') (A") (A') (A")
                 (A') (A') (A") (A') (A') (A') (A") (A") (A') (A')
                 (A") (A') (A') (A') (A") (A') (A') (A') (A') (A')
                 (A") (A') (A') (A') (A") (A") (A') (A") (A') (A')
                 (A') (A") (A') (A') (A') (A") (A') (A') (A") (A')
                 (A') (A") (A') (A') (A") (A') (A") (A') (A") (A')
                 (A") (A") (A') (A") (A') (A") (A') (A') (A') (A')
                 (A') (A') (A') (A') (A') (A') (A') (A') (A') (A')
                 (A') (A') (A') (A") (A') (A') (A') (A') (A') (A')
                 (A') (A') (A') (A') (A') (A') (A') (A') (A') (A')
                 (A') (A') (A') (A') (A') (A') (A') (A') (A') (A')
                 (A') (A')
 The electronic state of the initial guess is 1-A'.
 Requested convergence on RMS density matrix=1.00D-08 within 128 cycles.
 Requested convergence on MAX density matrix=1.00D-06.
 Requested convergence on             energy=1.00D-06.
 No special actions if energy rises.
 SCF Done:  E(RM062X) =  -539.706898786     A.U. after   16 cycles
            NFock= 16  Conv=0.27D-08     -V/T= 2.0050
 DoSCS=F DFT=T ScalE2(SS,OS)=  1.000000  1.000000
 ExpMin= 3.60D-02 ExpMax= 4.56D+03 ExpMxC= 6.82D+02 IAcc=3 IRadAn=         5 AccDes= 0.00D+00
 HarFok:  IExCor=  205 AccDes= 0.00D+00 IRadAn=         5 IDoV=-2 UseB2=F ITyADJ=14
 ICtDFT= 12500011 ScaDFX=  1.000000  1.000000  1.000000  1.000000
 Range of M.O.s used for correlation:    15   379
 NBasis=   385 NAE=    47 NBE=    47 NFC=    14 NFV=     0
 NROrb=    365 NOA=    33 NOB=    33 NVA=   332 NVB=   332

 **** Warning!!: The largest alpha MO coefficient is  0.17802871D+03

 Orbital symmetries:
       Occupied  (A') (A') (A') (A') (A') (A') (A') (A') (A') (A')
                 (A') (A') (A') (A') (A') (A') (A') (A') (A') (A')
                 (A') (A') (A') (A') (A') (A') (A') (A') (A') (A')
                 (A') (A') (A") (A') (A') (A') (A') (A") (A") (A')
                 (A') (A') (A') (A") (A") (A") (A")
       Virtual   (A") (A") (A") (A") (A') (A') (A') (A') (A") (A')
                 (A') (A") (A') (A') (A") (A') (A") (A') (A') (A')
                 (A") (A") (A') (A') (A') (A") (A') (A") (A') (A")
                 (A') (A") (A') (A') (A') (A') (A') (A") (A') (A')
                 (A") (A') (A') (A") (A") (A') (A') (A") (A') (A')
                 (A") (A') (A') (A') (A') (A") (A') (A') (A') (A")
                 (A') (A') (A') (A') (A') (A') (A") (A') (A') (A')
                 (A') (A') (A') (A') (A') (A') (A') (A') (A') (A')
                 (A') (A') (A') (A') (A') (A') (A') (A') (A') (A')
                 (A') (A') (A') (A') (A") (A") (A') (A") (A') (A')
                 (A") (A') (A') (A') (A") (A') (A') (A") (A") (A')
                 (A") (A') (A') (A") (A") (A') (A') (A") (A') (A")
                 (A") (A") (A') (A') (A') (A') (A') (A") (A') (A')
                 (A') (A') (A') (A') (A') (A') (A') (A') (A') (A')
                 (A') (A') (A') (A') (A") (A') (A') (A') (A') (A')
                 (A') (A') (A") (A') (A") (A') (A") (A') (A") (A')
                 (A") (A") (A') (A') (A") (A') (A") (A") (A") (A')
                 (A') (A') (A") (A') (A") (A') (A') (A') (A") (A')
                 (A') (A") (A') (A') (A") (A') (A') (A') (A") (A")
                 (A") (A') (A') (A") (A') (A') (A") (A') (A') (A")
                 (A') (A") (A") (A') (A') (A") (A") (A') (A') (A')
                 (A') (A') (A") (A") (A") (A') (A') (A') (A") (A")
                 (A') (A') (A') (A') (A") (A') (A') (A") (A') (A")
                 (A') (A') (A") (A') (A') (A') (A") (A') (A") (A')
                 (A") (A') (A') (A") (A') (A') (A') (A') (A') (A')
                 (A') (A") (A') (A') (A') (A") (A') (A") (A') (A")
                 (A') (A') (A') (A') (A') (A") (A') (A') (A') (A')
                 (A') (A") (A") (A') (A") (A') (A") (A") (A') (A")
                 (A") (A') (A") (A") (A') (A") (A') (A') (A') (A')
                 (A') (A') (A') (A') (A') (A') (A') (A') (A') (A')
                 (A') (A') (A') (A") (A') (A') (A') (A') (A') (A')
                 (A') (A') (A') (A') (A') (A') (A') (A') (A') (A')
                 (A') (A') (A') (A') (A') (A') (A') (A') (A') (A')
                 (A') (A')
     4 initial guesses have been made.
 Convergence on wavefunction:    0.001000000000000
 Iteration     1 Dimension     4 NMult     0 NNew      4
 CISAX will form     4 AO SS matrices at one time.
 Iteration     2 Dimension     6 NMult     4 NNew      2
 Iteration     3 Dimension     8 NMult     6 NNew      2
 Iteration     4 Dimension    10 NMult     8 NNew      2
 Iteration     5 Dimension    12 NMult    10 NNew      2
 Iteration     6 Dimension    14 NMult    12 NNew      2
 ***********************************************************************
 Excited states from <AA,BB:AA,BB> singles matrix:
 ***********************************************************************
 
 Ground to excited state transition densities written to RWF  633
 Ground to excited state transition electric dipole moments (Au):
       state          X           Y           Z        Dip. S.      Osc.
         1         0.6624      0.0388     -0.0000      0.4402      0.0314
 Ground to excited state transition velocity dipole moments (Au):
       state          X           Y           Z        Dip. S.      Osc.
         1        -0.0796     -0.0046      0.0000      0.0064      0.0395
 Ground to excited state transition magnetic dipole moments (Au):
       state          X           Y           Z
         1        -0.0000      0.0000      0.0141
 Ground to excited state transition velocity quadrupole moments (Au):
       state          XX          YY          ZZ          XY          XZ          YZ
         1        -0.1133     -0.2192      0.0086      0.1569     -0.0000      0.0000
 <0|del|b> * <b|rxdel|0> + <0|del|b> * <b|delr+rdel|0>
 Rotatory Strengths (R) in cgs (10**-40 erg-esu-cm/Gauss)
       state          XX          YY          ZZ    R(velocity)    E-M Angle
         1         0.0000     -0.0000      0.0000      0.0000       90.00
 1/2[<0|r|b>*<b|rxdel|0> + (<0|rxdel|b>*<b|r|0>)*]
 Rotatory Strengths (R) in cgs (10**-40 erg-esu-cm/Gauss)
       state          XX          YY          ZZ     R(length)
         1         0.0000     -0.0000      0.0000      0.0000
  1/2[<0|del|b>*<b|r|0> + (<0|r|b>*<b|del|0>)*] (Au)
       state          X           Y           Z        Dip. S.   Osc.(frdel)
         1        -0.0527     -0.0002     -0.0000      0.0529      0.0353

 Excitation energies and oscillator strengths:
 
 Excited State   1:      Singlet-A'     2.9145 eV  425.40 nm  f=0.0314  <S**2>=0.000
      47 -> 48         0.70344
 This state for optimization and/or second-order correction.
 Total Energy, E(TD-HF/TD-DFT) =  -539.599792488    
 Copying the excited state density for this state as the 1-particle RhoCI density.
 SavETr:  write IOETrn=   770 NScale= 10 NData=  16 NLR=1 NState=    1 LETran=      28.

 **********************************************************************

            Population analysis using the SCF Density.

 **********************************************************************

 Orbital symmetries:
       Occupied  (A') (A') (A') (A') (A') (A') (A') (A') (A') (A')
                 (A') (A') (A') (A') (A') (A') (A') (A') (A') (A')
                 (A') (A') (A') (A') (A') (A') (A') (A') (A') (A')
                 (A') (A') (A") (A') (A') (A') (A') (A") (A") (A')
                 (A') (A') (A') (A") (A") (A") (A")
       Virtual   (A") (A") (A") (A") (A') (A') (A') (A') (A") (A')
                 (A') (A") (A') (A') (A") (A') (A") (A') (A') (A')
                 (A") (A") (A') (A') (A') (A") (A') (A") (A') (A")
                 (A') (A") (A') (A') (A') (A') (A') (A") (A') (A')
                 (A") (A') (A') (A") (A") (A') (A') (A") (A') (A')
                 (A") (A') (A') (A') (A') (A") (A') (A') (A') (A")
                 (A') (A') (A') (A') (A') (A') (A") (A') (A') (A')
                 (A') (A') (A') (A') (A') (A') (A') (A') (A') (A')
                 (A') (A') (A') (A') (A') (A') (A') (A') (A') (A')
                 (A') (A') (A') (A') (A") (A") (A') (A") (A') (A')
                 (A") (A') (A') (A') (A") (A') (A') (A") (A") (A')
                 (A") (A') (A') (A") (A") (A') (A') (A") (A') (A")
                 (A") (A") (A') (A') (A') (A') (A') (A") (A') (A')
                 (A') (A') (A') (A') (A') (A') (A') (A') (A') (A')
                 (A') (A') (A') (A') (A") (A') (A') (A') (A') (A')
                 (A') (A') (A") (A') (A") (A') (A") (A') (A") (A')
                 (A") (A") (A') (A') (A") (A') (A") (A") (A") (A')
                 (A') (A') (A") (A') (A") (A') (A') (A') (A") (A')
                 (A') (A") (A') (A') (A") (A') (A') (A') (A") (A")
                 (A") (A') (A') (A") (A') (A') (A") (A') (A') (A")
                 (A') (A") (A") (A') (A') (A") (A") (A') (A') (A')
                 (A') (A') (A") (A") (A") (A') (A') (A') (A") (A")
                 (A') (A') (A') (A') (A") (A') (A') (A") (A') (A")
                 (A') (A') (A") (A') (A') (A') (A") (A') (A") (A')
                 (A") (A') (A') (A") (A') (A') (A') (A') (A') (A')
                 (A') (A") (A') (A') (A') (A") (A') (A") (A') (A")
                 (A') (A') (A') (A') (A') (A") (A') (A') (A') (A')
                 (A') (A") (A") (A') (A") (A') (A") (A") (A') (A")
                 (A") (A') (A") (A") (A') (A") (A') (A') (A') (A')
                 (A') (A') (A') (A') (A') (A') (A') (A') (A') (A')
                 (A') (A') (A') (A") (A') (A') (A') (A') (A') (A')
                 (A') (A') (A') (A') (A') (A') (A') (A') (A') (A')
                 (A') (A') (A') (A') (A') (A') (A') (A') (A') (A')
                 (A') (A')
 The electronic state is 1-A'.
 Alpha  occ. eigenvalues --  -10.77682 -10.74764 -10.73136 -10.72370 -10.72358
 Alpha  occ. eigenvalues --  -10.72353 -10.72351 -10.72194 -10.71940 -10.71287
 Alpha  occ. eigenvalues --  -10.70562 -10.70073 -10.69830 -10.69385  -1.16417
 Alpha  occ. eigenvalues --   -1.12180  -1.06594  -1.05314  -1.01155  -0.99995
 Alpha  occ. eigenvalues --   -0.95299  -0.90454  -0.87208  -0.84939  -0.83481
 Alpha  occ. eigenvalues --   -0.77809  -0.75586  -0.73722  -0.70146  -0.69311
 Alpha  occ. eigenvalues --   -0.67901  -0.67517  -0.67220  -0.64195  -0.63682
 Alpha  occ. eigenvalues --   -0.62195  -0.61311  -0.59885  -0.59393  -0.58591
 Alpha  occ. eigenvalues --   -0.56105  -0.55429  -0.54540  -0.52135  -0.46611
 Alpha  occ. eigenvalues --   -0.45912  -0.44466
 Alpha virt. eigenvalues --   -0.25712  -0.15062  -0.14307  -0.13090  -0.11260
 Alpha virt. eigenvalues --   -0.10191  -0.09252  -0.08038  -0.07993  -0.07547
 Alpha virt. eigenvalues --   -0.07218  -0.07079  -0.05787  -0.05620  -0.05300
 Alpha virt. eigenvalues --   -0.03927  -0.03614  -0.03474  -0.03163  -0.02082
 Alpha virt. eigenvalues --   -0.01449  -0.00785  -0.00113   0.00163   0.00554
 Alpha virt. eigenvalues --    0.00918   0.01287   0.01735   0.02144   0.02207
 Alpha virt. eigenvalues --    0.02421   0.02486   0.02573   0.03135   0.03729
 Alpha virt. eigenvalues --    0.04074   0.04315   0.04740   0.04870   0.05297
 Alpha virt. eigenvalues --    0.06065   0.06070   0.06515   0.06852   0.07212
 Alpha virt. eigenvalues --    0.07587   0.07960   0.08006   0.08417   0.08629
 Alpha virt. eigenvalues --    0.08828   0.09448   0.09683   0.10385   0.10640
 Alpha virt. eigenvalues --    0.10997   0.11265   0.11832   0.12361   0.12676
 Alpha virt. eigenvalues --    0.12698   0.13241   0.13891   0.14562   0.15070
 Alpha virt. eigenvalues --    0.16205   0.16542   0.16878   0.16965   0.17800
 Alpha virt. eigenvalues --    0.18689   0.18982   0.19461   0.19802   0.20605
 Alpha virt. eigenvalues --    0.21477   0.21655   0.22087   0.22955   0.23357
 Alpha virt. eigenvalues --    0.24246   0.24488   0.25981   0.26349   0.27258
 Alpha virt. eigenvalues --    0.27754   0.28841   0.31150   0.31413   0.34903
 Alpha virt. eigenvalues --    0.35479   0.38896   0.39737   0.40296   0.41332
 Alpha virt. eigenvalues --    0.41690   0.42308   0.43128   0.43178   0.43841
 Alpha virt. eigenvalues --    0.44259   0.45383   0.45952   0.46708   0.47654
 Alpha virt. eigenvalues --    0.48438   0.48755   0.48820   0.49160   0.50337
 Alpha virt. eigenvalues --    0.50483   0.51019   0.51842   0.51953   0.53829
 Alpha virt. eigenvalues --    0.54302   0.55040   0.55067   0.55799   0.57570
 Alpha virt. eigenvalues --    0.58642   0.60167   0.60405   0.61908   0.62736
 Alpha virt. eigenvalues --    0.63283   0.63520   0.63769   0.65275   0.67779
 Alpha virt. eigenvalues --    0.68402   0.69698   0.71174   0.71560   0.72315
 Alpha virt. eigenvalues --    0.73893   0.75328   0.76272   0.76701   0.77261
 Alpha virt. eigenvalues --    0.77530   0.78455   0.78706   0.80032   0.80366
 Alpha virt. eigenvalues --    0.81502   0.82238   0.82835   0.83386   0.85113
 Alpha virt. eigenvalues --    0.85757   0.86521   0.87436   0.89108   0.89631
 Alpha virt. eigenvalues --    0.90792   0.91444   0.91766   0.93325   0.94514
 Alpha virt. eigenvalues --    0.96554   0.97009   1.00039   1.00949   1.01413
 Alpha virt. eigenvalues --    1.01885   1.02609   1.03543   1.05110   1.06633
 Alpha virt. eigenvalues --    1.18080   1.20417   1.22215   1.25355   1.25370
 Alpha virt. eigenvalues --    1.27129   1.33498   1.34227   1.35631   1.36282
 Alpha virt. eigenvalues --    1.39072   1.40024   1.40178   1.41486   1.42142
 Alpha virt. eigenvalues --    1.42639   1.44046   1.45359   1.46382   1.46633
 Alpha virt. eigenvalues --    1.47215   1.49857   1.51056   1.52848   1.53508
 Alpha virt. eigenvalues --    1.54920   1.56945   1.57130   1.58848   1.61858
 Alpha virt. eigenvalues --    1.62318   1.62388   1.63463   1.66250   1.66734
 Alpha virt. eigenvalues --    1.66924   1.68621   1.69548   1.71272   1.74162
 Alpha virt. eigenvalues --    1.75234   1.75958   1.76075   1.77878   1.79038
 Alpha virt. eigenvalues --    1.80253   1.81496   1.82475   1.82905   1.84122
 Alpha virt. eigenvalues --    1.84427   1.85223   1.86216   1.87681   1.89110
 Alpha virt. eigenvalues --    1.89637   1.92333   1.95510   1.97179   1.98751
 Alpha virt. eigenvalues --    1.98808   2.01497   2.05550   2.06239   2.08075
 Alpha virt. eigenvalues --    2.11092   2.13436   2.16904   2.17133   2.22226
 Alpha virt. eigenvalues --    2.22586   2.26512   2.27796   2.29697   2.31880
 Alpha virt. eigenvalues --    2.33919   2.36053   2.37954   2.39111   2.41613
 Alpha virt. eigenvalues --    2.43111   2.45137   2.45408   2.47536   2.50190
 Alpha virt. eigenvalues --    2.54406   2.54430   2.56337   2.57736   2.58380
 Alpha virt. eigenvalues --    2.59728   2.60564   2.61046   2.62952   2.63096
 Alpha virt. eigenvalues --    2.64104   2.64274   2.65516   2.65754   2.66838
 Alpha virt. eigenvalues --    2.68226   2.70444   2.72616   2.73562   2.74616
 Alpha virt. eigenvalues --    2.76398   2.76540   2.79465   2.80380   2.82445
 Alpha virt. eigenvalues --    2.85829   2.87946   2.90778   2.97731   2.97755
 Alpha virt. eigenvalues --    2.99722   3.00095   3.02504   3.08341   3.12699
 Alpha virt. eigenvalues --    3.16578   3.21547   3.22942   3.28255   3.29080
 Alpha virt. eigenvalues --    3.29232   3.31332   3.39481   3.43597   3.44859
 Alpha virt. eigenvalues --    3.45229   3.49076   3.52258   3.57293   3.63626
 Alpha virt. eigenvalues --    3.68825   3.89249   3.92205   3.94836   3.95845
 Alpha virt. eigenvalues --    4.00581   4.03131   4.05152   4.10849   4.32547
 Alpha virt. eigenvalues --    4.47900   4.65539   4.69430  23.45107  23.58479
 Alpha virt. eigenvalues --   23.77810  23.80037  23.80942  23.84933  23.88128
 Alpha virt. eigenvalues --   23.89282  23.91397  23.97138  23.97915  24.02723
 Alpha virt. eigenvalues --   24.08880  24.10805
          Condensed to atoms (all electrons):
               1          2          3          4          5          6
     1  C   12.627234  -1.231574  -1.186489   4.726393   0.026255  -0.267523
     2  C   -1.231574   9.525591  -0.011071  -1.901195   0.011111  -0.021728
     3  C   -1.186489  -0.011071   6.804415  -0.001476  -0.031972   0.031796
     4  C    4.726393  -1.901195  -0.001476  14.146565  -1.213478  -0.286791
     5  C    0.026255   0.011111  -0.031972  -1.213478  10.565506   0.771089
     6  C   -0.267523  -0.021728   0.031796  -0.286791   0.771089  10.100084
     7  C    0.044110  -0.003612   0.001138   0.008226  -0.893541   0.030450
     8  C    0.487006   0.134078  -0.029620  -0.375419   1.801520  -0.269629
     9  C   -0.611670  -1.755293   0.142106   0.810597  -1.105929   0.289968
    10  C   -2.035953   0.282774   0.206142  -2.345610  -2.936809  -1.867385
    11  C   -1.193362  -0.871979   0.821720  -0.012932  -0.376280  -0.456835
    12  C   -5.129682   2.304580  -0.451552  -5.507495  -0.543974   0.094485
    13  C    0.802532  -0.347663   0.130351  -0.385557  -1.492280  -0.384836
    14  C   -1.851148  -0.038287  -0.295941  -1.645465   0.740948  -1.534263
    15  H    0.435240  -0.187076   0.030457   0.045657   0.003406   0.004043
    16  H   -0.002873   0.392435  -0.049780   0.018981  -0.000132  -0.000335
    17  H   -0.072526   0.007423   0.401436  -0.097444   0.000921   0.000749
    18  H    0.110858  -0.015240  -0.079109   0.560525   0.001811  -0.004860
    19  H   -0.074092  -0.015265   0.050838  -0.155434   0.137117   0.122131
    20  H    0.021547   0.005775  -0.008650   0.007493   0.435058  -0.164669
    21  H   -0.002145  -0.000301   0.000182  -0.001416  -0.032520   0.373334
    22  H    0.001387   0.000433  -0.000015  -0.001622   0.010549  -0.049837
    23  H    0.009914  -0.000000  -0.000305   0.000507   0.034191  -0.000411
    24  H    0.035188   0.013844   0.000523  -0.004659   0.000923  -0.003660
    25  H    0.035188   0.013844   0.000523  -0.004659   0.000923  -0.003660
               7          8          9         10         11         12
     1  C    0.044110   0.487006  -0.611670  -2.035953  -1.193362  -5.129682
     2  C   -0.003612   0.134078  -1.755293   0.282774  -0.871979   2.304580
     3  C    0.001138  -0.029620   0.142106   0.206142   0.821720  -0.451552
     4  C    0.008226  -0.375419   0.810597  -2.345610  -0.012932  -5.507495
     5  C   -0.893541   1.801520  -1.105929  -2.936809  -0.376280  -0.543974
     6  C    0.030450  -0.269629   0.289968  -1.867385  -0.456835   0.094485
     7  C    6.486670   0.642861  -0.024224   0.276403  -0.210905  -0.026174
     8  C    0.642861   9.349076  -0.339786  -1.086588   0.377764  -1.213582
     9  C   -0.024224  -0.339786   9.845715   0.924004   0.150059  -1.181820
    10  C    0.276403  -1.086588   0.924004   9.697172   0.138594   3.046963
    11  C   -0.210905   0.377764   0.150059   0.138594  11.308544  -0.118925
    12  C   -0.026174  -1.213582  -1.181820   3.046963  -0.118925  14.089324
    13  C   -0.117860  -0.339134   0.849952   1.338083  -0.615514  -1.984591
    14  C   -0.258400  -3.257217  -2.108868   0.228385  -2.792044   2.350398
    15  H   -0.002190  -0.003860   0.098751  -0.008689  -0.052460  -0.063158
    16  H    0.000024   0.000084  -0.005077  -0.006447  -0.008028  -0.000869
    17  H   -0.000146  -0.000849  -0.004783   0.014093   0.005261   0.095016
    18  H    0.000103  -0.000082  -0.010108  -0.049736   0.052654  -0.194817
    19  H    0.008663  -0.031620   0.063477   0.323849  -0.036818   0.065033
    20  H    0.020113   0.056222  -0.045716   0.035089   0.030846  -0.027011
    21  H   -0.023404  -0.001994  -0.005388  -0.005525  -0.005939   0.004024
    22  H    0.411814  -0.051401   0.009898   0.008500  -0.001369  -0.006296
    23  H   -0.048237   0.391023  -0.005234  -0.019325  -0.005817  -0.005855
    24  H    0.010174   0.031304   0.348498   0.001710  -0.028281  -0.033404
    25  H    0.010174   0.031304   0.348498   0.001710  -0.028281  -0.033404
              13         14         15         16         17         18
     1  C    0.802532  -1.851148   0.435240  -0.002873  -0.072526   0.110858
     2  C   -0.347663  -0.038287  -0.187076   0.392435   0.007423  -0.015240
     3  C    0.130351  -0.295941   0.030457  -0.049780   0.401436  -0.079109
     4  C   -0.385557  -1.645465   0.045657   0.018981  -0.097444   0.560525
     5  C   -1.492280   0.740948   0.003406  -0.000132   0.000921   0.001811
     6  C   -0.384836  -1.534263   0.004043  -0.000335   0.000749  -0.004860
     7  C   -0.117860  -0.258400  -0.002190   0.000024  -0.000146   0.000103
     8  C   -0.339134  -3.257217  -0.003860   0.000084  -0.000849  -0.000082
     9  C    0.849952  -2.108868   0.098751  -0.005077  -0.004783  -0.010108
    10  C    1.338083   0.228385  -0.008689  -0.006447   0.014093  -0.049736
    11  C   -0.615514  -2.792044  -0.052460  -0.008028   0.005261   0.052654
    12  C   -1.984591   2.350398  -0.063158  -0.000869   0.095016  -0.194817
    13  C   11.940790  -2.945195   0.027871  -0.002799  -0.002599  -0.011919
    14  C   -2.945195  18.495692  -0.023373   0.000176  -0.000784  -0.027827
    15  H    0.027871  -0.023373   0.471251  -0.014621   0.001857  -0.000171
    16  H   -0.002799   0.000176  -0.014621   0.426941  -0.006724   0.002278
    17  H   -0.002599  -0.000784   0.001857  -0.006724   0.415429  -0.009478
    18  H   -0.011919  -0.027827  -0.000171   0.002278  -0.009478   0.448509
    19  H    0.027888  -0.124706   0.001016  -0.001033   0.002926  -0.011997
    20  H   -0.037599  -0.010785  -0.000235   0.000096  -0.000459   0.002468
    21  H   -0.035883   0.074315   0.000044  -0.000006   0.000013  -0.000079
    22  H    0.023582  -0.013763  -0.000180   0.000004  -0.000004  -0.000021
    23  H   -0.045605   0.024524   0.000253  -0.000038  -0.000000   0.000003
    24  H    0.017146  -0.051398  -0.002932   0.000564  -0.000064   0.000113
    25  H    0.017146  -0.051398  -0.002932   0.000564  -0.000064   0.000113
              19         20         21         22         23         24
     1  C   -0.074092   0.021547  -0.002145   0.001387   0.009914   0.035188
     2  C   -0.015265   0.005775  -0.000301   0.000433  -0.000000   0.013844
     3  C    0.050838  -0.008650   0.000182  -0.000015  -0.000305   0.000523
     4  C   -0.155434   0.007493  -0.001416  -0.001622   0.000507  -0.004659
     5  C    0.137117   0.435058  -0.032520   0.010549   0.034191   0.000923
     6  C    0.122131  -0.164669   0.373334  -0.049837  -0.000411  -0.003660
     7  C    0.008663   0.020113  -0.023404   0.411814  -0.048237   0.010174
     8  C   -0.031620   0.056222  -0.001994  -0.051401   0.391023   0.031304
     9  C    0.063477  -0.045716  -0.005388   0.009898  -0.005234   0.348498
    10  C    0.323849   0.035089  -0.005525   0.008500  -0.019325   0.001710
    11  C   -0.036818   0.030846  -0.005939  -0.001369  -0.005817  -0.028281
    12  C    0.065033  -0.027011   0.004024  -0.006296  -0.005855  -0.033404
    13  C    0.027888  -0.037599  -0.035883   0.023582  -0.045605   0.017146
    14  C   -0.124706  -0.010785   0.074315  -0.013763   0.024524  -0.051398
    15  H    0.001016  -0.000235   0.000044  -0.000180   0.000253  -0.002932
    16  H   -0.001033   0.000096  -0.000006   0.000004  -0.000038   0.000564
    17  H    0.002926  -0.000459   0.000013  -0.000004  -0.000000  -0.000064
    18  H   -0.011997   0.002468  -0.000079  -0.000021   0.000003   0.000113
    19  H    0.470750  -0.009864   0.000580  -0.000100  -0.000345   0.000374
    20  H   -0.009864   0.497280  -0.010333   0.001929   0.000602   0.000171
    21  H    0.000580  -0.010333   0.413647  -0.006715   0.001817  -0.000175
    22  H   -0.000100   0.001929  -0.006715   0.415368  -0.008940   0.000509
    23  H   -0.000345   0.000602   0.001817  -0.008940   0.412954  -0.000416
    24  H    0.000374   0.000171  -0.000175   0.000509  -0.000416   0.494262
    25  H    0.000374   0.000171  -0.000175   0.000509  -0.000416  -0.082224
              25
     1  C    0.035188
     2  C    0.013844
     3  C    0.000523
     4  C   -0.004659
     5  C    0.000923
     6  C   -0.003660
     7  C    0.010174
     8  C    0.031304
     9  C    0.348498
    10  C    0.001710
    11  C   -0.028281
    12  C   -0.033404
    13  C    0.017146
    14  C   -0.051398
    15  H   -0.002932
    16  H    0.000564
    17  H   -0.000064
    18  H    0.000113
    19  H    0.000374
    20  H    0.000171
    21  H   -0.000175
    22  H    0.000509
    23  H   -0.000416
    24  H   -0.082224
    25  H    0.494262
 Mulliken charges:
               1
     1  C    0.296183
     2  C   -0.291604
     3  C   -0.475647
     4  C   -0.384293
     5  C    0.085588
     6  C   -0.501705
     7  C   -0.342231
     8  C   -0.301461
     9  C   -0.677627
    10  C   -0.161404
    11  C   -0.069672
    12  C    0.472787
    13  C   -0.426310
    14  C    1.116422
    15  H    0.242029
    16  H    0.256615
    17  H    0.250798
    18  H    0.236008
    19  H    0.186255
    20  H    0.200462
    21  H    0.264046
    22  H    0.255781
    23  H    0.265156
    24  H    0.251912
    25  H    0.251912
 Sum of Mulliken charges =   1.00000
 Mulliken charges with hydrogens summed into heavy atoms:
               1
     1  C    0.538212
     2  C   -0.034989
     3  C   -0.224848
     4  C   -0.148285
     5  C    0.286050
     6  C   -0.237659
     7  C   -0.086450
     8  C   -0.036306
     9  C   -0.173804
    10  C    0.024851
    11  C   -0.069672
    12  C    0.472787
    13  C   -0.426310
    14  C    1.116422
 Electronic spatial extent (au):  <R**2>=           2874.3518
 Charge=              1.0000 electrons
 Dipole moment (field-independent basis, Debye):
    X=              0.0966    Y=              0.3943    Z=              0.0000  Tot=              0.4059
 Quadrupole moment (field-independent basis, Debye-Ang):
   XX=            -52.5945   YY=            -33.8981   ZZ=            -84.6541
   XY=             -9.1950   XZ=             -0.0000   YZ=             -0.0000
 Traceless Quadrupole moment (field-independent basis, Debye-Ang):
   XX=              4.4544   YY=             23.1508   ZZ=            -27.6052
   XY=             -9.1950   XZ=             -0.0000   YZ=             -0.0000
 Octapole moment (field-independent basis, Debye-Ang**2):
  XXX=              1.0296  YYY=              1.8115  ZZZ=             -0.0000  XYY=             -1.6303
  XXY=              4.2276  XXZ=              0.0000  XZZ=             -2.3093  YZZ=             -1.6268
  YYZ=              0.0000  XYZ=              0.0000
 Hexadecapole moment (field-independent basis, Debye-Ang**3):
 XXXX=           -878.3299 YYYY=          -1934.6169 ZZZZ=           -100.4534 XXXY=            301.6127
 XXXZ=             -0.0000 YYYX=            224.9000 YYYZ=             -0.0000 ZZZX=             -0.0000
 ZZZY=              0.0000 XXYY=           -466.8879 XXZZ=           -216.3583 YYZZ=           -528.6516
 XXYZ=             -0.0000 YYXZ=             -0.0000 ZZXY=            161.0164
 N-N= 7.775764655007D+02 E-N=-2.791053633019D+03  KE= 5.370291010304D+02
 Symmetry A'   KE= 5.224348053297D+02
 Symmetry A"   KE= 1.459429570076D+01
 Unable to Open any file for archive entry.
 1\1\GINC-GADI-CPU-CLX-0359\SP\RM062X TD-FC\6-311++G(d,p)\C14H11(1+)\TS
 1578\02-Aug-2022\0\\#n M062X/6-311++G(d,p) TD(NStates=1) EmpiricalDisp
 ersion=GD3 SP\\SP_-10\\1,1\C,0,0.,2.440655,1.238431\C,0,0.,3.687508,0.
 619989\C,0,0.,3.733861,-0.75583\C,0,0.,2.511156,-1.509538\C,0,0.,-2.27
 1156,-1.329538\C,0,0.,-3.573861,-0.87583\C,0,0.,-3.787508,0.519989\C,0
 ,0.,-2.700655,1.458431\C,0,0.,0.04,1.543369\C,0,0.,-0.06,-1.339189\C,0
 ,0.,1.220055,0.545065\C,0,0.,1.265471,-0.842804\C,0,0.,-1.340055,0.965
 065\C,0,0.,-1.185471,-0.462804\H,0,0.,2.392071,2.321647\H,0,0.,4.58275
 3,1.225689\H,0,0.,4.689262,-1.278349\H,0,0.,2.56555,-2.592059\H,0,0.,-
 0.31,-2.414266\H,0,0.,-2.04555,-2.412059\H,0,0.,-4.409262,-1.578349\H,
 0,0.,-4.822753,0.885689\H,0,0.,-2.932071,2.541647\H,0,-0.859585,0.24,2
 .235787\H,0,0.859585,0.24,2.235787\\Version=ES64L-G16RevC.01\State=1-A
 '\HF=-539.7068988\RMSD=2.700e-09\PG=CS [SG(C14H9),X(H2)]\\@
 The archive entry for this job was punched.


    UPON JULIA'S CLOTHES

 WHENAS IN SILKS MY JULIA GOES,
 THEN, THEN, METHINKS, HOW SWEETLY FLOWS
 THAT LIQUEFACTION OF HER CLOTHES.

 NEXT, WHEN I CAST MINE EYES, AND SEE
 THAT BRAVE VIBRATION, EACH WAY FREE,
 O, HOW THAT GLITTERING TAKETH ME!
     -- ROBERT HERRICK, 1648
 Job cpu time:       0 days  0 hours 52 minutes 53.9 seconds.
 Elapsed time:       0 days  0 hours  1 minutes  7.9 seconds.
 File lengths (MBytes):  RWF=    460 Int=      0 D2E=      0 Chk=     15 Scr=      1
 Normal termination of Gaussian 16 at Tue Aug  2 11:43:54 2022.
