 Entering Gaussian System, Link 0=g16
 Initial command:
 /apps/gaussian/g16c01/g16/l1.exe "/jobfs/53803768.gadi-pbs/Gau-226400.inp" -scrdir="/jobfs/53803768.gadi-pbs/"
 Entering Link 1 = /apps/gaussian/g16c01/g16/l1.exe PID=    226401.
  
 Copyright (c) 1988-2019, Gaussian, Inc.  All Rights Reserved.
  
 This is part of the Gaussian(R) 16 program.  It is based on
 the Gaussian(R) 09 system (copyright 2009, Gaussian, Inc.),
 the Gaussian(R) 03 system (copyright 2003, Gaussian, Inc.),
 the Gaussian(R) 98 system (copyright 1998, Gaussian, Inc.),
 the Gaussian(R) 94 system (copyright 1995, Gaussian, Inc.),
 the Gaussian 92(TM) system (copyright 1992, Gaussian, Inc.),
 the Gaussian 90(TM) system (copyright 1990, Gaussian, Inc.),
 the Gaussian 88(TM) system (copyright 1988, Gaussian, Inc.),
 the Gaussian 86(TM) system (copyright 1986, Carnegie Mellon
 University), and the Gaussian 82(TM) system (copyright 1983,
 Carnegie Mellon University). Gaussian is a federally registered
 trademark of Gaussian, Inc.
  
 This software contains proprietary and confidential information,
 including trade secrets, belonging to Gaussian, Inc.
  
 This software is provided under written license and may be
 used, copied, transmitted, or stored only in accord with that
 written license.
  
 The following legend is applicable only to US Government
 contracts under FAR:
  
                    RESTRICTED RIGHTS LEGEND
  
 Use, reproduction and disclosure by the US Government is
 subject to restrictions as set forth in subparagraphs (a)
 and (c) of the Commercial Computer Software - Restricted
 Rights clause in FAR 52.227-19.
  
 Gaussian, Inc.
 340 Quinnipiac St., Bldg. 40, Wallingford CT 06492
  
  
 ---------------------------------------------------------------
 Warning -- This program may not be used in any manner that
 competes with the business of Gaussian, Inc. or will provide
 assistance to any competitor of Gaussian, Inc.  The licensee
 of this program is prohibited from giving any competitor of
 Gaussian, Inc. access to this program.  By using this program,
 the user acknowledges that Gaussian, Inc. is engaged in the
 business of creating and licensing software in the field of
 computational chemistry and represents and warrants to the
 licensee that it is not a competitor of Gaussian, Inc. and that
 it will not use this program in any manner prohibited above.
 ---------------------------------------------------------------
  

 Cite this work as:
 Gaussian 16, Revision C.01,
 M. J. Frisch, G. W. Trucks, H. B. Schlegel, G. E. Scuseria, 
 M. A. Robb, J. R. Cheeseman, G. Scalmani, V. Barone, 
 G. A. Petersson, H. Nakatsuji, X. Li, M. Caricato, A. V. Marenich, 
 J. Bloino, B. G. Janesko, R. Gomperts, B. Mennucci, H. P. Hratchian, 
 J. V. Ortiz, A. F. Izmaylov, J. L. Sonnenberg, D. Williams-Young, 
 F. Ding, F. Lipparini, F. Egidi, J. Goings, B. Peng, A. Petrone, 
 T. Henderson, D. Ranasinghe, V. G. Zakrzewski, J. Gao, N. Rega, 
 G. Zheng, W. Liang, M. Hada, M. Ehara, K. Toyota, R. Fukuda, 
 J. Hasegawa, M. Ishida, T. Nakajima, Y. Honda, O. Kitao, H. Nakai, 
 T. Vreven, K. Throssell, J. A. Montgomery, Jr., J. E. Peralta, 
 F. Ogliaro, M. J. Bearpark, J. J. Heyd, E. N. Brothers, K. N. Kudin, 
 V. N. Staroverov, T. A. Keith, R. Kobayashi, J. Normand, 
 K. Raghavachari, A. P. Rendell, J. C. Burant, S. S. Iyengar, 
 J. Tomasi, M. Cossi, J. M. Millam, M. Klene, C. Adamo, R. Cammi, 
 J. W. Ochterski, R. L. Martin, K. Morokuma, O. Farkas, 
 J. B. Foresman, and D. J. Fox, Gaussian, Inc., Wallingford CT, 2019.
 
 ******************************************
 Gaussian 16:  ES64L-G16RevC.01  3-Jul-2019
                 2-Aug-2022 
 ******************************************
 %NProcShared=48
 Will use up to   48 processors via shared memory.
 %mem = 190GB
 ---------------------------------------------------------------
 #n M062X/6-311++G(d,p) TD(NStates=1) EmpiricalDispersion=GD3 SP
 ---------------------------------------------------------------
 1/38=1,172=1/1;
 2/12=2,17=6,18=5,40=1/2;
 3/5=4,6=6,7=1111,11=9,25=1,30=1,74=-55,124=31/1,2,3,8;
 4//1;
 5/5=2,38=5/2;
 8/6=1,10=2,108=1/1;
 9/41=1,42=1,70=2/14;
 6/7=2,8=2,9=2,10=2/1;
 99/5=1,9=1/99;
 ----
 SP_8
 ----
 Symbolic Z-matrix:
 Charge =  1 Multiplicity = 1
 C                     0.        2.46666   1.46843 
 C                     0.        3.68151   0.80199 
 C                     0.        3.66986  -0.59183 
 C                     0.        2.48716  -1.31554 
 C                     0.       -2.67916  -1.45954 
 C                     0.       -3.79786  -0.49583 
 C                     0.       -3.60151   0.88199 
 C                     0.       -2.25866   1.29243 
 C                     0.       -0.032     1.30337 
 C                     0.        0.048    -1.57919 
 C                     0.        1.28006   0.71507 
 C                     0.        1.22547  -0.7088 
 C                     0.       -1.18406   0.37907 
 C                     0.       -1.28947  -1.0128 
 H                     0.        2.41407   2.55165 
 H                     0.        4.62275   1.33569 
 H                     0.        4.59726  -1.13235 
 H                     0.        2.52955  -2.39806 
 H                     0.        0.248    -2.67027 
 H                     0.       -2.94555  -2.54206 
 H                     0.       -4.82126  -0.89235 
 H                     0.       -4.43075   1.60769 
 H                     0.       -1.98207   2.37565 
 H                    -0.85959  -0.192     1.99579 
 H                     0.85959  -0.192     1.99579 
 
                          Input orientation:                          
 ---------------------------------------------------------------------
 Center     Atomic      Atomic             Coordinates (Angstroms)
 Number     Number       Type             X           Y           Z
 ---------------------------------------------------------------------
      1          6           0        0.000000    2.466655    1.468431
      2          6           0        0.000000    3.681508    0.801989
      3          6           0        0.000000    3.669861   -0.591830
      4          6           0        0.000000    2.487156   -1.315538
      5          6           0        0.000000   -2.679156   -1.459538
      6          6           0        0.000000   -3.797861   -0.495830
      7          6           0        0.000000   -3.601508    0.881989
      8          6           0        0.000000   -2.258655    1.292431
      9          6           0        0.000000   -0.032000    1.303369
     10          6           0        0.000000    0.048000   -1.579189
     11          6           0        0.000000    1.280055    0.715065
     12          6           0        0.000000    1.225471   -0.708804
     13          6           0        0.000000   -1.184055    0.379065
     14          6           0        0.000000   -1.289471   -1.012804
     15          1           0        0.000000    2.414071    2.551647
     16          1           0        0.000000    4.622753    1.335689
     17          1           0        0.000000    4.597262   -1.132349
     18          1           0        0.000000    2.529550   -2.398059
     19          1           0        0.000000    0.248000   -2.670266
     20          1           0        0.000000   -2.945550   -2.542059
     21          1           0        0.000000   -4.821262   -0.892349
     22          1           0        0.000000   -4.430753    1.607689
     23          1           0        0.000000   -1.982071    2.375647
     24          1           0       -0.859585   -0.192000    1.995787
     25          1           0        0.859585   -0.192000    1.995787
 ---------------------------------------------------------------------
                    Distance matrix (angstroms):
                    1          2          3          4          5
     1  C    0.000000
     2  C    1.385645   0.000000
     3  C    2.385871   1.393868   0.000000
     4  C    2.784044   2.431131   1.386558   0.000000
     5  C    5.920504   6.750744   6.408037   5.168318   0.000000
     6  C    6.565248   7.591133   7.468339   6.338246   1.476562
     7  C    6.096435   7.283455   7.419228   6.473095   2.516641
     8  C    4.728587   5.960375   6.220751   5.415185   2.783910
     9  C    2.504101   3.747202   4.158792   3.633844   3.826368
    10  C    3.890743   4.344236   3.754032   2.453364   2.729780
    11  C    1.405553   2.403026   2.723811   2.362296   4.517106
    12  C    2.506170   2.883507   2.447187   1.399991   3.976143
    13  C    3.809777   4.883909   4.950064   4.043448   2.369765
    14  C    4.501667   5.291891   4.977167   3.788741   1.459725
    15  H    1.084492   2.160486   3.385034   3.867876   6.483099
    16  H    2.160180   1.082025   2.150194   3.404376   7.818642
    17  H    3.362074   2.140156   1.073421   2.118043   7.283770
    18  H    3.867002   3.401075   2.136065   1.083351   5.292583
    19  H    4.695875   4.883189   4.003627   2.617080   3.167665
    20  H    6.736170   7.422975   6.896887   5.569439   1.114817
    21  H    7.660745   8.669941   8.496439   7.320660   2.215925
    22  H    6.898814   8.152173   8.393916   7.510175   3.532134
    23  H    4.540287   5.878140   6.383593   5.796450   3.898021
    24  H    2.843490   4.143441   4.727433   4.345301   4.343282
    25  H    2.843490   4.143441   4.727433   4.345301   4.343282
                    6          7          8          9         10
     6  C    0.000000
     7  C    1.391740   0.000000
     8  C    2.359456   1.404178   0.000000
     9  C    4.173587   3.594294   2.226682   0.000000
    10  C    3.995537   4.401853   3.683322   2.883668   0.000000
    11  C    5.220297   4.884416   3.585501   1.437912   2.604143
    12  C    5.027845   5.082357   4.017969   2.372778   1.464243
    13  C    2.756342   2.469213   1.410320   1.477013   2.313594
    14  C    2.561110   2.989273   2.500685   2.635506   1.452453
    15  H    6.919192   6.242992   4.839421   2.746172   4.760472
    16  H    8.617494   8.236766   6.881544   4.654865   5.424470
    17  H    8.419219   8.442594   7.272081   5.230945   4.571154
    18  H    6.607163   6.953315   6.045380   4.501345   2.613166
    19  H    4.593165   5.238056   4.688954   3.983488   1.109256
    20  H    2.216639   3.486314   3.895528   4.824530   3.144592
    21  H    1.097532   2.153155   3.367524   5.268606   4.917465
    22  H    2.196667   1.101947   2.194857   4.409267   5.496855
    23  H    3.397422   2.203087   1.117969   2.225434   4.445438
    24  H    4.466461   3.688384   2.346201   1.115316   3.684690
    25  H    4.466461   3.688384   2.346201   1.115316   3.684690
                   11         12         13         14         15
    11  C    0.000000
    12  C    1.424915   0.000000
    13  C    2.486913   2.643724   0.000000
    14  C    3.096449   2.533249   1.395855   0.000000
    15  H    2.158478   3.470347   4.203168   5.140188   0.000000
    16  H    3.399824   3.965032   5.885078   6.361589   2.521275
    17  H    3.796946   3.398289   5.975617   5.887947   4.282307
    18  H    3.354516   2.134058   4.637163   4.062493   4.951053
    19  H    3.539153   2.191525   3.368858   2.260752   5.653339
    20  H    5.335222   4.556121   3.411133   2.254156   7.394010
    21  H    6.309505   6.049518   3.853021   3.533845   8.013186
    22  H    5.780148   6.112202   3.471392   4.090799   6.909607
    23  H    3.660464   4.449962   2.150156   3.458511   4.399664
    24  H    2.132154   3.172211   2.082510   3.315863   2.799906
    25  H    2.132154   3.172211   2.082510   3.315863   2.799906
                   16         17         18         19         20
    16  H    0.000000
    17  H    2.468170   0.000000
    18  H    4.280464   2.424346   0.000000
    19  H    5.931791   4.613163   2.297731   0.000000
    20  H    8.503890   7.673415   5.476993   3.196122   0.000000
    21  H    9.703276   9.421581   7.503439   5.372002   2.497967
    22  H    9.057591   9.434663   8.030681   6.339687   4.407520
    23  H    6.686196   7.456116   6.568333   5.516743   5.011200
    24  H    4.935227   5.784561   5.239428   4.764928   5.377078
    25  H    4.935227   5.784561   5.239428   4.764928   5.377078
                   21         22         23         24         25
    21  H    0.000000
    22  H    2.530353   0.000000
    23  H    4.329065   2.566282   0.000000
    24  H    5.523611   4.342411   2.021765   0.000000
    25  H    5.523611   4.342411   2.021765   1.719170   0.000000
 Stoichiometry    C14H11(1+)
 Framework group  CS[SG(C14H9),X(H2)]
 Deg. of freedom    46
 Full point group                 CS      NOp   2
 Largest Abelian subgroup         CS      NOp   2
 Largest concise Abelian subgroup CS      NOp   2
                         Standard orientation:                         
 ---------------------------------------------------------------------
 Center     Atomic      Atomic             Coordinates (Angstroms)
 Number     Number       Type             X           Y           Z
 ---------------------------------------------------------------------
      1          6           0       -2.143422   -1.907894    0.000000
      2          6           0       -1.876022   -3.267493    0.000000
      3          6           0       -0.544080   -3.678341    0.000000
      4          6           0        0.503708   -2.770219    0.000000
      5          6           0        2.204939    2.110081    0.000000
      6          6           0        1.625115    3.468034    0.000000
      7          6           0        0.252506    3.697999    0.000000
      8          6           0       -0.545196    2.542409    0.000000
      9          6           0       -1.229692    0.423547    0.000000
     10          6           0        1.493389   -0.525331    0.000000
     11          6           0       -1.066189   -1.005038    0.000000
     12          6           0        0.307391   -1.384061    0.000000
     13          6           0        0.000000    1.241731    0.000000
     14          6           0        1.358471    0.920843    0.000000
     15          1           0       -3.159892   -1.529858    0.000000
     16          1           0       -2.669621   -4.003006    0.000000
     17          1           0       -0.309674   -4.725856    0.000000
     18          1           0        1.522600   -3.138334    0.000000
     19          1           0        2.472724   -1.046246    0.000000
     20          1           0        3.317310    2.036265    0.000000
     21          1           0        2.312840    4.323377    0.000000
     22          1           0       -0.188106    4.708023    0.000000
     23          1           0       -1.661314    2.606724    0.000000
     24          1           0       -1.841183    0.785654    0.859585
     25          1           0       -1.841183    0.785654   -0.859585
 ---------------------------------------------------------------------
 Rotational constants (GHZ):           2.1030316           0.4451928           0.3682118
 Standard basis: 6-311++G(d,p) (5D, 7F)
 There are   299 symmetry adapted cartesian basis functions of A'  symmetry.
 There are   100 symmetry adapted cartesian basis functions of A"  symmetry.
 There are   285 symmetry adapted basis functions of A'  symmetry.
 There are   100 symmetry adapted basis functions of A"  symmetry.
   385 basis functions,   603 primitive gaussians,   399 cartesian basis functions
    47 alpha electrons       47 beta electrons
       nuclear repulsion energy       778.8776935013 Hartrees.
 NAtoms=   25 NActive=   25 NUniq=   24 SFac= 1.09D+00 NAtFMM=   60 NAOKFM=F Big=F
 Integral buffers will be    131072 words long.
 Regular integral format.
 Two-electron integral symmetry is turned on.
 Nuclear repulsion after empirical dispersion term =      778.8767165676 Hartrees.
 One-electron integrals computed using PRISM.
 NBasis=   385 RedAO= T EigKep=  1.29D-06  NBF=   285   100
 NBsUse=   379 1.00D-06 EigRej=  8.31D-07 NBFU=   279   100
 ExpMin= 3.60D-02 ExpMax= 4.56D+03 ExpMxC= 6.82D+02 IAcc=3 IRadAn=         5 AccDes= 0.00D+00
 Harris functional with IExCor= 1009 and IRadAn=       5 diagonalized for initial guess.
 HarFok:  IExCor= 1009 AccDes= 0.00D+00 IRadAn=         5 IDoV= 1 UseB2=F ITyADJ=14
 ICtDFT=  3500011 ScaDFX=  1.000000  1.000000  1.000000  1.000000
 FoFCou: FMM=F IPFlag=           0 FMFlag=      100000 FMFlg1=           0
         NFxFlg=           0 DoJE=T BraDBF=F KetDBF=T FulRan=T
         wScrn=  0.000000 ICntrl=       500 IOpCl=  0 I1Cent=   200000004 NGrid=           0
         NMat0=    1 NMatS0=      1 NMatT0=    0 NMatD0=    1 NMtDS0=    0 NMtDT0=    0
 Petite list used in FoFCou.
 Initial guess orbital symmetries:
       Occupied  (A') (A') (A') (A') (A') (A') (A') (A') (A') (A')
                 (A') (A') (A') (A') (A') (A') (A') (A') (A') (A')
                 (A') (A') (A') (A') (A') (A') (A') (A') (A') (A')
                 (A') (A') (A") (A') (A') (A') (A') (A') (A") (A')
                 (A") (A') (A') (A") (A") (A") (A")
       Virtual   (A") (A") (A") (A") (A") (A') (A') (A') (A') (A")
                 (A") (A') (A') (A') (A') (A") (A') (A') (A') (A')
                 (A") (A') (A") (A') (A') (A") (A') (A') (A") (A')
                 (A') (A') (A') (A') (A') (A") (A') (A") (A') (A")
                 (A') (A') (A') (A") (A') (A') (A') (A') (A') (A")
                 (A') (A") (A') (A') (A") (A') (A') (A") (A') (A")
                 (A') (A') (A') (A") (A') (A') (A') (A') (A') (A")
                 (A') (A') (A') (A') (A') (A') (A') (A') (A') (A')
                 (A') (A') (A') (A') (A') (A') (A') (A') (A') (A')
                 (A') (A') (A') (A') (A') (A') (A') (A") (A') (A")
                 (A') (A') (A") (A") (A') (A') (A") (A') (A") (A")
                 (A') (A") (A') (A") (A') (A") (A') (A') (A") (A")
                 (A') (A") (A') (A') (A') (A") (A') (A') (A') (A")
                 (A') (A') (A') (A') (A') (A') (A') (A") (A') (A')
                 (A') (A') (A') (A') (A') (A') (A') (A') (A") (A')
                 (A") (A') (A") (A') (A") (A') (A') (A") (A") (A')
                 (A') (A') (A") (A") (A") (A") (A') (A') (A') (A')
                 (A') (A') (A") (A') (A") (A') (A') (A') (A") (A')
                 (A') (A') (A") (A') (A') (A") (A') (A") (A") (A")
                 (A') (A') (A') (A') (A") (A') (A') (A') (A") (A")
                 (A') (A") (A") (A') (A") (A") (A') (A') (A') (A')
                 (A") (A') (A") (A') (A") (A') (A') (A") (A") (A')
                 (A') (A') (A') (A') (A") (A') (A") (A') (A") (A')
                 (A') (A') (A') (A") (A') (A") (A') (A") (A') (A")
                 (A') (A') (A') (A') (A") (A') (A') (A') (A') (A')
                 (A") (A') (A') (A") (A") (A') (A') (A") (A') (A')
                 (A") (A') (A') (A') (A") (A') (A') (A') (A") (A')
                 (A") (A') (A') (A") (A') (A") (A') (A') (A") (A')
                 (A") (A') (A") (A") (A") (A') (A') (A') (A') (A')
                 (A') (A') (A') (A') (A') (A') (A') (A') (A') (A')
                 (A') (A') (A') (A") (A') (A') (A') (A') (A') (A')
                 (A') (A') (A') (A') (A') (A') (A') (A') (A') (A')
                 (A') (A') (A') (A') (A') (A') (A') (A') (A') (A')
                 (A') (A')
 The electronic state of the initial guess is 1-A'.
 Requested convergence on RMS density matrix=1.00D-08 within 128 cycles.
 Requested convergence on MAX density matrix=1.00D-06.
 Requested convergence on             energy=1.00D-06.
 No special actions if energy rises.
 SCF Done:  E(RM062X) =  -539.695593952     A.U. after   16 cycles
            NFock= 16  Conv=0.47D-08     -V/T= 2.0049
 DoSCS=F DFT=T ScalE2(SS,OS)=  1.000000  1.000000
 ExpMin= 3.60D-02 ExpMax= 4.56D+03 ExpMxC= 6.82D+02 IAcc=3 IRadAn=         5 AccDes= 0.00D+00
 HarFok:  IExCor=  205 AccDes= 0.00D+00 IRadAn=         5 IDoV=-2 UseB2=F ITyADJ=14
 ICtDFT= 12500011 ScaDFX=  1.000000  1.000000  1.000000  1.000000
 Range of M.O.s used for correlation:    15   379
 NBasis=   385 NAE=    47 NBE=    47 NFC=    14 NFV=     0
 NROrb=    365 NOA=    33 NOB=    33 NVA=   332 NVB=   332

 **** Warning!!: The largest alpha MO coefficient is  0.19725753D+03

 Orbital symmetries:
       Occupied  (A') (A') (A') (A') (A') (A') (A') (A') (A') (A')
                 (A') (A') (A') (A') (A') (A') (A') (A') (A') (A')
                 (A') (A') (A') (A') (A') (A') (A') (A') (A') (A')
                 (A') (A") (A') (A') (A') (A') (A') (A") (A") (A')
                 (A') (A') (A') (A") (A") (A") (A")
       Virtual   (A") (A") (A") (A") (A') (A') (A') (A") (A') (A')
                 (A") (A') (A') (A') (A") (A') (A") (A') (A') (A')
                 (A") (A") (A') (A') (A') (A") (A') (A") (A') (A')
                 (A") (A') (A") (A') (A') (A') (A') (A") (A') (A')
                 (A') (A") (A') (A") (A") (A') (A") (A') (A') (A")
                 (A') (A') (A') (A') (A') (A") (A') (A') (A') (A')
                 (A") (A') (A') (A') (A') (A') (A") (A') (A') (A')
                 (A') (A') (A') (A') (A') (A') (A') (A') (A') (A')
                 (A') (A') (A') (A') (A') (A') (A') (A') (A') (A')
                 (A') (A') (A') (A') (A') (A") (A") (A") (A') (A')
                 (A') (A") (A') (A') (A") (A") (A') (A") (A') (A')
                 (A") (A") (A') (A') (A") (A') (A") (A') (A') (A")
                 (A") (A') (A") (A') (A') (A") (A') (A') (A') (A')
                 (A') (A') (A') (A') (A') (A') (A') (A') (A') (A')
                 (A') (A') (A') (A") (A') (A') (A') (A') (A') (A')
                 (A') (A") (A') (A') (A') (A") (A") (A') (A") (A')
                 (A") (A") (A') (A') (A") (A') (A") (A") (A") (A')
                 (A') (A') (A') (A') (A") (A") (A") (A') (A') (A')
                 (A') (A') (A") (A') (A') (A") (A") (A") (A') (A")
                 (A') (A') (A') (A") (A') (A') (A') (A") (A') (A")
                 (A') (A") (A") (A') (A") (A") (A') (A') (A') (A')
                 (A') (A") (A') (A") (A') (A") (A') (A') (A") (A")
                 (A') (A') (A') (A') (A") (A') (A') (A") (A") (A')
                 (A') (A') (A') (A") (A') (A') (A") (A') (A") (A")
                 (A') (A') (A') (A') (A") (A') (A') (A') (A') (A')
                 (A') (A') (A") (A') (A') (A") (A") (A') (A") (A')
                 (A') (A') (A') (A') (A') (A') (A") (A') (A') (A')
                 (A") (A') (A') (A") (A") (A') (A") (A') (A") (A")
                 (A') (A") (A") (A") (A") (A') (A') (A') (A') (A')
                 (A') (A') (A') (A') (A') (A') (A') (A') (A') (A')
                 (A') (A') (A') (A') (A") (A') (A') (A') (A') (A')
                 (A') (A') (A') (A') (A') (A') (A') (A') (A') (A')
                 (A') (A') (A') (A') (A') (A') (A') (A') (A') (A')
                 (A') (A')
     4 initial guesses have been made.
 Convergence on wavefunction:    0.001000000000000
 Iteration     1 Dimension     4 NMult     0 NNew      4
 CISAX will form     4 AO SS matrices at one time.
 Iteration     2 Dimension     6 NMult     4 NNew      2
 Iteration     3 Dimension     8 NMult     6 NNew      2
 Iteration     4 Dimension    10 NMult     8 NNew      2
 Iteration     5 Dimension    12 NMult    10 NNew      2
 Iteration     6 Dimension    14 NMult    12 NNew      2
 ***********************************************************************
 Excited states from <AA,BB:AA,BB> singles matrix:
 ***********************************************************************
 
 Ground to excited state transition densities written to RWF  633
 Ground to excited state transition electric dipole moments (Au):
       state          X           Y           Z        Dip. S.      Osc.
         1         0.6356      0.0728      0.0000      0.4093      0.0245
 Ground to excited state transition velocity dipole moments (Au):
       state          X           Y           Z        Dip. S.      Osc.
         1        -0.0657     -0.0086     -0.0000      0.0044      0.0327
 Ground to excited state transition magnetic dipole moments (Au):
       state          X           Y           Z
         1         0.0000      0.0000     -0.0610
 Ground to excited state transition velocity quadrupole moments (Au):
       state          XX          YY          ZZ          XY          XZ          YZ
         1        -0.1115     -0.2029      0.0078     -0.1148     -0.0000     -0.0000
 <0|del|b> * <b|rxdel|0> + <0|del|b> * <b|delr+rdel|0>
 Rotatory Strengths (R) in cgs (10**-40 erg-esu-cm/Gauss)
       state          XX          YY          ZZ    R(velocity)    E-M Angle
         1        -0.0000     -0.0000     -0.0000     -0.0000       90.00
 1/2[<0|r|b>*<b|rxdel|0> + (<0|rxdel|b>*<b|r|0>)*]
 Rotatory Strengths (R) in cgs (10**-40 erg-esu-cm/Gauss)
       state          XX          YY          ZZ     R(length)
         1        -0.0000     -0.0000      0.0000     -0.0000
  1/2[<0|del|b>*<b|r|0> + (<0|r|b>*<b|del|0>)*] (Au)
       state          X           Y           Z        Dip. S.   Osc.(frdel)
         1        -0.0418     -0.0006     -0.0000      0.0424      0.0283

 Excitation energies and oscillator strengths:
 
 Excited State   1:      Singlet-A'     2.4383 eV  508.49 nm  f=0.0245  <S**2>=0.000
      47 -> 48         0.70472
 This state for optimization and/or second-order correction.
 Total Energy, E(TD-HF/TD-DFT) =  -539.605989131    
 Copying the excited state density for this state as the 1-particle RhoCI density.
 SavETr:  write IOETrn=   770 NScale= 10 NData=  16 NLR=1 NState=    1 LETran=      28.

 **********************************************************************

            Population analysis using the SCF Density.

 **********************************************************************

 Orbital symmetries:
       Occupied  (A') (A') (A') (A') (A') (A') (A') (A') (A') (A')
                 (A') (A') (A') (A') (A') (A') (A') (A') (A') (A')
                 (A') (A') (A') (A') (A') (A') (A') (A') (A') (A')
                 (A') (A") (A') (A') (A') (A') (A') (A") (A") (A')
                 (A') (A') (A') (A") (A") (A") (A")
       Virtual   (A") (A") (A") (A") (A') (A') (A') (A") (A') (A')
                 (A") (A') (A') (A') (A") (A') (A") (A') (A') (A')
                 (A") (A") (A') (A') (A') (A") (A') (A") (A') (A')
                 (A") (A') (A") (A') (A') (A') (A') (A") (A') (A')
                 (A') (A") (A') (A") (A") (A') (A") (A') (A') (A")
                 (A') (A') (A') (A') (A') (A") (A') (A') (A') (A')
                 (A") (A') (A') (A') (A') (A') (A") (A') (A') (A')
                 (A') (A') (A') (A') (A') (A') (A') (A') (A') (A')
                 (A') (A') (A') (A') (A') (A') (A') (A') (A') (A')
                 (A') (A') (A') (A') (A') (A") (A") (A") (A') (A')
                 (A') (A") (A') (A') (A") (A") (A') (A") (A') (A')
                 (A") (A") (A') (A') (A") (A') (A") (A') (A') (A")
                 (A") (A') (A") (A') (A') (A") (A') (A') (A') (A')
                 (A') (A') (A') (A') (A') (A') (A') (A') (A') (A')
                 (A') (A') (A') (A") (A') (A') (A') (A') (A') (A')
                 (A') (A") (A') (A') (A') (A") (A") (A') (A") (A')
                 (A") (A") (A') (A') (A") (A') (A") (A") (A") (A')
                 (A') (A') (A') (A') (A") (A") (A") (A') (A') (A')
                 (A') (A') (A") (A') (A') (A") (A") (A") (A') (A")
                 (A') (A') (A') (A") (A') (A') (A') (A") (A') (A")
                 (A') (A") (A") (A') (A") (A") (A') (A') (A') (A')
                 (A') (A") (A') (A") (A') (A") (A') (A') (A") (A")
                 (A') (A') (A') (A') (A") (A') (A') (A") (A") (A')
                 (A') (A') (A') (A") (A') (A') (A") (A') (A") (A")
                 (A') (A') (A') (A') (A") (A') (A') (A') (A') (A')
                 (A') (A') (A") (A') (A') (A") (A") (A') (A") (A')
                 (A') (A') (A') (A') (A') (A') (A") (A') (A') (A')
                 (A") (A') (A') (A") (A") (A') (A") (A') (A") (A")
                 (A') (A") (A") (A") (A") (A') (A') (A') (A') (A')
                 (A') (A') (A') (A') (A') (A') (A') (A') (A') (A')
                 (A') (A') (A') (A') (A") (A') (A') (A') (A') (A')
                 (A') (A') (A') (A') (A') (A') (A') (A') (A') (A')
                 (A') (A') (A') (A') (A') (A') (A') (A') (A') (A')
                 (A') (A')
 The electronic state is 1-A'.
 Alpha  occ. eigenvalues --  -10.79530 -10.74251 -10.73205 -10.73063 -10.73033
 Alpha  occ. eigenvalues --  -10.72967 -10.71188 -10.71132 -10.70903 -10.70868
 Alpha  occ. eigenvalues --  -10.70767 -10.70180 -10.69988 -10.69203  -1.16453
 Alpha  occ. eigenvalues --   -1.12064  -1.06546  -1.05900  -1.01189  -0.99894
 Alpha  occ. eigenvalues --   -0.95194  -0.90452  -0.86937  -0.85218  -0.83151
 Alpha  occ. eigenvalues --   -0.77870  -0.75786  -0.73684  -0.69589  -0.69175
 Alpha  occ. eigenvalues --   -0.68653  -0.68485  -0.67663  -0.64637  -0.64247
 Alpha  occ. eigenvalues --   -0.61865  -0.60623  -0.59631  -0.58928  -0.58827
 Alpha  occ. eigenvalues --   -0.56592  -0.55380  -0.53960  -0.52234  -0.46547
 Alpha  occ. eigenvalues --   -0.45954  -0.43492
 Alpha virt. eigenvalues --   -0.26515  -0.15270  -0.14529  -0.12807  -0.11361
 Alpha virt. eigenvalues --   -0.10162  -0.09215  -0.08177  -0.08075  -0.07593
 Alpha virt. eigenvalues --   -0.07445  -0.07415  -0.05750  -0.05634  -0.05398
 Alpha virt. eigenvalues --   -0.03906  -0.03594  -0.03391  -0.03101  -0.02151
 Alpha virt. eigenvalues --   -0.01387  -0.00769  -0.00064   0.00185   0.00751
 Alpha virt. eigenvalues --    0.00993   0.01124   0.01426   0.02025   0.02270
 Alpha virt. eigenvalues --    0.02323   0.02562   0.02613   0.03203   0.03478
 Alpha virt. eigenvalues --    0.04132   0.04367   0.04479   0.04502   0.05075
 Alpha virt. eigenvalues --    0.05790   0.05910   0.06611   0.06887   0.07286
 Alpha virt. eigenvalues --    0.07286   0.08102   0.08129   0.08337   0.08491
 Alpha virt. eigenvalues --    0.08763   0.09100   0.09549   0.09944   0.10839
 Alpha virt. eigenvalues --    0.11292   0.11629   0.12115   0.12494   0.12709
 Alpha virt. eigenvalues --    0.12849   0.13078   0.13400   0.14275   0.15498
 Alpha virt. eigenvalues --    0.16370   0.16441   0.17086   0.17355   0.17983
 Alpha virt. eigenvalues --    0.18331   0.18768   0.18946   0.19346   0.20502
 Alpha virt. eigenvalues --    0.21048   0.21495   0.22057   0.22445   0.23372
 Alpha virt. eigenvalues --    0.23959   0.24613   0.25544   0.26491   0.27520
 Alpha virt. eigenvalues --    0.28088   0.28528   0.29592   0.31281   0.34878
 Alpha virt. eigenvalues --    0.35415   0.37949   0.39012   0.40910   0.41223
 Alpha virt. eigenvalues --    0.41718   0.41925   0.43189   0.43196   0.43853
 Alpha virt. eigenvalues --    0.44336   0.44712   0.45628   0.46855   0.48063
 Alpha virt. eigenvalues --    0.48335   0.48464   0.49102   0.49593   0.49841
 Alpha virt. eigenvalues --    0.50503   0.52047   0.52206   0.53463   0.53638
 Alpha virt. eigenvalues --    0.54555   0.55212   0.56009   0.56304   0.57367
 Alpha virt. eigenvalues --    0.58106   0.59995   0.60748   0.61488   0.61967
 Alpha virt. eigenvalues --    0.62583   0.62869   0.64945   0.65687   0.67115
 Alpha virt. eigenvalues --    0.68953   0.70340   0.71168   0.71541   0.72032
 Alpha virt. eigenvalues --    0.73247   0.74863   0.76060   0.76587   0.77496
 Alpha virt. eigenvalues --    0.77596   0.78055   0.78341   0.79170   0.80093
 Alpha virt. eigenvalues --    0.81577   0.82090   0.82826   0.83626   0.84650
 Alpha virt. eigenvalues --    0.85237   0.86552   0.87600   0.88806   0.89497
 Alpha virt. eigenvalues --    0.90244   0.92363   0.92992   0.93568   0.94356
 Alpha virt. eigenvalues --    0.95689   0.96137   0.99750   1.01211   1.01672
 Alpha virt. eigenvalues --    1.02337   1.03023   1.03607   1.03884   1.06510
 Alpha virt. eigenvalues --    1.17588   1.21131   1.22454   1.25942   1.26213
 Alpha virt. eigenvalues --    1.27512   1.32115   1.33202   1.34771   1.37178
 Alpha virt. eigenvalues --    1.37903   1.40582   1.40596   1.42156   1.43106
 Alpha virt. eigenvalues --    1.43273   1.44773   1.45749   1.46361   1.47123
 Alpha virt. eigenvalues --    1.47140   1.49042   1.50880   1.53186   1.53308
 Alpha virt. eigenvalues --    1.55026   1.56184   1.56310   1.58199   1.61387
 Alpha virt. eigenvalues --    1.62724   1.63267   1.63782   1.64893   1.66940
 Alpha virt. eigenvalues --    1.67531   1.68708   1.70180   1.72079   1.73335
 Alpha virt. eigenvalues --    1.76525   1.76875   1.77903   1.78680   1.79467
 Alpha virt. eigenvalues --    1.80418   1.82260   1.82773   1.82796   1.83172
 Alpha virt. eigenvalues --    1.84181   1.84777   1.86883   1.88181   1.89373
 Alpha virt. eigenvalues --    1.94169   1.94554   1.95561   1.97342   1.97457
 Alpha virt. eigenvalues --    2.00549   2.03821   2.04361   2.06057   2.09983
 Alpha virt. eigenvalues --    2.13114   2.13499   2.15839   2.16316   2.21565
 Alpha virt. eigenvalues --    2.22319   2.25573   2.28049   2.31562   2.31786
 Alpha virt. eigenvalues --    2.34590   2.36199   2.37819   2.40342   2.41815
 Alpha virt. eigenvalues --    2.43650   2.45044   2.46062   2.49926   2.50999
 Alpha virt. eigenvalues --    2.54290   2.55084   2.56794   2.58788   2.59968
 Alpha virt. eigenvalues --    2.60268   2.60486   2.60772   2.63072   2.63282
 Alpha virt. eigenvalues --    2.63946   2.64880   2.65245   2.66438   2.67841
 Alpha virt. eigenvalues --    2.70400   2.71023   2.71759   2.72186   2.74913
 Alpha virt. eigenvalues --    2.75254   2.76060   2.78042   2.79451   2.83318
 Alpha virt. eigenvalues --    2.83543   2.85709   2.91074   2.97434   2.99716
 Alpha virt. eigenvalues --    2.99945   3.01304   3.04266   3.09081   3.13766
 Alpha virt. eigenvalues --    3.17029   3.22159   3.24913   3.26173   3.27197
 Alpha virt. eigenvalues --    3.30762   3.32898   3.40344   3.41414   3.43694
 Alpha virt. eigenvalues --    3.45815   3.47192   3.53337   3.63523   3.63648
 Alpha virt. eigenvalues --    3.69023   3.87939   3.92495   3.95102   3.95990
 Alpha virt. eigenvalues --    3.99096   4.02827   4.07164   4.10498   4.34824
 Alpha virt. eigenvalues --    4.50681   4.63948   4.68832  23.45506  23.59232
 Alpha virt. eigenvalues --   23.73732  23.78557  23.82155  23.86704  23.88766
 Alpha virt. eigenvalues --   23.90213  23.92794  23.96362  23.98522  24.02618
 Alpha virt. eigenvalues --   24.04786  24.11633
          Condensed to atoms (all electrons):
               1          2          3          4          5          6
     1  C   12.828265   0.177148  -1.343146   2.976754  -0.541715  -0.008104
     2  C    0.177148   6.587033   0.092491  -0.877632  -0.067200  -0.005909
     3  C   -1.343146   0.092491   8.235434  -0.287570   0.150877   0.002466
     4  C    2.976754  -0.877632  -0.287570   9.477073   0.376393  -0.032993
     5  C   -0.541715  -0.067200   0.150877   0.376393   9.604104   0.375361
     6  C   -0.008104  -0.005909   0.002466  -0.032993   0.375361   6.356625
     7  C   -0.089660   0.055198  -0.036770  -0.124670  -0.126210   0.278358
     8  C   -0.476156   0.053580  -0.182067   0.154660   1.840101  -0.841720
     9  C   -2.584862   0.097584   0.205719  -1.575479  -0.949126  -0.106135
    10  C    0.825813   0.145128  -1.224987  -0.286388  -0.056449  -0.164176
    11  C   -3.231396  -0.466826   0.839599  -3.090763  -1.903669   0.007191
    12  C   -1.925475   0.275562   0.433433  -0.772729   1.571685  -0.356901
    13  C    0.041920  -0.006696  -0.549370  -0.490355  -3.776803   0.861680
    14  C   -0.823117  -0.080182  -0.295955   0.052577  -0.712777  -0.301574
    15  H    0.440818  -0.054435  -0.003796   0.038324   0.000508   0.000050
    16  H   -0.068238   0.396206   0.000538  -0.029798  -0.001399  -0.000201
    17  H    0.001600  -0.043899   0.399541  -0.042409   0.000082   0.000227
    18  H    0.049855   0.012068  -0.133056   0.470653   0.004841  -0.003722
    19  H   -0.007215   0.006612   0.005339  -0.029203  -0.078908   0.025183
    20  H    0.000999   0.000054  -0.000146   0.016462   0.404486  -0.067428
    21  H   -0.001630  -0.000136   0.000304  -0.000679  -0.057674   0.398622
    22  H    0.000806   0.000349  -0.000361  -0.000289   0.006547  -0.019868
    23  H   -0.027651  -0.003050   0.002191   0.001761   0.040131   0.010888
    24  H    0.039027   0.012380  -0.006549  -0.006464  -0.022081   0.006298
    25  H    0.039027   0.012380  -0.006549  -0.006464  -0.022081   0.006298
               7          8          9         10         11         12
     1  C   -0.089660  -0.476156  -2.584862   0.825813  -3.231396  -1.925475
     2  C    0.055198   0.053580   0.097584   0.145128  -0.466826   0.275562
     3  C   -0.036770  -0.182067   0.205719  -1.224987   0.839599   0.433433
     4  C   -0.124670   0.154660  -1.575479  -0.286388  -3.090763  -0.772729
     5  C   -0.126210   1.840101  -0.949126  -0.056449  -1.903669   1.571685
     6  C    0.278358  -0.841720  -0.106135  -0.164176   0.007191  -0.356901
     7  C    8.792565   1.203868  -1.349255   0.355164   0.216595  -0.474865
     8  C    1.203868  11.482454  -3.739878  -0.720489   0.371502  -2.038285
     9  C   -1.349255  -3.739878  10.698208   0.418441   2.246400   0.517917
    10  C    0.355164  -0.720489   0.418441   9.507350  -2.128349   0.242687
    11  C    0.216595   0.371502   2.246400  -2.128349  18.274796  -4.705175
    12  C   -0.474865  -2.038285   0.517917   0.242687  -4.705175  19.042709
    13  C   -2.777014  -0.967247   1.300277  -1.537568   3.330203  -5.165501
    14  C    0.243695  -0.911893   0.587030   0.354410  -3.236313  -0.905423
    15  H   -0.006349  -0.015232   0.010273   0.004026  -0.099063   0.060205
    16  H    0.000997   0.004833   0.013678  -0.013159   0.101287  -0.066606
    17  H   -0.000604  -0.003423  -0.004703   0.007528  -0.011196   0.045671
    18  H    0.004036   0.018346  -0.033087   0.072996  -0.029546  -0.111734
    19  H   -0.009172  -0.034200   0.045417   0.387538   0.042211  -0.174753
    20  H   -0.000441   0.053329  -0.031280  -0.001808  -0.010531   0.003115
    21  H   -0.047283  -0.019805   0.006851   0.007104  -0.003890  -0.004256
    22  H    0.363607  -0.016177  -0.003418  -0.007907   0.003925  -0.002213
    23  H   -0.128087   0.335849   0.077537  -0.003023  -0.029177   0.019920
    24  H    0.029648   0.058351   0.331629   0.004272   0.033424  -0.107352
    25  H    0.029648   0.058351   0.331629   0.004272   0.033424  -0.107352
              13         14         15         16         17         18
     1  C    0.041920  -0.823117   0.440818  -0.068238   0.001600   0.049855
     2  C   -0.006696  -0.080182  -0.054435   0.396206  -0.043899   0.012068
     3  C   -0.549370  -0.295955  -0.003796   0.000538   0.399541  -0.133056
     4  C   -0.490355   0.052577   0.038324  -0.029798  -0.042409   0.470653
     5  C   -3.776803  -0.712777   0.000508  -0.001399   0.000082   0.004841
     6  C    0.861680  -0.301574   0.000050  -0.000201   0.000227  -0.003722
     7  C   -2.777014   0.243695  -0.006349   0.000997  -0.000604   0.004036
     8  C   -0.967247  -0.911893  -0.015232   0.004833  -0.003423   0.018346
     9  C    1.300277   0.587030   0.010273   0.013678  -0.004703  -0.033087
    10  C   -1.537568   0.354410   0.004026  -0.013159   0.007528   0.072996
    11  C    3.330203  -3.236313  -0.099063   0.101287  -0.011196  -0.029546
    12  C   -5.165501  -0.905423   0.060205  -0.066606   0.045671  -0.111734
    13  C   14.843189   0.670651  -0.030388   0.008472  -0.011114   0.017997
    14  C    0.670651  11.259463   0.002023  -0.009306   0.003639   0.002715
    15  H   -0.030388   0.002023   0.432934  -0.007128   0.001396   0.000242
    16  H    0.008472  -0.009306  -0.007128   0.413302  -0.007462   0.001937
    17  H   -0.011114   0.003639   0.001396  -0.007462   0.430557  -0.012220
    18  H    0.017997   0.002715   0.000242   0.001937  -0.012220   0.467707
    19  H    0.081574   0.089611  -0.000230   0.000037  -0.000062   0.000471
    20  H    0.004224  -0.051218  -0.000050   0.000007  -0.000060   0.000701
    21  H    0.044643   0.025996  -0.000023  -0.000005   0.000005  -0.000146
    22  H    0.024385  -0.020229  -0.000071   0.000011  -0.000007   0.000051
    23  H   -0.005117   0.011804   0.000392  -0.000232  -0.000003  -0.000152
    24  H    0.007653  -0.047997  -0.000244   0.000711  -0.000237   0.000292
    25  H    0.007653  -0.047997  -0.000244   0.000711  -0.000237   0.000292
              19         20         21         22         23         24
     1  C   -0.007215   0.000999  -0.001630   0.000806  -0.027651   0.039027
     2  C    0.006612   0.000054  -0.000136   0.000349  -0.003050   0.012380
     3  C    0.005339  -0.000146   0.000304  -0.000361   0.002191  -0.006549
     4  C   -0.029203   0.016462  -0.000679  -0.000289   0.001761  -0.006464
     5  C   -0.078908   0.404486  -0.057674   0.006547   0.040131  -0.022081
     6  C    0.025183  -0.067428   0.398622  -0.019868   0.010888   0.006298
     7  C   -0.009172  -0.000441  -0.047283   0.363607  -0.128087   0.029648
     8  C   -0.034200   0.053329  -0.019805  -0.016177   0.335849   0.058351
     9  C    0.045417  -0.031280   0.006851  -0.003418   0.077537   0.331629
    10  C    0.387538  -0.001808   0.007104  -0.007907  -0.003023   0.004272
    11  C    0.042211  -0.010531  -0.003890   0.003925  -0.029177   0.033424
    12  C   -0.174753   0.003115  -0.004256  -0.002213   0.019920  -0.107352
    13  C    0.081574   0.004224   0.044643   0.024385  -0.005117   0.007653
    14  C    0.089611  -0.051218   0.025996  -0.020229   0.011804  -0.047997
    15  H   -0.000230  -0.000050  -0.000023  -0.000071   0.000392  -0.000244
    16  H    0.000037   0.000007  -0.000005   0.000011  -0.000232   0.000711
    17  H   -0.000062  -0.000060   0.000005  -0.000007  -0.000003  -0.000237
    18  H    0.000471   0.000701  -0.000146   0.000051  -0.000152   0.000292
    19  H    0.409706  -0.004571   0.000967  -0.000413   0.000248   0.000993
    20  H   -0.004571   0.422494  -0.008114   0.001798  -0.000063   0.000058
    21  H    0.000967  -0.008114   0.420121  -0.005393   0.001075   0.000016
    22  H   -0.000413   0.001798  -0.005393   0.412476  -0.008868   0.000222
    23  H    0.000248  -0.000063   0.001075  -0.008868   0.462950  -0.005429
    24  H    0.000993   0.000058   0.000016   0.000222  -0.005429   0.504162
    25  H    0.000993   0.000058   0.000016   0.000222  -0.005429  -0.084096
              25
     1  C    0.039027
     2  C    0.012380
     3  C   -0.006549
     4  C   -0.006464
     5  C   -0.022081
     6  C    0.006298
     7  C    0.029648
     8  C    0.058351
     9  C    0.331629
    10  C    0.004272
    11  C    0.033424
    12  C   -0.107352
    13  C    0.007653
    14  C   -0.047997
    15  H   -0.000244
    16  H    0.000711
    17  H   -0.000237
    18  H    0.000292
    19  H    0.000993
    20  H    0.000058
    21  H    0.000016
    22  H    0.000222
    23  H   -0.005429
    24  H   -0.084096
    25  H    0.504162
 Mulliken charges:
               1
     1  C   -0.293667
     2  C   -0.317808
     3  C   -0.297611
     4  C    0.089228
     5  C   -0.059022
     6  C   -0.420512
     7  C   -0.402997
     8  C    0.331348
     9  C   -0.511369
    10  C   -0.192427
    11  C   -0.554662
    12  C    0.705716
    13  C    0.072652
    14  C    0.140368
    15  H    0.226060
    16  H    0.260806
    17  H    0.247394
    18  H    0.198462
    19  H    0.241826
    20  H    0.267927
    21  H    0.243312
    22  H    0.270815
    23  H    0.251538
    24  H    0.251312
    25  H    0.251312
 Sum of Mulliken charges =   1.00000
 Mulliken charges with hydrogens summed into heavy atoms:
               1
     1  C   -0.067607
     2  C   -0.057002
     3  C   -0.050217
     4  C    0.287690
     5  C    0.208904
     6  C   -0.177200
     7  C   -0.132183
     8  C    0.582886
     9  C   -0.008745
    10  C    0.049399
    11  C   -0.554662
    12  C    0.705716
    13  C    0.072652
    14  C    0.140368
 Electronic spatial extent (au):  <R**2>=           2860.9490
 Charge=              1.0000 electrons
 Dipole moment (field-independent basis, Debye):
    X=              0.0462    Y=             -0.0128    Z=              0.0000  Tot=              0.0479
 Quadrupole moment (field-independent basis, Debye-Ang):
   XX=            -53.4520   YY=            -34.2273   ZZ=            -84.6797
   XY=              7.1003   XZ=              0.0000   YZ=              0.0000
 Traceless Quadrupole moment (field-independent basis, Debye-Ang):
   XX=              4.0010   YY=             23.2257   ZZ=            -27.2267
   XY=              7.1003   XZ=              0.0000   YZ=              0.0000
 Octapole moment (field-independent basis, Debye-Ang**2):
  XXX=              2.5480  YYY=              9.5307  ZZZ=             -0.0000  XYY=             -5.5098
  XXY=             -6.3637  XXZ=              0.0000  XZZ=             -3.6099  YZZ=             -0.1063
  YYZ=              0.0000  XYZ=             -0.0000
 Hexadecapole moment (field-independent basis, Debye-Ang**3):
 XXXX=           -795.1441 YYYY=          -2001.7691 ZZZZ=           -100.5686 XXXY=           -264.7517
 XXXZ=             -0.0000 YYYX=           -194.5661 YYYZ=              0.0000 ZZZX=              0.0000
 ZZZY=              0.0000 XXYY=           -476.5132 XXZZ=           -196.3204 YYZZ=           -548.2216
 XXYZ=              0.0000 YYXZ=             -0.0000 ZZXY=           -137.0452
 N-N= 7.788767165676D+02 E-N=-2.793634833004D+03  KE= 5.370375676179D+02
 Symmetry A'   KE= 5.224206698262D+02
 Symmetry A"   KE= 1.461689779179D+01
 Unable to Open any file for archive entry.
 1\1\GINC-GADI-CPU-CLX-0359\SP\RM062X TD-FC\6-311++G(d,p)\C14H11(1+)\TS
 1578\02-Aug-2022\0\\#n M062X/6-311++G(d,p) TD(NStates=1) EmpiricalDisp
 ersion=GD3 SP\\SP_8\\1,1\C,0,0.,2.466655,1.468431\C,0,0.,3.681508,0.80
 1989\C,0,0.,3.669861,-0.59183\C,0,0.,2.487156,-1.315538\C,0,0.,-2.6791
 56,-1.459538\C,0,0.,-3.797861,-0.49583\C,0,0.,-3.601508,0.881989\C,0,0
 .,-2.258655,1.292431\C,0,0.,-0.032,1.303369\C,0,0.,0.048,-1.579189\C,0
 ,0.,1.280055,0.715065\C,0,0.,1.225471,-0.708804\C,0,0.,-1.184055,0.379
 065\C,0,0.,-1.289471,-1.012804\H,0,0.,2.414071,2.551647\H,0,0.,4.62275
 3,1.335689\H,0,0.,4.597262,-1.132349\H,0,0.,2.52955,-2.398059\H,0,0.,0
 .248,-2.670266\H,0,0.,-2.94555,-2.542059\H,0,0.,-4.821262,-0.892349\H,
 0,0.,-4.430753,1.607689\H,0,0.,-1.982071,2.375647\H,0,-0.859585,-0.192
 ,1.995787\H,0,0.859585,-0.192,1.995787\\Version=ES64L-G16RevC.01\State
 =1-A'\HF=-539.695594\RMSD=4.677e-09\PG=CS [SG(C14H9),X(H2)]\\@
 The archive entry for this job was punched.


 IF AT FIRST YOU DON'T SUCCEED, TRY LOOKING IN 
 THE WASTEBASKET FOR THE DIRECTIONS.
 Job cpu time:       0 days  0 hours 53 minutes 40.7 seconds.
 Elapsed time:       0 days  0 hours  1 minutes  7.4 seconds.
 File lengths (MBytes):  RWF=    460 Int=      0 D2E=      0 Chk=     15 Scr=      1
 Normal termination of Gaussian 16 at Tue Aug  2 13:36:45 2022.
