 Entering Gaussian System, Link 0=g16
 Initial command:
 /apps/gaussian/g16c01/g16/l1.exe "/jobfs/53803768.gadi-pbs/Gau-173843.inp" -scrdir="/jobfs/53803768.gadi-pbs/"
 Entering Link 1 = /apps/gaussian/g16c01/g16/l1.exe PID=    173844.
  
 Copyright (c) 1988-2019, Gaussian, Inc.  All Rights Reserved.
  
 This is part of the Gaussian(R) 16 program.  It is based on
 the Gaussian(R) 09 system (copyright 2009, Gaussian, Inc.),
 the Gaussian(R) 03 system (copyright 2003, Gaussian, Inc.),
 the Gaussian(R) 98 system (copyright 1998, Gaussian, Inc.),
 the Gaussian(R) 94 system (copyright 1995, Gaussian, Inc.),
 the Gaussian 92(TM) system (copyright 1992, Gaussian, Inc.),
 the Gaussian 90(TM) system (copyright 1990, Gaussian, Inc.),
 the Gaussian 88(TM) system (copyright 1988, Gaussian, Inc.),
 the Gaussian 86(TM) system (copyright 1986, Carnegie Mellon
 University), and the Gaussian 82(TM) system (copyright 1983,
 Carnegie Mellon University). Gaussian is a federally registered
 trademark of Gaussian, Inc.
  
 This software contains proprietary and confidential information,
 including trade secrets, belonging to Gaussian, Inc.
  
 This software is provided under written license and may be
 used, copied, transmitted, or stored only in accord with that
 written license.
  
 The following legend is applicable only to US Government
 contracts under FAR:
  
                    RESTRICTED RIGHTS LEGEND
  
 Use, reproduction and disclosure by the US Government is
 subject to restrictions as set forth in subparagraphs (a)
 and (c) of the Commercial Computer Software - Restricted
 Rights clause in FAR 52.227-19.
  
 Gaussian, Inc.
 340 Quinnipiac St., Bldg. 40, Wallingford CT 06492
  
  
 ---------------------------------------------------------------
 Warning -- This program may not be used in any manner that
 competes with the business of Gaussian, Inc. or will provide
 assistance to any competitor of Gaussian, Inc.  The licensee
 of this program is prohibited from giving any competitor of
 Gaussian, Inc. access to this program.  By using this program,
 the user acknowledges that Gaussian, Inc. is engaged in the
 business of creating and licensing software in the field of
 computational chemistry and represents and warrants to the
 licensee that it is not a competitor of Gaussian, Inc. and that
 it will not use this program in any manner prohibited above.
 ---------------------------------------------------------------
  

 Cite this work as:
 Gaussian 16, Revision C.01,
 M. J. Frisch, G. W. Trucks, H. B. Schlegel, G. E. Scuseria, 
 M. A. Robb, J. R. Cheeseman, G. Scalmani, V. Barone, 
 G. A. Petersson, H. Nakatsuji, X. Li, M. Caricato, A. V. Marenich, 
 J. Bloino, B. G. Janesko, R. Gomperts, B. Mennucci, H. P. Hratchian, 
 J. V. Ortiz, A. F. Izmaylov, J. L. Sonnenberg, D. Williams-Young, 
 F. Ding, F. Lipparini, F. Egidi, J. Goings, B. Peng, A. Petrone, 
 T. Henderson, D. Ranasinghe, V. G. Zakrzewski, J. Gao, N. Rega, 
 G. Zheng, W. Liang, M. Hada, M. Ehara, K. Toyota, R. Fukuda, 
 J. Hasegawa, M. Ishida, T. Nakajima, Y. Honda, O. Kitao, H. Nakai, 
 T. Vreven, K. Throssell, J. A. Montgomery, Jr., J. E. Peralta, 
 F. Ogliaro, M. J. Bearpark, J. J. Heyd, E. N. Brothers, K. N. Kudin, 
 V. N. Staroverov, T. A. Keith, R. Kobayashi, J. Normand, 
 K. Raghavachari, A. P. Rendell, J. C. Burant, S. S. Iyengar, 
 J. Tomasi, M. Cossi, J. M. Millam, M. Klene, C. Adamo, R. Cammi, 
 J. W. Ochterski, R. L. Martin, K. Morokuma, O. Farkas, 
 J. B. Foresman, and D. J. Fox, Gaussian, Inc., Wallingford CT, 2019.
 
 ******************************************
 Gaussian 16:  ES64L-G16RevC.01  3-Jul-2019
                 2-Aug-2022 
 ******************************************
 %NProcShared=48
 Will use up to   48 processors via shared memory.
 %mem = 190GB
 ---------------------------------------------------------------
 #n M062X/6-311++G(d,p) TD(NStates=1) EmpiricalDispersion=GD3 SP
 ---------------------------------------------------------------
 1/38=1,172=1/1;
 2/12=2,17=6,18=5,40=1/2;
 3/5=4,6=6,7=1111,11=9,25=1,30=1,74=-55,124=31/1,2,3,8;
 4//1;
 5/5=2,38=5/2;
 8/6=1,10=2,108=1/1;
 9/41=1,42=1,70=2/14;
 6/7=2,8=2,9=2,10=2/1;
 99/5=1,9=1/99;
 -----
 SP_-6
 -----
 Symbolic Z-matrix:
 Charge =  1 Multiplicity = 1
 C                     0.        2.49266   1.28243 
 C                     0.        3.70751   0.59999 
 C                     0.        3.70186  -0.77983 
 C                     0.        2.46316  -1.47354 
 C                     0.       -2.31916  -1.36554 
 C                     0.       -3.60586  -0.85183 
 C                     0.       -3.76751   0.53999 
 C                     0.       -2.64866   1.41443 
 C                     0.        0.024     1.54337 
 C                     0.       -0.036    -1.33919 
 C                     0.        1.24406   0.62907 
 C                     0.        1.24947  -0.7668 
 C                     0.       -1.31606   0.88107 
 C                     0.       -1.20147  -0.5388 
 H                     0.        2.50007   2.36565 
 H                     0.        4.63075   1.15769 
 H                     0.        4.63326  -1.33835 
 H                     0.        2.46155  -2.55606 
 H                     0.       -0.186    -2.41427 
 H                     0.       -2.14955  -2.44806 
 H                     0.       -4.46526  -1.51835 
 H                     0.       -4.77475   0.95369 
 H                     0.       -2.82407   2.49765 
 H                    -0.85959   0.144     2.23579 
 H                     0.85959   0.144     2.23579 
 
                          Input orientation:                          
 ---------------------------------------------------------------------
 Center     Atomic      Atomic             Coordinates (Angstroms)
 Number     Number       Type             X           Y           Z
 ---------------------------------------------------------------------
      1          6           0        0.000000    2.492655    1.282431
      2          6           0        0.000000    3.707508    0.599989
      3          6           0        0.000000    3.701861   -0.779830
      4          6           0        0.000000    2.463156   -1.473538
      5          6           0        0.000000   -2.319156   -1.365538
      6          6           0        0.000000   -3.605861   -0.851830
      7          6           0        0.000000   -3.767508    0.539989
      8          6           0        0.000000   -2.648655    1.414431
      9          6           0        0.000000    0.024000    1.543369
     10          6           0        0.000000   -0.036000   -1.339189
     11          6           0        0.000000    1.244055    0.629065
     12          6           0        0.000000    1.249471   -0.766804
     13          6           0        0.000000   -1.316055    0.881065
     14          6           0        0.000000   -1.201471   -0.538804
     15          1           0        0.000000    2.500071    2.365647
     16          1           0        0.000000    4.630753    1.157689
     17          1           0        0.000000    4.633262   -1.338349
     18          1           0        0.000000    2.461550   -2.556059
     19          1           0        0.000000   -0.186000   -2.414266
     20          1           0        0.000000   -2.149550   -2.448059
     21          1           0        0.000000   -4.465262   -1.518349
     22          1           0        0.000000   -4.774753    0.953689
     23          1           0        0.000000   -2.824071    2.497647
     24          1           0       -0.859585    0.144000    2.235787
     25          1           0        0.859585    0.144000    2.235787
 ---------------------------------------------------------------------
                    Distance matrix (angstroms):
                    1          2          3          4          5
     1  C    0.000000
     2  C    1.393411   0.000000
     3  C    2.390627   1.379831   0.000000
     4  C    2.756127   2.418249   1.419726   0.000000
     5  C    5.492291   6.339083   6.049438   4.783531   0.000000
     6  C    6.461189   7.456081   7.308077   6.100778   1.385462
     7  C    6.304035   7.475257   7.585077   6.547936   2.393482
     8  C    5.143004   6.408130   6.718916   5.871199   2.799428
     9  C    2.482407   3.802394   4.350163   3.879589   3.735254
    10  C    3.642388   4.215953   3.779482   2.502765   2.283308
    11  C    1.409216   2.463625   2.832983   2.430462   4.083493
    12  C    2.396846   2.812484   2.452425   1.404459   3.618505
    13  C    3.829800   5.031420   5.285646   4.452706   2.460373
    14  C    4.118673   5.039338   4.909252   3.781960   1.390219
    15  H    1.083241   2.139031   3.367243   3.839362   6.094808
    16  H    2.141734   1.078615   2.148679   3.409081   7.393775
    17  H    3.383886   2.148063   1.086025   2.174313   6.952471
    18  H    3.838616   3.393089   2.166417   1.082522   4.926712
    19  H    4.565168   4.923935   4.217445   2.811227   2.377012
    20  H    5.955386   6.602706   6.084571   4.714525   1.095727
    21  H    7.500465   8.442839   8.200446   6.928563   2.151539
    22  H    7.274840   8.489632   8.652056   7.634053   3.377687
    23  H    5.453836   6.801664   7.302715   6.612494   3.896041
    24  H    2.676556   4.014139   4.742490   4.458303   4.446973
    25  H    2.676556   4.014139   4.742490   4.458303   4.446973
                    6          7          8          9         10
     6  C    0.000000
     7  C    1.401174   0.000000
     8  C    2.460118   1.420028   0.000000
     9  C    4.348893   3.922028   2.675763   0.000000
    10  C    3.602975   4.177973   3.795838   2.883182   0.000000
    11  C    5.070970   5.012355   3.971145   1.524627   2.347885
    12  C    4.856076   5.184379   4.466897   2.615087   1.407146
    13  C    2.871609   2.475067   1.435375   1.494789   2.562824
    14  C    2.424681   2.783584   2.430940   2.416035   1.413838
    15  H    6.901780   6.528060   5.235856   2.609036   4.489707
    16  H    8.478206   8.420947   7.283934   4.622869   5.292729
    17  H    8.253475   8.608199   7.784864   5.435954   4.669262
    18  H    6.302212   6.956053   6.471398   4.769377   2.778224
    19  H    3.759874   4.642717   4.552317   3.963203   1.085491
    20  H    2.160738   3.397973   3.894603   4.544867   2.386773
    21  H    1.087574   2.173388   3.449820   5.433930   4.432884
    22  H    2.150862   1.088894   2.175448   4.834848   5.264320
    23  H    3.439505   2.173131   1.097328   3.003690   4.742853
    24  H    4.932922   4.349082   3.035199   1.110283   3.681269
    25  H    4.932922   4.349082   3.035199   1.110283   3.681269
                   11         12         13         14         15
    11  C    0.000000
    12  C    1.395880   0.000000
    13  C    2.572483   3.049163   0.000000
    14  C    2.710077   2.461524   1.424485   0.000000
    15  H    2.143197   3.372870   4.094728   4.705024   0.000000
    16  H    3.427706   3.890597   5.953238   6.073955   2.449279
    17  H    3.918857   3.431720   6.349817   5.889260   4.274353
    18  H    3.409884   2.161150   5.107262   4.181751   4.921857
    19  H    3.362577   2.185111   3.483709   2.132730   5.482932
    20  H    4.580966   3.792092   3.431877   2.131691   6.692589
    21  H    6.099810   5.763939   3.959128   3.407615   7.975042
    22  H    6.027556   6.265091   3.459460   3.872451   7.410580
    23  H    4.476745   5.220190   2.210758   3.442799   5.325778
    24  H    2.128512   3.313081   2.169313   3.201177   2.511338
    25  H    2.128512   3.313081   2.169313   3.201177   2.511338
                   16         17         18         19         20
    16  H    0.000000
    17  H    2.496039   0.000000
    18  H    4.300856   2.489809   0.000000
    19  H    5.996663   4.937903   2.651344   0.000000
    20  H    7.679448   6.872990   4.612365   1.963841   0.000000
    21  H    9.481491   9.100304   7.004111   4.372042   2.495372
    22  H    9.407718   9.683191   8.042538   5.692080   4.296927
    23  H    7.574291   8.386100   7.312847   5.575510   4.991491
    24  H    4.693840   5.802311   5.391819   4.740335   5.285610
    25  H    4.693840   5.802311   5.391819   4.740335   5.285610
                   21         22         23         24         25
    21  H    0.000000
    22  H    2.491336   0.000000
    23  H    4.338402   2.487763   0.000000
    24  H    6.006473   5.155268   3.101113   0.000000
    25  H    6.006473   5.155268   3.101113   1.719170   0.000000
 Stoichiometry    C14H11(1+)
 Framework group  CS[SG(C14H9),X(H2)]
 Deg. of freedom    46
 Full point group                 CS      NOp   2
 Largest Abelian subgroup         CS      NOp   2
 Largest concise Abelian subgroup CS      NOp   2
                         Standard orientation:                         
 ---------------------------------------------------------------------
 Center     Atomic      Atomic             Coordinates (Angstroms)
 Number     Number       Type             X           Y           Z
 ---------------------------------------------------------------------
      1          6           0       -0.156152   -2.799327    0.000000
      2          6           0        0.962444   -3.630193    0.000000
      3          6           0        2.219973   -3.062255    0.000000
      4          6           0        2.348130   -1.648325    0.000000
      5          6           0        0.298976    2.674074    0.000000
      6          6           0       -0.694865    3.639365    0.000000
      7          6           0       -2.031584    3.219278    0.000000
      8          6           0       -2.373643    1.841063    0.000000
      9          6           0       -1.401281   -0.651771    0.000000
     10          6           0        1.206142    0.578711    0.000000
     11          6           0       -0.068864   -1.392818    0.000000
     12          6           0        1.207831   -0.828434    0.000000
     13          6           0       -1.343134    0.841886    0.000000
     14          6           0        0.000000    1.316384    0.000000
     15          1           0       -1.142148   -3.247906    0.000000
     16          1           0        0.829802   -4.700621    0.000000
     17          1           0        3.109811   -3.684861    0.000000
     18          1           0        3.335862   -1.205335    0.000000
     19          1           0        2.126551    1.154155    0.000000
     20          1           0        1.356539    2.960741    0.000000
     21          1           0       -0.436827    4.695884    0.000000
     22          1           0       -2.820131    3.970200    0.000000
     23          1           0       -3.434210    1.559418    0.000000
     24          1           0       -1.984544   -1.043750    0.859585
     25          1           0       -1.984544   -1.043750   -0.859585
 ---------------------------------------------------------------------
 Rotational constants (GHZ):           2.1159196           0.4431222           0.3671844
 Standard basis: 6-311++G(d,p) (5D, 7F)
 There are   299 symmetry adapted cartesian basis functions of A'  symmetry.
 There are   100 symmetry adapted cartesian basis functions of A"  symmetry.
 There are   285 symmetry adapted basis functions of A'  symmetry.
 There are   100 symmetry adapted basis functions of A"  symmetry.
   385 basis functions,   603 primitive gaussians,   399 cartesian basis functions
    47 alpha electrons       47 beta electrons
       nuclear repulsion energy       778.9679874222 Hartrees.
 NAtoms=   25 NActive=   25 NUniq=   24 SFac= 1.09D+00 NAtFMM=   60 NAOKFM=F Big=F
 Integral buffers will be    131072 words long.
 Regular integral format.
 Two-electron integral symmetry is turned on.
 Nuclear repulsion after empirical dispersion term =      778.9670063028 Hartrees.
 One-electron integrals computed using PRISM.
 NBasis=   385 RedAO= T EigKep=  1.42D-06  NBF=   285   100
 NBsUse=   379 1.00D-06 EigRej=  7.36D-07 NBFU=   279   100
 ExpMin= 3.60D-02 ExpMax= 4.56D+03 ExpMxC= 6.82D+02 IAcc=3 IRadAn=         5 AccDes= 0.00D+00
 Harris functional with IExCor= 1009 and IRadAn=       5 diagonalized for initial guess.
 HarFok:  IExCor= 1009 AccDes= 0.00D+00 IRadAn=         5 IDoV= 1 UseB2=F ITyADJ=14
 ICtDFT=  3500011 ScaDFX=  1.000000  1.000000  1.000000  1.000000
 FoFCou: FMM=F IPFlag=           0 FMFlag=      100000 FMFlg1=           0
         NFxFlg=           0 DoJE=T BraDBF=F KetDBF=T FulRan=T
         wScrn=  0.000000 ICntrl=       500 IOpCl=  0 I1Cent=   200000004 NGrid=           0
         NMat0=    1 NMatS0=      1 NMatT0=    0 NMatD0=    1 NMtDS0=    0 NMtDT0=    0
 Petite list used in FoFCou.
 Initial guess orbital symmetries:
       Occupied  (A') (A') (A') (A') (A') (A') (A') (A') (A') (A')
                 (A') (A') (A') (A') (A') (A') (A') (A') (A') (A')
                 (A') (A') (A') (A') (A') (A') (A') (A') (A') (A')
                 (A') (A') (A") (A') (A') (A') (A') (A') (A") (A")
                 (A') (A') (A') (A") (A") (A") (A")
       Virtual   (A") (A") (A") (A") (A") (A') (A') (A') (A') (A")
                 (A") (A') (A') (A') (A") (A') (A') (A') (A') (A')
                 (A") (A") (A') (A') (A') (A") (A') (A") (A') (A')
                 (A') (A') (A') (A') (A") (A') (A') (A") (A') (A")
                 (A') (A') (A') (A") (A') (A') (A') (A') (A') (A")
                 (A') (A") (A') (A") (A') (A') (A') (A") (A') (A")
                 (A') (A') (A') (A') (A') (A') (A") (A') (A') (A")
                 (A') (A') (A') (A') (A') (A') (A') (A') (A') (A')
                 (A') (A') (A') (A') (A') (A') (A') (A') (A') (A')
                 (A') (A') (A') (A') (A') (A') (A') (A") (A") (A')
                 (A') (A") (A') (A") (A') (A') (A") (A') (A") (A")
                 (A') (A") (A') (A') (A") (A') (A") (A') (A") (A")
                 (A') (A") (A') (A') (A") (A') (A') (A') (A') (A")
                 (A') (A') (A') (A') (A') (A') (A') (A") (A') (A')
                 (A') (A') (A') (A') (A') (A') (A') (A') (A') (A")
                 (A') (A") (A") (A") (A') (A') (A') (A") (A') (A")
                 (A') (A") (A') (A") (A") (A") (A') (A') (A') (A')
                 (A") (A') (A') (A") (A') (A') (A') (A') (A') (A")
                 (A') (A') (A') (A") (A') (A") (A') (A') (A") (A")
                 (A") (A') (A') (A") (A') (A') (A') (A') (A") (A')
                 (A") (A") (A") (A') (A') (A") (A') (A") (A') (A')
                 (A") (A") (A') (A") (A') (A') (A') (A") (A') (A')
                 (A") (A') (A') (A') (A") (A') (A') (A') (A") (A")
                 (A') (A') (A') (A") (A') (A') (A") (A') (A") (A')
                 (A") (A') (A') (A') (A') (A") (A') (A') (A') (A')
                 (A") (A') (A') (A") (A') (A") (A') (A") (A') (A')
                 (A') (A") (A') (A') (A") (A') (A') (A") (A') (A')
                 (A") (A') (A') (A') (A") (A") (A') (A") (A') (A')
                 (A") (A') (A") (A") (A") (A') (A') (A') (A') (A')
                 (A') (A') (A') (A') (A') (A') (A') (A') (A') (A')
                 (A') (A') (A') (A") (A') (A') (A') (A') (A') (A')
                 (A') (A') (A') (A') (A') (A') (A') (A') (A') (A')
                 (A') (A') (A') (A') (A') (A') (A') (A') (A') (A')
                 (A') (A')
 The electronic state of the initial guess is 1-A'.
 Requested convergence on RMS density matrix=1.00D-08 within 128 cycles.
 Requested convergence on MAX density matrix=1.00D-06.
 Requested convergence on             energy=1.00D-06.
 No special actions if energy rises.
 SCF Done:  E(RM062X) =  -539.741686137     A.U. after   15 cycles
            NFock= 15  Conv=0.85D-08     -V/T= 2.0046
 DoSCS=F DFT=T ScalE2(SS,OS)=  1.000000  1.000000
 ExpMin= 3.60D-02 ExpMax= 4.56D+03 ExpMxC= 6.82D+02 IAcc=3 IRadAn=         5 AccDes= 0.00D+00
 HarFok:  IExCor=  205 AccDes= 0.00D+00 IRadAn=         5 IDoV=-2 UseB2=F ITyADJ=14
 ICtDFT= 12500011 ScaDFX=  1.000000  1.000000  1.000000  1.000000
 Range of M.O.s used for correlation:    15   379
 NBasis=   385 NAE=    47 NBE=    47 NFC=    14 NFV=     0
 NROrb=    365 NOA=    33 NOB=    33 NVA=   332 NVB=   332

 **** Warning!!: The largest alpha MO coefficient is  0.15970266D+03

 Orbital symmetries:
       Occupied  (A') (A') (A') (A') (A') (A') (A') (A') (A') (A')
                 (A') (A') (A') (A') (A') (A') (A') (A') (A') (A')
                 (A') (A') (A') (A') (A') (A') (A') (A') (A') (A')
                 (A') (A') (A") (A') (A') (A') (A') (A") (A") (A')
                 (A') (A') (A') (A") (A") (A") (A")
       Virtual   (A") (A") (A") (A") (A') (A') (A') (A') (A") (A')
                 (A') (A") (A') (A') (A") (A') (A") (A') (A') (A')
                 (A") (A") (A') (A') (A') (A") (A') (A") (A') (A')
                 (A") (A") (A') (A') (A') (A') (A') (A') (A") (A')
                 (A") (A') (A') (A") (A") (A') (A") (A') (A") (A')
                 (A') (A') (A') (A') (A") (A') (A') (A') (A') (A')
                 (A") (A') (A') (A') (A') (A") (A') (A') (A') (A')
                 (A') (A') (A') (A') (A') (A') (A') (A') (A') (A')
                 (A') (A') (A') (A') (A') (A') (A') (A') (A') (A')
                 (A') (A') (A') (A') (A") (A') (A") (A") (A') (A')
                 (A") (A') (A') (A') (A") (A") (A') (A") (A') (A")
                 (A') (A') (A") (A') (A") (A') (A') (A") (A') (A")
                 (A") (A') (A") (A') (A') (A') (A") (A') (A') (A')
                 (A') (A') (A') (A') (A') (A') (A') (A') (A') (A')
                 (A') (A') (A') (A') (A") (A') (A') (A') (A') (A')
                 (A') (A') (A") (A') (A") (A') (A") (A") (A') (A')
                 (A") (A") (A') (A") (A') (A") (A") (A') (A") (A')
                 (A') (A') (A") (A') (A") (A') (A') (A') (A') (A")
                 (A') (A') (A') (A") (A') (A") (A') (A") (A') (A")
                 (A") (A') (A') (A") (A') (A') (A") (A') (A') (A')
                 (A") (A") (A") (A') (A') (A") (A') (A") (A') (A')
                 (A') (A") (A") (A') (A") (A') (A') (A") (A') (A')
                 (A") (A') (A') (A') (A") (A') (A') (A') (A") (A")
                 (A') (A') (A') (A") (A') (A') (A") (A') (A") (A')
                 (A") (A') (A') (A") (A') (A') (A') (A') (A') (A')
                 (A') (A") (A') (A') (A') (A") (A') (A") (A") (A')
                 (A') (A') (A') (A') (A') (A") (A') (A') (A') (A')
                 (A') (A") (A") (A') (A") (A") (A') (A") (A') (A')
                 (A") (A") (A") (A') (A") (A") (A') (A') (A') (A')
                 (A') (A') (A') (A') (A') (A') (A') (A') (A') (A')
                 (A') (A') (A') (A") (A') (A') (A') (A') (A') (A')
                 (A') (A') (A') (A') (A') (A') (A') (A') (A') (A')
                 (A') (A') (A') (A') (A') (A') (A') (A') (A') (A')
                 (A') (A')
     4 initial guesses have been made.
 Convergence on wavefunction:    0.001000000000000
 Iteration     1 Dimension     4 NMult     0 NNew      4
 CISAX will form     4 AO SS matrices at one time.
 Iteration     2 Dimension     6 NMult     4 NNew      2
 Iteration     3 Dimension     8 NMult     6 NNew      2
 Iteration     4 Dimension    10 NMult     8 NNew      2
 Iteration     5 Dimension    12 NMult    10 NNew      2
 Iteration     6 Dimension    14 NMult    12 NNew      2
 ***********************************************************************
 Excited states from <AA,BB:AA,BB> singles matrix:
 ***********************************************************************
 
 Ground to excited state transition densities written to RWF  633
 Ground to excited state transition electric dipole moments (Au):
       state          X           Y           Z        Dip. S.      Osc.
         1        -0.6439     -0.1421      0.0000      0.4348      0.0314
 Ground to excited state transition velocity dipole moments (Au):
       state          X           Y           Z        Dip. S.      Osc.
         1         0.0777      0.0170     -0.0000      0.0063      0.0389
 Ground to excited state transition magnetic dipole moments (Au):
       state          X           Y           Z
         1        -0.0000      0.0000     -0.0008
 Ground to excited state transition velocity quadrupole moments (Au):
       state          XX          YY          ZZ          XY          XZ          YZ
         1         0.1073      0.2291     -0.0092     -0.1445      0.0000      0.0000
 <0|del|b> * <b|rxdel|0> + <0|del|b> * <b|delr+rdel|0>
 Rotatory Strengths (R) in cgs (10**-40 erg-esu-cm/Gauss)
       state          XX          YY          ZZ    R(velocity)    E-M Angle
         1         0.0000      0.0000     -0.0000     -0.0000       90.00
 1/2[<0|r|b>*<b|rxdel|0> + (<0|rxdel|b>*<b|r|0>)*]
 Rotatory Strengths (R) in cgs (10**-40 erg-esu-cm/Gauss)
       state          XX          YY          ZZ     R(length)
         1        -0.0000      0.0000      0.0000     -0.0000
  1/2[<0|del|b>*<b|r|0> + (<0|r|b>*<b|del|0>)*] (Au)
       state          X           Y           Z        Dip. S.   Osc.(frdel)
         1        -0.0500     -0.0024     -0.0000      0.0524      0.0350

 Excitation energies and oscillator strengths:
 
 Excited State   1:      Singlet-A'     2.9487 eV  420.47 nm  f=0.0314  <S**2>=0.000
      47 -> 48         0.70339
 This state for optimization and/or second-order correction.
 Total Energy, E(TD-HF/TD-DFT) =  -539.633323493    
 Copying the excited state density for this state as the 1-particle RhoCI density.
 SavETr:  write IOETrn=   770 NScale= 10 NData=  16 NLR=1 NState=    1 LETran=      28.

 **********************************************************************

            Population analysis using the SCF Density.

 **********************************************************************

 Orbital symmetries:
       Occupied  (A') (A') (A') (A') (A') (A') (A') (A') (A') (A')
                 (A') (A') (A') (A') (A') (A') (A') (A') (A') (A')
                 (A') (A') (A') (A') (A') (A') (A') (A') (A') (A')
                 (A') (A') (A") (A') (A') (A') (A') (A") (A") (A')
                 (A') (A') (A') (A") (A") (A") (A")
       Virtual   (A") (A") (A") (A") (A') (A') (A') (A') (A") (A')
                 (A') (A") (A') (A') (A") (A') (A") (A') (A') (A')
                 (A") (A") (A') (A') (A') (A") (A') (A") (A') (A')
                 (A") (A") (A') (A') (A') (A') (A') (A') (A") (A')
                 (A") (A') (A') (A") (A") (A') (A") (A') (A") (A')
                 (A') (A') (A') (A') (A") (A') (A') (A') (A') (A')
                 (A") (A') (A') (A') (A') (A") (A') (A') (A') (A')
                 (A') (A') (A') (A') (A') (A') (A') (A') (A') (A')
                 (A') (A') (A') (A') (A') (A') (A') (A') (A') (A')
                 (A') (A') (A') (A') (A") (A') (A") (A") (A') (A')
                 (A") (A') (A') (A') (A") (A") (A') (A") (A') (A")
                 (A') (A') (A") (A') (A") (A') (A') (A") (A') (A")
                 (A") (A') (A") (A') (A') (A') (A") (A') (A') (A')
                 (A') (A') (A') (A') (A') (A') (A') (A') (A') (A')
                 (A') (A') (A') (A') (A") (A') (A') (A') (A') (A')
                 (A') (A') (A") (A') (A") (A') (A") (A") (A') (A')
                 (A") (A") (A') (A") (A') (A") (A") (A') (A") (A')
                 (A') (A') (A") (A') (A") (A') (A') (A') (A') (A")
                 (A') (A') (A') (A") (A') (A") (A') (A") (A') (A")
                 (A") (A') (A') (A") (A') (A') (A") (A') (A') (A')
                 (A") (A") (A") (A') (A') (A") (A') (A") (A') (A')
                 (A') (A") (A") (A') (A") (A') (A') (A") (A') (A')
                 (A") (A') (A') (A') (A") (A') (A') (A') (A") (A")
                 (A') (A') (A') (A") (A') (A') (A") (A') (A") (A')
                 (A") (A') (A') (A") (A') (A') (A') (A') (A') (A')
                 (A') (A") (A') (A') (A') (A") (A') (A") (A") (A')
                 (A') (A') (A') (A') (A') (A") (A') (A') (A') (A')
                 (A') (A") (A") (A') (A") (A") (A') (A") (A') (A')
                 (A") (A") (A") (A') (A") (A") (A') (A') (A') (A')
                 (A') (A') (A') (A') (A') (A') (A') (A') (A') (A')
                 (A') (A') (A') (A") (A') (A') (A') (A') (A') (A')
                 (A') (A') (A') (A') (A') (A') (A') (A') (A') (A')
                 (A') (A') (A') (A') (A') (A') (A') (A') (A') (A')
                 (A') (A')
 The electronic state is 1-A'.
 Alpha  occ. eigenvalues --  -10.77153 -10.74272 -10.73295 -10.72142 -10.72104
 Alpha  occ. eigenvalues --  -10.71840 -10.71831 -10.71647 -10.71406 -10.71256
 Alpha  occ. eigenvalues --  -10.70754 -10.69870 -10.69720 -10.69720  -1.16419
 Alpha  occ. eigenvalues --   -1.12290  -1.06770  -1.05411  -1.01186  -1.00108
 Alpha  occ. eigenvalues --   -0.95538  -0.90781  -0.86847  -0.85419  -0.83651
 Alpha  occ. eigenvalues --   -0.78103  -0.75721  -0.74073  -0.69908  -0.69297
 Alpha  occ. eigenvalues --   -0.68058  -0.67850  -0.67546  -0.64332  -0.63877
 Alpha  occ. eigenvalues --   -0.62864  -0.61747  -0.60120  -0.59515  -0.58867
 Alpha  occ. eigenvalues --   -0.56590  -0.55300  -0.54749  -0.52266  -0.46620
 Alpha  occ. eigenvalues --   -0.45940  -0.44642
 Alpha virt. eigenvalues --   -0.25755  -0.14851  -0.14166  -0.12972  -0.11195
 Alpha virt. eigenvalues --   -0.10127  -0.09245  -0.07999  -0.07963  -0.07499
 Alpha virt. eigenvalues --   -0.07168  -0.07040  -0.05719  -0.05604  -0.05304
 Alpha virt. eigenvalues --   -0.03870  -0.03636  -0.03376  -0.03146  -0.02147
 Alpha virt. eigenvalues --   -0.01417  -0.00844   0.00141   0.00223   0.00593
 Alpha virt. eigenvalues --    0.00989   0.01417   0.01848   0.02297   0.02463
 Alpha virt. eigenvalues --    0.02466   0.02470   0.02614   0.03212   0.03782
 Alpha virt. eigenvalues --    0.04182   0.04386   0.04780   0.04999   0.05391
 Alpha virt. eigenvalues --    0.06052   0.06208   0.06559   0.06846   0.07341
 Alpha virt. eigenvalues --    0.07578   0.08068   0.08245   0.08661   0.08742
 Alpha virt. eigenvalues --    0.08882   0.09573   0.09718   0.10586   0.10975
 Alpha virt. eigenvalues --    0.11008   0.11575   0.12071   0.12576   0.12864
 Alpha virt. eigenvalues --    0.13012   0.13229   0.13827   0.14900   0.15425
 Alpha virt. eigenvalues --    0.16470   0.16518   0.17043   0.17228   0.18130
 Alpha virt. eigenvalues --    0.18226   0.18849   0.19048   0.19615   0.20381
 Alpha virt. eigenvalues --    0.21493   0.21551   0.22423   0.22963   0.23331
 Alpha virt. eigenvalues --    0.24182   0.24698   0.25737   0.26764   0.27291
 Alpha virt. eigenvalues --    0.28359   0.28901   0.30798   0.31600   0.35557
 Alpha virt. eigenvalues --    0.35710   0.38722   0.39406   0.40940   0.41309
 Alpha virt. eigenvalues --    0.41880   0.41924   0.43058   0.43665   0.44034
 Alpha virt. eigenvalues --    0.44237   0.45320   0.46004   0.47042   0.47749
 Alpha virt. eigenvalues --    0.48639   0.48769   0.49162   0.49330   0.50447
 Alpha virt. eigenvalues --    0.50529   0.51068   0.52095   0.52299   0.53970
 Alpha virt. eigenvalues --    0.54486   0.55019   0.55342   0.55798   0.57608
 Alpha virt. eigenvalues --    0.58441   0.59484   0.60707   0.61913   0.62414
 Alpha virt. eigenvalues --    0.63635   0.63826   0.63965   0.65574   0.67174
 Alpha virt. eigenvalues --    0.69033   0.70112   0.71273   0.71733   0.72670
 Alpha virt. eigenvalues --    0.74376   0.75475   0.76319   0.77006   0.77207
 Alpha virt. eigenvalues --    0.77550   0.78204   0.78274   0.80306   0.80456
 Alpha virt. eigenvalues --    0.81457   0.81992   0.82582   0.83571   0.84816
 Alpha virt. eigenvalues --    0.86119   0.87215   0.88101   0.89750   0.90066
 Alpha virt. eigenvalues --    0.90488   0.91146   0.92843   0.94347   0.94570
 Alpha virt. eigenvalues --    0.96886   0.96944   1.00496   1.01437   1.02200
 Alpha virt. eigenvalues --    1.02849   1.03171   1.03587   1.04940   1.06972
 Alpha virt. eigenvalues --    1.19900   1.21467   1.23299   1.25888   1.26531
 Alpha virt. eigenvalues --    1.30853   1.33451   1.34776   1.35758   1.36784
 Alpha virt. eigenvalues --    1.38980   1.40388   1.41216   1.41420   1.42554
 Alpha virt. eigenvalues --    1.43204   1.44083   1.46386   1.46496   1.46582
 Alpha virt. eigenvalues --    1.47259   1.47906   1.51660   1.53093   1.54792
 Alpha virt. eigenvalues --    1.55481   1.56396   1.56552   1.57649   1.62379
 Alpha virt. eigenvalues --    1.62822   1.62906   1.63529   1.65845   1.68062
 Alpha virt. eigenvalues --    1.68100   1.69181   1.69359   1.72859   1.74492
 Alpha virt. eigenvalues --    1.76794   1.76961   1.78475   1.78918   1.79298
 Alpha virt. eigenvalues --    1.81118   1.82105   1.83546   1.83583   1.84190
 Alpha virt. eigenvalues --    1.84489   1.85701   1.86833   1.87833   1.90254
 Alpha virt. eigenvalues --    1.91166   1.93000   1.96399   1.96404   1.98781
 Alpha virt. eigenvalues --    1.99625   2.01629   2.05216   2.06296   2.08987
 Alpha virt. eigenvalues --    2.11261   2.14245   2.16209   2.18261   2.21390
 Alpha virt. eigenvalues --    2.22603   2.27509   2.28894   2.32387   2.33269
 Alpha virt. eigenvalues --    2.34540   2.37635   2.39195   2.41153   2.43358
 Alpha virt. eigenvalues --    2.44598   2.45958   2.46879   2.49305   2.51949
 Alpha virt. eigenvalues --    2.54050   2.54348   2.56548   2.58027   2.58289
 Alpha virt. eigenvalues --    2.59257   2.60180   2.61550   2.63049   2.63159
 Alpha virt. eigenvalues --    2.64400   2.64670   2.65585   2.65765   2.67960
 Alpha virt. eigenvalues --    2.69018   2.70516   2.73196   2.74582   2.74683
 Alpha virt. eigenvalues --    2.76576   2.78407   2.79461   2.79726   2.82591
 Alpha virt. eigenvalues --    2.82610   2.86076   2.91461   2.96050   2.98646
 Alpha virt. eigenvalues --    2.99830   3.02568   3.08135   3.09752   3.13029
 Alpha virt. eigenvalues --    3.18933   3.22959   3.24921   3.28328   3.29505
 Alpha virt. eigenvalues --    3.31087   3.32334   3.41025   3.44166   3.45505
 Alpha virt. eigenvalues --    3.46838   3.49361   3.54323   3.61738   3.65545
 Alpha virt. eigenvalues --    3.68350   3.91485   3.93260   3.95177   3.95833
 Alpha virt. eigenvalues --    4.02629   4.04901   4.06305   4.12231   4.33976
 Alpha virt. eigenvalues --    4.55226   4.67611   4.70318  23.45160  23.60032
 Alpha virt. eigenvalues --   23.80986  23.81989  23.83704  23.87456  23.89549
 Alpha virt. eigenvalues --   23.91680  23.94728  23.97938  23.98597  24.02094
 Alpha virt. eigenvalues --   24.08947  24.10454
          Condensed to atoms (all electrons):
               1          2          3          4          5          6
     1  C   11.026803  -0.411478  -0.967889   3.850275  -0.125386  -0.165914
     2  C   -0.411478   8.122429   0.065494  -1.305966  -0.000141  -0.018430
     3  C   -0.967889   0.065494   6.786023   0.038734  -0.082157   0.031763
     4  C    3.850275  -1.305966   0.038734  12.836353  -0.971128  -0.170390
     5  C   -0.125386  -0.000141  -0.082157  -0.971128  11.124375   1.087388
     6  C   -0.165914  -0.018430   0.031763  -0.170390   1.087388   7.962018
     7  C    0.013796  -0.001115  -0.003288  -0.028791  -1.034299   0.222660
     8  C    0.310907   0.085561  -0.056291  -0.383188   2.284484  -0.128409
     9  C   -0.722431  -1.147520   0.252640   0.221095  -0.622138   0.427861
    10  C   -1.944407   0.199194   0.057670  -2.475827  -2.921347  -0.958910
    11  C   -0.740929  -0.800820   1.117151  -0.348269  -1.374833  -0.398863
    12  C   -4.080869   1.709876  -0.894967  -3.720411  -0.370326   0.046283
    13  C    0.412264  -0.299642   0.105050  -1.113969  -1.735406   0.335397
    14  C   -1.120730  -0.119758  -0.304128  -0.617813   0.117557  -2.109123
    15  H    0.410012  -0.141348   0.018030   0.033593   0.004686   0.002884
    16  H   -0.004169   0.385886  -0.038895   0.021598  -0.001221  -0.000407
    17  H   -0.059830  -0.000542   0.389540  -0.090113   0.001230   0.000705
    18  H    0.090311  -0.003036  -0.085892   0.530822  -0.001065  -0.005628
    19  H   -0.068720  -0.019143   0.061775  -0.115076   0.045983   0.087203
    20  H    0.011779   0.004467  -0.007713  -0.000055   0.456652  -0.115334
    21  H   -0.001294  -0.000428   0.000331   0.000416  -0.036992   0.354781
    22  H    0.000607   0.000438  -0.000113  -0.002147   0.000304  -0.031258
    23  H    0.007572  -0.001135  -0.000005   0.002733   0.033808  -0.000661
    24  H    0.034437   0.012595  -0.000100  -0.006224  -0.006040  -0.003640
    25  H    0.034437   0.012595  -0.000100  -0.006224  -0.006040  -0.003640
               7          8          9         10         11         12
     1  C    0.013796   0.310907  -0.722431  -1.944407  -0.740929  -4.080869
     2  C   -0.001115   0.085561  -1.147520   0.199194  -0.800820   1.709876
     3  C   -0.003288  -0.056291   0.252640   0.057670   1.117151  -0.894967
     4  C   -0.028791  -0.383188   0.221095  -2.475827  -0.348269  -3.720411
     5  C   -1.034299   2.284484  -0.622138  -2.921347  -1.374833  -0.370326
     6  C    0.222660  -0.128409   0.427861  -0.958910  -0.398863   0.046283
     7  C    6.564957   0.367127  -0.233287   0.195662  -0.146797  -0.149067
     8  C    0.367127   9.160914  -0.445782  -1.472051   0.383334  -1.167983
     9  C   -0.233287  -0.445782   9.231699   0.562569   0.767093  -1.509587
    10  C    0.195662  -1.472051   0.562569   9.328274   0.154488   2.676018
    11  C   -0.146797   0.383334   0.767093   0.154488  12.983260  -1.521424
    12  C   -0.149067  -1.167983  -1.509587   2.676018  -1.521424  14.388393
    13  C    0.022815  -0.486135   0.975676   1.088888   0.473608  -3.018784
    14  C    0.242214  -2.678167  -2.063580   1.192160  -4.096386   3.260778
    15  H   -0.002595  -0.000990   0.081149  -0.007771  -0.037839  -0.047958
    16  H    0.000193   0.000233   0.000056  -0.009067   0.001424  -0.013745
    17  H   -0.000255  -0.001043  -0.005572   0.018806  -0.011125   0.103748
    18  H    0.000363   0.001188  -0.016858  -0.028685   0.024077  -0.135538
    19  H    0.003574  -0.040177   0.076892   0.397758   0.009267   0.008746
    20  H    0.014402   0.055168  -0.035896   0.014377   0.001118  -0.022088
    21  H   -0.019465  -0.010071  -0.005284   0.009391  -0.006009   0.006799
    22  H    0.397985  -0.044514   0.007954   0.001497   0.000980  -0.008923
    23  H   -0.073316   0.382465   0.015870  -0.018429  -0.008428   0.001977
    24  H    0.012370   0.028696   0.353836   0.003424  -0.014887  -0.046644
    25  H    0.012370   0.028696   0.353836   0.003424  -0.014887  -0.046644
              13         14         15         16         17         18
     1  C    0.412264  -1.120730   0.410012  -0.004169  -0.059830   0.090311
     2  C   -0.299642  -0.119758  -0.141348   0.385886  -0.000542  -0.003036
     3  C    0.105050  -0.304128   0.018030  -0.038895   0.389540  -0.085892
     4  C   -1.113969  -0.617813   0.033593   0.021598  -0.090113   0.530822
     5  C   -1.735406   0.117557   0.004686  -0.001221   0.001230  -0.001065
     6  C    0.335397  -2.109123   0.002884  -0.000407   0.000705  -0.005628
     7  C    0.022815   0.242214  -0.002595   0.000193  -0.000255   0.000363
     8  C   -0.486135  -2.678167  -0.000990   0.000233  -0.001043   0.001188
     9  C    0.975676  -2.063580   0.081149   0.000056  -0.005572  -0.016858
    10  C    1.088888   1.192160  -0.007771  -0.009067   0.018806  -0.028685
    11  C    0.473608  -4.096386  -0.037839   0.001424  -0.011125   0.024077
    12  C   -3.018784   3.260778  -0.047958  -0.013745   0.103748  -0.135538
    13  C   12.742307  -3.042388   0.013114   0.000210  -0.003854  -0.018995
    14  C   -3.042388  16.599167  -0.004681  -0.005423   0.002700  -0.018433
    15  H    0.013114  -0.004681   0.452531  -0.012240   0.001857  -0.000089
    16  H    0.000210  -0.005423  -0.012240   0.425645  -0.006820   0.002212
    17  H   -0.003854   0.002700   0.001857  -0.006820   0.417335  -0.009579
    18  H   -0.018995  -0.018433  -0.000089   0.002212  -0.009579   0.452211
    19  H    0.080099  -0.146393   0.001037  -0.001077   0.002918  -0.011943
    20  H   -0.049696  -0.009202  -0.000236   0.000063  -0.000348   0.001917
    21  H   -0.034265   0.081023   0.000040  -0.000008   0.000014  -0.000107
    22  H    0.032217  -0.013150  -0.000157   0.000006  -0.000005  -0.000018
    23  H   -0.040464   0.027966   0.000310  -0.000067   0.000008  -0.000029
    24  H    0.022665  -0.054369  -0.001677   0.000577  -0.000098   0.000137
    25  H    0.022665  -0.054369  -0.001677   0.000577  -0.000098   0.000137
              19         20         21         22         23         24
     1  C   -0.068720   0.011779  -0.001294   0.000607   0.007572   0.034437
     2  C   -0.019143   0.004467  -0.000428   0.000438  -0.001135   0.012595
     3  C    0.061775  -0.007713   0.000331  -0.000113  -0.000005  -0.000100
     4  C   -0.115076  -0.000055   0.000416  -0.002147   0.002733  -0.006224
     5  C    0.045983   0.456652  -0.036992   0.000304   0.033808  -0.006040
     6  C    0.087203  -0.115334   0.354781  -0.031258  -0.000661  -0.003640
     7  C    0.003574   0.014402  -0.019465   0.397985  -0.073316   0.012370
     8  C   -0.040177   0.055168  -0.010071  -0.044514   0.382465   0.028696
     9  C    0.076892  -0.035896  -0.005284   0.007954   0.015870   0.353836
    10  C    0.397758   0.014377   0.009391   0.001497  -0.018429   0.003424
    11  C    0.009267   0.001118  -0.006009   0.000980  -0.008428  -0.014887
    12  C    0.008746  -0.022088   0.006799  -0.008923   0.001977  -0.046644
    13  C    0.080099  -0.049696  -0.034265   0.032217  -0.040464   0.022665
    14  C   -0.146393  -0.009202   0.081023  -0.013150   0.027966  -0.054369
    15  H    0.001037  -0.000236   0.000040  -0.000157   0.000310  -0.001677
    16  H   -0.001077   0.000063  -0.000008   0.000006  -0.000067   0.000577
    17  H    0.002918  -0.000348   0.000014  -0.000005   0.000008  -0.000098
    18  H   -0.011943   0.001917  -0.000107  -0.000018  -0.000029   0.000137
    19  H    0.471048  -0.007512   0.001162  -0.000327  -0.000037   0.000330
    20  H   -0.007512   0.479253  -0.010374   0.001765   0.000291   0.000184
    21  H    0.001162  -0.010374   0.416731  -0.006434   0.001864  -0.000175
    22  H   -0.000327   0.001765  -0.006434   0.418074  -0.009172   0.000562
    23  H   -0.000037   0.000291   0.001864  -0.009172   0.423812  -0.000636
    24  H    0.000330   0.000184  -0.000175   0.000562  -0.000636   0.492690
    25  H    0.000330   0.000184  -0.000175   0.000562  -0.000636  -0.079957
              25
     1  C    0.034437
     2  C    0.012595
     3  C   -0.000100
     4  C   -0.006224
     5  C   -0.006040
     6  C   -0.003640
     7  C    0.012370
     8  C    0.028696
     9  C    0.353836
    10  C    0.003424
    11  C   -0.014887
    12  C   -0.046644
    13  C    0.022665
    14  C   -0.054369
    15  H   -0.001677
    16  H    0.000577
    17  H   -0.000098
    18  H    0.000137
    19  H    0.000330
    20  H    0.000184
    21  H   -0.000175
    22  H    0.000562
    23  H   -0.000636
    24  H   -0.079957
    25  H    0.492690
 Mulliken charges:
               1
     1  C    0.210845
     2  C   -0.328034
     3  C   -0.482663
     4  C   -0.180031
     5  C    0.132053
     6  C   -0.448335
     7  C   -0.378214
     8  C   -0.173971
     9  C   -0.520290
    10  C   -0.067107
    11  C   -0.394304
    12  C    0.552340
    13  C   -0.483377
    14  C    0.934529
    15  H    0.240014
    16  H    0.254461
    17  H    0.250421
    18  H    0.232520
    19  H    0.162282
    20  H    0.216835
    21  H    0.258529
    22  H    0.253268
    23  H    0.254339
    24  H    0.251944
    25  H    0.251944
 Sum of Mulliken charges =   1.00000
 Mulliken charges with hydrogens summed into heavy atoms:
               1
     1  C    0.450860
     2  C   -0.073573
     3  C   -0.232242
     4  C    0.052489
     5  C    0.348887
     6  C   -0.189806
     7  C   -0.124946
     8  C    0.080368
     9  C   -0.016401
    10  C    0.095175
    11  C   -0.394304
    12  C    0.552340
    13  C   -0.483377
    14  C    0.934529
 Electronic spatial extent (au):  <R**2>=           2868.4906
 Charge=              1.0000 electrons
 Dipole moment (field-independent basis, Debye):
    X=              0.1368    Y=              0.2732    Z=             -0.0000  Tot=              0.3055
 Quadrupole moment (field-independent basis, Debye-Ang):
   XX=            -51.8223   YY=            -34.9089   ZZ=            -84.3938
   XY=             -9.8670   XZ=              0.0000   YZ=              0.0000
 Traceless Quadrupole moment (field-independent basis, Debye-Ang):
   XX=              5.2194   YY=             22.1328   ZZ=            -27.3522
   XY=             -9.8670   XZ=              0.0000   YZ=              0.0000
 Octapole moment (field-independent basis, Debye-Ang**2):
  XXX=              1.2928  YYY=              0.1191  ZZZ=             -0.0000  XYY=             -0.9204
  XXY=              3.7928  XXZ=             -0.0000  XZZ=             -2.4315  YZZ=             -1.5453
  YYZ=             -0.0000  XYZ=             -0.0000
 Hexadecapole moment (field-independent basis, Debye-Ang**3):
 XXXX=           -927.6004 YYYY=          -1897.7926 ZZZZ=            -99.8661 XXXY=            324.1212
 XXXZ=              0.0000 YYYX=            246.2222 YYYZ=              0.0000 ZZZX=              0.0000
 ZZZY=              0.0000 XXYY=           -461.4861 XXZZ=           -227.4565 YYZZ=           -513.8201
 XXYZ=              0.0000 YYXZ=              0.0000 ZZXY=            171.7821
 N-N= 7.789670063028D+02 E-N=-2.794062132070D+03  KE= 5.372578061224D+02
 Symmetry A'   KE= 5.226388936049D+02
 Symmetry A"   KE= 1.461891251749D+01
 Unable to Open any file for archive entry.
 1\1\GINC-GADI-CPU-CLX-0359\SP\RM062X TD-FC\6-311++G(d,p)\C14H11(1+)\TS
 1578\02-Aug-2022\0\\#n M062X/6-311++G(d,p) TD(NStates=1) EmpiricalDisp
 ersion=GD3 SP\\SP_-6\\1,1\C,0,0.,2.492655,1.282431\C,0,0.,3.707508,0.5
 99989\C,0,0.,3.701861,-0.77983\C,0,0.,2.463156,-1.473538\C,0,0.,-2.319
 156,-1.365538\C,0,0.,-3.605861,-0.85183\C,0,0.,-3.767508,0.539989\C,0,
 0.,-2.648655,1.414431\C,0,0.,0.024,1.543369\C,0,0.,-0.036,-1.339189\C,
 0,0.,1.244055,0.629065\C,0,0.,1.249471,-0.766804\C,0,0.,-1.316055,0.88
 1065\C,0,0.,-1.201471,-0.538804\H,0,0.,2.500071,2.365647\H,0,0.,4.6307
 53,1.157689\H,0,0.,4.633262,-1.338349\H,0,0.,2.46155,-2.556059\H,0,0.,
 -0.186,-2.414266\H,0,0.,-2.14955,-2.448059\H,0,0.,-4.465262,-1.518349\
 H,0,0.,-4.774753,0.953689\H,0,0.,-2.824071,2.497647\H,0,-0.859585,0.14
 4,2.235787\H,0,0.859585,0.144,2.235787\\Version=ES64L-G16RevC.01\State
 =1-A'\HF=-539.7416861\RMSD=8.479e-09\PG=CS [SG(C14H9),X(H2)]\\@
 The archive entry for this job was punched.


 A COMPUTER IS LIKE A HORSE, IT WILL SENSE WEAKNESS.
     -- GREG WETTSTEIN
 Job cpu time:       0 days  0 hours 51 minutes 24.0 seconds.
 Elapsed time:       0 days  0 hours  1 minutes  4.4 seconds.
 File lengths (MBytes):  RWF=    460 Int=      0 D2E=      0 Chk=     15 Scr=      1
 Normal termination of Gaussian 16 at Tue Aug  2 12:08:22 2022.
