 Entering Gaussian System, Link 0=g16
 Initial command:
 /apps/gaussian/g16c01/g16/l1.exe "/jobfs/53803768.gadi-pbs/Gau-158821.inp" -scrdir="/jobfs/53803768.gadi-pbs/"
 Entering Link 1 = /apps/gaussian/g16c01/g16/l1.exe PID=    158822.
  
 Copyright (c) 1988-2019, Gaussian, Inc.  All Rights Reserved.
  
 This is part of the Gaussian(R) 16 program.  It is based on
 the Gaussian(R) 09 system (copyright 2009, Gaussian, Inc.),
 the Gaussian(R) 03 system (copyright 2003, Gaussian, Inc.),
 the Gaussian(R) 98 system (copyright 1998, Gaussian, Inc.),
 the Gaussian(R) 94 system (copyright 1995, Gaussian, Inc.),
 the Gaussian 92(TM) system (copyright 1992, Gaussian, Inc.),
 the Gaussian 90(TM) system (copyright 1990, Gaussian, Inc.),
 the Gaussian 88(TM) system (copyright 1988, Gaussian, Inc.),
 the Gaussian 86(TM) system (copyright 1986, Carnegie Mellon
 University), and the Gaussian 82(TM) system (copyright 1983,
 Carnegie Mellon University). Gaussian is a federally registered
 trademark of Gaussian, Inc.
  
 This software contains proprietary and confidential information,
 including trade secrets, belonging to Gaussian, Inc.
  
 This software is provided under written license and may be
 used, copied, transmitted, or stored only in accord with that
 written license.
  
 The following legend is applicable only to US Government
 contracts under FAR:
  
                    RESTRICTED RIGHTS LEGEND
  
 Use, reproduction and disclosure by the US Government is
 subject to restrictions as set forth in subparagraphs (a)
 and (c) of the Commercial Computer Software - Restricted
 Rights clause in FAR 52.227-19.
  
 Gaussian, Inc.
 340 Quinnipiac St., Bldg. 40, Wallingford CT 06492
  
  
 ---------------------------------------------------------------
 Warning -- This program may not be used in any manner that
 competes with the business of Gaussian, Inc. or will provide
 assistance to any competitor of Gaussian, Inc.  The licensee
 of this program is prohibited from giving any competitor of
 Gaussian, Inc. access to this program.  By using this program,
 the user acknowledges that Gaussian, Inc. is engaged in the
 business of creating and licensing software in the field of
 computational chemistry and represents and warrants to the
 licensee that it is not a competitor of Gaussian, Inc. and that
 it will not use this program in any manner prohibited above.
 ---------------------------------------------------------------
  

 Cite this work as:
 Gaussian 16, Revision C.01,
 M. J. Frisch, G. W. Trucks, H. B. Schlegel, G. E. Scuseria, 
 M. A. Robb, J. R. Cheeseman, G. Scalmani, V. Barone, 
 G. A. Petersson, H. Nakatsuji, X. Li, M. Caricato, A. V. Marenich, 
 J. Bloino, B. G. Janesko, R. Gomperts, B. Mennucci, H. P. Hratchian, 
 J. V. Ortiz, A. F. Izmaylov, J. L. Sonnenberg, D. Williams-Young, 
 F. Ding, F. Lipparini, F. Egidi, J. Goings, B. Peng, A. Petrone, 
 T. Henderson, D. Ranasinghe, V. G. Zakrzewski, J. Gao, N. Rega, 
 G. Zheng, W. Liang, M. Hada, M. Ehara, K. Toyota, R. Fukuda, 
 J. Hasegawa, M. Ishida, T. Nakajima, Y. Honda, O. Kitao, H. Nakai, 
 T. Vreven, K. Throssell, J. A. Montgomery, Jr., J. E. Peralta, 
 F. Ogliaro, M. J. Bearpark, J. J. Heyd, E. N. Brothers, K. N. Kudin, 
 V. N. Staroverov, T. A. Keith, R. Kobayashi, J. Normand, 
 K. Raghavachari, A. P. Rendell, J. C. Burant, S. S. Iyengar, 
 J. Tomasi, M. Cossi, J. M. Millam, M. Klene, C. Adamo, R. Cammi, 
 J. W. Ochterski, R. L. Martin, K. Morokuma, O. Farkas, 
 J. B. Foresman, and D. J. Fox, Gaussian, Inc., Wallingford CT, 2019.
 
 ******************************************
 Gaussian 16:  ES64L-G16RevC.01  3-Jul-2019
                 2-Aug-2022 
 ******************************************
 %NProcShared=48
 Will use up to   48 processors via shared memory.
 %mem = 190GB
 ---------------------------------------------------------------
 #n M062X/6-311++G(d,p) TD(NStates=1) EmpiricalDispersion=GD3 SP
 ---------------------------------------------------------------
 1/38=1,172=1/1;
 2/12=2,17=6,18=5,40=1/2;
 3/5=4,6=6,7=1111,11=9,25=1,30=1,74=-55,124=31/1,2,3,8;
 4//1;
 5/5=2,38=5/2;
 8/6=1,10=2,108=1/1;
 9/41=1,42=1,70=2/14;
 6/7=2,8=2,9=2,10=2/1;
 99/5=1,9=1/99;
 ------
 SP_-10
 ------
 Symbolic Z-matrix:
 Charge =  1 Multiplicity = 1
 C                     0.        2.49266   1.23043 
 C                     0.        3.71151   0.55199 
 C                     0.        3.71386  -0.82383 
 C                     0.        2.46316  -1.51754 
 C                     0.       -2.22316  -1.33754 
 C                     0.       -3.55386  -0.94383 
 C                     0.       -3.81151   0.45199 
 C                     0.       -2.75266   1.45043 
 C                     0.        0.04      1.60337 
 C                     0.       -0.06     -1.27919 
 C                     0.        1.23206   0.59707 
 C                     0.        1.25747  -0.7908 
 C                     0.       -1.35206   1.01707 
 C                     0.       -1.17747  -0.4108 
 H                     0.        2.50807   2.31365 
 H                     0.        4.62675   1.12169 
 H                     0.        4.64926  -1.38235 
 H                     0.        2.45755  -2.60006 
 H                     0.       -0.31     -2.35027 
 H                     0.       -1.93755  -2.42006 
 H                     0.       -4.36926  -1.68235 
 H                     0.       -4.86675   0.78169 
 H                     0.       -3.04807   2.53365 
 H                    -0.85959   0.24      2.29579 
 H                     0.85959   0.24      2.29579 
 
                          Input orientation:                          
 ---------------------------------------------------------------------
 Center     Atomic      Atomic             Coordinates (Angstroms)
 Number     Number       Type             X           Y           Z
 ---------------------------------------------------------------------
      1          6           0        0.000000    2.492655    1.230431
      2          6           0        0.000000    3.711508    0.551989
      3          6           0        0.000000    3.713861   -0.823830
      4          6           0        0.000000    2.463156   -1.517538
      5          6           0        0.000000   -2.223156   -1.337538
      6          6           0        0.000000   -3.553861   -0.943830
      7          6           0        0.000000   -3.811508    0.451989
      8          6           0        0.000000   -2.752655    1.450431
      9          6           0        0.000000    0.040000    1.603369
     10          6           0        0.000000   -0.060000   -1.279189
     11          6           0        0.000000    1.232055    0.597065
     12          6           0        0.000000    1.257471   -0.790804
     13          6           0        0.000000   -1.352055    1.017065
     14          6           0        0.000000   -1.177471   -0.410804
     15          1           0        0.000000    2.508071    2.313647
     16          1           0        0.000000    4.626753    1.121689
     17          1           0        0.000000    4.649262   -1.382349
     18          1           0        0.000000    2.457550   -2.600059
     19          1           0        0.000000   -0.310000   -2.350266
     20          1           0        0.000000   -1.937550   -2.420059
     21          1           0        0.000000   -4.369262   -1.682349
     22          1           0        0.000000   -4.866753    0.781689
     23          1           0        0.000000   -3.048071    2.533647
     24          1           0       -0.859585    0.240000    2.295787
     25          1           0        0.859585    0.240000    2.295787
 ---------------------------------------------------------------------
                    Distance matrix (angstroms):
                    1          2          3          4          5
     1  C    0.000000
     2  C    1.394950   0.000000
     3  C    2.389839   1.375821   0.000000
     4  C    2.748127   2.416883   1.430208   0.000000
     5  C    5.369668   6.228206   5.959200   4.689768   0.000000
     6  C    6.425556   7.417753   7.268713   6.044306   1.387725
     7  C    6.352042   7.523681   7.632751   6.576507   2.392753
     8  C    5.249922   6.526301   6.854786   6.001127   2.837806
     9  C    2.480846   3.819080   4.403243   3.951170   3.710904
    10  C    3.579698   4.192551   3.801234   2.534389   2.163943
    11  C    1.410767   2.479863   2.859773   2.446866   3.959946
    12  C    2.368770   2.797390   2.456612   1.407771   3.523306
    13  C    3.850626   5.084876   5.390028   4.580398   2.510572
    14  C    4.020383   4.982879   4.908739   3.805131   1.397245
    15  H    1.083326   2.133471   3.361204   3.831448   5.976258
    16  H    2.136867   1.078068   2.149050   3.412722   7.277984
    17  H    3.387857   2.149662   1.089458   2.190282   6.872564
    18  H    3.830651   3.392317   2.175616   1.082536   4.847986
    19  H    4.547116   4.959396   4.303657   2.895484   2.164667
    20  H    5.740452   6.383175   5.872512   4.492300   1.119564
    21  H    7.454542   8.383979   8.128587   6.834405   2.173630
    22  H    7.373076   8.581336   8.729526   7.682058   3.388175
    23  H    5.691926   7.044067   7.549594   6.840009   3.958100
    24  H    2.635967   3.978830   4.747484   4.496972   4.472927
    25  H    2.635967   3.978830   4.747484   4.496972   4.472927
                    6          7          8          9         10
     6  C    0.000000
     7  C    1.419399   0.000000
     8  C    2.524761   1.455354   0.000000
     9  C    4.405004   4.019924   2.796840   0.000000
    10  C    3.509919   4.131681   3.834217   2.884292   0.000000
    11  C    5.027857   5.045649   4.075064   1.560014   2.278099
    12  C    4.813765   5.219107   4.593936   2.685945   1.405080
    13  C    2.948399   2.523533   1.466113   1.510487   2.634803
    14  C    2.435436   2.771744   2.438319   2.353535   1.415215
    15  H    6.881728   6.588084   5.331077   2.568242   4.416272
    16  H    8.437346   8.464795   7.386727   4.611976   5.265916
    17  H    8.214836   8.657334   7.925466   5.491795   4.710392
    18  H    6.235395   6.972524   6.599447   4.849057   2.843019
    19  H    3.535632   4.484773   4.517949   3.969097   1.099866
    20  H    2.188998   3.429341   3.955387   4.483155   2.196993
    21  H    1.100131   2.206012   3.525298   5.498867   4.328080
    22  H    2.168202   1.105551   2.217347   4.975076   5.229923
    23  H    3.514067   2.217236   1.122777   3.225151   4.844201
    24  H    5.062350   4.533563   3.226375   1.121753   3.689084
    25  H    5.062350   4.533563   3.226375   1.121753   3.689084
                   11         12         13         14         15
    11  C    0.000000
    12  C    1.388102   0.000000
    13  C    2.618019   3.174589   0.000000
    14  C    2.611822   2.464415   1.438503   0.000000
    15  H    2.138895   3.346882   4.072063   4.583214   0.000000
    16  H    3.434997   3.874234   5.979723   6.003128   2.430962
    17  H    3.949099   3.442989   6.463203   5.907175   4.271427
    18  H    3.423951   2.171081   5.253254   4.243373   4.913966
    19  H    3.326363   2.211083   3.524883   2.124622   5.449184
    20  H    4.376007   3.586451   3.486635   2.148215   6.493960
    21  H    6.047353   5.696927   4.048503   3.435747   7.953973
    22  H    6.101602   6.322883   3.522571   3.877221   7.532259
    23  H    4.697854   5.439638   2.275190   3.488400   5.560496
    24  H    2.146792   3.361722   2.215549   3.173916   2.425562
    25  H    2.146792   3.361722   2.215549   3.173916   2.425562
                   16         17         18         19         20
    16  H    0.000000
    17  H    2.504139   0.000000
    18  H    4.307766   2.507273   0.000000
    19  H    6.035396   5.052835   2.778800   0.000000
    20  H    7.458824   6.668053   4.398784   1.629046   0.000000
    21  H    9.422893   9.023512   6.888218   4.113845   2.541149
    22  H    9.499592   9.758975   8.067319   5.529298   4.339518
    23  H    7.803624   8.636201   7.527735   5.599075   5.076658
    24  H    4.621796   5.805959   5.442952   4.756805   5.264961
    25  H    4.621796   5.805959   5.442952   4.756805   5.264961
                   21         22         23         24         25
    21  H    0.000000
    22  H    2.513758   0.000000
    23  H    4.418163   2.525265   0.000000
    24  H    6.148963   5.395397   3.406886   0.000000
    25  H    6.148963   5.395397   3.406886   1.719170   0.000000
 Stoichiometry    C14H11(1+)
 Framework group  CS[SG(C14H9),X(H2)]
 Deg. of freedom    46
 Full point group                 CS      NOp   2
 Largest Abelian subgroup         CS      NOp   2
 Largest concise Abelian subgroup CS      NOp   2
                         Standard orientation:                         
 ---------------------------------------------------------------------
 Center     Atomic      Atomic             Coordinates (Angstroms)
 Number     Number       Type             X           Y           Z
 ---------------------------------------------------------------------
      1          6           0       -0.350999   -2.758296    0.000000
      2          6           0        0.688681   -3.688323    0.000000
      3          6           0        1.989647   -3.240694    0.000000
      4          6           0        2.236281   -1.831913    0.000000
      5          6           0        0.533887    2.537959    0.000000
      6          6           0       -0.273282    3.666790    0.000000
      7          6           0       -1.676622    3.453883    0.000000
      8          6           0       -2.273970    2.126769    0.000000
      9          6           0       -1.505385   -0.562392    0.000000
     10          6           0        1.186034    0.474623    0.000000
     11          6           0       -0.164626   -1.359893    0.000000
     12          6           0        1.155268   -0.930120    0.000000
     13          6           0       -1.406469    0.944852    0.000000
     14          6           0        0.000000    1.246735    0.000000
     15          1           0       -1.369635   -3.127045    0.000000
     16          1           0        0.449553   -4.739537    0.000000
     17          1           0        2.823315   -3.942061    0.000000
     18          1           0        3.257467   -1.472662    0.000000
     19          1           0        2.116496    1.061093    0.000000
     20          1           0        1.650291    2.622004    0.000000
     21          1           0        0.158031    4.678846    0.000000
     22          1           0       -2.333235    4.343323    0.000000
     23          1           0       -3.394239    2.051767    0.000000
     24          1           0       -2.094350   -0.977800    0.859585
     25          1           0       -2.094350   -0.977800   -0.859585
 ---------------------------------------------------------------------
 Rotational constants (GHZ):           2.0847956           0.4415563           0.3651653
 Standard basis: 6-311++G(d,p) (5D, 7F)
 There are   299 symmetry adapted cartesian basis functions of A'  symmetry.
 There are   100 symmetry adapted cartesian basis functions of A"  symmetry.
 There are   285 symmetry adapted basis functions of A'  symmetry.
 There are   100 symmetry adapted basis functions of A"  symmetry.
   385 basis functions,   603 primitive gaussians,   399 cartesian basis functions
    47 alpha electrons       47 beta electrons
       nuclear repulsion energy       775.8503212995 Hartrees.
 NAtoms=   25 NActive=   25 NUniq=   24 SFac= 1.09D+00 NAtFMM=   60 NAOKFM=F Big=F
 Integral buffers will be    131072 words long.
 Regular integral format.
 Two-electron integral symmetry is turned on.
 Nuclear repulsion after empirical dispersion term =      775.8493422149 Hartrees.
 One-electron integrals computed using PRISM.
 NBasis=   385 RedAO= T EigKep=  1.45D-06  NBF=   285   100
 NBsUse=   379 1.00D-06 EigRej=  8.63D-07 NBFU=   279   100
 ExpMin= 3.60D-02 ExpMax= 4.56D+03 ExpMxC= 6.82D+02 IAcc=3 IRadAn=         5 AccDes= 0.00D+00
 Harris functional with IExCor= 1009 and IRadAn=       5 diagonalized for initial guess.
 HarFok:  IExCor= 1009 AccDes= 0.00D+00 IRadAn=         5 IDoV= 1 UseB2=F ITyADJ=14
 ICtDFT=  3500011 ScaDFX=  1.000000  1.000000  1.000000  1.000000
 FoFCou: FMM=F IPFlag=           0 FMFlag=      100000 FMFlg1=           0
         NFxFlg=           0 DoJE=T BraDBF=F KetDBF=T FulRan=T
         wScrn=  0.000000 ICntrl=       500 IOpCl=  0 I1Cent=   200000004 NGrid=           0
         NMat0=    1 NMatS0=      1 NMatT0=    0 NMatD0=    1 NMtDS0=    0 NMtDT0=    0
 Petite list used in FoFCou.
 Initial guess orbital symmetries:
       Occupied  (A') (A') (A') (A') (A') (A') (A') (A') (A') (A')
                 (A') (A') (A') (A') (A') (A') (A') (A') (A') (A')
                 (A') (A') (A') (A') (A') (A') (A') (A') (A') (A')
                 (A') (A') (A') (A") (A') (A') (A') (A') (A") (A")
                 (A') (A') (A') (A") (A") (A") (A")
       Virtual   (A") (A") (A") (A") (A") (A') (A') (A') (A') (A")
                 (A") (A') (A') (A') (A') (A") (A') (A') (A') (A')
                 (A") (A") (A') (A') (A') (A") (A') (A') (A") (A')
                 (A') (A') (A') (A") (A') (A') (A') (A') (A") (A")
                 (A') (A') (A') (A") (A') (A') (A') (A') (A') (A')
                 (A") (A") (A') (A") (A') (A') (A') (A") (A') (A")
                 (A') (A') (A') (A') (A') (A') (A") (A') (A') (A")
                 (A') (A') (A') (A') (A') (A') (A') (A') (A') (A')
                 (A') (A') (A') (A') (A') (A') (A') (A') (A') (A')
                 (A') (A') (A') (A') (A') (A') (A') (A") (A") (A')
                 (A") (A') (A") (A') (A') (A') (A") (A') (A") (A')
                 (A") (A") (A') (A") (A') (A') (A") (A') (A") (A")
                 (A') (A") (A') (A") (A') (A') (A') (A') (A') (A")
                 (A') (A') (A') (A') (A') (A') (A') (A') (A') (A")
                 (A') (A') (A') (A') (A') (A') (A') (A') (A") (A')
                 (A') (A") (A") (A') (A") (A') (A') (A') (A") (A")
                 (A') (A') (A") (A") (A") (A") (A') (A') (A') (A')
                 (A') (A") (A') (A") (A') (A') (A') (A') (A') (A")
                 (A') (A') (A") (A') (A") (A') (A') (A') (A") (A")
                 (A") (A') (A') (A') (A") (A') (A') (A') (A") (A")
                 (A') (A") (A") (A') (A') (A") (A') (A") (A') (A')
                 (A") (A") (A') (A") (A') (A') (A') (A") (A') (A')
                 (A") (A') (A') (A') (A") (A') (A') (A") (A') (A')
                 (A") (A') (A') (A") (A') (A') (A") (A") (A') (A')
                 (A") (A') (A') (A') (A") (A') (A') (A') (A') (A')
                 (A") (A') (A') (A') (A") (A') (A") (A') (A") (A')
                 (A') (A") (A') (A') (A') (A") (A') (A') (A") (A')
                 (A') (A') (A") (A') (A") (A') (A") (A') (A") (A')
                 (A") (A") (A") (A') (A") (A') (A') (A') (A') (A')
                 (A') (A') (A') (A') (A') (A') (A') (A') (A') (A')
                 (A') (A') (A') (A") (A') (A') (A') (A') (A') (A')
                 (A') (A') (A') (A') (A') (A') (A') (A') (A') (A')
                 (A') (A') (A') (A') (A') (A') (A') (A') (A') (A')
                 (A') (A')
 The electronic state of the initial guess is 1-A'.
 Requested convergence on RMS density matrix=1.00D-08 within 128 cycles.
 Requested convergence on MAX density matrix=1.00D-06.
 Requested convergence on             energy=1.00D-06.
 No special actions if energy rises.
 SCF Done:  E(RM062X) =  -539.694709110     A.U. after   15 cycles
            NFock= 15  Conv=0.86D-08     -V/T= 2.0053
 DoSCS=F DFT=T ScalE2(SS,OS)=  1.000000  1.000000
 ExpMin= 3.60D-02 ExpMax= 4.56D+03 ExpMxC= 6.82D+02 IAcc=3 IRadAn=         5 AccDes= 0.00D+00
 HarFok:  IExCor=  205 AccDes= 0.00D+00 IRadAn=         5 IDoV=-2 UseB2=F ITyADJ=14
 ICtDFT= 12500011 ScaDFX=  1.000000  1.000000  1.000000  1.000000
 Range of M.O.s used for correlation:    15   379
 NBasis=   385 NAE=    47 NBE=    47 NFC=    14 NFV=     0
 NROrb=    365 NOA=    33 NOB=    33 NVA=   332 NVB=   332

 **** Warning!!: The largest alpha MO coefficient is  0.20196176D+03

 Orbital symmetries:
       Occupied  (A') (A') (A') (A') (A') (A') (A') (A') (A') (A')
                 (A') (A') (A') (A') (A') (A') (A') (A') (A') (A')
                 (A') (A') (A') (A') (A') (A') (A') (A') (A') (A')
                 (A') (A') (A") (A') (A') (A') (A') (A") (A") (A')
                 (A') (A') (A') (A") (A") (A") (A")
       Virtual   (A") (A") (A") (A") (A') (A') (A') (A') (A") (A')
                 (A') (A") (A') (A') (A") (A') (A") (A') (A') (A')
                 (A") (A") (A') (A') (A') (A") (A') (A") (A') (A")
                 (A') (A") (A') (A') (A') (A') (A') (A") (A') (A')
                 (A') (A") (A') (A") (A') (A") (A') (A") (A') (A')
                 (A") (A') (A') (A') (A') (A") (A') (A') (A') (A")
                 (A') (A') (A') (A') (A') (A') (A") (A') (A') (A')
                 (A') (A') (A') (A') (A') (A') (A') (A') (A') (A')
                 (A') (A') (A') (A') (A') (A') (A') (A') (A') (A')
                 (A') (A') (A') (A') (A") (A') (A") (A') (A") (A')
                 (A") (A') (A') (A') (A") (A') (A') (A") (A") (A')
                 (A") (A') (A") (A') (A") (A') (A') (A") (A') (A")
                 (A") (A") (A') (A') (A') (A') (A') (A") (A') (A')
                 (A') (A') (A') (A') (A') (A') (A') (A') (A') (A')
                 (A') (A') (A') (A') (A") (A') (A') (A') (A') (A')
                 (A') (A') (A") (A') (A") (A') (A') (A") (A") (A')
                 (A") (A") (A') (A') (A") (A") (A') (A") (A") (A')
                 (A') (A') (A") (A") (A') (A') (A') (A') (A") (A')
                 (A') (A") (A') (A') (A") (A') (A') (A') (A") (A")
                 (A") (A') (A') (A") (A') (A') (A') (A") (A') (A")
                 (A") (A') (A") (A') (A") (A') (A") (A') (A') (A')
                 (A') (A") (A') (A") (A") (A') (A') (A') (A") (A')
                 (A") (A') (A') (A') (A") (A') (A') (A") (A') (A')
                 (A") (A') (A') (A") (A') (A') (A") (A") (A') (A')
                 (A") (A') (A') (A") (A') (A') (A') (A') (A') (A')
                 (A') (A') (A") (A') (A') (A') (A") (A") (A') (A")
                 (A') (A') (A') (A') (A') (A') (A") (A') (A') (A')
                 (A') (A") (A') (A") (A") (A') (A") (A") (A') (A")
                 (A") (A") (A') (A') (A") (A') (A") (A') (A') (A')
                 (A') (A') (A') (A') (A') (A') (A') (A') (A') (A')
                 (A') (A') (A') (A") (A') (A') (A') (A') (A') (A')
                 (A') (A') (A') (A') (A') (A') (A') (A') (A') (A')
                 (A') (A') (A') (A') (A') (A') (A') (A') (A') (A')
                 (A') (A')
     4 initial guesses have been made.
 Convergence on wavefunction:    0.001000000000000
 Iteration     1 Dimension     4 NMult     0 NNew      4
 CISAX will form     4 AO SS matrices at one time.
 Iteration     2 Dimension     6 NMult     4 NNew      2
 Iteration     3 Dimension     8 NMult     6 NNew      2
 Iteration     4 Dimension    10 NMult     8 NNew      2
 Iteration     5 Dimension    12 NMult    10 NNew      2
 Iteration     6 Dimension    14 NMult    12 NNew      2
 ***********************************************************************
 Excited states from <AA,BB:AA,BB> singles matrix:
 ***********************************************************************
 
 Ground to excited state transition densities written to RWF  633
 Ground to excited state transition electric dipole moments (Au):
       state          X           Y           Z        Dip. S.      Osc.
         1        -0.6599     -0.0487      0.0000      0.4379      0.0323
 Ground to excited state transition velocity dipole moments (Au):
       state          X           Y           Z        Dip. S.      Osc.
         1         0.0813      0.0059     -0.0000      0.0066      0.0400
 Ground to excited state transition magnetic dipole moments (Au):
       state          X           Y           Z
         1         0.0000      0.0000     -0.0071
 Ground to excited state transition velocity quadrupole moments (Au):
       state          XX          YY          ZZ          XY          XZ          YZ
         1         0.0936      0.2459     -0.0084     -0.1581     -0.0000      0.0000
 <0|del|b> * <b|rxdel|0> + <0|del|b> * <b|delr+rdel|0>
 Rotatory Strengths (R) in cgs (10**-40 erg-esu-cm/Gauss)
       state          XX          YY          ZZ    R(velocity)    E-M Angle
         1         0.0000      0.0000     -0.0000      0.0000       90.00
 1/2[<0|r|b>*<b|rxdel|0> + (<0|rxdel|b>*<b|r|0>)*]
 Rotatory Strengths (R) in cgs (10**-40 erg-esu-cm/Gauss)
       state          XX          YY          ZZ     R(length)
         1         0.0000      0.0000      0.0000      0.0000
  1/2[<0|del|b>*<b|r|0> + (<0|r|b>*<b|del|0>)*] (Au)
       state          X           Y           Z        Dip. S.   Osc.(frdel)
         1        -0.0536     -0.0003     -0.0000      0.0539      0.0360

 Excitation energies and oscillator strengths:
 
 Excited State   1:      Singlet-A'     3.0107 eV  411.81 nm  f=0.0323  <S**2>=0.000
      47 -> 48         0.70284
 This state for optimization and/or second-order correction.
 Total Energy, E(TD-HF/TD-DFT) =  -539.584066980    
 Copying the excited state density for this state as the 1-particle RhoCI density.
 SavETr:  write IOETrn=   770 NScale= 10 NData=  16 NLR=1 NState=    1 LETran=      28.

 **********************************************************************

            Population analysis using the SCF Density.

 **********************************************************************

 Orbital symmetries:
       Occupied  (A') (A') (A') (A') (A') (A') (A') (A') (A') (A')
                 (A') (A') (A') (A') (A') (A') (A') (A') (A') (A')
                 (A') (A') (A') (A') (A') (A') (A') (A') (A') (A')
                 (A') (A') (A") (A') (A') (A') (A') (A") (A") (A')
                 (A') (A') (A') (A") (A") (A") (A")
       Virtual   (A") (A") (A") (A") (A') (A') (A') (A') (A") (A')
                 (A') (A") (A') (A') (A") (A') (A") (A') (A') (A')
                 (A") (A") (A') (A') (A') (A") (A') (A") (A') (A")
                 (A') (A") (A') (A') (A') (A') (A') (A") (A') (A')
                 (A') (A") (A') (A") (A') (A") (A') (A") (A') (A')
                 (A") (A') (A') (A') (A') (A") (A') (A') (A') (A")
                 (A') (A') (A') (A') (A') (A') (A") (A') (A') (A')
                 (A') (A') (A') (A') (A') (A') (A') (A') (A') (A')
                 (A') (A') (A') (A') (A') (A') (A') (A') (A') (A')
                 (A') (A') (A') (A') (A") (A') (A") (A') (A") (A')
                 (A") (A') (A') (A') (A") (A') (A') (A") (A") (A')
                 (A") (A') (A") (A') (A") (A') (A') (A") (A') (A")
                 (A") (A") (A') (A') (A') (A') (A') (A") (A') (A')
                 (A') (A') (A') (A') (A') (A') (A') (A') (A') (A')
                 (A') (A') (A') (A') (A") (A') (A') (A') (A') (A')
                 (A') (A') (A") (A') (A") (A') (A') (A") (A") (A')
                 (A") (A") (A') (A') (A") (A") (A') (A") (A") (A')
                 (A') (A') (A") (A") (A') (A') (A') (A') (A") (A')
                 (A') (A") (A') (A') (A") (A') (A') (A') (A") (A")
                 (A") (A') (A') (A") (A') (A') (A') (A") (A') (A")
                 (A") (A') (A") (A') (A") (A') (A") (A') (A') (A')
                 (A') (A") (A') (A") (A") (A') (A') (A') (A") (A')
                 (A") (A') (A') (A') (A") (A') (A') (A") (A') (A')
                 (A") (A') (A') (A") (A') (A') (A") (A") (A') (A')
                 (A") (A') (A') (A") (A') (A') (A') (A') (A') (A')
                 (A') (A') (A") (A') (A') (A') (A") (A") (A') (A")
                 (A') (A') (A') (A') (A') (A') (A") (A') (A') (A')
                 (A') (A") (A') (A") (A") (A') (A") (A") (A') (A")
                 (A") (A") (A') (A') (A") (A') (A") (A') (A') (A')
                 (A') (A') (A') (A') (A') (A') (A') (A') (A') (A')
                 (A') (A') (A') (A") (A') (A') (A') (A') (A') (A')
                 (A') (A') (A') (A') (A') (A') (A') (A') (A') (A')
                 (A') (A') (A') (A') (A') (A') (A') (A') (A') (A')
                 (A') (A')
 The electronic state is 1-A'.
 Alpha  occ. eigenvalues --  -10.77091 -10.75289 -10.73295 -10.72964 -10.72786
 Alpha  occ. eigenvalues --  -10.72741 -10.72338 -10.71930 -10.71753 -10.71729
 Alpha  occ. eigenvalues --  -10.70513 -10.70210 -10.69969 -10.69513  -1.16417
 Alpha  occ. eigenvalues --   -1.12011  -1.06424  -1.05123  -1.00993  -0.99899
 Alpha  occ. eigenvalues --   -0.95127  -0.90297  -0.87160  -0.84984  -0.83341
 Alpha  occ. eigenvalues --   -0.77627  -0.75431  -0.73448  -0.70415  -0.69198
 Alpha  occ. eigenvalues --   -0.67675  -0.67330  -0.66999  -0.63944  -0.63471
 Alpha  occ. eigenvalues --   -0.61963  -0.61308  -0.59983  -0.59246  -0.58415
 Alpha  occ. eigenvalues --   -0.56094  -0.55427  -0.54304  -0.52016  -0.46537
 Alpha  occ. eigenvalues --   -0.45787  -0.44580
 Alpha virt. eigenvalues --   -0.25479  -0.15251  -0.14332  -0.13225  -0.11279
 Alpha virt. eigenvalues --   -0.10203  -0.09260  -0.08053  -0.07949  -0.07541
 Alpha virt. eigenvalues --   -0.07219  -0.06974  -0.05811  -0.05649  -0.05293
 Alpha virt. eigenvalues --   -0.03930  -0.03593  -0.03553  -0.03170  -0.02043
 Alpha virt. eigenvalues --   -0.01460  -0.00748  -0.00274   0.00035   0.00557
 Alpha virt. eigenvalues --    0.00838   0.01331   0.01595   0.02075   0.02149
 Alpha virt. eigenvalues --    0.02353   0.02479   0.02588   0.03069   0.03644
 Alpha virt. eigenvalues --    0.04101   0.04333   0.04747   0.04794   0.05140
 Alpha virt. eigenvalues --    0.05910   0.06068   0.06503   0.06746   0.07104
 Alpha virt. eigenvalues --    0.07177   0.07775   0.08037   0.08311   0.08585
 Alpha virt. eigenvalues --    0.08854   0.09360   0.09509   0.10001   0.10611
 Alpha virt. eigenvalues --    0.10884   0.11073   0.11812   0.12315   0.12550
 Alpha virt. eigenvalues --    0.12713   0.13301   0.13912   0.14871   0.14981
 Alpha virt. eigenvalues --    0.16325   0.16398   0.16611   0.16937   0.17966
 Alpha virt. eigenvalues --    0.18312   0.18952   0.19289   0.19782   0.20738
 Alpha virt. eigenvalues --    0.21234   0.21475   0.21882   0.22894   0.23367
 Alpha virt. eigenvalues --    0.24255   0.24375   0.25675   0.26182   0.27003
 Alpha virt. eigenvalues --    0.27645   0.28753   0.31084   0.31578   0.34743
 Alpha virt. eigenvalues --    0.35386   0.38926   0.39466   0.40282   0.41314
 Alpha virt. eigenvalues --    0.41531   0.41561   0.42891   0.43162   0.43751
 Alpha virt. eigenvalues --    0.44328   0.45094   0.46034   0.46642   0.47582
 Alpha virt. eigenvalues --    0.48287   0.48660   0.48789   0.49198   0.49980
 Alpha virt. eigenvalues --    0.50466   0.50618   0.51988   0.52232   0.53691
 Alpha virt. eigenvalues --    0.54389   0.54877   0.55037   0.55888   0.57532
 Alpha virt. eigenvalues --    0.58665   0.59976   0.60130   0.61725   0.62447
 Alpha virt. eigenvalues --    0.62975   0.63617   0.63699   0.65571   0.67489
 Alpha virt. eigenvalues --    0.68090   0.69539   0.70639   0.71559   0.72133
 Alpha virt. eigenvalues --    0.74094   0.74893   0.76131   0.76317   0.76897
 Alpha virt. eigenvalues --    0.77525   0.78286   0.79019   0.79637   0.80823
 Alpha virt. eigenvalues --    0.81440   0.82215   0.82652   0.83531   0.84795
 Alpha virt. eigenvalues --    0.85856   0.86852   0.87561   0.88737   0.89666
 Alpha virt. eigenvalues --    0.90296   0.90904   0.91349   0.92843   0.94182
 Alpha virt. eigenvalues --    0.96617   0.97281   1.00060   1.00796   1.01194
 Alpha virt. eigenvalues --    1.02128   1.02316   1.03552   1.05341   1.05897
 Alpha virt. eigenvalues --    1.17228   1.20237   1.21004   1.24933   1.26179
 Alpha virt. eigenvalues --    1.26814   1.32292   1.34433   1.36275   1.36317
 Alpha virt. eigenvalues --    1.38722   1.39322   1.39965   1.41113   1.41932
 Alpha virt. eigenvalues --    1.42707   1.43357   1.45171   1.45763   1.46478
 Alpha virt. eigenvalues --    1.47268   1.49703   1.50498   1.52918   1.54202
 Alpha virt. eigenvalues --    1.54688   1.56619   1.56984   1.58255   1.60880
 Alpha virt. eigenvalues --    1.62129   1.62556   1.63603   1.64157   1.66243
 Alpha virt. eigenvalues --    1.66707   1.68816   1.69534   1.70128   1.73713
 Alpha virt. eigenvalues --    1.74360   1.74956   1.76577   1.77051   1.78602
 Alpha virt. eigenvalues --    1.79207   1.81673   1.82062   1.82839   1.83646
 Alpha virt. eigenvalues --    1.84164   1.85005   1.85188   1.87061   1.88719
 Alpha virt. eigenvalues --    1.89923   1.91482   1.94784   1.96286   1.98571
 Alpha virt. eigenvalues --    1.99000   2.01306   2.05087   2.05123   2.07028
 Alpha virt. eigenvalues --    2.10867   2.12663   2.16108   2.17322   2.21261
 Alpha virt. eigenvalues --    2.22455   2.26047   2.27461   2.29057   2.30611
 Alpha virt. eigenvalues --    2.34010   2.34596   2.37394   2.39397   2.41479
 Alpha virt. eigenvalues --    2.42853   2.44566   2.44686   2.46861   2.49475
 Alpha virt. eigenvalues --    2.54145   2.54263   2.56533   2.56943   2.58100
 Alpha virt. eigenvalues --    2.59284   2.60499   2.60983   2.62170   2.63059
 Alpha virt. eigenvalues --    2.63337   2.63926   2.64662   2.65406   2.66224
 Alpha virt. eigenvalues --    2.66588   2.70050   2.71498   2.72699   2.74138
 Alpha virt. eigenvalues --    2.74745   2.76466   2.79336   2.80438   2.82047
 Alpha virt. eigenvalues --    2.85740   2.90609   2.92641   2.96624   2.96714
 Alpha virt. eigenvalues --    2.98692   2.99854   3.03021   3.06142   3.12821
 Alpha virt. eigenvalues --    3.17102   3.19389   3.21592   3.26494   3.28639
 Alpha virt. eigenvalues --    3.29197   3.30786   3.36478   3.41465   3.43493
 Alpha virt. eigenvalues --    3.44857   3.48097   3.51946   3.56349   3.63032
 Alpha virt. eigenvalues --    3.68876   3.86987   3.92006   3.94142   3.95629
 Alpha virt. eigenvalues --    3.99736   4.01124   4.05622   4.11011   4.31001
 Alpha virt. eigenvalues --    4.46911   4.62701   4.69160  23.44667  23.58489
 Alpha virt. eigenvalues --   23.76962  23.77924  23.78488  23.82125  23.87395
 Alpha virt. eigenvalues --   23.88743  23.90370  23.97437  23.97502  24.03861
 Alpha virt. eigenvalues --   24.05695  24.10740
          Condensed to atoms (all electrons):
               1          2          3          4          5          6
     1  C   12.403242  -0.672766  -1.255370   4.474927  -0.147712  -0.266056
     2  C   -0.672766   8.974850  -0.252788  -1.271833  -0.089212  -0.034691
     3  C   -1.255370  -0.252788   7.086978  -0.245525   0.045519   0.050463
     4  C    4.474927  -1.271833  -0.245525  13.102948  -1.461834  -0.243992
     5  C   -0.147712  -0.089212   0.045519  -1.461834  11.668870   0.826549
     6  C   -0.266056  -0.034691   0.050463  -0.243992   0.826549  10.191707
     7  C    0.038585   0.004507   0.002195  -0.016298  -0.839542   0.286298
     8  C    0.388470   0.138567  -0.026299  -0.424814   2.077037  -0.215477
     9  C   -0.561547  -1.244459   0.168221   0.577165  -1.260368   0.204763
    10  C   -2.108169   0.202222   0.252355  -2.322108  -3.541700  -1.970862
    11  C   -1.320937  -0.877897   0.870001   0.214010  -0.847567  -0.550919
    12  C   -4.650216   1.604538  -0.455957  -4.438990  -0.514842   0.173496
    13  C    0.574946  -0.228002   0.168603  -0.427077  -1.898184  -0.291277
    14  C   -1.639662  -0.217872  -0.251551  -1.584449   1.259508  -1.902235
    15  H    0.415403  -0.155228   0.037013   0.027369   0.006228   0.004187
    16  H    0.007933   0.399029  -0.059379   0.029074  -0.001533  -0.000446
    17  H   -0.078826   0.005882   0.397702  -0.096105   0.002675   0.000965
    18  H    0.107565   0.002814  -0.091437   0.549191  -0.008790  -0.006388
    19  H   -0.086837  -0.024672   0.064594  -0.153361   0.163565   0.131370
    20  H    0.021308   0.005566  -0.010058   0.004901   0.440990  -0.161616
    21  H   -0.002145  -0.000393   0.000288  -0.000823  -0.036100   0.375887
    22  H    0.001007   0.000389   0.000008  -0.001608   0.009687  -0.054582
    23  H    0.007128  -0.000578  -0.000123  -0.000336   0.039260   0.000556
    24  H    0.037986   0.010460  -0.001074   0.000628  -0.001472  -0.003452
    25  H    0.037986   0.010460  -0.001074   0.000628  -0.001472  -0.003452
               7          8          9         10         11         12
     1  C    0.038585   0.388470  -0.561547  -2.108169  -1.320937  -4.650216
     2  C    0.004507   0.138567  -1.244459   0.202222  -0.877897   1.604538
     3  C    0.002195  -0.026299   0.168221   0.252355   0.870001  -0.455957
     4  C   -0.016298  -0.424814   0.577165  -2.322108   0.214010  -4.438990
     5  C   -0.839542   2.077037  -1.260368  -3.541700  -0.847567  -0.514842
     6  C    0.286298  -0.215477   0.204763  -1.970862  -0.550919   0.173496
     7  C    6.323921   0.625110   0.108838   0.128760  -0.165276  -0.035391
     8  C    0.625110   9.657004  -0.314795  -1.385186   0.206036  -1.127897
     9  C    0.108838  -0.314795   9.457114   1.090818   0.274551  -0.957932
    10  C    0.128760  -1.385186   1.090818  10.434694   0.386468   2.889860
    11  C   -0.165276   0.206036   0.274551   0.386468  10.706658   0.228584
    12  C   -0.035391  -1.127897  -0.957932   2.889860   0.228584  12.566890
    13  C   -0.145508  -1.102184   0.854270   1.656180  -0.529289  -1.432396
    14  C   -0.379307  -2.530344  -2.482850   0.167505  -2.422327   1.892112
    15  H   -0.001965  -0.001568   0.063741  -0.008082  -0.033204  -0.044584
    16  H    0.000056  -0.000349  -0.000336  -0.009839  -0.013311  -0.008815
    17  H   -0.000129  -0.000644  -0.005078   0.017650  -0.000649   0.102438
    18  H   -0.000305  -0.000979  -0.013681  -0.047294   0.041944  -0.164145
    19  H    0.013106  -0.035707   0.075231   0.323934  -0.056921   0.055964
    20  H    0.014509   0.060910  -0.048560   0.019980   0.027532  -0.029300
    21  H   -0.019304   0.005576  -0.005392  -0.008053  -0.005972   0.004682
    22  H    0.409509  -0.062404   0.011228   0.011163  -0.001590  -0.005470
    23  H   -0.045888   0.401632  -0.009904  -0.022856  -0.006198  -0.006898
    24  H    0.008704   0.022811   0.353058   0.000533  -0.032403  -0.030872
    25  H    0.008704   0.022811   0.353058   0.000533  -0.032403  -0.030872
              13         14         15         16         17         18
     1  C    0.574946  -1.639662   0.415403   0.007933  -0.078826   0.107565
     2  C   -0.228002  -0.217872  -0.155228   0.399029   0.005882   0.002814
     3  C    0.168603  -0.251551   0.037013  -0.059379   0.397702  -0.091437
     4  C   -0.427077  -1.584449   0.027369   0.029074  -0.096105   0.549191
     5  C   -1.898184   1.259508   0.006228  -0.001533   0.002675  -0.008790
     6  C   -0.291277  -1.902235   0.004187  -0.000446   0.000965  -0.006388
     7  C   -0.145508  -0.379307  -0.001965   0.000056  -0.000129  -0.000305
     8  C   -1.102184  -2.530344  -0.001568  -0.000349  -0.000644  -0.000979
     9  C    0.854270  -2.482850   0.063741  -0.000336  -0.005078  -0.013681
    10  C    1.656180   0.167505  -0.008082  -0.009839   0.017650  -0.047294
    11  C   -0.529289  -2.422327  -0.033204  -0.013311  -0.000649   0.041944
    12  C   -1.432396   1.892112  -0.044584  -0.008815   0.102438  -0.164145
    13  C   11.425800  -2.263033   0.020816  -0.002486  -0.001522  -0.016210
    14  C   -2.263033  17.436681  -0.022584  -0.002871   0.001085  -0.022150
    15  H    0.020816  -0.022584   0.467503  -0.015046   0.002186  -0.000423
    16  H   -0.002486  -0.002871  -0.015046   0.429936  -0.007442   0.002731
    17  H   -0.001522   0.001085   0.002186  -0.007442   0.414698  -0.009851
    18  H   -0.016210  -0.022150  -0.000423   0.002731  -0.009851   0.452310
    19  H    0.042123  -0.135566   0.001281  -0.001413   0.003924  -0.015559
    20  H   -0.057830   0.016264  -0.000252   0.000124  -0.000607   0.003299
    21  H   -0.034121   0.060413   0.000043  -0.000008   0.000016  -0.000101
    22  H    0.026358  -0.002254  -0.000137   0.000003  -0.000004  -0.000026
    23  H   -0.050022   0.019433   0.000223  -0.000042   0.000005  -0.000010
    24  H    0.015256  -0.041322  -0.002443   0.000616  -0.000093   0.000173
    25  H    0.015256  -0.041322  -0.002443   0.000616  -0.000093   0.000173
              19         20         21         22         23         24
     1  C   -0.086837   0.021308  -0.002145   0.001007   0.007128   0.037986
     2  C   -0.024672   0.005566  -0.000393   0.000389  -0.000578   0.010460
     3  C    0.064594  -0.010058   0.000288   0.000008  -0.000123  -0.001074
     4  C   -0.153361   0.004901  -0.000823  -0.001608  -0.000336   0.000628
     5  C    0.163565   0.440990  -0.036100   0.009687   0.039260  -0.001472
     6  C    0.131370  -0.161616   0.375887  -0.054582   0.000556  -0.003452
     7  C    0.013106   0.014509  -0.019304   0.409509  -0.045888   0.008704
     8  C   -0.035707   0.060910   0.005576  -0.062404   0.401632   0.022811
     9  C    0.075231  -0.048560  -0.005392   0.011228  -0.009904   0.353058
    10  C    0.323934   0.019980  -0.008053   0.011163  -0.022856   0.000533
    11  C   -0.056921   0.027532  -0.005972  -0.001590  -0.006198  -0.032403
    12  C    0.055964  -0.029300   0.004682  -0.005470  -0.006898  -0.030872
    13  C    0.042123  -0.057830  -0.034121   0.026358  -0.050022   0.015256
    14  C   -0.135566   0.016264   0.060413  -0.002254   0.019433  -0.041322
    15  H    0.001281  -0.000252   0.000043  -0.000137   0.000223  -0.002443
    16  H   -0.001413   0.000124  -0.000008   0.000003  -0.000042   0.000616
    17  H    0.003924  -0.000607   0.000016  -0.000004   0.000005  -0.000093
    18  H   -0.015559   0.003299  -0.000101  -0.000026  -0.000010   0.000173
    19  H    0.506243  -0.018953   0.001052  -0.000175  -0.000253   0.000133
    20  H   -0.018953   0.498788  -0.009314   0.001804   0.000646   0.000152
    21  H    0.001052  -0.009314   0.410304  -0.006484   0.001890  -0.000154
    22  H   -0.000175   0.001804  -0.006484   0.415955  -0.009213   0.000432
    23  H   -0.000253   0.000646   0.001890  -0.009213   0.407682  -0.000517
    24  H    0.000133   0.000152  -0.000154   0.000432  -0.000517   0.493717
    25  H    0.000133   0.000152  -0.000154   0.000432  -0.000517  -0.082012
              25
     1  C    0.037986
     2  C    0.010460
     3  C   -0.001074
     4  C    0.000628
     5  C   -0.001472
     6  C   -0.003452
     7  C    0.008704
     8  C    0.022811
     9  C    0.353058
    10  C    0.000533
    11  C   -0.032403
    12  C   -0.030872
    13  C    0.015256
    14  C   -0.041322
    15  H   -0.002443
    16  H    0.000616
    17  H   -0.000093
    18  H    0.000173
    19  H    0.000133
    20  H    0.000152
    21  H   -0.000154
    22  H    0.000432
    23  H   -0.000517
    24  H   -0.082012
    25  H    0.493717
 Mulliken charges:
               1
     1  C    0.273759
     2  C   -0.288893
     3  C   -0.493304
     4  C   -0.291686
     5  C    0.110437
     6  C   -0.540796
     7  C   -0.323886
     8  C   -0.377317
     9  C   -0.687155
    10  C   -0.158507
    11  C   -0.058918
    12  C    0.416012
    13  C   -0.320465
    14  C    1.088699
    15  H    0.241965
    16  H    0.253200
    17  H    0.251818
    18  H    0.237150
    19  H    0.146765
    20  H    0.219566
    21  H    0.268366
    22  H    0.255972
    23  H    0.274901
    24  H    0.251159
    25  H    0.251159
 Sum of Mulliken charges =   1.00000
 Mulliken charges with hydrogens summed into heavy atoms:
               1
     1  C    0.515724
     2  C   -0.035693
     3  C   -0.241486
     4  C   -0.054536
     5  C    0.330003
     6  C   -0.272430
     7  C   -0.067915
     8  C   -0.102415
     9  C   -0.184837
    10  C   -0.011742
    11  C   -0.058918
    12  C    0.416012
    13  C   -0.320465
    14  C    1.088699
 Electronic spatial extent (au):  <R**2>=           2884.1306
 Charge=              1.0000 electrons
 Dipole moment (field-independent basis, Debye):
    X=              0.1063    Y=              0.5086    Z=              0.0000  Tot=              0.5196
 Quadrupole moment (field-independent basis, Debye-Ang):
   XX=            -53.1629   YY=            -32.8373   ZZ=            -84.8232
   XY=             -8.6138   XZ=              0.0000   YZ=             -0.0000
 Traceless Quadrupole moment (field-independent basis, Debye-Ang):
   XX=              3.7782   YY=             24.1039   ZZ=            -27.8821
   XY=             -8.6138   XZ=              0.0000   YZ=             -0.0000
 Octapole moment (field-independent basis, Debye-Ang**2):
  XXX=              1.3242  YYY=              5.6094  ZZZ=              0.0000  XYY=             -1.1758
  XXY=              3.5142  XXZ=              0.0000  XZZ=             -2.0780  YZZ=             -1.9772
  YYZ=              0.0000  XYZ=             -0.0000
 Hexadecapole moment (field-independent basis, Debye-Ang**3):
 XXXX=           -839.6030 YYYY=          -1963.4103 ZZZZ=           -100.8221 XXXY=            279.0888
 XXXZ=             -0.0000 YYYX=            202.5220 YYYZ=              0.0000 ZZZX=              0.0000
 ZZZY=              0.0000 XXYY=           -472.6308 XXZZ=           -206.1880 YYZZ=           -542.7720
 XXYZ=              0.0000 YYXZ=              0.0000 ZZXY=            149.4217
 N-N= 7.758493422149D+02 E-N=-2.787464413437D+03  KE= 5.368638473954D+02
 Symmetry A'   KE= 5.222857347103D+02
 Symmetry A"   KE= 1.457811268511D+01
 Unable to Open any file for archive entry.
 1\1\GINC-GADI-CPU-CLX-0359\SP\RM062X TD-FC\6-311++G(d,p)\C14H11(1+)\TS
 1578\02-Aug-2022\0\\#n M062X/6-311++G(d,p) TD(NStates=1) EmpiricalDisp
 ersion=GD3 SP\\SP_-10\\1,1\C,0,0.,2.492655,1.230431\C,0,0.,3.711508,0.
 551989\C,0,0.,3.713861,-0.82383\C,0,0.,2.463156,-1.517538\C,0,0.,-2.22
 3156,-1.337538\C,0,0.,-3.553861,-0.94383\C,0,0.,-3.811508,0.451989\C,0
 ,0.,-2.752655,1.450431\C,0,0.,0.04,1.603369\C,0,0.,-0.06,-1.279189\C,0
 ,0.,1.232055,0.597065\C,0,0.,1.257471,-0.790804\C,0,0.,-1.352055,1.017
 065\C,0,0.,-1.177471,-0.410804\H,0,0.,2.508071,2.313647\H,0,0.,4.62675
 3,1.121689\H,0,0.,4.649262,-1.382349\H,0,0.,2.45755,-2.600059\H,0,0.,-
 0.31,-2.350266\H,0,0.,-1.93755,-2.420059\H,0,0.,-4.369262,-1.682349\H,
 0,0.,-4.866753,0.781689\H,0,0.,-3.048071,2.533647\H,0,-0.859585,0.24,2
 .295787\H,0,0.859585,0.24,2.295787\\Version=ES64L-G16RevC.01\State=1-A
 '\HF=-539.6947091\RMSD=8.610e-09\PG=CS [SG(C14H9),X(H2)]\\@
 The archive entry for this job was punched.


 SOME PHYSICISTS WOULD PREFER TO COME BACK TO THE IDEA OF AN OBJECTIVE
 REAL WORLD WHOSE SMALLEST PARTS EXIST OBJECTIVELY IN THE SAME SENSE AS
 STONES OR TREES EXIST INDEPENDENTLY OF WHETHER WE OBSERVE THEM.
 THIS, HOWEVER, IS IMPOSSIBLE.  -- WERNER HEISENBERG
 Job cpu time:       0 days  0 hours 52 minutes 59.2 seconds.
 Elapsed time:       0 days  0 hours  1 minutes  7.2 seconds.
 File lengths (MBytes):  RWF=    460 Int=      0 D2E=      0 Chk=     15 Scr=      1
 Normal termination of Gaussian 16 at Tue Aug  2 11:41:40 2022.
