 Entering Gaussian System, Link 0=g16
 Initial command:
 /apps/gaussian/g16c01/g16/l1.exe "/jobfs/53803768.gadi-pbs/Gau-160673.inp" -scrdir="/jobfs/53803768.gadi-pbs/"
 Entering Link 1 = /apps/gaussian/g16c01/g16/l1.exe PID=    160674.
  
 Copyright (c) 1988-2019, Gaussian, Inc.  All Rights Reserved.
  
 This is part of the Gaussian(R) 16 program.  It is based on
 the Gaussian(R) 09 system (copyright 2009, Gaussian, Inc.),
 the Gaussian(R) 03 system (copyright 2003, Gaussian, Inc.),
 the Gaussian(R) 98 system (copyright 1998, Gaussian, Inc.),
 the Gaussian(R) 94 system (copyright 1995, Gaussian, Inc.),
 the Gaussian 92(TM) system (copyright 1992, Gaussian, Inc.),
 the Gaussian 90(TM) system (copyright 1990, Gaussian, Inc.),
 the Gaussian 88(TM) system (copyright 1988, Gaussian, Inc.),
 the Gaussian 86(TM) system (copyright 1986, Carnegie Mellon
 University), and the Gaussian 82(TM) system (copyright 1983,
 Carnegie Mellon University). Gaussian is a federally registered
 trademark of Gaussian, Inc.
  
 This software contains proprietary and confidential information,
 including trade secrets, belonging to Gaussian, Inc.
  
 This software is provided under written license and may be
 used, copied, transmitted, or stored only in accord with that
 written license.
  
 The following legend is applicable only to US Government
 contracts under FAR:
  
                    RESTRICTED RIGHTS LEGEND
  
 Use, reproduction and disclosure by the US Government is
 subject to restrictions as set forth in subparagraphs (a)
 and (c) of the Commercial Computer Software - Restricted
 Rights clause in FAR 52.227-19.
  
 Gaussian, Inc.
 340 Quinnipiac St., Bldg. 40, Wallingford CT 06492
  
  
 ---------------------------------------------------------------
 Warning -- This program may not be used in any manner that
 competes with the business of Gaussian, Inc. or will provide
 assistance to any competitor of Gaussian, Inc.  The licensee
 of this program is prohibited from giving any competitor of
 Gaussian, Inc. access to this program.  By using this program,
 the user acknowledges that Gaussian, Inc. is engaged in the
 business of creating and licensing software in the field of
 computational chemistry and represents and warrants to the
 licensee that it is not a competitor of Gaussian, Inc. and that
 it will not use this program in any manner prohibited above.
 ---------------------------------------------------------------
  

 Cite this work as:
 Gaussian 16, Revision C.01,
 M. J. Frisch, G. W. Trucks, H. B. Schlegel, G. E. Scuseria, 
 M. A. Robb, J. R. Cheeseman, G. Scalmani, V. Barone, 
 G. A. Petersson, H. Nakatsuji, X. Li, M. Caricato, A. V. Marenich, 
 J. Bloino, B. G. Janesko, R. Gomperts, B. Mennucci, H. P. Hratchian, 
 J. V. Ortiz, A. F. Izmaylov, J. L. Sonnenberg, D. Williams-Young, 
 F. Ding, F. Lipparini, F. Egidi, J. Goings, B. Peng, A. Petrone, 
 T. Henderson, D. Ranasinghe, V. G. Zakrzewski, J. Gao, N. Rega, 
 G. Zheng, W. Liang, M. Hada, M. Ehara, K. Toyota, R. Fukuda, 
 J. Hasegawa, M. Ishida, T. Nakajima, Y. Honda, O. Kitao, H. Nakai, 
 T. Vreven, K. Throssell, J. A. Montgomery, Jr., J. E. Peralta, 
 F. Ogliaro, M. J. Bearpark, J. J. Heyd, E. N. Brothers, K. N. Kudin, 
 V. N. Staroverov, T. A. Keith, R. Kobayashi, J. Normand, 
 K. Raghavachari, A. P. Rendell, J. C. Burant, S. S. Iyengar, 
 J. Tomasi, M. Cossi, J. M. Millam, M. Klene, C. Adamo, R. Cammi, 
 J. W. Ochterski, R. L. Martin, K. Morokuma, O. Farkas, 
 J. B. Foresman, and D. J. Fox, Gaussian, Inc., Wallingford CT, 2019.
 
 ******************************************
 Gaussian 16:  ES64L-G16RevC.01  3-Jul-2019
                 2-Aug-2022 
 ******************************************
 %NProcShared=48
 Will use up to   48 processors via shared memory.
 %mem = 190GB
 ---------------------------------------------------------------
 #n M062X/6-311++G(d,p) TD(NStates=1) EmpiricalDispersion=GD3 SP
 ---------------------------------------------------------------
 1/38=1,172=1/1;
 2/12=2,17=6,18=5,40=1/2;
 3/5=4,6=6,7=1111,11=9,25=1,30=1,74=-55,124=31/1,2,3,8;
 4//1;
 5/5=2,38=5/2;
 8/6=1,10=2,108=1/1;
 9/41=1,42=1,70=2/14;
 6/7=2,8=2,9=2,10=2/1;
 99/5=1,9=1/99;
 ------
 SP_-10
 ------
 Symbolic Z-matrix:
 Charge =  1 Multiplicity = 1
 C                     0.        2.41466   1.24243 
 C                     0.        3.67551   0.65399 
 C                     0.        3.74386  -0.72183 
 C                     0.        2.53516  -1.50554 
 C                     0.       -2.29516  -1.32554 
 C                     0.       -3.58386  -0.84183 
 C                     0.       -3.77551   0.55399 
 C                     0.       -2.67466   1.46243 
 C                     0.        0.04      1.51337 
 C                     0.       -0.06     -1.36919 
 C                     0.        1.21406   0.51907 
 C                     0.        1.26947  -0.8688 
 C                     0.       -1.33406   0.93907 
 C                     0.       -1.18947  -0.4888 
 H                     0.        2.33407   2.32565 
 H                     0.        4.56075   1.27769 
 H                     0.        4.70926  -1.22635 
 H                     0.        2.61955  -2.58806 
 H                     0.       -0.31     -2.44627 
 H                     0.       -2.09955  -2.40806 
 H                     0.       -4.42926  -1.52635 
 H                     0.       -4.80075   0.93769 
 H                     0.       -2.87407   2.54565 
 H                    -0.85959   0.24      2.20579 
 H                     0.85959   0.24      2.20579 
 
                          Input orientation:                          
 ---------------------------------------------------------------------
 Center     Atomic      Atomic             Coordinates (Angstroms)
 Number     Number       Type             X           Y           Z
 ---------------------------------------------------------------------
      1          6           0        0.000000    2.414655    1.242431
      2          6           0        0.000000    3.675508    0.653989
      3          6           0        0.000000    3.743861   -0.721830
      4          6           0        0.000000    2.535156   -1.505538
      5          6           0        0.000000   -2.295156   -1.325538
      6          6           0        0.000000   -3.583861   -0.841830
      7          6           0        0.000000   -3.775508    0.553989
      8          6           0        0.000000   -2.674655    1.462431
      9          6           0        0.000000    0.040000    1.513369
     10          6           0        0.000000   -0.060000   -1.369189
     11          6           0        0.000000    1.214055    0.519065
     12          6           0        0.000000    1.269471   -0.868804
     13          6           0        0.000000   -1.334055    0.939065
     14          6           0        0.000000   -1.189471   -0.488804
     15          1           0        0.000000    2.334071    2.325647
     16          1           0        0.000000    4.560753    1.277689
     17          1           0        0.000000    4.709262   -1.226349
     18          1           0        0.000000    2.619550   -2.588059
     19          1           0        0.000000   -0.310000   -2.446266
     20          1           0        0.000000   -2.099550   -2.408059
     21          1           0        0.000000   -4.429262   -1.526349
     22          1           0        0.000000   -4.800753    0.937689
     23          1           0        0.000000   -2.874071    2.545647
     24          1           0       -0.859585    0.240000    2.205787
     25          1           0        0.859585    0.240000    2.205787
 ---------------------------------------------------------------------
                    Distance matrix (angstroms):
                    1          2          3          4          5
     1  C    0.000000
     2  C    1.391407   0.000000
     3  C    2.371731   1.377516   0.000000
     4  C    2.750610   2.442122   1.440544   0.000000
     5  C    5.364400   6.290259   6.069118   4.833665   0.000000
     6  C    6.350302   7.411876   7.328705   6.154907   1.376493
     7  C    6.228328   7.451687   7.626836   6.638233   2.392502
     8  C    5.094063   6.401418   6.779996   5.995913   2.813679
     9  C    2.390061   3.735700   4.326049   3.916581   3.675914
    10  C    3.597843   4.248208   3.858553   2.598735   2.235582
    11  C    1.401677   2.465148   2.817754   2.417504   3.964483
    12  C    2.401824   2.847440   2.478751   1.416823   3.593768
    13  C    3.760965   5.017668   5.342640   4.576776   2.460110
    14  C    3.998362   4.997399   4.938832   3.860906   1.386601
    15  H    1.086209   2.143337   3.357771   3.836458   5.895837
    16  H    2.146388   1.082894   2.159951   3.442295   7.333504
    17  H    3.370474   2.145768   1.089283   2.191959   7.005120
    18  H    3.835966   3.409681   2.178735   1.085806   5.074278
    19  H    4.585873   5.049342   4.405391   2.996645   2.279666
    20  H    5.805525   6.536622   6.081843   4.721763   1.100052
    21  H    7.382773   8.392924   8.212624   6.964449   2.143533
    22  H    7.221841   8.481007   8.704277   7.732071   3.376420
    23  H    5.446925   6.817284   7.380612   6.758094   3.914232
    24  H    2.529044   3.866481   4.646167   4.447534   4.431271
    25  H    2.529044   3.866481   4.646167   4.447534   4.431271
                    6          7          8          9         10
     6  C    0.000000
     7  C    1.408914   0.000000
     8  C    2.477150   1.427286   0.000000
     9  C    4.321959   3.934274   2.715133   0.000000
    10  C    3.563103   4.183732   3.854153   2.884292   0.000000
    11  C    4.987187   4.989685   4.001500   1.538521   2.277876
    12  C    4.853407   5.241770   4.581570   2.680736   1.420520
    13  C    2.869358   2.471634   1.439139   1.489246   2.636523
    14  C    2.420275   2.788370   2.452160   2.349531   1.432055
    15  H    6.712289   6.361268   5.082566   2.433630   4.402657
    16  H    8.415884   8.367615   7.237766   4.526892   5.325159
    17  H    8.302033   8.669540   7.858229   5.413692   4.771401
    18  H    6.444503   7.125253   6.665964   4.845182   2.943745
    19  H    3.645872   4.583806   4.568315   3.975074   1.105710
    20  H    2.157835   3.403317   3.912983   4.467132   2.288889
    21  H    1.087782   2.180642   3.465754   5.405015   4.372088
    22  H    2.155809   1.094693   2.189897   4.874864   5.272232
    23  H    3.461041   2.186159   1.101419   3.091506   4.821300
    24  H    4.964753   4.426243   3.128367   1.121753   3.689084
    25  H    4.964753   4.426243   3.128367   1.121753   3.689084
                   11         12         13         14         15
    11  C    0.000000
    12  C    1.388975   0.000000
    13  C    2.582492   3.169659   0.000000
    14  C    2.606288   2.488131   1.435171   0.000000
    15  H    2.125600   3.367178   3.921448   4.509599   0.000000
    16  H    3.431603   3.929373   5.904526   6.015445   2.460961
    17  H    3.906782   3.458323   6.419556   5.944663   4.272962
    18  H    3.410225   2.185990   5.298264   4.349197   4.921992
    19  H    3.334056   2.232289   3.536828   2.145956   5.455480
    20  H    4.421316   3.703999   3.433544   2.124096   6.485751
    21  H    6.002562   5.736543   3.957091   3.401874   7.783351
    22  H    6.029358   6.333327   3.466698   3.882813   7.268572
    23  H    4.562873   5.369117   2.225479   3.470702   5.212786
    24  H    2.129014   3.354371   2.195705   3.169084   2.266801
    25  H    2.129014   3.354371   2.195705   3.169084   2.266801
                   16         17         18         19         20
    16  H    0.000000
    17  H    2.508438   0.000000
    18  H    4.325769   2.494223   0.000000
    19  H    6.131238   5.165384   2.932979   0.000000
    20  H    7.612120   6.910598   4.722532   1.789958   0.000000
    21  H    9.417165   9.143447   7.128322   4.220731   2.490978
    22  H    9.367678   9.753125   8.215339   5.622990   4.300061
    23  H    7.542170   8.469645   7.518963   5.611921   5.013889
    24  H    4.502128   5.700241   5.420526   4.762666   5.244040
    25  H    4.502128   5.700241   5.420526   4.762666   5.244040
                   21         22         23         24         25
    21  H    0.000000
    22  H    2.491885   0.000000
    23  H    4.358873   2.509508   0.000000
    24  H    6.039018   5.268411   3.248358   0.000000
    25  H    6.039018   5.268411   3.248358   1.719170   0.000000
 Stoichiometry    C14H11(1+)
 Framework group  CS[SG(C14H9),X(H2)]
 Deg. of freedom    46
 Full point group                 CS      NOp   2
 Largest Abelian subgroup         CS      NOp   2
 Largest concise Abelian subgroup CS      NOp   2
                         Standard orientation:                         
 ---------------------------------------------------------------------
 Center     Atomic      Atomic             Coordinates (Angstroms)
 Number     Number       Type             X           Y           Z
 ---------------------------------------------------------------------
      1          6           0       -0.235867   -2.705207    0.000000
      2          6           0        0.786597   -3.648913    0.000000
      3          6           0        2.085652   -3.190650    0.000000
      4          6           0        2.352706   -1.775077    0.000000
      5          6           0        0.355173    2.626534    0.000000
      6          6           0       -0.580931    3.635714    0.000000
      7          6           0       -1.945229    3.283963    0.000000
      8          6           0       -2.368591    1.920911    0.000000
      9          6           0       -1.386717   -0.610466    0.000000
     10          6           0        1.242819    0.574727    0.000000
     11          6           0       -0.021580   -1.320006    0.000000
     12          6           0        1.283722   -0.845205    0.000000
     13          6           0       -1.376117    0.878742    0.000000
     14          6           0        0.000000    1.286192    0.000000
     15          1           0       -1.268792   -3.041237    0.000000
     16          1           0        0.545000   -4.704513    0.000000
     17          1           0        2.918463   -3.892765    0.000000
     18          1           0        3.386432   -1.442835    0.000000
     19          1           0        2.144753    1.214344    0.000000
     20          1           0        1.431055    2.855863    0.000000
     21          1           0       -0.267951    4.677497    0.000000
     22          1           0       -2.688922    4.087253    0.000000
     23          1           0       -3.446560    1.694845    0.000000
     24          1           0       -1.951650   -1.058007    0.859585
     25          1           0       -1.951650   -1.058007   -0.859585
 ---------------------------------------------------------------------
 Rotational constants (GHZ):           2.1110264           0.4429635           0.3669278
 Standard basis: 6-311++G(d,p) (5D, 7F)
 There are   299 symmetry adapted cartesian basis functions of A'  symmetry.
 There are   100 symmetry adapted cartesian basis functions of A"  symmetry.
 There are   285 symmetry adapted basis functions of A'  symmetry.
 There are   100 symmetry adapted basis functions of A"  symmetry.
   385 basis functions,   603 primitive gaussians,   399 cartesian basis functions
    47 alpha electrons       47 beta electrons
       nuclear repulsion energy       778.2056464082 Hartrees.
 NAtoms=   25 NActive=   25 NUniq=   24 SFac= 1.09D+00 NAtFMM=   60 NAOKFM=F Big=F
 Integral buffers will be    131072 words long.
 Regular integral format.
 Two-electron integral symmetry is turned on.
 Nuclear repulsion after empirical dispersion term =      778.2046686632 Hartrees.
 One-electron integrals computed using PRISM.
 NBasis=   385 RedAO= T EigKep=  1.19D-06  NBF=   285   100
 NBsUse=   379 1.00D-06 EigRej=  8.41D-07 NBFU=   279   100
 ExpMin= 3.60D-02 ExpMax= 4.56D+03 ExpMxC= 6.82D+02 IAcc=3 IRadAn=         5 AccDes= 0.00D+00
 Harris functional with IExCor= 1009 and IRadAn=       5 diagonalized for initial guess.
 HarFok:  IExCor= 1009 AccDes= 0.00D+00 IRadAn=         5 IDoV= 1 UseB2=F ITyADJ=14
 ICtDFT=  3500011 ScaDFX=  1.000000  1.000000  1.000000  1.000000
 FoFCou: FMM=F IPFlag=           0 FMFlag=      100000 FMFlg1=           0
         NFxFlg=           0 DoJE=T BraDBF=F KetDBF=T FulRan=T
         wScrn=  0.000000 ICntrl=       500 IOpCl=  0 I1Cent=   200000004 NGrid=           0
         NMat0=    1 NMatS0=      1 NMatT0=    0 NMatD0=    1 NMtDS0=    0 NMtDT0=    0
 Petite list used in FoFCou.
 Initial guess orbital symmetries:
       Occupied  (A') (A') (A') (A') (A') (A') (A') (A') (A') (A')
                 (A') (A') (A') (A') (A') (A') (A') (A') (A') (A')
                 (A') (A') (A') (A') (A') (A') (A') (A') (A') (A')
                 (A') (A') (A') (A") (A') (A') (A') (A') (A") (A")
                 (A') (A') (A') (A") (A") (A") (A")
       Virtual   (A") (A") (A") (A") (A") (A') (A') (A') (A') (A")
                 (A") (A') (A') (A') (A") (A') (A') (A') (A') (A')
                 (A") (A") (A') (A') (A') (A") (A') (A") (A') (A')
                 (A') (A') (A') (A') (A") (A') (A') (A') (A") (A')
                 (A") (A') (A') (A") (A') (A') (A') (A') (A') (A")
                 (A') (A") (A') (A") (A') (A') (A') (A") (A') (A")
                 (A') (A') (A') (A') (A') (A') (A") (A') (A') (A")
                 (A') (A') (A') (A') (A') (A') (A') (A') (A') (A')
                 (A') (A') (A') (A') (A') (A') (A') (A') (A') (A')
                 (A') (A') (A') (A') (A') (A') (A') (A") (A") (A')
                 (A') (A") (A") (A') (A') (A") (A') (A') (A") (A')
                 (A") (A") (A') (A") (A') (A') (A") (A') (A") (A")
                 (A') (A") (A') (A') (A") (A') (A') (A') (A') (A")
                 (A') (A') (A') (A') (A') (A') (A') (A") (A') (A')
                 (A') (A') (A') (A') (A') (A') (A') (A') (A") (A')
                 (A") (A') (A") (A') (A") (A') (A') (A") (A") (A')
                 (A') (A') (A") (A") (A") (A") (A') (A') (A') (A')
                 (A') (A") (A') (A") (A') (A') (A') (A') (A') (A")
                 (A') (A') (A') (A") (A') (A") (A') (A') (A") (A")
                 (A") (A') (A') (A') (A") (A') (A') (A") (A') (A')
                 (A") (A") (A") (A') (A") (A') (A") (A') (A') (A')
                 (A') (A") (A") (A") (A') (A') (A') (A") (A') (A")
                 (A') (A') (A') (A') (A") (A') (A') (A") (A') (A")
                 (A') (A') (A") (A') (A') (A') (A") (A") (A') (A')
                 (A") (A') (A') (A") (A') (A') (A') (A') (A') (A')
                 (A") (A') (A') (A') (A") (A") (A') (A") (A') (A')
                 (A') (A") (A') (A') (A') (A") (A') (A") (A') (A')
                 (A') (A") (A') (A') (A") (A') (A") (A") (A') (A')
                 (A") (A") (A') (A") (A') (A") (A') (A') (A') (A')
                 (A') (A') (A') (A') (A') (A') (A') (A') (A') (A')
                 (A') (A') (A') (A") (A') (A') (A') (A') (A') (A')
                 (A') (A') (A') (A') (A') (A') (A') (A') (A') (A')
                 (A') (A') (A') (A') (A') (A') (A') (A') (A') (A')
                 (A') (A')
 The electronic state of the initial guess is 1-A'.
 Requested convergence on RMS density matrix=1.00D-08 within 128 cycles.
 Requested convergence on MAX density matrix=1.00D-06.
 Requested convergence on             energy=1.00D-06.
 No special actions if energy rises.
 SCF Done:  E(RM062X) =  -539.709805383     A.U. after   16 cycles
            NFock= 16  Conv=0.30D-08     -V/T= 2.0049
 DoSCS=F DFT=T ScalE2(SS,OS)=  1.000000  1.000000
 ExpMin= 3.60D-02 ExpMax= 4.56D+03 ExpMxC= 6.82D+02 IAcc=3 IRadAn=         5 AccDes= 0.00D+00
 HarFok:  IExCor=  205 AccDes= 0.00D+00 IRadAn=         5 IDoV=-2 UseB2=F ITyADJ=14
 ICtDFT= 12500011 ScaDFX=  1.000000  1.000000  1.000000  1.000000
 Range of M.O.s used for correlation:    15   379
 NBasis=   385 NAE=    47 NBE=    47 NFC=    14 NFV=     0
 NROrb=    365 NOA=    33 NOB=    33 NVA=   332 NVB=   332

 **** Warning!!: The largest alpha MO coefficient is  0.16746755D+03

 Orbital symmetries:
       Occupied  (A') (A') (A') (A') (A') (A') (A') (A') (A') (A')
                 (A') (A') (A') (A') (A') (A') (A') (A') (A') (A')
                 (A') (A') (A') (A') (A') (A') (A') (A') (A') (A')
                 (A') (A') (A") (A') (A') (A') (A') (A") (A") (A')
                 (A') (A') (A') (A") (A") (A") (A")
       Virtual   (A") (A") (A") (A") (A') (A') (A') (A') (A") (A')
                 (A') (A") (A') (A') (A") (A') (A") (A') (A') (A')
                 (A") (A") (A') (A') (A') (A") (A') (A") (A') (A")
                 (A') (A") (A') (A') (A') (A') (A') (A") (A') (A')
                 (A") (A') (A') (A") (A") (A') (A") (A') (A') (A')
                 (A") (A') (A') (A') (A') (A") (A') (A') (A') (A')
                 (A") (A') (A') (A') (A') (A') (A") (A') (A') (A')
                 (A') (A') (A') (A') (A') (A') (A') (A') (A') (A')
                 (A') (A') (A') (A') (A') (A') (A') (A') (A') (A')
                 (A') (A') (A') (A') (A") (A") (A') (A") (A') (A')
                 (A") (A') (A') (A') (A") (A') (A") (A') (A") (A")
                 (A') (A') (A') (A") (A") (A') (A") (A') (A') (A")
                 (A") (A") (A') (A') (A') (A') (A') (A") (A') (A')
                 (A') (A') (A') (A') (A') (A') (A') (A') (A') (A')
                 (A') (A') (A') (A') (A") (A') (A') (A') (A') (A')
                 (A') (A') (A") (A') (A") (A') (A") (A') (A") (A')
                 (A") (A") (A') (A') (A") (A') (A") (A") (A") (A')
                 (A') (A') (A") (A') (A") (A') (A') (A') (A") (A')
                 (A') (A") (A') (A') (A") (A') (A') (A') (A") (A")
                 (A") (A') (A') (A") (A') (A') (A") (A') (A') (A")
                 (A') (A") (A") (A') (A") (A') (A") (A') (A') (A')
                 (A') (A') (A") (A") (A") (A') (A') (A') (A") (A")
                 (A') (A') (A') (A') (A") (A') (A') (A") (A') (A")
                 (A') (A') (A") (A') (A') (A') (A") (A') (A") (A')
                 (A") (A') (A') (A") (A') (A') (A') (A') (A') (A')
                 (A') (A") (A') (A') (A') (A") (A') (A") (A') (A")
                 (A') (A') (A') (A') (A') (A") (A') (A') (A') (A')
                 (A') (A") (A") (A') (A") (A") (A') (A") (A') (A")
                 (A') (A") (A") (A') (A") (A") (A') (A') (A') (A')
                 (A') (A') (A') (A') (A') (A') (A') (A') (A') (A')
                 (A') (A') (A') (A") (A') (A') (A') (A') (A') (A')
                 (A') (A') (A') (A') (A') (A') (A') (A') (A') (A')
                 (A') (A') (A') (A') (A') (A') (A') (A') (A') (A')
                 (A') (A')
     4 initial guesses have been made.
 Convergence on wavefunction:    0.001000000000000
 Iteration     1 Dimension     4 NMult     0 NNew      4
 CISAX will form     4 AO SS matrices at one time.
 Iteration     2 Dimension     6 NMult     4 NNew      2
 Iteration     3 Dimension     8 NMult     6 NNew      2
 Iteration     4 Dimension    10 NMult     8 NNew      2
 Iteration     5 Dimension    12 NMult    10 NNew      2
 Iteration     6 Dimension    14 NMult    12 NNew      2
 ***********************************************************************
 Excited states from <AA,BB:AA,BB> singles matrix:
 ***********************************************************************
 
 Ground to excited state transition densities written to RWF  633
 Ground to excited state transition electric dipole moments (Au):
       state          X           Y           Z        Dip. S.      Osc.
         1         0.6633      0.0337      0.0000      0.4411      0.0309
 Ground to excited state transition velocity dipole moments (Au):
       state          X           Y           Z        Dip. S.      Osc.
         1        -0.0785     -0.0039     -0.0000      0.0062      0.0392
 Ground to excited state transition magnetic dipole moments (Au):
       state          X           Y           Z
         1        -0.0000      0.0000      0.0186
 Ground to excited state transition velocity quadrupole moments (Au):
       state          XX          YY          ZZ          XY          XZ          YZ
         1        -0.1227     -0.2069      0.0086      0.1553     -0.0000     -0.0000
 <0|del|b> * <b|rxdel|0> + <0|del|b> * <b|delr+rdel|0>
 Rotatory Strengths (R) in cgs (10**-40 erg-esu-cm/Gauss)
       state          XX          YY          ZZ    R(velocity)    E-M Angle
         1        -0.0000      0.0000     -0.0000      0.0000       90.00
 1/2[<0|r|b>*<b|rxdel|0> + (<0|rxdel|b>*<b|r|0>)*]
 Rotatory Strengths (R) in cgs (10**-40 erg-esu-cm/Gauss)
       state          XX          YY          ZZ     R(length)
         1         0.0000     -0.0000     -0.0000      0.0000
  1/2[<0|del|b>*<b|r|0> + (<0|r|b>*<b|del|0>)*] (Au)
       state          X           Y           Z        Dip. S.   Osc.(frdel)
         1        -0.0521     -0.0001     -0.0000      0.0522      0.0348

 Excitation energies and oscillator strengths:
 
 Excited State   1:      Singlet-A'     2.8613 eV  433.31 nm  f=0.0309  <S**2>=0.000
      47 -> 48         0.70367
 This state for optimization and/or second-order correction.
 Total Energy, E(TD-HF/TD-DFT) =  -539.604654021    
 Copying the excited state density for this state as the 1-particle RhoCI density.
 SavETr:  write IOETrn=   770 NScale= 10 NData=  16 NLR=1 NState=    1 LETran=      28.

 **********************************************************************

            Population analysis using the SCF Density.

 **********************************************************************

 Orbital symmetries:
       Occupied  (A') (A') (A') (A') (A') (A') (A') (A') (A') (A')
                 (A') (A') (A') (A') (A') (A') (A') (A') (A') (A')
                 (A') (A') (A') (A') (A') (A') (A') (A') (A') (A')
                 (A') (A') (A") (A') (A') (A') (A') (A") (A") (A')
                 (A') (A') (A') (A") (A") (A") (A")
       Virtual   (A") (A") (A") (A") (A') (A') (A') (A') (A") (A')
                 (A') (A") (A') (A') (A") (A') (A") (A') (A') (A')
                 (A") (A") (A') (A') (A') (A") (A') (A") (A') (A")
                 (A') (A") (A') (A') (A') (A') (A') (A") (A') (A')
                 (A") (A') (A') (A") (A") (A') (A") (A') (A') (A')
                 (A") (A') (A') (A') (A') (A") (A') (A') (A') (A')
                 (A") (A') (A') (A') (A') (A') (A") (A') (A') (A')
                 (A') (A') (A') (A') (A') (A') (A') (A') (A') (A')
                 (A') (A') (A') (A') (A') (A') (A') (A') (A') (A')
                 (A') (A') (A') (A') (A") (A") (A') (A") (A') (A')
                 (A") (A') (A') (A') (A") (A') (A") (A') (A") (A")
                 (A') (A') (A') (A") (A") (A') (A") (A') (A') (A")
                 (A") (A") (A') (A') (A') (A') (A') (A") (A') (A')
                 (A') (A') (A') (A') (A') (A') (A') (A') (A') (A')
                 (A') (A') (A') (A') (A") (A') (A') (A') (A') (A')
                 (A') (A') (A") (A') (A") (A') (A") (A') (A") (A')
                 (A") (A") (A') (A') (A") (A') (A") (A") (A") (A')
                 (A') (A') (A") (A') (A") (A') (A') (A') (A") (A')
                 (A') (A") (A') (A') (A") (A') (A') (A') (A") (A")
                 (A") (A') (A') (A") (A') (A') (A") (A') (A') (A")
                 (A') (A") (A") (A') (A") (A') (A") (A') (A') (A')
                 (A') (A') (A") (A") (A") (A') (A') (A') (A") (A")
                 (A') (A') (A') (A') (A") (A') (A') (A") (A') (A")
                 (A') (A') (A") (A') (A') (A') (A") (A') (A") (A')
                 (A") (A') (A') (A") (A') (A') (A') (A') (A') (A')
                 (A') (A") (A') (A') (A') (A") (A') (A") (A') (A")
                 (A') (A') (A') (A') (A') (A") (A') (A') (A') (A')
                 (A') (A") (A") (A') (A") (A") (A') (A") (A') (A")
                 (A') (A") (A") (A') (A") (A") (A') (A') (A') (A')
                 (A') (A') (A') (A') (A') (A') (A') (A') (A') (A')
                 (A') (A') (A') (A") (A') (A') (A') (A') (A') (A')
                 (A') (A') (A') (A') (A') (A') (A') (A') (A') (A')
                 (A') (A') (A') (A') (A') (A') (A') (A') (A') (A')
                 (A') (A')
 The electronic state is 1-A'.
 Alpha  occ. eigenvalues --  -10.77968 -10.74514 -10.73079 -10.72605 -10.72390
 Alpha  occ. eigenvalues --  -10.72167 -10.72149 -10.72068 -10.71858 -10.71107
 Alpha  occ. eigenvalues --  -10.70607 -10.70151 -10.69667 -10.69366  -1.16416
 Alpha  occ. eigenvalues --   -1.12233  -1.06644  -1.05404  -1.01216  -1.00020
 Alpha  occ. eigenvalues --   -0.95350  -0.90501  -0.87223  -0.84921  -0.83517
 Alpha  occ. eigenvalues --   -0.77868  -0.75647  -0.73811  -0.70019  -0.69347
 Alpha  occ. eigenvalues --   -0.68021  -0.67574  -0.67335  -0.64312  -0.63777
 Alpha  occ. eigenvalues --   -0.62248  -0.61264  -0.59842  -0.59421  -0.58658
 Alpha  occ. eigenvalues --   -0.56122  -0.55427  -0.54587  -0.52177  -0.46642
 Alpha  occ. eigenvalues --   -0.45951  -0.44384
 Alpha virt. eigenvalues --   -0.25824  -0.15012  -0.14309  -0.13027  -0.11259
 Alpha virt. eigenvalues --   -0.10186  -0.09248  -0.08034  -0.08015  -0.07552
 Alpha virt. eigenvalues --   -0.07229  -0.07131  -0.05777  -0.05611  -0.05307
 Alpha virt. eigenvalues --   -0.03926  -0.03620  -0.03444  -0.03159  -0.02097
 Alpha virt. eigenvalues --   -0.01445  -0.00796  -0.00051   0.00198   0.00570
 Alpha virt. eigenvalues --    0.00945   0.01240   0.01758   0.02149   0.02241
 Alpha virt. eigenvalues --    0.02424   0.02494   0.02580   0.03166   0.03757
 Alpha virt. eigenvalues --    0.04072   0.04309   0.04725   0.04878   0.05338
 Alpha virt. eigenvalues --    0.06056   0.06100   0.06525   0.06908   0.07204
 Alpha virt. eigenvalues --    0.07700   0.08001   0.08082   0.08443   0.08660
 Alpha virt. eigenvalues --    0.08811   0.09510   0.09716   0.10281   0.11001
 Alpha virt. eigenvalues --    0.11055   0.11357   0.11819   0.12378   0.12710
 Alpha virt. eigenvalues --    0.12722   0.13222   0.13851   0.14237   0.15105
 Alpha virt. eigenvalues --    0.16204   0.16591   0.16910   0.17086   0.17754
 Alpha virt. eigenvalues --    0.18784   0.19009   0.19537   0.19825   0.20466
 Alpha virt. eigenvalues --    0.21540   0.21712   0.22170   0.23013   0.23452
 Alpha virt. eigenvalues --    0.24151   0.24595   0.26114   0.26437   0.27387
 Alpha virt. eigenvalues --    0.27789   0.28838   0.31011   0.31355   0.35018
 Alpha virt. eigenvalues --    0.35532   0.38808   0.39842   0.40279   0.41354
 Alpha virt. eigenvalues --    0.41746   0.42363   0.43121   0.43437   0.43974
 Alpha virt. eigenvalues --    0.44248   0.45442   0.45838   0.46645   0.47702
 Alpha virt. eigenvalues --    0.48511   0.48810   0.48827   0.49147   0.50490
 Alpha virt. eigenvalues --    0.50499   0.51191   0.51693   0.51939   0.53876
 Alpha virt. eigenvalues --    0.54245   0.55073   0.55156   0.55775   0.57574
 Alpha virt. eigenvalues --    0.58613   0.60249   0.60581   0.61971   0.62747
 Alpha virt. eigenvalues --    0.63467   0.63566   0.63739   0.65179   0.67688
 Alpha virt. eigenvalues --    0.68604   0.69835   0.71283   0.71616   0.72390
 Alpha virt. eigenvalues --    0.73749   0.75475   0.76324   0.76746   0.77484
 Alpha virt. eigenvalues --    0.77581   0.78360   0.78753   0.80154   0.80157
 Alpha virt. eigenvalues --    0.81522   0.82220   0.82891   0.83317   0.85116
 Alpha virt. eigenvalues --    0.85778   0.86456   0.87335   0.89112   0.89625
 Alpha virt. eigenvalues --    0.90932   0.91537   0.92272   0.93532   0.94727
 Alpha virt. eigenvalues --    0.96490   0.96861   0.99886   1.00935   1.01505
 Alpha virt. eigenvalues --    1.01728   1.02807   1.03549   1.04984   1.06980
 Alpha virt. eigenvalues --    1.18457   1.20396   1.22780   1.24800   1.25581
 Alpha virt. eigenvalues --    1.27104   1.33954   1.34155   1.35215   1.36263
 Alpha virt. eigenvalues --    1.38894   1.40263   1.40656   1.41707   1.42259
 Alpha virt. eigenvalues --    1.42426   1.44426   1.45319   1.46515   1.46622
 Alpha virt. eigenvalues --    1.47237   1.49899   1.51267   1.52829   1.53105
 Alpha virt. eigenvalues --    1.55205   1.56930   1.57224   1.58910   1.62210
 Alpha virt. eigenvalues --    1.62272   1.62476   1.63394   1.66406   1.67145
 Alpha virt. eigenvalues --    1.67394   1.68480   1.69710   1.71886   1.74257
 Alpha virt. eigenvalues --    1.75194   1.76140   1.76521   1.78290   1.79139
 Alpha virt. eigenvalues --    1.80577   1.81215   1.82767   1.82877   1.84082
 Alpha virt. eigenvalues --    1.84809   1.85410   1.86834   1.88118   1.89222
 Alpha virt. eigenvalues --    1.89463   1.92752   1.95869   1.97630   1.98503
 Alpha virt. eigenvalues --    1.98870   2.01781   2.05711   2.06867   2.08700
 Alpha virt. eigenvalues --    2.11138   2.13715   2.16344   2.17440   2.22400
 Alpha virt. eigenvalues --    2.22587   2.26470   2.28092   2.29952   2.32555
 Alpha virt. eigenvalues --    2.33671   2.36690   2.38245   2.39000   2.41289
 Alpha virt. eigenvalues --    2.43585   2.45324   2.45571   2.47607   2.50602
 Alpha virt. eigenvalues --    2.54447   2.54451   2.56193   2.58269   2.58513
 Alpha virt. eigenvalues --    2.59918   2.60512   2.61098   2.62908   2.63029
 Alpha virt. eigenvalues --    2.64183   2.64618   2.65756   2.66204   2.67556
 Alpha virt. eigenvalues --    2.68775   2.70585   2.72544   2.74391   2.74798
 Alpha virt. eigenvalues --    2.76552   2.77469   2.79521   2.80075   2.82621
 Alpha virt. eigenvalues --    2.85601   2.85828   2.90836   2.97786   2.98176
 Alpha virt. eigenvalues --    2.99567   3.00751   3.02425   3.09395   3.12437
 Alpha virt. eigenvalues --    3.16224   3.22398   3.23415   3.28376   3.29194
 Alpha virt. eigenvalues --    3.29698   3.31608   3.40544   3.44321   3.45205
 Alpha virt. eigenvalues --    3.45768   3.49235   3.52209   3.57771   3.63787
 Alpha virt. eigenvalues --    3.68804   3.90192   3.91998   3.95166   3.95840
 Alpha virt. eigenvalues --    4.00810   4.04072   4.04709   4.10744   4.33149
 Alpha virt. eigenvalues --    4.48160   4.66654   4.69245  23.45295  23.58466
 Alpha virt. eigenvalues --   23.77652  23.80930  23.82160  23.85848  23.87695
 Alpha virt. eigenvalues --   23.88833  23.93048  23.97241  23.97645  24.02215
 Alpha virt. eigenvalues --   24.10175  24.10581
          Condensed to atoms (all electrons):
               1          2          3          4          5          6
     1  C   12.660770  -1.474237  -1.157109   4.802355   0.123235  -0.266161
     2  C   -1.474237   9.857725   0.101723  -2.217075   0.042379  -0.014887
     3  C   -1.157109   0.101723   6.688120   0.096923  -0.055163   0.024143
     4  C    4.802355  -2.217075   0.096923  14.772276  -1.056699  -0.298176
     5  C    0.123235   0.042379  -0.055163  -1.056699  10.053921   0.689008
     6  C   -0.266161  -0.014887   0.024143  -0.298176   0.689008  10.021962
     7  C    0.042690  -0.009040   0.000876   0.022356  -0.892258  -0.099924
     8  C    0.535755   0.117758  -0.029889  -0.336904   1.689103  -0.365421
     9  C   -0.643296  -2.046282   0.117529   0.967874  -1.076050   0.323598
    10  C   -1.935012   0.281947   0.186533  -2.260832  -2.694148  -1.813911
    11  C   -1.179840  -0.838884   0.791665  -0.258457  -0.149116  -0.376350
    12  C   -5.227304   2.663198  -0.447797  -6.078479  -0.547114   0.046042
    13  C    0.866984  -0.425095   0.114144  -0.360655  -1.288467  -0.361404
    14  C   -1.962162   0.056131  -0.314256  -1.739902   0.504031  -1.298317
    15  H    0.442507  -0.202511   0.026329   0.056301   0.002202   0.003738
    16  H   -0.009965   0.392563  -0.045340   0.013072   0.000451  -0.000252
    17  H   -0.066369   0.004049   0.403278  -0.095883   0.000246   0.000639
    18  H    0.110800  -0.022335  -0.074823   0.567951   0.006285  -0.004053
    19  H   -0.068495  -0.011120   0.045150  -0.158296   0.120443   0.115105
    20  H    0.021907   0.005796  -0.008016   0.008739   0.435246  -0.165619
    21  H   -0.002147  -0.000236   0.000140  -0.001636  -0.030868   0.371837
    22  H    0.001545   0.000436  -0.000022  -0.001596   0.009847  -0.045899
    23  H    0.011188   0.000195  -0.000400   0.001102   0.031369  -0.001988
    24  H    0.033335   0.016692   0.001390  -0.008185   0.002130  -0.003555
    25  H    0.033335   0.016692   0.001390  -0.008185   0.002130  -0.003555
               7          8          9         10         11         12
     1  C    0.042690   0.535755  -0.643296  -1.935012  -1.179840  -5.227304
     2  C   -0.009040   0.117758  -2.046282   0.281947  -0.838884   2.663198
     3  C    0.000876  -0.029889   0.117529   0.186533   0.791665  -0.447797
     4  C    0.022356  -0.336904   0.967874  -2.260832  -0.258457  -6.078479
     5  C   -0.892258   1.689103  -1.076050  -2.694148  -0.149116  -0.547114
     6  C   -0.099924  -0.365421   0.323598  -1.813911  -0.376350   0.046042
     7  C    6.577304   0.677255  -0.096079   0.344733  -0.259690  -0.011672
     8  C    0.677255   9.245237  -0.399380  -0.930202   0.406165  -1.239599
     9  C   -0.096079  -0.399380  10.107880   0.874823   0.067004  -1.338452
    10  C    0.344733  -0.930202   0.874823   9.355156   0.065943   3.014565
    11  C   -0.259690   0.406165   0.067004   0.065943  11.692258  -0.217440
    12  C   -0.011672  -1.239599  -1.338452   3.014565  -0.217440  14.775151
    13  C   -0.153458   0.031662   0.926114   1.187627  -0.675301  -2.222087
    14  C   -0.176253  -3.557741  -1.907936   0.196205  -2.952153   2.549285
    15  H   -0.002160  -0.004615   0.119684  -0.008560  -0.067519  -0.071268
    16  H   -0.000017   0.000194  -0.008422  -0.005054  -0.005921   0.004897
    17  H   -0.000144  -0.000921  -0.003992   0.012094   0.010660   0.086959
    18  H    0.000239   0.000359  -0.008229  -0.048591   0.054600  -0.208369
    19  H    0.006768  -0.030212   0.058066   0.322749  -0.023939   0.068858
    20  H    0.022937   0.054731  -0.044671   0.040479   0.030992  -0.024771
    21  H   -0.024952  -0.006612  -0.005231  -0.003690  -0.005694   0.003496
    22  H    0.411781  -0.044958   0.008645   0.007012  -0.001358  -0.006526
    23  H   -0.047284   0.384779  -0.003104  -0.017231  -0.006553  -0.004873
    24  H    0.010467   0.035058   0.345696   0.002286  -0.024314  -0.033478
    25  H    0.010467   0.035058   0.345696   0.002286  -0.024314  -0.033478
              13         14         15         16         17         18
     1  C    0.866984  -1.962162   0.442507  -0.009965  -0.066369   0.110800
     2  C   -0.425095   0.056131  -0.202511   0.392563   0.004049  -0.022335
     3  C    0.114144  -0.314256   0.026329  -0.045340   0.403278  -0.074823
     4  C   -0.360655  -1.739902   0.056301   0.013072  -0.095883   0.567951
     5  C   -1.288467   0.504031   0.002202   0.000451   0.000246   0.006285
     6  C   -0.361404  -1.298317   0.003738  -0.000252   0.000639  -0.004053
     7  C   -0.153458  -0.176253  -0.002160  -0.000017  -0.000144   0.000239
     8  C    0.031662  -3.557741  -0.004615   0.000194  -0.000921   0.000359
     9  C    0.926114  -1.907936   0.119684  -0.008422  -0.003992  -0.008229
    10  C    1.187627   0.196205  -0.008560  -0.005054   0.012094  -0.048591
    11  C   -0.675301  -2.952153  -0.067519  -0.005921   0.010660   0.054600
    12  C   -2.222087   2.549285  -0.071268   0.004897   0.086959  -0.208369
    13  C   12.183642  -3.323290   0.031789  -0.003489  -0.002894  -0.010329
    14  C   -3.323290  19.009801  -0.022864   0.001848  -0.001832  -0.031290
    15  H    0.031789  -0.022864   0.473023  -0.014305   0.001678  -0.000054
    16  H   -0.003489   0.001848  -0.014305   0.425317  -0.006461   0.002079
    17  H   -0.002894  -0.001832   0.001678  -0.006461   0.415761  -0.009348
    18  H   -0.010329  -0.031290  -0.000054   0.002079  -0.009348   0.446111
    19  H    0.024223  -0.113882   0.000881  -0.000880   0.002543  -0.010653
    20  H   -0.029361  -0.025844  -0.000226   0.000087  -0.000402   0.002118
    21  H   -0.035463   0.079805   0.000042  -0.000006   0.000011  -0.000071
    22  H    0.021930  -0.018974  -0.000202   0.000004  -0.000004  -0.000018
    23  H   -0.044503   0.028414   0.000285  -0.000034  -0.000003   0.000009
    24  H    0.016567  -0.056605  -0.003315   0.000536  -0.000047   0.000078
    25  H    0.016567  -0.056605  -0.003315   0.000536  -0.000047   0.000078
              19         20         21         22         23         24
     1  C   -0.068495   0.021907  -0.002147   0.001545   0.011188   0.033335
     2  C   -0.011120   0.005796  -0.000236   0.000436   0.000195   0.016692
     3  C    0.045150  -0.008016   0.000140  -0.000022  -0.000400   0.001390
     4  C   -0.158296   0.008739  -0.001636  -0.001596   0.001102  -0.008185
     5  C    0.120443   0.435246  -0.030868   0.009847   0.031369   0.002130
     6  C    0.115105  -0.165619   0.371837  -0.045899  -0.001988  -0.003555
     7  C    0.006768   0.022937  -0.024952   0.411781  -0.047284   0.010467
     8  C   -0.030212   0.054731  -0.006612  -0.044958   0.384779   0.035058
     9  C    0.058066  -0.044671  -0.005231   0.008645  -0.003104   0.345696
    10  C    0.322749   0.040479  -0.003690   0.007012  -0.017231   0.002286
    11  C   -0.023939   0.030992  -0.005694  -0.001358  -0.006553  -0.024314
    12  C    0.068858  -0.024771   0.003496  -0.006526  -0.004873  -0.033478
    13  C    0.024223  -0.029361  -0.035463   0.021930  -0.044503   0.016567
    14  C   -0.113882  -0.025844   0.079805  -0.018974   0.028414  -0.056605
    15  H    0.000881  -0.000226   0.000042  -0.000202   0.000285  -0.003315
    16  H   -0.000880   0.000087  -0.000006   0.000004  -0.000034   0.000536
    17  H    0.002543  -0.000402   0.000011  -0.000004  -0.000003  -0.000047
    18  H   -0.010653   0.002118  -0.000071  -0.000018   0.000009   0.000078
    19  H    0.457401  -0.006854   0.000418  -0.000066  -0.000390   0.000493
    20  H   -0.006854   0.496649  -0.010819   0.001979   0.000565   0.000187
    21  H    0.000418  -0.010819   0.415054  -0.006756   0.001730  -0.000183
    22  H   -0.000066   0.001979  -0.006756   0.414933  -0.008625   0.000544
    23  H   -0.000390   0.000565   0.001730  -0.008625   0.415673  -0.000366
    24  H    0.000493   0.000187  -0.000183   0.000544  -0.000366   0.494807
    25  H    0.000493   0.000187  -0.000183   0.000544  -0.000366  -0.082403
              25
     1  C    0.033335
     2  C    0.016692
     3  C    0.001390
     4  C   -0.008185
     5  C    0.002130
     6  C   -0.003555
     7  C    0.010467
     8  C    0.035058
     9  C    0.345696
    10  C    0.002286
    11  C   -0.024314
    12  C   -0.033478
    13  C    0.016567
    14  C   -0.056605
    15  H   -0.003315
    16  H    0.000536
    17  H   -0.000047
    18  H    0.000078
    19  H    0.000493
    20  H    0.000187
    21  H   -0.000183
    22  H    0.000544
    23  H   -0.000366
    24  H   -0.082403
    25  H    0.494807
 Mulliken charges:
               1
     1  C    0.305690
     2  C   -0.295583
     3  C   -0.466520
     4  C   -0.427989
     5  C    0.077859
     6  C   -0.476597
     7  C   -0.354942
     8  C   -0.266658
     9  C   -0.681487
    10  C   -0.177207
    11  C   -0.052444
    12  C    0.500257
    13  C   -0.485453
    14  C    1.134390
    15  H    0.242454
    16  H    0.258563
    17  H    0.250427
    18  H    0.237457
    19  H    0.201199
    20  H    0.193986
    21  H    0.262014
    22  H    0.255802
    23  H    0.260410
    24  H    0.252186
    25  H    0.252186
 Sum of Mulliken charges =   1.00000
 Mulliken charges with hydrogens summed into heavy atoms:
               1
     1  C    0.548144
     2  C   -0.037020
     3  C   -0.216093
     4  C   -0.190532
     5  C    0.271845
     6  C   -0.214583
     7  C   -0.099140
     8  C   -0.006248
     9  C   -0.177115
    10  C    0.023992
    11  C   -0.052444
    12  C    0.500257
    13  C   -0.485453
    14  C    1.134390
 Electronic spatial extent (au):  <R**2>=           2870.5463
 Charge=              1.0000 electrons
 Dipole moment (field-independent basis, Debye):
    X=              0.0914    Y=              0.3405    Z=              0.0000  Tot=              0.3526
 Quadrupole moment (field-independent basis, Debye-Ang):
   XX=            -52.2846   YY=            -34.4149   ZZ=            -84.6010
   XY=             -9.4401   XZ=              0.0000   YZ=              0.0000
 Traceless Quadrupole moment (field-independent basis, Debye-Ang):
   XX=              4.8156   YY=             22.6853   ZZ=            -27.5008
   XY=             -9.4401   XZ=              0.0000   YZ=              0.0000
 Octapole moment (field-independent basis, Debye-Ang**2):
  XXX=              0.8128  YYY=             -0.0403  ZZZ=             -0.0000  XYY=             -1.7326
  XXY=              4.6223  XXZ=              0.0000  XZZ=             -2.4463  YZZ=             -1.4530
  YYZ=              0.0000  XYZ=             -0.0000
 Hexadecapole moment (field-independent basis, Debye-Ang**3):
 XXXX=           -898.7768 YYYY=          -1919.2249 ZZZZ=           -100.3407 XXXY=            311.5684
 XXXZ=              0.0000 YYYX=            235.5864 YYYZ=             -0.0000 ZZZX=              0.0000
 ZZZY=             -0.0000 XXYY=           -464.0775 XXZZ=           -221.8227 YYZZ=           -521.8599
 XXYZ=             -0.0000 YYXZ=             -0.0000 ZZXY=            166.3364
 N-N= 7.782046686632D+02 E-N=-2.792352861491D+03  KE= 5.370837315279D+02
 Symmetry A'   KE= 5.224832940330D+02
 Symmetry A"   KE= 1.460043749484D+01
 Unable to Open any file for archive entry.
 1\1\GINC-GADI-CPU-CLX-0359\SP\RM062X TD-FC\6-311++G(d,p)\C14H11(1+)\TS
 1578\02-Aug-2022\0\\#n M062X/6-311++G(d,p) TD(NStates=1) EmpiricalDisp
 ersion=GD3 SP\\SP_-10\\1,1\C,0,0.,2.414655,1.242431\C,0,0.,3.675508,0.
 653989\C,0,0.,3.743861,-0.72183\C,0,0.,2.535156,-1.505538\C,0,0.,-2.29
 5156,-1.325538\C,0,0.,-3.583861,-0.84183\C,0,0.,-3.775508,0.553989\C,0
 ,0.,-2.674655,1.462431\C,0,0.,0.04,1.513369\C,0,0.,-0.06,-1.369189\C,0
 ,0.,1.214055,0.519065\C,0,0.,1.269471,-0.868804\C,0,0.,-1.334055,0.939
 065\C,0,0.,-1.189471,-0.488804\H,0,0.,2.334071,2.325647\H,0,0.,4.56075
 3,1.277689\H,0,0.,4.709262,-1.226349\H,0,0.,2.61955,-2.588059\H,0,0.,-
 0.31,-2.446266\H,0,0.,-2.09955,-2.408059\H,0,0.,-4.429262,-1.526349\H,
 0,0.,-4.800753,0.937689\H,0,0.,-2.874071,2.545647\H,0,-0.859585,0.24,2
 .205787\H,0,0.859585,0.24,2.205787\\Version=ES64L-G16RevC.01\State=1-A
 '\HF=-539.7098054\RMSD=2.977e-09\PG=CS [SG(C14H9),X(H2)]\\@
 The archive entry for this job was punched.


 A politician is a person who can make waves and then
 make you think he's the only one who can save the ship.
 -- Ivern Ball
 Job cpu time:       0 days  0 hours 52 minutes 39.3 seconds.
 Elapsed time:       0 days  0 hours  1 minutes  6.0 seconds.
 File lengths (MBytes):  RWF=    460 Int=      0 D2E=      0 Chk=     15 Scr=      1
 Normal termination of Gaussian 16 at Tue Aug  2 11:45:00 2022.
