 Entering Gaussian System, Link 0=g16
 Initial command:
 /apps/gaussian/g16c01/g16/l1.exe "/jobfs/53803768.gadi-pbs/Gau-229496.inp" -scrdir="/jobfs/53803768.gadi-pbs/"
 Entering Link 1 = /apps/gaussian/g16c01/g16/l1.exe PID=    229497.
  
 Copyright (c) 1988-2019, Gaussian, Inc.  All Rights Reserved.
  
 This is part of the Gaussian(R) 16 program.  It is based on
 the Gaussian(R) 09 system (copyright 2009, Gaussian, Inc.),
 the Gaussian(R) 03 system (copyright 2003, Gaussian, Inc.),
 the Gaussian(R) 98 system (copyright 1998, Gaussian, Inc.),
 the Gaussian(R) 94 system (copyright 1995, Gaussian, Inc.),
 the Gaussian 92(TM) system (copyright 1992, Gaussian, Inc.),
 the Gaussian 90(TM) system (copyright 1990, Gaussian, Inc.),
 the Gaussian 88(TM) system (copyright 1988, Gaussian, Inc.),
 the Gaussian 86(TM) system (copyright 1986, Carnegie Mellon
 University), and the Gaussian 82(TM) system (copyright 1983,
 Carnegie Mellon University). Gaussian is a federally registered
 trademark of Gaussian, Inc.
  
 This software contains proprietary and confidential information,
 including trade secrets, belonging to Gaussian, Inc.
  
 This software is provided under written license and may be
 used, copied, transmitted, or stored only in accord with that
 written license.
  
 The following legend is applicable only to US Government
 contracts under FAR:
  
                    RESTRICTED RIGHTS LEGEND
  
 Use, reproduction and disclosure by the US Government is
 subject to restrictions as set forth in subparagraphs (a)
 and (c) of the Commercial Computer Software - Restricted
 Rights clause in FAR 52.227-19.
  
 Gaussian, Inc.
 340 Quinnipiac St., Bldg. 40, Wallingford CT 06492
  
  
 ---------------------------------------------------------------
 Warning -- This program may not be used in any manner that
 competes with the business of Gaussian, Inc. or will provide
 assistance to any competitor of Gaussian, Inc.  The licensee
 of this program is prohibited from giving any competitor of
 Gaussian, Inc. access to this program.  By using this program,
 the user acknowledges that Gaussian, Inc. is engaged in the
 business of creating and licensing software in the field of
 computational chemistry and represents and warrants to the
 licensee that it is not a competitor of Gaussian, Inc. and that
 it will not use this program in any manner prohibited above.
 ---------------------------------------------------------------
  

 Cite this work as:
 Gaussian 16, Revision C.01,
 M. J. Frisch, G. W. Trucks, H. B. Schlegel, G. E. Scuseria, 
 M. A. Robb, J. R. Cheeseman, G. Scalmani, V. Barone, 
 G. A. Petersson, H. Nakatsuji, X. Li, M. Caricato, A. V. Marenich, 
 J. Bloino, B. G. Janesko, R. Gomperts, B. Mennucci, H. P. Hratchian, 
 J. V. Ortiz, A. F. Izmaylov, J. L. Sonnenberg, D. Williams-Young, 
 F. Ding, F. Lipparini, F. Egidi, J. Goings, B. Peng, A. Petrone, 
 T. Henderson, D. Ranasinghe, V. G. Zakrzewski, J. Gao, N. Rega, 
 G. Zheng, W. Liang, M. Hada, M. Ehara, K. Toyota, R. Fukuda, 
 J. Hasegawa, M. Ishida, T. Nakajima, Y. Honda, O. Kitao, H. Nakai, 
 T. Vreven, K. Throssell, J. A. Montgomery, Jr., J. E. Peralta, 
 F. Ogliaro, M. J. Bearpark, J. J. Heyd, E. N. Brothers, K. N. Kudin, 
 V. N. Staroverov, T. A. Keith, R. Kobayashi, J. Normand, 
 K. Raghavachari, A. P. Rendell, J. C. Burant, S. S. Iyengar, 
 J. Tomasi, M. Cossi, J. M. Millam, M. Klene, C. Adamo, R. Cammi, 
 J. W. Ochterski, R. L. Martin, K. Morokuma, O. Farkas, 
 J. B. Foresman, and D. J. Fox, Gaussian, Inc., Wallingford CT, 2019.
 
 ******************************************
 Gaussian 16:  ES64L-G16RevC.01  3-Jul-2019
                 2-Aug-2022 
 ******************************************
 %NProcShared=48
 Will use up to   48 processors via shared memory.
 %mem = 190GB
 ---------------------------------------------------------------
 #n M062X/6-311++G(d,p) TD(NStates=1) EmpiricalDispersion=GD3 SP
 ---------------------------------------------------------------
 1/38=1,172=1/1;
 2/12=2,17=6,18=5,40=1/2;
 3/5=4,6=6,7=1111,11=9,25=1,30=1,74=-55,124=31/1,2,3,8;
 4//1;
 5/5=2,38=5/2;
 8/6=1,10=2,108=1/1;
 9/41=1,42=1,70=2/14;
 6/7=2,8=2,9=2,10=2/1;
 99/5=1,9=1/99;
 -----
 SP_10
 -----
 Symbolic Z-matrix:
 Charge =  1 Multiplicity = 1
 C                     0.        2.64866   1.46643 
 C                     0.        3.76351   0.58799 
 C                     0.        3.59386  -0.80783 
 C                     0.        2.31916  -1.32154 
 C                     0.       -2.55916  -1.50154 
 C                     0.       -3.75386  -0.68783 
 C                     0.       -3.66351   0.68799 
 C                     0.       -2.38865   1.24643 
 C                     0.       -0.04      1.48337 
 C                     0.        0.06     -1.39919 
 C                     0.        1.32805   0.91307 
 C                     0.        1.19347  -0.5148 
 C                     0.       -1.20806   0.49307 
 C                     0.       -1.27347  -0.8948 
 H                     0.        2.81607   2.54965 
 H                     0.        4.77875   0.98969 
 H                     0.        4.44926  -1.47435 
 H                     0.        2.15355  -2.40406 
 H                     0.        0.31     -2.47827 
 H                     0.       -2.67355  -2.58406 
 H                     0.       -4.72926  -1.17435 
 H                     0.       -4.53875   1.32969 
 H                     0.       -2.27607   2.32965 
 H                    -0.85959  -0.24      2.17579 
 H                     0.85959  -0.24      2.17579 
 
                          Input orientation:                          
 ---------------------------------------------------------------------
 Center     Atomic      Atomic             Coordinates (Angstroms)
 Number     Number       Type             X           Y           Z
 ---------------------------------------------------------------------
      1          6           0        0.000000    2.648655    1.466431
      2          6           0        0.000000    3.763508    0.587989
      3          6           0        0.000000    3.593861   -0.807830
      4          6           0        0.000000    2.319156   -1.321538
      5          6           0        0.000000   -2.559156   -1.501538
      6          6           0        0.000000   -3.753861   -0.687830
      7          6           0        0.000000   -3.663508    0.687989
      8          6           0        0.000000   -2.388655    1.246431
      9          6           0        0.000000   -0.040000    1.483369
     10          6           0        0.000000    0.060000   -1.399189
     11          6           0        0.000000    1.328055    0.913065
     12          6           0        0.000000    1.193471   -0.514804
     13          6           0        0.000000   -1.208055    0.493065
     14          6           0        0.000000   -1.273471   -0.894804
     15          1           0        0.000000    2.816071    2.549647
     16          1           0        0.000000    4.778753    0.989689
     17          1           0        0.000000    4.449262   -1.474349
     18          1           0        0.000000    2.153550   -2.404059
     19          1           0        0.000000    0.310000   -2.478266
     20          1           0        0.000000   -2.673550   -2.584059
     21          1           0        0.000000   -4.729262   -1.174349
     22          1           0        0.000000   -4.538753    1.329689
     23          1           0        0.000000   -2.276071    2.329647
     24          1           0       -0.859585   -0.240000    2.175787
     25          1           0        0.859585   -0.240000    2.175787
 ---------------------------------------------------------------------
                    Distance matrix (angstroms):
                    1          2          3          4          5
     1  C    0.000000
     2  C    1.419351   0.000000
     3  C    2.462860   1.406091   0.000000
     4  C    2.807373   2.394253   1.374325   0.000000
     5  C    5.994175   6.658994   6.191999   4.881632   0.000000
     6  C    6.755224   7.624864   7.348702   6.105991   1.445490
     7  C    6.359982   7.427689   7.409918   6.311138   2.452269
     8  C    5.042112   6.187298   6.325384   5.362644   2.753253
     9  C    2.688708   3.907477   4.295875   3.665122   3.905870
    10  C    3.861724   4.202957   3.582999   2.260490   2.621155
    11  C    1.431851   2.457052   2.845234   2.444531   4.576103
    12  C    2.458221   2.796648   2.418209   1.384914   3.880187
    13  C    3.977644   4.972469   4.975010   3.966611   2.409132
    14  C    4.578046   5.250698   4.868109   3.617882   1.421658
    15  H    1.096077   2.178472   3.446391   3.902947   6.730911
    16  H    2.182796   1.091827   2.152915   3.375113   7.749266
    17  H    3.448242   2.173361   1.084416   2.135580   7.008471
    18  H    3.902028   3.397693   2.149987   1.095115   4.798348
    19  H    4.585841   4.618294   3.684304   2.318346   3.030850
    20  H    6.688224   7.176183   6.514248   5.149861   1.088548
    21  H    7.836286   8.673695   8.331189   7.049955   2.194633
    22  H    7.188709   8.335326   8.408829   7.352545   3.454656
    23  H    4.999807   6.285689   6.655814   5.869179   3.841629
    24  H    3.096191   4.391818   4.933492   4.418082   4.431714
    25  H    3.096191   4.391818   4.933492   4.418082   4.431714
                    6          7          8          9         10
     6  C    0.000000
     7  C    1.378783   0.000000
     8  C    2.367520   1.391800   0.000000
     9  C    4.301961   3.709776   2.360576   0.000000
    10  C    3.879635   4.268586   3.604888   2.884292   0.000000
    11  C    5.328108   4.996635   3.731630   1.482168   2.637135
    12  C    4.950357   5.003694   3.991688   2.348222   1.437669
    13  C    2.806357   2.463178   1.400492   1.531357   2.277847
    14  C    2.489010   2.866620   2.414233   2.679022   1.425675
    15  H    7.324293   6.741715   5.365403   3.048621   4.815520
    16  H    8.695951   8.447650   7.172005   4.843976   5.288986
    17  H    8.240743   8.395996   7.359331   5.376018   4.389905
    18  H    6.151662   6.587786   5.827324   4.463604   2.322222
    19  H    4.440791   5.080742   4.599577   3.977066   1.107658
    20  H    2.182374   3.418525   3.841070   4.845571   2.979297
    21  H    1.090004   2.145725   3.367286   5.390050   4.794537
    22  H    2.164818   1.085280   2.151709   4.501377   5.347458
    23  H    3.359915   2.149424   1.089051   2.390858   4.400164
    24  H    4.613720   3.830514   2.493854   1.121753   3.689084
    25  H    4.613720   3.830514   2.493854   1.121753   3.689084
                   11         12         13         14         15
    11  C    0.000000
    12  C    1.434198   0.000000
    13  C    2.570652   2.604444   0.000000
    14  C    3.168016   2.496037   1.389410   0.000000
    15  H    2.211920   3.467519   4.519195   5.346831   0.000000
    16  H    3.451549   3.888155   6.007371   6.338827   2.507108
    17  H    3.929590   3.394245   5.989654   5.752004   4.342794
    18  H    3.418297   2.119206   4.437760   3.744639   4.997813
    19  H    3.540842   2.153069   3.336660   2.239360   5.617856
    20  H    5.314388   4.385849   3.408279   2.194038   7.516041
    21  H    6.406901   5.959343   3.896045   3.467079   8.414285
    22  H    5.881582   6.021673   3.434165   3.951004   7.455316
    23  H    3.872522   4.486493   2.124545   3.376728   5.096892
    24  H    2.189098   3.167492   2.123104   3.351936   3.196596
    25  H    2.189098   3.167492   2.123104   3.351936   3.196596
                   16         17         18         19         20
    16  H    0.000000
    17  H    2.485970   0.000000
    18  H    4.290596   2.476823   0.000000
    19  H    5.656542   4.259265   1.845043   0.000000
    20  H    8.264895   7.208738   4.830455   2.985425   0.000000
    21  H    9.751175   9.183425   6.991801   5.205224   2.492636
    22  H    9.323707   9.415256   7.663406   6.165300   4.335482
    23  H    7.180949   7.726609   6.483017   5.459285   4.929756
    24  H    5.228154   6.004295   5.238603   4.764619   5.414535
    25  H    5.228154   6.004295   5.238603   4.764619   5.414535
                   21         22         23         24         25
    21  H    0.000000
    22  H    2.511275   0.000000
    23  H    4.277398   2.473792   0.000000
    24  H    5.667078   4.464756   2.215433   0.000000
    25  H    5.667078   4.464756   2.215433   1.719170   0.000000
 Stoichiometry    C14H11(1+)
 Framework group  CS[SG(C14H9),X(H2)]
 Deg. of freedom    46
 Full point group                 CS      NOp   2
 Largest Abelian subgroup         CS      NOp   2
 Largest concise Abelian subgroup CS      NOp   2
                         Standard orientation:                         
 ---------------------------------------------------------------------
 Center     Atomic      Atomic             Coordinates (Angstroms)
 Number     Number       Type             X           Y           Z
 ---------------------------------------------------------------------
      1          6           0        2.395197    1.853262    0.000000
      2          6           0        2.029240    3.224624    0.000000
      3          6           0        0.680114    3.620794    0.000000
      4          6           0       -0.295811    2.653148    0.000000
      5          6           0       -2.390306   -1.756322    0.000000
      6          6           0       -2.115384   -3.175426    0.000000
      7          6           0       -0.815985   -3.636517    0.000000
      8          6           0        0.201085   -2.686426    0.000000
      9          6           0        1.347504   -0.622923    0.000000
     10          6           0       -1.260534    0.608857    0.000000
     11          6           0        1.364697    0.859145    0.000000
     12          6           0        0.000000    1.300194    0.000000
     13          6           0       -0.023991   -1.304139    0.000000
     14          6           0       -1.324596   -0.815378    0.000000
     15          1           0        3.456320    1.578665    0.000000
     16          1           0        2.799682    3.998255    0.000000
     17          1           0        0.406202    4.670046    0.000000
     18          1           0       -1.355580    2.929133    0.000000
     19          1           0       -2.152784    1.265207    0.000000
     20          1           0       -3.429822   -1.433299    0.000000
     21          1           0       -2.947974   -3.878919    0.000000
     22          1           0       -0.572717   -4.694181    0.000000
     23          1           0        1.240524   -3.011386    0.000000
     24          1           0        1.904387   -1.080442    0.859585
     25          1           0        1.904387   -1.080442   -0.859585
 ---------------------------------------------------------------------
 Rotational constants (GHZ):           2.1155138           0.4433542           0.3673314
 Standard basis: 6-311++G(d,p) (5D, 7F)
 There are   299 symmetry adapted cartesian basis functions of A'  symmetry.
 There are   100 symmetry adapted cartesian basis functions of A"  symmetry.
 There are   285 symmetry adapted basis functions of A'  symmetry.
 There are   100 symmetry adapted basis functions of A"  symmetry.
   385 basis functions,   603 primitive gaussians,   399 cartesian basis functions
    47 alpha electrons       47 beta electrons
       nuclear repulsion energy       778.6746120210 Hartrees.
 NAtoms=   25 NActive=   25 NUniq=   24 SFac= 1.09D+00 NAtFMM=   60 NAOKFM=F Big=F
 Integral buffers will be    131072 words long.
 Regular integral format.
 Two-electron integral symmetry is turned on.
 Nuclear repulsion after empirical dispersion term =      778.6736348074 Hartrees.
 One-electron integrals computed using PRISM.
 NBasis=   385 RedAO= T EigKep=  1.10D-06  NBF=   285   100
 NBsUse=   379 1.00D-06 EigRej=  8.53D-07 NBFU=   279   100
 ExpMin= 3.60D-02 ExpMax= 4.56D+03 ExpMxC= 6.82D+02 IAcc=3 IRadAn=         5 AccDes= 0.00D+00
 Harris functional with IExCor= 1009 and IRadAn=       5 diagonalized for initial guess.
 HarFok:  IExCor= 1009 AccDes= 0.00D+00 IRadAn=         5 IDoV= 1 UseB2=F ITyADJ=14
 ICtDFT=  3500011 ScaDFX=  1.000000  1.000000  1.000000  1.000000
 FoFCou: FMM=F IPFlag=           0 FMFlag=      100000 FMFlg1=           0
         NFxFlg=           0 DoJE=T BraDBF=F KetDBF=T FulRan=T
         wScrn=  0.000000 ICntrl=       500 IOpCl=  0 I1Cent=   200000004 NGrid=           0
         NMat0=    1 NMatS0=      1 NMatT0=    0 NMatD0=    1 NMtDS0=    0 NMtDT0=    0
 Petite list used in FoFCou.
 Initial guess orbital symmetries:
       Occupied  (A') (A') (A') (A') (A') (A') (A') (A') (A') (A')
                 (A') (A') (A') (A') (A') (A') (A') (A') (A') (A')
                 (A') (A') (A') (A') (A') (A') (A') (A') (A') (A')
                 (A') (A') (A") (A') (A') (A') (A') (A') (A") (A")
                 (A') (A') (A') (A") (A") (A") (A")
       Virtual   (A") (A") (A") (A") (A") (A') (A') (A') (A') (A")
                 (A") (A') (A') (A') (A") (A') (A') (A') (A') (A')
                 (A") (A") (A') (A') (A') (A") (A') (A") (A') (A')
                 (A') (A') (A') (A') (A") (A') (A') (A') (A") (A')
                 (A") (A') (A') (A") (A') (A') (A') (A') (A') (A")
                 (A') (A") (A') (A") (A') (A') (A') (A") (A') (A")
                 (A') (A') (A') (A') (A') (A') (A") (A') (A') (A")
                 (A') (A') (A') (A') (A') (A') (A') (A') (A') (A')
                 (A') (A') (A') (A') (A') (A') (A') (A') (A') (A')
                 (A') (A') (A') (A') (A') (A') (A') (A") (A') (A")
                 (A') (A") (A") (A') (A') (A") (A') (A') (A") (A')
                 (A") (A") (A') (A") (A') (A') (A") (A') (A") (A")
                 (A') (A") (A') (A') (A") (A') (A') (A') (A') (A")
                 (A') (A') (A') (A') (A') (A') (A') (A") (A') (A')
                 (A') (A') (A') (A') (A') (A') (A') (A') (A") (A')
                 (A") (A') (A") (A') (A") (A') (A') (A") (A") (A')
                 (A') (A') (A") (A") (A") (A") (A') (A') (A') (A')
                 (A') (A") (A') (A") (A') (A') (A') (A') (A') (A")
                 (A') (A') (A') (A") (A') (A") (A') (A") (A') (A")
                 (A") (A') (A') (A') (A") (A') (A') (A") (A') (A')
                 (A") (A") (A") (A') (A") (A") (A') (A') (A') (A')
                 (A') (A") (A") (A") (A') (A') (A') (A") (A') (A")
                 (A') (A') (A') (A') (A") (A') (A') (A") (A') (A")
                 (A') (A') (A") (A') (A') (A') (A") (A') (A") (A")
                 (A') (A') (A') (A") (A') (A') (A') (A') (A') (A')
                 (A") (A') (A') (A') (A") (A") (A') (A") (A') (A')
                 (A') (A") (A') (A') (A") (A') (A') (A") (A') (A')
                 (A") (A') (A') (A') (A") (A") (A') (A") (A') (A')
                 (A") (A") (A') (A") (A") (A') (A') (A') (A') (A')
                 (A') (A') (A') (A') (A') (A') (A') (A') (A') (A')
                 (A') (A') (A') (A") (A') (A') (A') (A') (A') (A')
                 (A') (A') (A') (A') (A') (A') (A') (A') (A') (A')
                 (A') (A') (A') (A') (A') (A') (A') (A') (A') (A')
                 (A') (A')
 The electronic state of the initial guess is 1-A'.
 Requested convergence on RMS density matrix=1.00D-08 within 128 cycles.
 Requested convergence on MAX density matrix=1.00D-06.
 Requested convergence on             energy=1.00D-06.
 No special actions if energy rises.
 SCF Done:  E(RM062X) =  -539.710673411     A.U. after   16 cycles
            NFock= 16  Conv=0.29D-08     -V/T= 2.0048
 DoSCS=F DFT=T ScalE2(SS,OS)=  1.000000  1.000000
 ExpMin= 3.60D-02 ExpMax= 4.56D+03 ExpMxC= 6.82D+02 IAcc=3 IRadAn=         5 AccDes= 0.00D+00
 HarFok:  IExCor=  205 AccDes= 0.00D+00 IRadAn=         5 IDoV=-2 UseB2=F ITyADJ=14
 ICtDFT= 12500011 ScaDFX=  1.000000  1.000000  1.000000  1.000000
 Range of M.O.s used for correlation:    15   379
 NBasis=   385 NAE=    47 NBE=    47 NFC=    14 NFV=     0
 NROrb=    365 NOA=    33 NOB=    33 NVA=   332 NVB=   332

 **** Warning!!: The largest alpha MO coefficient is  0.17987607D+03

 Orbital symmetries:
       Occupied  (A') (A') (A') (A') (A') (A') (A') (A') (A') (A')
                 (A') (A') (A') (A') (A') (A') (A') (A') (A') (A')
                 (A') (A') (A') (A') (A') (A') (A') (A') (A') (A')
                 (A') (A') (A") (A') (A') (A') (A') (A") (A") (A')
                 (A') (A') (A') (A") (A") (A") (A")
       Virtual   (A") (A") (A") (A") (A') (A') (A') (A") (A') (A')
                 (A') (A") (A') (A') (A") (A') (A") (A') (A') (A')
                 (A") (A") (A') (A') (A') (A") (A') (A") (A') (A")
                 (A') (A") (A') (A') (A') (A') (A') (A") (A') (A')
                 (A") (A') (A') (A") (A") (A') (A") (A') (A') (A')
                 (A") (A') (A') (A') (A") (A') (A') (A') (A') (A")
                 (A') (A') (A') (A') (A') (A') (A") (A') (A') (A')
                 (A') (A') (A') (A') (A') (A') (A') (A') (A') (A')
                 (A') (A') (A') (A') (A') (A') (A') (A') (A') (A')
                 (A') (A') (A') (A') (A") (A") (A') (A") (A') (A')
                 (A") (A') (A') (A') (A") (A') (A") (A') (A") (A")
                 (A') (A') (A') (A") (A") (A') (A") (A') (A') (A")
                 (A") (A") (A') (A') (A') (A') (A") (A') (A') (A')
                 (A') (A') (A') (A') (A') (A') (A') (A') (A') (A')
                 (A') (A') (A') (A") (A') (A') (A') (A') (A') (A')
                 (A') (A') (A") (A') (A") (A') (A") (A') (A") (A')
                 (A") (A") (A') (A') (A") (A') (A") (A") (A") (A')
                 (A') (A') (A") (A') (A") (A') (A') (A') (A") (A')
                 (A') (A") (A') (A') (A') (A") (A') (A') (A") (A")
                 (A") (A') (A') (A") (A') (A') (A") (A') (A') (A")
                 (A') (A") (A") (A') (A") (A') (A") (A') (A') (A')
                 (A') (A') (A") (A") (A") (A') (A') (A") (A') (A")
                 (A') (A') (A') (A') (A") (A') (A') (A") (A') (A")
                 (A') (A') (A") (A') (A') (A') (A") (A') (A") (A')
                 (A") (A') (A') (A") (A') (A') (A') (A') (A') (A')
                 (A') (A") (A') (A') (A') (A') (A") (A") (A") (A')
                 (A') (A') (A') (A') (A') (A") (A') (A') (A') (A')
                 (A') (A") (A") (A") (A') (A") (A') (A") (A') (A")
                 (A') (A") (A") (A') (A") (A") (A') (A') (A') (A')
                 (A') (A') (A') (A') (A') (A') (A') (A') (A') (A')
                 (A') (A') (A') (A") (A') (A') (A') (A') (A') (A')
                 (A') (A') (A') (A') (A') (A') (A') (A') (A') (A')
                 (A') (A') (A') (A') (A') (A') (A') (A') (A') (A')
                 (A') (A')
     4 initial guesses have been made.
 Convergence on wavefunction:    0.001000000000000
 Iteration     1 Dimension     4 NMult     0 NNew      4
 CISAX will form     4 AO SS matrices at one time.
 Iteration     2 Dimension     6 NMult     4 NNew      2
 Iteration     3 Dimension     8 NMult     6 NNew      2
 Iteration     4 Dimension    10 NMult     8 NNew      2
 Iteration     5 Dimension    12 NMult    10 NNew      2
 Iteration     6 Dimension    14 NMult    12 NNew      2
 ***********************************************************************
 Excited states from <AA,BB:AA,BB> singles matrix:
 ***********************************************************************
 
 Ground to excited state transition densities written to RWF  633
 Ground to excited state transition electric dipole moments (Au):
       state          X           Y           Z        Dip. S.      Osc.
         1        -0.6638      0.0288      0.0000      0.4414      0.0303
 Ground to excited state transition velocity dipole moments (Au):
       state          X           Y           Z        Dip. S.      Osc.
         1         0.0774     -0.0032      0.0000      0.0060      0.0388
 Ground to excited state transition magnetic dipole moments (Au):
       state          X           Y           Z
         1        -0.0000      0.0000     -0.0240
 Ground to excited state transition velocity quadrupole moments (Au):
       state          XX          YY          ZZ          XY          XZ          YZ
         1        -0.1315     -0.1954      0.0085     -0.1531      0.0000     -0.0000
 <0|del|b> * <b|rxdel|0> + <0|del|b> * <b|delr+rdel|0>
 Rotatory Strengths (R) in cgs (10**-40 erg-esu-cm/Gauss)
       state          XX          YY          ZZ    R(velocity)    E-M Angle
         1        -0.0000     -0.0000      0.0000     -0.0000       90.00
 1/2[<0|r|b>*<b|rxdel|0> + (<0|rxdel|b>*<b|r|0>)*]
 Rotatory Strengths (R) in cgs (10**-40 erg-esu-cm/Gauss)
       state          XX          YY          ZZ     R(length)
         1        -0.0000     -0.0000      0.0000     -0.0000
  1/2[<0|del|b>*<b|r|0> + (<0|r|b>*<b|del|0>)*] (Au)
       state          X           Y           Z        Dip. S.   Osc.(frdel)
         1        -0.0513     -0.0001      0.0000      0.0514      0.0343

 Excitation energies and oscillator strengths:
 
 Excited State   1:      Singlet-A'     2.8047 eV  442.06 nm  f=0.0303  <S**2>=0.000
      47 -> 48         0.70387
 This state for optimization and/or second-order correction.
 Total Energy, E(TD-HF/TD-DFT) =  -539.607602089    
 Copying the excited state density for this state as the 1-particle RhoCI density.
 SavETr:  write IOETrn=   770 NScale= 10 NData=  16 NLR=1 NState=    1 LETran=      28.

 **********************************************************************

            Population analysis using the SCF Density.

 **********************************************************************

 Orbital symmetries:
       Occupied  (A') (A') (A') (A') (A') (A') (A') (A') (A') (A')
                 (A') (A') (A') (A') (A') (A') (A') (A') (A') (A')
                 (A') (A') (A') (A') (A') (A') (A') (A') (A') (A')
                 (A') (A') (A") (A') (A') (A') (A') (A") (A") (A')
                 (A') (A') (A') (A") (A") (A") (A")
       Virtual   (A") (A") (A") (A") (A') (A') (A') (A") (A') (A')
                 (A') (A") (A') (A') (A") (A') (A") (A') (A') (A')
                 (A") (A") (A') (A') (A') (A") (A') (A") (A') (A")
                 (A') (A") (A') (A') (A') (A') (A') (A") (A') (A')
                 (A") (A') (A') (A") (A") (A') (A") (A') (A') (A')
                 (A") (A') (A') (A') (A") (A') (A') (A') (A') (A")
                 (A') (A') (A') (A') (A') (A') (A") (A') (A') (A')
                 (A') (A') (A') (A') (A') (A') (A') (A') (A') (A')
                 (A') (A') (A') (A') (A') (A') (A') (A') (A') (A')
                 (A') (A') (A') (A') (A") (A") (A') (A") (A') (A')
                 (A") (A') (A') (A') (A") (A') (A") (A') (A") (A")
                 (A') (A') (A') (A") (A") (A') (A") (A') (A') (A")
                 (A") (A") (A') (A') (A') (A') (A") (A') (A') (A')
                 (A') (A') (A') (A') (A') (A') (A') (A') (A') (A')
                 (A') (A') (A') (A") (A') (A') (A') (A') (A') (A')
                 (A') (A') (A") (A') (A") (A') (A") (A') (A") (A')
                 (A") (A") (A') (A') (A") (A') (A") (A") (A") (A')
                 (A') (A') (A") (A') (A") (A') (A') (A') (A") (A')
                 (A') (A") (A') (A') (A') (A") (A') (A') (A") (A")
                 (A") (A') (A') (A") (A') (A') (A") (A') (A') (A")
                 (A') (A") (A") (A') (A") (A') (A") (A') (A') (A')
                 (A') (A') (A") (A") (A") (A') (A') (A") (A') (A")
                 (A') (A') (A') (A') (A") (A') (A') (A") (A') (A")
                 (A') (A') (A") (A') (A') (A') (A") (A') (A") (A')
                 (A") (A') (A') (A") (A') (A') (A') (A') (A') (A')
                 (A') (A") (A') (A') (A') (A') (A") (A") (A") (A')
                 (A') (A') (A') (A') (A') (A") (A') (A') (A') (A')
                 (A') (A") (A") (A") (A') (A") (A') (A") (A') (A")
                 (A') (A") (A") (A') (A") (A") (A') (A') (A') (A')
                 (A') (A') (A') (A') (A') (A') (A') (A') (A') (A')
                 (A') (A') (A') (A") (A') (A') (A') (A') (A') (A')
                 (A') (A') (A') (A') (A') (A') (A') (A') (A') (A')
                 (A') (A') (A') (A') (A') (A') (A') (A') (A') (A')
                 (A') (A')
 The electronic state is 1-A'.
 Alpha  occ. eigenvalues --  -10.78249 -10.74274 -10.73042 -10.72846 -10.72437
 Alpha  occ. eigenvalues --  -10.72219 -10.71986 -10.71963 -10.71548 -10.70957
 Alpha  occ. eigenvalues --  -10.70665 -10.70245 -10.69524 -10.69378  -1.16415
 Alpha  occ. eigenvalues --   -1.12265  -1.06672  -1.05489  -1.01263  -1.00033
 Alpha  occ. eigenvalues --   -0.95376  -0.90529  -0.87231  -0.84911  -0.83524
 Alpha  occ. eigenvalues --   -0.77907  -0.75698  -0.73866  -0.69904  -0.69365
 Alpha  occ. eigenvalues --   -0.68143  -0.67610  -0.67455  -0.64415  -0.63867
 Alpha  occ. eigenvalues --   -0.62256  -0.61190  -0.59811  -0.59410  -0.58712
 Alpha  occ. eigenvalues --   -0.56150  -0.55424  -0.54586  -0.52208  -0.46667
 Alpha  occ. eigenvalues --   -0.45977  -0.44285
 Alpha virt. eigenvalues --   -0.25933  -0.14992  -0.14321  -0.12969  -0.11262
 Alpha virt. eigenvalues --   -0.10183  -0.09243  -0.08037  -0.08034  -0.07558
 Alpha virt. eigenvalues --   -0.07246  -0.07183  -0.05770  -0.05605  -0.05315
 Alpha virt. eigenvalues --   -0.03924  -0.03623  -0.03422  -0.03154  -0.02108
 Alpha virt. eigenvalues --   -0.01442  -0.00803   0.00000   0.00211   0.00602
 Alpha virt. eigenvalues --    0.00968   0.01186   0.01751   0.02151   0.02272
 Alpha virt. eigenvalues --    0.02403   0.02506   0.02603   0.03187   0.03770
 Alpha virt. eigenvalues --    0.04083   0.04311   0.04704   0.04870   0.05355
 Alpha virt. eigenvalues --    0.06043   0.06105   0.06537   0.06964   0.07183
 Alpha virt. eigenvalues --    0.07765   0.08005   0.08163   0.08464   0.08688
 Alpha virt. eigenvalues --    0.08791   0.09566   0.09724   0.10159   0.11111
 Alpha virt. eigenvalues --    0.11311   0.11471   0.11785   0.12371   0.12756
 Alpha virt. eigenvalues --    0.12763   0.13220   0.13717   0.13931   0.15145
 Alpha virt. eigenvalues --    0.16240   0.16622   0.16871   0.17302   0.17732
 Alpha virt. eigenvalues --    0.18811   0.19088   0.19597   0.19817   0.20340
 Alpha virt. eigenvalues --    0.21562   0.21768   0.22226   0.23029   0.23621
 Alpha virt. eigenvalues --    0.24045   0.24691   0.26203   0.26528   0.27507
 Alpha virt. eigenvalues --    0.27819   0.28799   0.30766   0.31364   0.35148
 Alpha virt. eigenvalues --    0.35577   0.38721   0.39889   0.40243   0.41385
 Alpha virt. eigenvalues --    0.41795   0.42325   0.43119   0.43670   0.44146
 Alpha virt. eigenvalues --    0.44254   0.45289   0.45805   0.46496   0.47757
 Alpha virt. eigenvalues --    0.48628   0.48779   0.48863   0.49142   0.50496
 Alpha virt. eigenvalues --    0.50608   0.51284   0.51684   0.51930   0.53903
 Alpha virt. eigenvalues --    0.54208   0.55073   0.55278   0.55771   0.57568
 Alpha virt. eigenvalues --    0.58574   0.60320   0.60778   0.61985   0.62710
 Alpha virt. eigenvalues --    0.63425   0.63668   0.63860   0.65159   0.67498
 Alpha virt. eigenvalues --    0.68775   0.69997   0.71238   0.71754   0.72447
 Alpha virt. eigenvalues --    0.73593   0.75541   0.76362   0.76738   0.77514
 Alpha virt. eigenvalues --    0.77810   0.78215   0.78881   0.79962   0.80203
 Alpha virt. eigenvalues --    0.81542   0.82225   0.82906   0.83270   0.85064
 Alpha virt. eigenvalues --    0.85763   0.86529   0.87210   0.89077   0.89634
 Alpha virt. eigenvalues --    0.90995   0.91651   0.92691   0.93707   0.94951
 Alpha virt. eigenvalues --    0.96407   0.96711   0.99701   1.00879   1.01581
 Alpha virt. eigenvalues --    1.01629   1.02972   1.03566   1.04845   1.07263
 Alpha virt. eigenvalues --    1.18817   1.20327   1.23314   1.24242   1.25792
 Alpha virt. eigenvalues --    1.26844   1.34130   1.34266   1.34754   1.36274
 Alpha virt. eigenvalues --    1.38675   1.40416   1.41325   1.41616   1.42390
 Alpha virt. eigenvalues --    1.42395   1.44719   1.45274   1.46327   1.46804
 Alpha virt. eigenvalues --    1.47227   1.49907   1.51403   1.52822   1.52859
 Alpha virt. eigenvalues --    1.55412   1.56918   1.57192   1.58902   1.62261
 Alpha virt. eigenvalues --    1.62293   1.62725   1.63344   1.66233   1.67285
 Alpha virt. eigenvalues --    1.68054   1.68313   1.69985   1.72505   1.74288
 Alpha virt. eigenvalues --    1.74636   1.76743   1.76885   1.78663   1.79176
 Alpha virt. eigenvalues --    1.80788   1.80954   1.82834   1.82991   1.84022
 Alpha virt. eigenvalues --    1.85207   1.85625   1.87231   1.88464   1.89280
 Alpha virt. eigenvalues --    1.89586   1.93148   1.96211   1.98087   1.98181
 Alpha virt. eigenvalues --    1.98840   2.02192   2.05832   2.07431   2.09450
 Alpha virt. eigenvalues --    2.11150   2.13911   2.15593   2.17596   2.22481
 Alpha virt. eigenvalues --    2.22552   2.26364   2.28411   2.30163   2.33115
 Alpha virt. eigenvalues --    2.33331   2.37266   2.38395   2.39068   2.40904
 Alpha virt. eigenvalues --    2.44085   2.45485   2.45669   2.47553   2.50936
 Alpha virt. eigenvalues --    2.54455   2.54475   2.56023   2.58640   2.58766
 Alpha virt. eigenvalues --    2.60051   2.60492   2.61060   2.62889   2.62983
 Alpha virt. eigenvalues --    2.64257   2.64798   2.65879   2.66613   2.68332
 Alpha virt. eigenvalues --    2.69290   2.70681   2.72464   2.74941   2.74957
 Alpha virt. eigenvalues --    2.76546   2.78608   2.79563   2.79627   2.82779
 Alpha virt. eigenvalues --    2.83398   2.85801   2.90873   2.97564   2.98567
 Alpha virt. eigenvalues --    2.99355   3.01265   3.02510   3.10366   3.12040
 Alpha virt. eigenvalues --    3.15861   3.23087   3.23771   3.28127   3.29092
 Alpha virt. eigenvalues --    3.30469   3.31840   3.41281   3.44482   3.45720
 Alpha virt. eigenvalues --    3.46396   3.49022   3.52172   3.58253   3.63854
 Alpha virt. eigenvalues --    3.68794   3.90996   3.91638   3.95333   3.95894
 Alpha virt. eigenvalues --    4.00958   4.03982   4.05057   4.10641   4.33631
 Alpha virt. eigenvalues --    4.48274   4.67455   4.68943  23.45450  23.58456
 Alpha virt. eigenvalues --   23.77248  23.81758  23.83188  23.86337  23.87011
 Alpha virt. eigenvalues --   23.88460  23.94599  23.97061  23.97639  24.01743
 Alpha virt. eigenvalues --   24.10123  24.11259
          Condensed to atoms (all electrons):
               1          2          3          4          5          6
     1  C    9.224974   0.743814  -0.524762   1.604743  -0.281298  -0.029085
     2  C    0.743814   6.675983  -0.233652  -0.863129   0.037338   0.000892
     3  C   -0.524762  -0.233652   9.958279   0.541201  -0.305350   0.017185
     4  C    1.604743  -0.863129   0.541201   9.560060  -0.858169  -0.070719
     5  C   -0.281298   0.037338  -0.305350  -0.858169  15.432623   0.205801
     6  C   -0.029085   0.000892   0.017185  -0.070719   0.205801   6.588601
     7  C    0.087595  -0.015133  -0.007908   0.056164  -2.532462   0.200689
     8  C    0.586463   0.036530  -0.262829   0.232855   4.790375  -1.117039
     9  C   -0.500088  -0.159133   0.339987  -1.083693   1.161387   0.087460
    10  C   -0.750429   0.415948  -1.789401  -2.463068  -2.050501   0.163269
    11  C    0.380108  -0.251617  -0.266289  -1.078911  -0.352991   0.103645
    12  C   -3.835343  -0.089531  -0.993803   0.270653  -1.904408  -0.338090
    13  C    0.360128  -0.336549  -0.256583   0.077564  -0.729572   0.763197
    14  C   -1.253545   0.017361  -0.024455  -0.560994  -6.533418  -0.467417
    15  H    0.379605  -0.044623  -0.004213   0.028774   0.001810  -0.000486
    16  H   -0.038013   0.410524  -0.041088   0.008630  -0.001558  -0.000028
    17  H   -0.011330  -0.026189   0.370866  -0.028937  -0.001864   0.000105
    18  H    0.053978   0.025609  -0.167511   0.437115   0.010323  -0.007361
    19  H   -0.029506   0.005038   0.107638   0.101677  -0.164059   0.039831
    20  H    0.000842   0.000312  -0.003243   0.010557   0.574313  -0.070436
    21  H   -0.000969  -0.000132   0.000529  -0.000324  -0.090709   0.404598
    22  H    0.000174  -0.000079  -0.000153   0.000894   0.006262  -0.041262
    23  H   -0.004940  -0.002025   0.003249   0.001349   0.067942   0.021992
    24  H    0.038316   0.010389  -0.003266   0.003204  -0.012692   0.002321
    25  H    0.038316   0.010389  -0.003266   0.003204  -0.012692   0.002321
               7          8          9         10         11         12
     1  C    0.087595   0.586463  -0.500088  -0.750429   0.380108  -3.835343
     2  C   -0.015133   0.036530  -0.159133   0.415948  -0.251617  -0.089531
     3  C   -0.007908  -0.262829   0.339987  -1.789401  -0.266289  -0.993803
     4  C    0.056164   0.232855  -1.083693  -2.463068  -1.078911   0.270653
     5  C   -2.532462   4.790375   1.161387  -2.050501  -0.352991  -1.904408
     6  C    0.200689  -1.117039   0.087460   0.163269   0.103645  -0.338090
     7  C   10.231598  -1.671844  -2.369778   0.242709  -0.509553   0.161598
     8  C   -1.671844  12.585723  -0.698327  -1.779493   0.863921  -2.067636
     9  C   -2.369778  -0.698327  10.407698   0.863552   1.088029  -1.687060
    10  C    0.242709  -1.779493   0.863552   9.050354   1.037829   0.069533
    11  C   -0.509553   0.863921   1.088029   1.037829  12.385414  -3.720715
    12  C    0.161598  -2.067636  -1.687060   0.069533  -3.720715  19.555476
    13  C   -0.743748  -1.217574  -0.076353   0.009864  -0.733023  -3.015739
    14  C    2.985054  -5.111045  -1.494908   2.873723  -2.383880   2.663619
    15  H    0.000230   0.012220  -0.001672  -0.015027  -0.044981   0.032818
    16  H    0.000431   0.001670   0.007276   0.005619   0.020180  -0.023848
    17  H   -0.000159  -0.002149  -0.005064  -0.002005  -0.034218   0.083748
    18  H    0.005677   0.022313  -0.043534   0.046766  -0.022443  -0.043222
    19  H   -0.007212  -0.063034   0.052203   0.317628   0.023312  -0.096406
    20  H   -0.027831   0.108575  -0.006416  -0.044898  -0.009308  -0.034971
    21  H   -0.002515  -0.057429  -0.002443   0.009711  -0.002934  -0.003099
    22  H    0.395575  -0.018008  -0.012607  -0.004013  -0.004604   0.003678
    23  H   -0.218144   0.446637   0.142531  -0.007792   0.035394  -0.021764
    24  H    0.020697   0.030980   0.342265   0.002714   0.014540  -0.061882
    25  H    0.020697   0.030980   0.342265   0.002714   0.014540  -0.061882
              13         14         15         16         17         18
     1  C    0.360128  -1.253545   0.379605  -0.038013  -0.011330   0.053978
     2  C   -0.336549   0.017361  -0.044623   0.410524  -0.026189   0.025609
     3  C   -0.256583  -0.024455  -0.004213  -0.041088   0.370866  -0.167511
     4  C    0.077564  -0.560994   0.028774   0.008630  -0.028937   0.437115
     5  C   -0.729572  -6.533418   0.001810  -0.001558  -0.001864   0.010323
     6  C    0.763197  -0.467417  -0.000486  -0.000028   0.000105  -0.007361
     7  C   -0.743748   2.985054   0.000230   0.000431  -0.000159   0.005677
     8  C   -1.217574  -5.111045   0.012220   0.001670  -0.002149   0.022313
     9  C   -0.076353  -1.494908  -0.001672   0.007276  -0.005064  -0.043534
    10  C    0.009864   2.873723  -0.015027   0.005619  -0.002005   0.046766
    11  C   -0.733023  -2.383880  -0.044981   0.020180  -0.034218  -0.022443
    12  C   -3.015739   2.663619   0.032818  -0.023848   0.083748  -0.043222
    13  C   12.152208  -0.204264  -0.008323  -0.001406  -0.005190   0.029743
    14  C   -0.204264  15.215156  -0.003703  -0.006607   0.002650  -0.021030
    15  H   -0.008323  -0.003703   0.418510  -0.008171   0.001625   0.000516
    16  H   -0.001406  -0.006607  -0.008171   0.414425  -0.006739   0.002005
    17  H   -0.005190   0.002650   0.001625  -0.006739   0.416106  -0.011218
    18  H    0.029743  -0.021030   0.000516   0.002005  -0.011218   0.495798
    19  H   -0.006566   0.070415  -0.000432  -0.000033   0.000304  -0.004678
    20  H    0.051946  -0.218279   0.000013  -0.000016  -0.000065   0.001810
    21  H    0.018047   0.073794  -0.000006  -0.000004   0.000009  -0.000353
    22  H   -0.003958   0.011821  -0.000032   0.000004  -0.000005   0.000081
    23  H   -0.086578  -0.076413   0.000340  -0.000224   0.000040  -0.000217
    24  H   -0.017919  -0.032552  -0.000337   0.000577  -0.000192   0.000205
    25  H   -0.017919  -0.032552  -0.000337   0.000577  -0.000192   0.000205
              19         20         21         22         23         24
     1  C   -0.029506   0.000842  -0.000969   0.000174  -0.004940   0.038316
     2  C    0.005038   0.000312  -0.000132  -0.000079  -0.002025   0.010389
     3  C    0.107638  -0.003243   0.000529  -0.000153   0.003249  -0.003266
     4  C    0.101677   0.010557  -0.000324   0.000894   0.001349   0.003204
     5  C   -0.164059   0.574313  -0.090709   0.006262   0.067942  -0.012692
     6  C    0.039831  -0.070436   0.404598  -0.041262   0.021992   0.002321
     7  C   -0.007212  -0.027831  -0.002515   0.395575  -0.218144   0.020697
     8  C   -0.063034   0.108575  -0.057429  -0.018008   0.446637   0.030980
     9  C    0.052203  -0.006416  -0.002443  -0.012607   0.142531   0.342265
    10  C    0.317628  -0.044898   0.009711  -0.004013  -0.007792   0.002714
    11  C    0.023312  -0.009308  -0.002934  -0.004604   0.035394   0.014540
    12  C   -0.096406  -0.034971  -0.003099   0.003678  -0.021764  -0.061882
    13  C   -0.006566   0.051946   0.018047  -0.003958  -0.086578  -0.017919
    14  C    0.070415  -0.218279   0.073794   0.011821  -0.076413  -0.032552
    15  H   -0.000432   0.000013  -0.000006  -0.000032   0.000340  -0.000337
    16  H   -0.000033  -0.000016  -0.000004   0.000004  -0.000224   0.000577
    17  H    0.000304  -0.000065   0.000009  -0.000005   0.000040  -0.000192
    18  H   -0.004678   0.001810  -0.000353   0.000081  -0.000217   0.000205
    19  H    0.446611  -0.009563   0.002218  -0.000746   0.000734   0.000618
    20  H   -0.009563   0.443284  -0.009162   0.001894   0.000052   0.000038
    21  H    0.002218  -0.009162   0.415981  -0.006294   0.001513  -0.000030
    22  H   -0.000746   0.001894  -0.006294   0.423593  -0.013938   0.000510
    23  H    0.000734   0.000052   0.001513  -0.013938   0.474893  -0.003851
    24  H    0.000618   0.000038  -0.000030   0.000510  -0.003851   0.495575
    25  H    0.000618   0.000038  -0.000030   0.000510  -0.003851  -0.082609
              25
     1  C    0.038316
     2  C    0.010389
     3  C   -0.003266
     4  C    0.003204
     5  C   -0.012692
     6  C    0.002321
     7  C    0.020697
     8  C    0.030980
     9  C    0.342265
    10  C    0.002714
    11  C    0.014540
    12  C   -0.061882
    13  C   -0.017919
    14  C   -0.032552
    15  H   -0.000337
    16  H    0.000577
    17  H   -0.000192
    18  H    0.000205
    19  H    0.000618
    20  H    0.000038
    21  H   -0.000030
    22  H    0.000510
    23  H   -0.003851
    24  H   -0.082609
    25  H    0.495575
 Mulliken charges:
               1
     1  C   -0.239749
     2  C   -0.368336
     3  C   -0.451162
     4  C    0.069297
     5  C   -0.456432
     6  C   -0.459986
     7  C   -0.302427
     8  C    0.317166
     9  C   -0.693577
    10  C   -0.205303
    11  C   -0.551447
    12  C    1.158273
    13  C   -0.001433
    14  C    0.511468
    15  H    0.255882
    16  H    0.255818
    17  H    0.260062
    18  H    0.189423
    19  H    0.213387
    20  H    0.240511
    21  H    0.250033
    22  H    0.260701
    23  H    0.243071
    24  H    0.252380
    25  H    0.252380
 Sum of Mulliken charges =   1.00000
 Mulliken charges with hydrogens summed into heavy atoms:
               1
     1  C    0.016133
     2  C   -0.112518
     3  C   -0.191101
     4  C    0.258720
     5  C   -0.215922
     6  C   -0.209952
     7  C   -0.041726
     8  C    0.560237
     9  C   -0.188818
    10  C    0.008084
    11  C   -0.551447
    12  C    1.158273
    13  C   -0.001433
    14  C    0.511468
 Electronic spatial extent (au):  <R**2>=           2867.4656
 Charge=              1.0000 electrons
 Dipole moment (field-independent basis, Debye):
    X=             -0.0860    Y=              0.2890    Z=             -0.0000  Tot=              0.3015
 Quadrupole moment (field-independent basis, Debye-Ang):
   XX=            -51.9625   YY=            -34.9202   ZZ=            -84.5692
   XY=              9.6537   XZ=              0.0000   YZ=              0.0000
 Traceless Quadrupole moment (field-independent basis, Debye-Ang):
   XX=              5.1881   YY=             22.2304   ZZ=            -27.4186
   XY=              9.6537   XZ=              0.0000   YZ=              0.0000
 Octapole moment (field-independent basis, Debye-Ang**2):
  XXX=             -0.5537  YYY=             -1.8499  ZZZ=             -0.0000  XYY=              1.7520
  XXY=              5.0301  XXZ=              0.0000  XZZ=              2.5960  YZZ=             -1.2813
  YYZ=             -0.0000  XYZ=             -0.0000
 Hexadecapole moment (field-independent basis, Debye-Ang**3):
 XXXX=           -919.8274 YYYY=          -1903.2528 ZZZZ=           -100.2759 XXXY=           -320.6755
 XXXZ=             -0.0000 YYYX=           -245.9319 YYYZ=              0.0000 ZZZX=              0.0000
 ZZZY=             -0.0000 XXYY=           -461.3599 XXZZ=           -227.5188 YYZZ=           -515.2709
 XXYZ=             -0.0000 YYXZ=             -0.0000 ZZXY=           -171.3546
 N-N= 7.786736348074D+02 E-N=-2.793316552574D+03  KE= 5.371189706243D+02
 Symmetry A'   KE= 5.225137560590D+02
 Symmetry A"   KE= 1.460521456524D+01
 Unable to Open any file for archive entry.
 1\1\GINC-GADI-CPU-CLX-0359\SP\RM062X TD-FC\6-311++G(d,p)\C14H11(1+)\TS
 1578\02-Aug-2022\0\\#n M062X/6-311++G(d,p) TD(NStates=1) EmpiricalDisp
 ersion=GD3 SP\\SP_10\\1,1\C,0,0.,2.648655,1.466431\C,0,0.,3.763508,0.5
 87989\C,0,0.,3.593861,-0.80783\C,0,0.,2.319156,-1.321538\C,0,0.,-2.559
 156,-1.501538\C,0,0.,-3.753861,-0.68783\C,0,0.,-3.663508,0.687989\C,0,
 0.,-2.388655,1.246431\C,0,0.,-0.04,1.483369\C,0,0.,0.06,-1.399189\C,0,
 0.,1.328055,0.913065\C,0,0.,1.193471,-0.514804\C,0,0.,-1.208055,0.4930
 65\C,0,0.,-1.273471,-0.894804\H,0,0.,2.816071,2.549647\H,0,0.,4.778753
 ,0.989689\H,0,0.,4.449262,-1.474349\H,0,0.,2.15355,-2.404059\H,0,0.,0.
 31,-2.478266\H,0,0.,-2.67355,-2.584059\H,0,0.,-4.729262,-1.174349\H,0,
 0.,-4.538753,1.329689\H,0,0.,-2.276071,2.329647\H,0,-0.859585,-0.24,2.
 175787\H,0,0.859585,-0.24,2.175787\\Version=ES64L-G16RevC.01\State=1-A
 '\HF=-539.7106734\RMSD=2.922e-09\PG=CS [SG(C14H9),X(H2)]\\@
 The archive entry for this job was punched.


 BLACK HOLES SUCK.
 Job cpu time:       0 days  0 hours 53 minutes 59.6 seconds.
 Elapsed time:       0 days  0 hours  1 minutes  7.8 seconds.
 File lengths (MBytes):  RWF=    460 Int=      0 D2E=      0 Chk=     15 Scr=      1
 Normal termination of Gaussian 16 at Tue Aug  2 13:42:19 2022.
