 Entering Gaussian System, Link 0=g16
 Initial command:
 /apps/gaussian/g16c01/g16/l1.exe "/jobfs/53803768.gadi-pbs/Gau-214033.inp" -scrdir="/jobfs/53803768.gadi-pbs/"
 Entering Link 1 = /apps/gaussian/g16c01/g16/l1.exe PID=    214034.
  
 Copyright (c) 1988-2019, Gaussian, Inc.  All Rights Reserved.
  
 This is part of the Gaussian(R) 16 program.  It is based on
 the Gaussian(R) 09 system (copyright 2009, Gaussian, Inc.),
 the Gaussian(R) 03 system (copyright 2003, Gaussian, Inc.),
 the Gaussian(R) 98 system (copyright 1998, Gaussian, Inc.),
 the Gaussian(R) 94 system (copyright 1995, Gaussian, Inc.),
 the Gaussian 92(TM) system (copyright 1992, Gaussian, Inc.),
 the Gaussian 90(TM) system (copyright 1990, Gaussian, Inc.),
 the Gaussian 88(TM) system (copyright 1988, Gaussian, Inc.),
 the Gaussian 86(TM) system (copyright 1986, Carnegie Mellon
 University), and the Gaussian 82(TM) system (copyright 1983,
 Carnegie Mellon University). Gaussian is a federally registered
 trademark of Gaussian, Inc.
  
 This software contains proprietary and confidential information,
 including trade secrets, belonging to Gaussian, Inc.
  
 This software is provided under written license and may be
 used, copied, transmitted, or stored only in accord with that
 written license.
  
 The following legend is applicable only to US Government
 contracts under FAR:
  
                    RESTRICTED RIGHTS LEGEND
  
 Use, reproduction and disclosure by the US Government is
 subject to restrictions as set forth in subparagraphs (a)
 and (c) of the Commercial Computer Software - Restricted
 Rights clause in FAR 52.227-19.
  
 Gaussian, Inc.
 340 Quinnipiac St., Bldg. 40, Wallingford CT 06492
  
  
 ---------------------------------------------------------------
 Warning -- This program may not be used in any manner that
 competes with the business of Gaussian, Inc. or will provide
 assistance to any competitor of Gaussian, Inc.  The licensee
 of this program is prohibited from giving any competitor of
 Gaussian, Inc. access to this program.  By using this program,
 the user acknowledges that Gaussian, Inc. is engaged in the
 business of creating and licensing software in the field of
 computational chemistry and represents and warrants to the
 licensee that it is not a competitor of Gaussian, Inc. and that
 it will not use this program in any manner prohibited above.
 ---------------------------------------------------------------
  

 Cite this work as:
 Gaussian 16, Revision C.01,
 M. J. Frisch, G. W. Trucks, H. B. Schlegel, G. E. Scuseria, 
 M. A. Robb, J. R. Cheeseman, G. Scalmani, V. Barone, 
 G. A. Petersson, H. Nakatsuji, X. Li, M. Caricato, A. V. Marenich, 
 J. Bloino, B. G. Janesko, R. Gomperts, B. Mennucci, H. P. Hratchian, 
 J. V. Ortiz, A. F. Izmaylov, J. L. Sonnenberg, D. Williams-Young, 
 F. Ding, F. Lipparini, F. Egidi, J. Goings, B. Peng, A. Petrone, 
 T. Henderson, D. Ranasinghe, V. G. Zakrzewski, J. Gao, N. Rega, 
 G. Zheng, W. Liang, M. Hada, M. Ehara, K. Toyota, R. Fukuda, 
 J. Hasegawa, M. Ishida, T. Nakajima, Y. Honda, O. Kitao, H. Nakai, 
 T. Vreven, K. Throssell, J. A. Montgomery, Jr., J. E. Peralta, 
 F. Ogliaro, M. J. Bearpark, J. J. Heyd, E. N. Brothers, K. N. Kudin, 
 V. N. Staroverov, T. A. Keith, R. Kobayashi, J. Normand, 
 K. Raghavachari, A. P. Rendell, J. C. Burant, S. S. Iyengar, 
 J. Tomasi, M. Cossi, J. M. Millam, M. Klene, C. Adamo, R. Cammi, 
 J. W. Ochterski, R. L. Martin, K. Morokuma, O. Farkas, 
 J. B. Foresman, and D. J. Fox, Gaussian, Inc., Wallingford CT, 2019.
 
 ******************************************
 Gaussian 16:  ES64L-G16RevC.01  3-Jul-2019
                 2-Aug-2022 
 ******************************************
 %NProcShared=48
 Will use up to   48 processors via shared memory.
 %mem = 190GB
 ---------------------------------------------------------------
 #n M062X/6-311++G(d,p) TD(NStates=1) EmpiricalDispersion=GD3 SP
 ---------------------------------------------------------------
 1/38=1,172=1/1;
 2/12=2,17=6,18=5,40=1/2;
 3/5=4,6=6,7=1111,11=9,25=1,30=1,74=-55,124=31/1,2,3,8;
 4//1;
 5/5=2,38=5/2;
 8/6=1,10=2,108=1/1;
 9/41=1,42=1,70=2/14;
 6/7=2,8=2,9=2,10=2/1;
 99/5=1,9=1/99;
 ----
 SP_6
 ----
 Symbolic Z-matrix:
 Charge =  1 Multiplicity = 1
 C                     0.        2.67466   1.41043 
 C                     0.        3.77951   0.50599 
 C                     0.        3.59586  -0.88583 
 C                     0.        2.29516  -1.36954 
 C                     0.       -2.43916  -1.47754 
 C                     0.       -3.69186  -0.81383 
 C                     0.       -3.71951   0.56599 
 C                     0.       -2.51866   1.27843 
 C                     0.       -0.024     1.57337 
 C                     0.        0.036    -1.30919 
 C                     0.        1.32206   0.90707 
 C                     0.        1.19747  -0.5128 
 C                     0.       -1.25006   0.65507 
 C                     0.       -1.24547  -0.7408 
 H                     0.        2.88207   2.49365 
 H                     0.        4.79675   0.90169 
 H                     0.        4.44526  -1.57035 
 H                     0.        2.09555  -2.45206 
 H                     0.        0.186    -2.38227 
 H                     0.       -2.40755  -2.56006 
 H                     0.       -4.61326  -1.39035 
 H                     0.       -4.65275   1.10569 
 H                     0.       -2.55807   2.36165 
 H                    -0.85959  -0.144     2.26579 
 H                     0.85959  -0.144     2.26579 
 
                          Input orientation:                          
 ---------------------------------------------------------------------
 Center     Atomic      Atomic             Coordinates (Angstroms)
 Number     Number       Type             X           Y           Z
 ---------------------------------------------------------------------
      1          6           0        0.000000    2.674655    1.410431
      2          6           0        0.000000    3.779508    0.505989
      3          6           0        0.000000    3.595861   -0.885830
      4          6           0        0.000000    2.295156   -1.369538
      5          6           0        0.000000   -2.439156   -1.477538
      6          6           0        0.000000   -3.691861   -0.813830
      7          6           0        0.000000   -3.719508    0.565989
      8          6           0        0.000000   -2.518655    1.278431
      9          6           0        0.000000   -0.024000    1.573369
     10          6           0        0.000000    0.036000   -1.309189
     11          6           0        0.000000    1.322055    0.907065
     12          6           0        0.000000    1.197471   -0.512804
     13          6           0        0.000000   -1.250055    0.655065
     14          6           0        0.000000   -1.245471   -0.740804
     15          1           0        0.000000    2.882071    2.493647
     16          1           0        0.000000    4.796753    0.901689
     17          1           0        0.000000    4.445262   -1.570349
     18          1           0        0.000000    2.095550   -2.452059
     19          1           0        0.000000    0.186000   -2.382266
     20          1           0        0.000000   -2.407550   -2.560059
     21          1           0        0.000000   -4.613262   -1.390349
     22          1           0        0.000000   -4.652753    1.105689
     23          1           0        0.000000   -2.558071    2.361647
     24          1           0       -0.859585   -0.144000    2.265787
     25          1           0        0.859585   -0.144000    2.265787
 ---------------------------------------------------------------------
                    Distance matrix (angstroms):
                    1          2          3          4          5
     1  C    0.000000
     2  C    1.427836   0.000000
     3  C    2.474153   1.403883   0.000000
     4  C    2.805753   2.391841   1.387734   0.000000
     5  C    5.872940   6.527340   6.063955   4.735544   0.000000
     6  C    6.743876   7.587047   7.288078   6.012752   1.417666
     7  C    6.449682   7.499256   7.458043   6.318421   2.411494
     8  C    5.194987   6.345355   6.486242   5.494044   2.757115
     9  C    2.703569   3.950440   4.376192   3.746890   3.891145
    10  C    3.789305   4.160375   3.584947   2.259962   2.480875
    11  C    1.443227   2.489967   2.895629   2.475853   4.453430
    12  C    2.425058   2.775762   2.427225   1.392446   3.762415
    13  C    3.996739   5.031772   5.085003   4.082590   2.441712
    14  C    4.471599   5.177346   4.843504   3.596018   1.402733
    15  H    1.102895   2.180866   3.454035   3.907514   6.639711
    16  H    2.182228   1.091497   2.153454   3.378825   7.617027
    17  H    3.467001   2.180460   1.090893   2.159463   6.885044
    18  H    3.905661   3.403786   2.168872   1.100770   4.638238
    19  H    4.536293   4.610349   3.723771   2.339692   2.776684
    20  H    6.449310   6.905095   6.232494   4.851060   1.082982
    21  H    7.807567   8.604341   8.224612   6.908449   2.175854
    22  H    7.333742   8.453559   8.485622   7.375648   3.401922
    23  H    5.318480   6.603664   6.958232   6.121728   3.841026
    24  H    3.068442   4.385167   4.965696   4.461385   4.474272
    25  H    3.068442   4.385167   4.965696   4.461385   4.474272
                    6          7          8          9         10
     6  C    0.000000
     7  C    1.380096   0.000000
     8  C    2.398743   1.396288   0.000000
     9  C    4.376291   3.830352   2.512029   0.000000
    10  C    3.760629   4.197634   3.636212   2.883182   0.000000
    11  C    5.301022   5.053087   3.858622   1.501940   2.562366
    12  C    4.898590   5.033933   4.125302   2.417459   1.408277
    13  C    2.849573   2.471059   1.413482   1.531827   2.347814
    14  C    2.447480   2.797958   2.387113   2.616751   1.401866
    15  H    7.359075   6.877260   5.535756   3.048304   4.749914
    16  H    8.660229   8.522875   7.325103   4.867321   5.249071
    17  H    8.172215   8.439633   7.524074   5.464180   4.416989
    18  H    6.014808   6.551604   5.933586   4.549348   2.355398
    19  H    4.183037   4.893383   4.551468   3.961205   1.083510
    20  H    2.167665   3.390193   3.840098   4.771429   2.745107
    21  H    1.086901   2.150826   3.392604   5.463053   4.649970
    22  H    2.146594   1.078064   2.141078   4.652320   5.274091
    23  H    3.371815   2.138533   1.083933   2.653846   4.494913
    24  H    4.776007   4.051229   2.711594   1.110283   3.681269
    25  H    4.776007   4.051229   2.711594   1.110283   3.681269
                   11         12         13         14         15
    11  C    0.000000
    12  C    1.425324   0.000000
    13  C    2.584425   2.711882   0.000000
    14  C    3.050846   2.453559   1.395877   0.000000
    15  H    2.225060   3.446248   4.522704   5.243880   0.000000
    16  H    3.474702   3.867250   6.051835   6.261490   2.490048
    17  H    3.986477   3.415633   6.114663   5.750877   4.354266
    18  H    3.447029   2.137114   4.565884   3.753773   5.007856
    19  H    3.479988   2.125550   3.359707   2.177959   5.571654
    20  H    5.092239   4.145772   3.417136   2.158730   7.315739
    21  H    6.364440   5.876623   3.936354   3.429858   8.441886
    22  H    5.978109   6.069979   3.432407   3.875449   7.661593
    23  H    4.143813   4.729330   2.150193   3.368697   5.441743
    24  H    2.175851   3.202967   2.134636   3.315375   3.154031
    25  H    2.175851   3.202967   2.134636   3.315375   3.154031
                   16         17         18         19         20
    16  H    0.000000
    17  H    2.496902   0.000000
    18  H    4.306289   2.509693   0.000000
    19  H    5.660689   4.335957   1.910825   0.000000
    20  H    7.992852   6.923912   4.504395   2.599637   0.000000
    21  H    9.685134   9.060312   6.792303   4.900695   2.496675
    22  H    9.451708   9.483410   7.628707   5.964844   4.298679
    23  H    7.498327   8.031642   6.695368   5.480387   4.924007
    24  H    5.197181   6.042860   5.292688   4.738373   5.399198
    25  H    5.197181   6.042860   5.292688   4.738373   5.399198
                   21         22         23         24         25
    21  H    0.000000
    22  H    2.496350   0.000000
    23  H    4.278000   2.442360   0.000000
    24  H    5.837852   4.734297   2.564335   0.000000
    25  H    5.837852   4.734297   2.564335   1.719170   0.000000
 Stoichiometry    C14H11(1+)
 Framework group  CS[SG(C14H9),X(H2)]
 Deg. of freedom    46
 Full point group                 CS      NOp   2
 Largest Abelian subgroup         CS      NOp   2
 Largest concise Abelian subgroup CS      NOp   2
                         Standard orientation:                         
 ---------------------------------------------------------------------
 Center     Atomic      Atomic             Coordinates (Angstroms)
 Number     Number       Type             X           Y           Z
 ---------------------------------------------------------------------
      1          6           0        2.348298    1.907377    0.000000
      2          6           0        1.949194    3.278301    0.000000
      3          6           0        0.596737    3.654795    0.000000
      4          6           0       -0.358022    2.647699    0.000000
      5          6           0       -2.312751   -1.665584    0.000000
      6          6           0       -2.193066   -3.078189    0.000000
      7          6           0       -0.934456   -3.644373    0.000000
      8          6           0        0.191609   -2.818782    0.000000
      9          6           0        1.440605   -0.639264    0.000000
     10          6           0       -1.187859    0.545606    0.000000
     11          6           0        1.355116    0.860242    0.000000
     12          6           0        0.000000    1.302067    0.000000
     13          6           0        0.115269   -1.407363    0.000000
     14          6           0       -1.167146   -0.856108    0.000000
     15          1           0        3.426152    1.673691    0.000000
     16          1           0        2.711898    4.059101    0.000000
     17          1           0        0.299853    4.704513    0.000000
     18          1           0       -1.432176    2.888298    0.000000
     19          1           0       -2.116315    1.104144    0.000000
     20          1           0       -3.296293   -1.212268    0.000000
     21          1           0       -3.084564   -3.699949    0.000000
     22          1           0       -0.803664   -4.714474    0.000000
     23          1           0        1.172730   -3.279556    0.000000
     24          1           0        2.030608   -1.021022    0.859585
     25          1           0        2.030608   -1.021022   -0.859585
 ---------------------------------------------------------------------
 Rotational constants (GHZ):           2.1070414           0.4426528           0.3665941
 Standard basis: 6-311++G(d,p) (5D, 7F)
 There are   299 symmetry adapted cartesian basis functions of A'  symmetry.
 There are   100 symmetry adapted cartesian basis functions of A"  symmetry.
 There are   285 symmetry adapted basis functions of A'  symmetry.
 There are   100 symmetry adapted basis functions of A"  symmetry.
   385 basis functions,   603 primitive gaussians,   399 cartesian basis functions
    47 alpha electrons       47 beta electrons
       nuclear repulsion energy       778.1661651821 Hartrees.
 NAtoms=   25 NActive=   25 NUniq=   24 SFac= 1.09D+00 NAtFMM=   60 NAOKFM=F Big=F
 Integral buffers will be    131072 words long.
 Regular integral format.
 Two-electron integral symmetry is turned on.
 Nuclear repulsion after empirical dispersion term =      778.1651831388 Hartrees.
 One-electron integrals computed using PRISM.
 NBasis=   385 RedAO= T EigKep=  1.55D-06  NBF=   285   100
 NBsUse=   379 1.00D-06 EigRej=  7.25D-07 NBFU=   279   100
 ExpMin= 3.60D-02 ExpMax= 4.56D+03 ExpMxC= 6.82D+02 IAcc=3 IRadAn=         5 AccDes= 0.00D+00
 Harris functional with IExCor= 1009 and IRadAn=       5 diagonalized for initial guess.
 HarFok:  IExCor= 1009 AccDes= 0.00D+00 IRadAn=         5 IDoV= 1 UseB2=F ITyADJ=14
 ICtDFT=  3500011 ScaDFX=  1.000000  1.000000  1.000000  1.000000
 FoFCou: FMM=F IPFlag=           0 FMFlag=      100000 FMFlg1=           0
         NFxFlg=           0 DoJE=T BraDBF=F KetDBF=T FulRan=T
         wScrn=  0.000000 ICntrl=       500 IOpCl=  0 I1Cent=   200000004 NGrid=           0
         NMat0=    1 NMatS0=      1 NMatT0=    0 NMatD0=    1 NMtDS0=    0 NMtDT0=    0
 Petite list used in FoFCou.
 Initial guess orbital symmetries:
       Occupied  (A') (A') (A') (A') (A') (A') (A') (A') (A') (A')
                 (A') (A') (A') (A') (A') (A') (A') (A') (A') (A')
                 (A') (A') (A') (A') (A') (A') (A') (A') (A') (A')
                 (A') (A') (A") (A') (A') (A') (A') (A') (A") (A")
                 (A') (A') (A') (A") (A") (A") (A")
       Virtual   (A") (A") (A") (A") (A") (A') (A') (A') (A') (A")
                 (A") (A') (A') (A') (A") (A') (A') (A') (A') (A')
                 (A") (A") (A') (A') (A') (A") (A') (A") (A') (A')
                 (A') (A') (A') (A") (A') (A') (A') (A") (A') (A")
                 (A') (A') (A') (A") (A') (A') (A') (A') (A') (A")
                 (A') (A") (A') (A") (A') (A') (A') (A") (A') (A")
                 (A') (A') (A') (A') (A') (A') (A") (A') (A') (A")
                 (A') (A') (A') (A') (A') (A') (A') (A') (A') (A')
                 (A') (A') (A') (A') (A') (A') (A') (A') (A') (A')
                 (A') (A') (A') (A') (A') (A') (A') (A") (A") (A')
                 (A') (A") (A') (A") (A') (A') (A") (A') (A") (A")
                 (A') (A") (A') (A") (A') (A') (A") (A') (A") (A")
                 (A') (A") (A') (A') (A") (A') (A') (A') (A') (A")
                 (A') (A') (A') (A') (A') (A') (A') (A') (A") (A')
                 (A') (A') (A') (A') (A') (A') (A') (A') (A') (A")
                 (A') (A") (A") (A") (A') (A') (A') (A") (A') (A")
                 (A') (A") (A') (A") (A") (A") (A') (A') (A') (A')
                 (A") (A') (A') (A") (A') (A') (A') (A') (A') (A')
                 (A") (A') (A') (A") (A') (A') (A") (A') (A") (A")
                 (A") (A') (A') (A") (A') (A') (A') (A') (A") (A')
                 (A") (A") (A") (A') (A') (A") (A') (A") (A') (A')
                 (A") (A") (A") (A') (A') (A') (A') (A") (A') (A')
                 (A") (A') (A') (A') (A") (A') (A') (A') (A") (A")
                 (A') (A') (A') (A") (A') (A') (A") (A') (A") (A')
                 (A") (A') (A') (A') (A') (A") (A') (A') (A') (A')
                 (A") (A') (A') (A') (A") (A") (A') (A") (A') (A')
                 (A') (A") (A') (A') (A") (A') (A') (A') (A") (A')
                 (A') (A") (A') (A') (A") (A') (A") (A") (A') (A')
                 (A") (A') (A") (A") (A") (A') (A') (A') (A') (A')
                 (A') (A') (A') (A') (A') (A') (A') (A') (A') (A')
                 (A') (A') (A') (A") (A') (A') (A') (A') (A') (A')
                 (A') (A') (A') (A') (A') (A') (A') (A') (A') (A')
                 (A') (A') (A') (A') (A') (A') (A') (A') (A') (A')
                 (A') (A')
 The electronic state of the initial guess is 1-A'.
 Requested convergence on RMS density matrix=1.00D-08 within 128 cycles.
 Requested convergence on MAX density matrix=1.00D-06.
 Requested convergence on             energy=1.00D-06.
 No special actions if energy rises.
 SCF Done:  E(RM062X) =  -539.737960395     A.U. after   15 cycles
            NFock= 15  Conv=0.63D-08     -V/T= 2.0048
 DoSCS=F DFT=T ScalE2(SS,OS)=  1.000000  1.000000
 ExpMin= 3.60D-02 ExpMax= 4.56D+03 ExpMxC= 6.82D+02 IAcc=3 IRadAn=         5 AccDes= 0.00D+00
 HarFok:  IExCor=  205 AccDes= 0.00D+00 IRadAn=         5 IDoV=-2 UseB2=F ITyADJ=14
 ICtDFT= 12500011 ScaDFX=  1.000000  1.000000  1.000000  1.000000
 Range of M.O.s used for correlation:    15   379
 NBasis=   385 NAE=    47 NBE=    47 NFC=    14 NFV=     0
 NROrb=    365 NOA=    33 NOB=    33 NVA=   332 NVB=   332

 **** Warning!!: The largest alpha MO coefficient is  0.17467900D+03

 Orbital symmetries:
       Occupied  (A') (A') (A') (A') (A') (A') (A') (A') (A') (A')
                 (A') (A') (A') (A') (A') (A') (A') (A') (A') (A')
                 (A') (A') (A') (A') (A') (A') (A') (A') (A') (A')
                 (A') (A') (A") (A') (A') (A') (A') (A") (A") (A')
                 (A') (A') (A') (A") (A") (A") (A")
       Virtual   (A") (A") (A") (A") (A') (A') (A') (A') (A") (A')
                 (A') (A") (A') (A') (A") (A') (A") (A') (A') (A')
                 (A") (A") (A') (A') (A') (A") (A') (A") (A') (A")
                 (A") (A') (A') (A') (A') (A') (A') (A') (A") (A')
                 (A") (A') (A') (A") (A") (A') (A") (A') (A') (A")
                 (A') (A') (A') (A') (A') (A") (A') (A') (A') (A')
                 (A") (A') (A') (A') (A') (A") (A') (A') (A') (A')
                 (A') (A') (A') (A') (A') (A') (A') (A') (A') (A')
                 (A') (A') (A') (A') (A') (A') (A') (A') (A') (A')
                 (A') (A') (A') (A') (A") (A") (A') (A") (A') (A')
                 (A") (A') (A') (A') (A") (A') (A") (A') (A") (A')
                 (A") (A') (A") (A') (A") (A') (A') (A") (A') (A")
                 (A") (A') (A") (A') (A') (A') (A") (A') (A') (A')
                 (A') (A') (A') (A') (A') (A') (A') (A') (A') (A')
                 (A') (A') (A') (A') (A") (A') (A') (A') (A') (A')
                 (A') (A') (A") (A') (A") (A') (A") (A") (A') (A')
                 (A") (A") (A') (A") (A') (A") (A") (A') (A") (A')
                 (A') (A') (A") (A") (A') (A') (A') (A') (A') (A")
                 (A') (A') (A") (A') (A') (A") (A') (A") (A") (A')
                 (A") (A') (A') (A") (A') (A') (A') (A") (A') (A')
                 (A") (A") (A") (A') (A') (A") (A') (A") (A') (A')
                 (A") (A') (A") (A') (A") (A') (A') (A') (A") (A')
                 (A") (A') (A') (A') (A") (A') (A') (A') (A") (A")
                 (A') (A') (A') (A") (A') (A') (A") (A') (A") (A')
                 (A") (A') (A') (A") (A') (A') (A') (A') (A') (A')
                 (A') (A") (A') (A') (A') (A") (A') (A") (A') (A")
                 (A') (A') (A') (A') (A') (A") (A') (A') (A') (A')
                 (A') (A") (A") (A') (A") (A") (A') (A") (A') (A")
                 (A') (A") (A") (A') (A") (A") (A') (A') (A') (A')
                 (A') (A') (A') (A') (A') (A') (A') (A') (A') (A')
                 (A') (A') (A') (A") (A') (A') (A') (A') (A') (A')
                 (A') (A') (A') (A') (A') (A') (A') (A') (A') (A')
                 (A') (A') (A') (A') (A') (A') (A') (A') (A') (A')
                 (A') (A')
     4 initial guesses have been made.
 Convergence on wavefunction:    0.001000000000000
 Iteration     1 Dimension     4 NMult     0 NNew      4
 CISAX will form     4 AO SS matrices at one time.
 Iteration     2 Dimension     6 NMult     4 NNew      2
 Iteration     3 Dimension     8 NMult     6 NNew      2
 Iteration     4 Dimension    10 NMult     8 NNew      2
 Iteration     5 Dimension    12 NMult    10 NNew      2
 Iteration     6 Dimension    14 NMult    12 NNew      2
 ***********************************************************************
 Excited states from <AA,BB:AA,BB> singles matrix:
 ***********************************************************************
 
 Ground to excited state transition densities written to RWF  633
 Ground to excited state transition electric dipole moments (Au):
       state          X           Y           Z        Dip. S.      Osc.
         1         0.6451     -0.1429      0.0000      0.4365      0.0320
 Ground to excited state transition velocity dipole moments (Au):
       state          X           Y           Z        Dip. S.      Osc.
         1        -0.0787      0.0173      0.0000      0.0065      0.0394
 Ground to excited state transition magnetic dipole moments (Au):
       state          X           Y           Z
         1         0.0000      0.0000     -0.0007
 Ground to excited state transition velocity quadrupole moments (Au):
       state          XX          YY          ZZ          XY          XZ          YZ
         1         0.0984      0.2412     -0.0092      0.1462     -0.0000      0.0000
 <0|del|b> * <b|rxdel|0> + <0|del|b> * <b|delr+rdel|0>
 Rotatory Strengths (R) in cgs (10**-40 erg-esu-cm/Gauss)
       state          XX          YY          ZZ    R(velocity)    E-M Angle
         1         0.0000     -0.0000      0.0000     -0.0000       90.00
 1/2[<0|r|b>*<b|rxdel|0> + (<0|rxdel|b>*<b|r|0>)*]
 Rotatory Strengths (R) in cgs (10**-40 erg-esu-cm/Gauss)
       state          XX          YY          ZZ     R(length)
         1        -0.0000      0.0000      0.0000     -0.0000
  1/2[<0|del|b>*<b|r|0> + (<0|r|b>*<b|del|0>)*] (Au)
       state          X           Y           Z        Dip. S.   Osc.(frdel)
         1        -0.0508     -0.0025      0.0000      0.0533      0.0355

 Excitation energies and oscillator strengths:
 
 Excited State   1:      Singlet-A'     2.9938 eV  414.13 nm  f=0.0320  <S**2>=0.000
      47 -> 48         0.70310
 This state for optimization and/or second-order correction.
 Total Energy, E(TD-HF/TD-DFT) =  -539.627938520    
 Copying the excited state density for this state as the 1-particle RhoCI density.
 SavETr:  write IOETrn=   770 NScale= 10 NData=  16 NLR=1 NState=    1 LETran=      28.

 **********************************************************************

            Population analysis using the SCF Density.

 **********************************************************************

 Orbital symmetries:
       Occupied  (A') (A') (A') (A') (A') (A') (A') (A') (A') (A')
                 (A') (A') (A') (A') (A') (A') (A') (A') (A') (A')
                 (A') (A') (A') (A') (A') (A') (A') (A') (A') (A')
                 (A') (A') (A") (A') (A') (A') (A') (A") (A") (A')
                 (A') (A') (A') (A") (A") (A") (A")
       Virtual   (A") (A") (A") (A") (A') (A') (A') (A') (A") (A')
                 (A') (A") (A') (A') (A") (A') (A") (A') (A') (A')
                 (A") (A") (A') (A') (A') (A") (A') (A") (A') (A")
                 (A") (A') (A') (A') (A') (A') (A') (A') (A") (A')
                 (A") (A') (A') (A") (A") (A') (A") (A') (A') (A")
                 (A') (A') (A') (A') (A') (A") (A') (A') (A') (A')
                 (A") (A') (A') (A') (A') (A") (A') (A') (A') (A')
                 (A') (A') (A') (A') (A') (A') (A') (A') (A') (A')
                 (A') (A') (A') (A') (A') (A') (A') (A') (A') (A')
                 (A') (A') (A') (A') (A") (A") (A') (A") (A') (A')
                 (A") (A') (A') (A') (A") (A') (A") (A') (A") (A')
                 (A") (A') (A") (A') (A") (A') (A') (A") (A') (A")
                 (A") (A') (A") (A') (A') (A') (A") (A') (A') (A')
                 (A') (A') (A') (A') (A') (A') (A') (A') (A') (A')
                 (A') (A') (A') (A') (A") (A') (A') (A') (A') (A')
                 (A') (A') (A") (A') (A") (A') (A") (A") (A') (A')
                 (A") (A") (A') (A") (A') (A") (A") (A') (A") (A')
                 (A') (A') (A") (A") (A') (A') (A') (A') (A') (A")
                 (A') (A') (A") (A') (A') (A") (A') (A") (A") (A')
                 (A") (A') (A') (A") (A') (A') (A') (A") (A') (A')
                 (A") (A") (A") (A') (A') (A") (A') (A") (A') (A')
                 (A") (A') (A") (A') (A") (A') (A') (A') (A") (A')
                 (A") (A') (A') (A') (A") (A') (A') (A') (A") (A")
                 (A') (A') (A') (A") (A') (A') (A") (A') (A") (A')
                 (A") (A') (A') (A") (A') (A') (A') (A') (A') (A')
                 (A') (A") (A') (A') (A') (A") (A') (A") (A') (A")
                 (A') (A') (A') (A') (A') (A") (A') (A') (A') (A')
                 (A') (A") (A") (A') (A") (A") (A') (A") (A') (A")
                 (A') (A") (A") (A') (A") (A") (A') (A') (A') (A')
                 (A') (A') (A') (A') (A') (A') (A') (A') (A') (A')
                 (A') (A') (A') (A") (A') (A') (A') (A') (A') (A')
                 (A') (A') (A') (A') (A') (A') (A') (A') (A') (A')
                 (A') (A') (A') (A') (A') (A') (A') (A') (A') (A')
                 (A') (A')
 The electronic state is 1-A'.
 Alpha  occ. eigenvalues --  -10.76868 -10.74500 -10.73411 -10.72043 -10.72038
 Alpha  occ. eigenvalues --  -10.72002 -10.71957 -10.71713 -10.71604 -10.71401
 Alpha  occ. eigenvalues --  -10.70774 -10.69860 -10.69856 -10.69837  -1.16411
 Alpha  occ. eigenvalues --   -1.12205  -1.06704  -1.05313  -1.01112  -1.00071
 Alpha  occ. eigenvalues --   -0.95465  -0.90712  -0.86829  -0.85432  -0.83583
 Alpha  occ. eigenvalues --   -0.78012  -0.75622  -0.73961  -0.70009  -0.69251
 Alpha  occ. eigenvalues --   -0.67928  -0.67795  -0.67434  -0.64193  -0.63767
 Alpha  occ. eigenvalues --   -0.62812  -0.61757  -0.60181  -0.59445  -0.58805
 Alpha  occ. eigenvalues --   -0.56580  -0.55293  -0.54693  -0.52213  -0.46595
 Alpha  occ. eigenvalues --   -0.45881  -0.44697
 Alpha virt. eigenvalues --   -0.25644  -0.14917  -0.14184  -0.13040  -0.11197
 Alpha virt. eigenvalues --   -0.10132  -0.09248  -0.08002  -0.07951  -0.07499
 Alpha virt. eigenvalues --   -0.07160  -0.06994  -0.05735  -0.05615  -0.05299
 Alpha virt. eigenvalues --   -0.03869  -0.03629  -0.03405  -0.03147  -0.02139
 Alpha virt. eigenvalues --   -0.01424  -0.00822   0.00091   0.00157   0.00590
 Alpha virt. eigenvalues --    0.00966   0.01420   0.01820   0.02339   0.02394
 Alpha virt. eigenvalues --    0.02475   0.02485   0.02621   0.03135   0.03790
 Alpha virt. eigenvalues --    0.04210   0.04397   0.04754   0.05009   0.05349
 Alpha virt. eigenvalues --    0.06051   0.06166   0.06555   0.06784   0.07364
 Alpha virt. eigenvalues --    0.07388   0.08052   0.08166   0.08636   0.08667
 Alpha virt. eigenvalues --    0.08799   0.09527   0.09679   0.10664   0.10713
 Alpha virt. eigenvalues --    0.10924   0.11491   0.12042   0.12525   0.12879
 Alpha virt. eigenvalues --    0.12920   0.13223   0.13790   0.15009   0.15401
 Alpha virt. eigenvalues --    0.16417   0.16679   0.16860   0.17139   0.18201
 Alpha virt. eigenvalues --    0.18305   0.18682   0.19019   0.19564   0.20508
 Alpha virt. eigenvalues --    0.21355   0.21417   0.22397   0.22908   0.23323
 Alpha virt. eigenvalues --    0.24116   0.24755   0.25594   0.26687   0.27212
 Alpha virt. eigenvalues --    0.28260   0.28856   0.30883   0.31639   0.35405
 Alpha virt. eigenvalues --    0.35696   0.38884   0.39232   0.41004   0.41282
 Alpha virt. eigenvalues --    0.41869   0.41908   0.43074   0.43448   0.43867
 Alpha virt. eigenvalues --    0.44263   0.45193   0.46016   0.47131   0.47722
 Alpha virt. eigenvalues --    0.48555   0.48602   0.49009   0.49199   0.50257
 Alpha virt. eigenvalues --    0.50448   0.50976   0.52117   0.52621   0.53908
 Alpha virt. eigenvalues --    0.54539   0.54990   0.55304   0.55800   0.57608
 Alpha virt. eigenvalues --    0.58455   0.59398   0.60576   0.61821   0.62315
 Alpha virt. eigenvalues --    0.63557   0.63832   0.64038   0.65711   0.67291
 Alpha virt. eigenvalues --    0.68795   0.69863   0.71189   0.71620   0.72567
 Alpha virt. eigenvalues --    0.74302   0.75257   0.76299   0.76955   0.77024
 Alpha virt. eigenvalues --    0.77415   0.78122   0.78393   0.80184   0.80699
 Alpha virt. eigenvalues --    0.81451   0.82067   0.82712   0.83666   0.84668
 Alpha virt. eigenvalues --    0.85959   0.87308   0.88113   0.89449   0.90032
 Alpha virt. eigenvalues --    0.90591   0.91097   0.92583   0.93055   0.94310
 Alpha virt. eigenvalues --    0.97000   0.97062   1.00428   1.01322   1.01875
 Alpha virt. eigenvalues --    1.02707   1.03221   1.04026   1.04977   1.06762
 Alpha virt. eigenvalues --    1.19529   1.21296   1.22753   1.26286   1.26622
 Alpha virt. eigenvalues --    1.30884   1.33800   1.34750   1.35519   1.37184
 Alpha virt. eigenvalues --    1.39052   1.40122   1.41129   1.41203   1.42220
 Alpha virt. eigenvalues --    1.43146   1.43787   1.46172   1.46422   1.46545
 Alpha virt. eigenvalues --    1.47240   1.47817   1.51482   1.53006   1.54704
 Alpha virt. eigenvalues --    1.55855   1.56234   1.56466   1.57660   1.62407
 Alpha virt. eigenvalues --    1.62570   1.62738   1.63544   1.65803   1.67723
 Alpha virt. eigenvalues --    1.67988   1.69166   1.69401   1.72262   1.74378
 Alpha virt. eigenvalues --    1.76529   1.76942   1.77946   1.78635   1.78935
 Alpha virt. eigenvalues --    1.80962   1.81806   1.83369   1.83667   1.84048
 Alpha virt. eigenvalues --    1.84533   1.85637   1.86478   1.87676   1.90044
 Alpha virt. eigenvalues --    1.90391   1.92415   1.95968   1.96078   1.98838
 Alpha virt. eigenvalues --    1.99596   2.01704   2.04587   2.06059   2.08333
 Alpha virt. eigenvalues --    2.11093   2.13891   2.16955   2.17920   2.21252
 Alpha virt. eigenvalues --    2.22432   2.27286   2.28533   2.32052   2.32678
 Alpha virt. eigenvalues --    2.34176   2.37025   2.39174   2.40693   2.43404
 Alpha virt. eigenvalues --    2.43844   2.45854   2.45995   2.49195   2.51374
 Alpha virt. eigenvalues --    2.53951   2.54313   2.56560   2.57554   2.57923
 Alpha virt. eigenvalues --    2.59132   2.60244   2.61278   2.63043   2.63279
 Alpha virt. eigenvalues --    2.64266   2.64624   2.65413   2.65722   2.67451
 Alpha virt. eigenvalues --    2.68177   2.70326   2.73209   2.73763   2.74512
 Alpha virt. eigenvalues --    2.76613   2.77419   2.79386   2.80854   2.82431
 Alpha virt. eigenvalues --    2.82733   2.86036   2.91347   2.94751   2.98278
 Alpha virt. eigenvalues --    2.99795   3.02012   3.07943   3.09768   3.12792
 Alpha virt. eigenvalues --    3.19043   3.22321   3.24472   3.28104   3.28813
 Alpha virt. eigenvalues --    3.30775   3.32093   3.39864   3.43540   3.45043
 Alpha virt. eigenvalues --    3.46101   3.48815   3.54041   3.61244   3.65453
 Alpha virt. eigenvalues --    3.68329   3.90621   3.93111   3.94933   3.95569
 Alpha virt. eigenvalues --    4.02343   4.03925   4.06294   4.12445   4.33356
 Alpha virt. eigenvalues --    4.54506   4.66611   4.69904  23.44941  23.60120
 Alpha virt. eigenvalues --   23.80724  23.80965  23.82573  23.86478  23.89432
 Alpha virt. eigenvalues --   23.91553  23.93638  23.97350  23.98686  24.02790
 Alpha virt. eigenvalues --   24.07892  24.10144
          Condensed to atoms (all electrons):
               1          2          3          4          5          6
     1  C    9.367624   0.405876  -0.161571   2.453508  -0.406441  -0.054976
     2  C    0.405876   6.493917   0.265820  -0.968043  -0.041983  -0.002471
     3  C   -0.161571   0.265820   8.087009   0.941229  -0.157483   0.039269
     4  C    2.453508  -0.968043   0.941229  11.413259  -1.043377  -0.062506
     5  C   -0.406441  -0.041983  -0.157483  -1.043377  12.604653  -0.091571
     6  C   -0.054976  -0.002471   0.039269  -0.062506  -0.091571   6.936545
     7  C    0.086530   0.001824  -0.020204  -0.033605  -1.127776  -0.017622
     8  C    0.266794   0.014204  -0.167067  -0.174011   3.874993  -0.998183
     9  C   -0.430011  -0.147822   0.411060  -0.672305   0.140072   0.263507
    10  C   -1.572500   0.134000  -0.942035  -3.000549  -2.432278   0.066217
    11  C   -0.884584   0.046126   0.391740  -1.973531  -1.131845   0.141620
    12  C   -2.425257   0.092393  -2.190379   0.338998  -0.613804  -0.307623
    13  C    0.276726  -0.127362  -0.380218  -1.511478  -0.522515   1.184184
    14  C   -1.108792  -0.148548   0.062906  -0.358936  -3.284422  -0.935791
    15  H    0.388004  -0.070046  -0.001234   0.036217   0.002338   0.000033
    16  H   -0.047652   0.398813  -0.035038  -0.000668  -0.002195  -0.000099
    17  H   -0.007557  -0.019682   0.354758  -0.035707   0.000636   0.000387
    18  H    0.058939   0.014261  -0.119966   0.464935  -0.000507  -0.008311
    19  H   -0.044094   0.004660   0.094873   0.052762  -0.118307   0.068973
    20  H    0.000791   0.000108  -0.006170  -0.004353   0.531178  -0.091422
    21  H   -0.000952  -0.000244   0.000784   0.001813  -0.086852   0.386974
    22  H    0.000015   0.000194  -0.000408  -0.001678   0.023399  -0.042884
    23  H   -0.000606  -0.002494   0.002765   0.005361   0.029474   0.019961
    24  H    0.025208   0.011596  -0.003329  -0.006291  -0.004432  -0.000507
    25  H    0.025208   0.011596  -0.003329  -0.006291  -0.004432  -0.000507
               7          8          9         10         11         12
     1  C    0.086530   0.266794  -0.430011  -1.572500  -0.884584  -2.425257
     2  C    0.001824   0.014204  -0.147822   0.134000   0.046126   0.092393
     3  C   -0.020204  -0.167067   0.411060  -0.942035   0.391740  -2.190379
     4  C   -0.033605  -0.174011  -0.672305  -3.000549  -1.973531   0.338998
     5  C   -1.127776   3.874993   0.140072  -2.432278  -1.131845  -0.613804
     6  C   -0.017622  -0.998183   0.263507   0.066217   0.141620  -0.307623
     7  C    7.947876  -0.245149  -0.973721   0.137390  -0.252469  -0.154470
     8  C   -0.245149  11.097951  -0.702186  -1.984033   0.313249  -1.053693
     9  C   -0.973721  -0.702186   8.929194   0.607242   0.982796  -2.064888
    10  C    0.137390  -1.984033   0.607242   9.455511   1.288975   1.077735
    11  C   -0.252469   0.313249   0.982796   1.288975  12.608619  -2.897602
    12  C   -0.154470  -1.053693  -2.064888   1.077735  -2.897602  16.218687
    13  C   -0.690341  -1.014560   0.762293   0.348955   0.512929  -3.871814
    14  C    1.402539  -3.866953  -1.386275   2.514804  -2.712069   3.117281
    15  H   -0.001224   0.006577   0.008163  -0.019678  -0.042357   0.029957
    16  H    0.000423   0.000473   0.008743   0.002575   0.032946  -0.008527
    17  H   -0.000436  -0.001314  -0.004857   0.008473  -0.032953   0.074971
    18  H    0.004253   0.011912  -0.036996   0.009814  -0.059985  -0.001410
    19  H   -0.022298  -0.075576   0.080860   0.399582   0.086359  -0.151831
    20  H    0.003307   0.091077  -0.018020  -0.026858  -0.021819  -0.016080
    21  H   -0.001665  -0.061438  -0.005520   0.019654  -0.003146   0.003092
    22  H    0.389079  -0.001489   0.001645  -0.010029  -0.000117  -0.006111
    23  H   -0.131107   0.406225   0.065479  -0.007522   0.010541  -0.004668
    24  H    0.011798   0.034143   0.355797   0.003105   0.020026  -0.050623
    25  H    0.011798   0.034143   0.355797   0.003105   0.020026  -0.050623
              13         14         15         16         17         18
     1  C    0.276726  -1.108792   0.388004  -0.047652  -0.007557   0.058939
     2  C   -0.127362  -0.148548  -0.070046   0.398813  -0.019682   0.014261
     3  C   -0.380218   0.062906  -0.001234  -0.035038   0.354758  -0.119966
     4  C   -1.511478  -0.358936   0.036217  -0.000668  -0.035707   0.464935
     5  C   -0.522515  -3.284422   0.002338  -0.002195   0.000636  -0.000507
     6  C    1.184184  -0.935791   0.000033  -0.000099   0.000387  -0.008311
     7  C   -0.690341   1.402539  -0.001224   0.000423  -0.000436   0.004253
     8  C   -1.014560  -3.866953   0.006577   0.000473  -0.001314   0.011912
     9  C    0.762293  -1.386275   0.008163   0.008743  -0.004857  -0.036996
    10  C    0.348955   2.514804  -0.019678   0.002575   0.008473   0.009814
    11  C    0.512929  -2.712069  -0.042357   0.032946  -0.032953  -0.059985
    12  C   -3.871814   3.117281   0.029957  -0.008527   0.074971  -0.001410
    13  C   12.656361  -1.190676  -0.009829   0.000699  -0.005589  -0.002213
    14  C   -1.190676  13.543204   0.001495  -0.008615   0.006844  -0.022206
    15  H   -0.009829   0.001495   0.421282  -0.009332   0.001922   0.000307
    16  H    0.000699  -0.008615  -0.009332   0.418680  -0.006407   0.001744
    17  H   -0.005589   0.006844   0.001922  -0.006407   0.414860  -0.009946
    18  H   -0.002213  -0.022206   0.000307   0.001744  -0.009946   0.480784
    19  H    0.007628   0.004800   0.000020  -0.000384   0.001459  -0.010652
    20  H    0.013126  -0.124830  -0.000037  -0.000021  -0.000123   0.002208
    21  H   -0.011939   0.103549   0.000010  -0.000005   0.000016  -0.000400
    22  H   -0.000477  -0.013767  -0.000066   0.000005  -0.000008   0.000069
    23  H   -0.034119  -0.038524   0.000292  -0.000141   0.000040  -0.000238
    24  H   -0.015958  -0.043803  -0.000684   0.000523  -0.000167   0.000166
    25  H   -0.015958  -0.043803  -0.000684   0.000523  -0.000167   0.000166
              19         20         21         22         23         24
     1  C   -0.044094   0.000791  -0.000952   0.000015  -0.000606   0.025208
     2  C    0.004660   0.000108  -0.000244   0.000194  -0.002494   0.011596
     3  C    0.094873  -0.006170   0.000784  -0.000408   0.002765  -0.003329
     4  C    0.052762  -0.004353   0.001813  -0.001678   0.005361  -0.006291
     5  C   -0.118307   0.531178  -0.086852   0.023399   0.029474  -0.004432
     6  C    0.068973  -0.091422   0.386974  -0.042884   0.019961  -0.000507
     7  C   -0.022298   0.003307  -0.001665   0.389079  -0.131107   0.011798
     8  C   -0.075576   0.091077  -0.061438  -0.001489   0.406225   0.034143
     9  C    0.080860  -0.018020  -0.005520   0.001645   0.065479   0.355797
    10  C    0.399582  -0.026858   0.019654  -0.010029  -0.007522   0.003105
    11  C    0.086359  -0.021819  -0.003146  -0.000117   0.010541   0.020026
    12  C   -0.151831  -0.016080   0.003092  -0.006111  -0.004668  -0.050623
    13  C    0.007628   0.013126  -0.011939  -0.000477  -0.034119  -0.015958
    14  C    0.004800  -0.124830   0.103549  -0.013767  -0.038524  -0.043803
    15  H    0.000020  -0.000037   0.000010  -0.000066   0.000292  -0.000684
    16  H   -0.000384  -0.000021  -0.000005   0.000005  -0.000141   0.000523
    17  H    0.001459  -0.000123   0.000016  -0.000008   0.000040  -0.000167
    18  H   -0.010652   0.002208  -0.000400   0.000069  -0.000238   0.000166
    19  H    0.487558  -0.013811   0.003413  -0.001246   0.001140   0.000244
    20  H   -0.013811   0.453833  -0.009663   0.002373  -0.000174   0.000148
    21  H    0.003413  -0.009663   0.416598  -0.007115   0.002015  -0.000105
    22  H   -0.001246   0.002373  -0.007115   0.426909  -0.012458   0.000581
    23  H    0.001140  -0.000174   0.002015  -0.012458   0.451296  -0.001631
    24  H    0.000244   0.000148  -0.000105   0.000581  -0.001631   0.492469
    25  H    0.000244   0.000148  -0.000105   0.000581  -0.001631  -0.079861
              25
     1  C    0.025208
     2  C    0.011596
     3  C   -0.003329
     4  C   -0.006291
     5  C   -0.004432
     6  C   -0.000507
     7  C    0.011798
     8  C    0.034143
     9  C    0.355797
    10  C    0.003105
    11  C    0.020026
    12  C   -0.050623
    13  C   -0.015958
    14  C   -0.043803
    15  H   -0.000684
    16  H    0.000523
    17  H   -0.000167
    18  H    0.000166
    19  H    0.000244
    20  H    0.000148
    21  H   -0.000105
    22  H    0.000581
    23  H   -0.001631
    24  H   -0.079861
    25  H    0.492469
 Mulliken charges:
               1
     1  C   -0.210228
     2  C   -0.366694
     3  C   -0.463782
     4  C    0.145247
     5  C   -0.136522
     6  C   -0.493196
     7  C   -0.324731
     8  C    0.193912
     9  C   -0.530046
    10  C   -0.081655
    11  C   -0.443475
    12  C    0.916288
    13  C   -0.357854
    14  C    0.530590
    15  H    0.258554
    16  H    0.252936
    17  H    0.260546
    18  H    0.223273
    19  H    0.143621
    20  H    0.235083
    21  H    0.251231
    22  H    0.253005
    23  H    0.240724
    24  H    0.251588
    25  H    0.251588
 Sum of Mulliken charges =   1.00000
 Mulliken charges with hydrogens summed into heavy atoms:
               1
     1  C    0.048326
     2  C   -0.113759
     3  C   -0.203235
     4  C    0.368520
     5  C    0.098560
     6  C   -0.241965
     7  C   -0.071726
     8  C    0.434636
     9  C   -0.026870
    10  C    0.061966
    11  C   -0.443475
    12  C    0.916288
    13  C   -0.357854
    14  C    0.530590
 Electronic spatial extent (au):  <R**2>=           2873.0283
 Charge=              1.0000 electrons
 Dipole moment (field-independent basis, Debye):
    X=             -0.1433    Y=              0.3072    Z=              0.0000  Tot=              0.3389
 Quadrupole moment (field-independent basis, Debye-Ang):
   XX=            -52.1189   YY=            -34.3888   ZZ=            -84.4710
   XY=              9.6473   XZ=              0.0000   YZ=             -0.0000
 Traceless Quadrupole moment (field-independent basis, Debye-Ang):
   XX=              4.8740   YY=             22.6041   ZZ=            -27.4781
   XY=              9.6473   XZ=              0.0000   YZ=             -0.0000
 Octapole moment (field-independent basis, Debye-Ang**2):
  XXX=             -1.5666  YYY=              1.6425  ZZZ=              0.0000  XYY=              0.7611
  XXY=              3.2718  XXZ=              0.0000  XZZ=              2.3436  YZZ=             -1.6244
  YYZ=              0.0000  XYZ=             -0.0000
 Hexadecapole moment (field-independent basis, Debye-Ang**3):
 XXXX=           -907.5066 YYYY=          -1913.3336 ZZZZ=           -100.0307 XXXY=           -315.0498
 XXXZ=              0.0000 YYYX=           -236.0645 YYYZ=              0.0000 ZZZX=              0.0000
 ZZZY=              0.0000 XXYY=           -464.2867 XXZZ=           -222.2281 YYZZ=           -520.8235
 XXYZ=             -0.0000 YYXZ=              0.0000 ZZXY=           -166.9689
 N-N= 7.781651831388D+02 E-N=-2.792396243549D+03  KE= 5.371793565749D+02
 Symmetry A'   KE= 5.225680638512D+02
 Symmetry A"   KE= 1.461129272377D+01
 Unable to Open any file for archive entry.
 1\1\GINC-GADI-CPU-CLX-0359\SP\RM062X TD-FC\6-311++G(d,p)\C14H11(1+)\TS
 1578\02-Aug-2022\0\\#n M062X/6-311++G(d,p) TD(NStates=1) EmpiricalDisp
 ersion=GD3 SP\\SP_6\\1,1\C,0,0.,2.674655,1.410431\C,0,0.,3.779508,0.50
 5989\C,0,0.,3.595861,-0.88583\C,0,0.,2.295156,-1.369538\C,0,0.,-2.4391
 56,-1.477538\C,0,0.,-3.691861,-0.81383\C,0,0.,-3.719508,0.565989\C,0,0
 .,-2.518655,1.278431\C,0,0.,-0.024,1.573369\C,0,0.,0.036,-1.309189\C,0
 ,0.,1.322055,0.907065\C,0,0.,1.197471,-0.512804\C,0,0.,-1.250055,0.655
 065\C,0,0.,-1.245471,-0.740804\H,0,0.,2.882071,2.493647\H,0,0.,4.79675
 3,0.901689\H,0,0.,4.445262,-1.570349\H,0,0.,2.09555,-2.452059\H,0,0.,0
 .186,-2.382266\H,0,0.,-2.40755,-2.560059\H,0,0.,-4.613262,-1.390349\H,
 0,0.,-4.652753,1.105689\H,0,0.,-2.558071,2.361647\H,0,-0.859585,-0.144
 ,2.265787\H,0,0.859585,-0.144,2.265787\\Version=ES64L-G16RevC.01\State
 =1-A'\HF=-539.7379604\RMSD=6.329e-09\PG=CS [SG(C14H9),X(H2)]\\@
 The archive entry for this job was punched.


 IT WAS AN ACT OF DESPARATION. FOR SIX YEARS I HAD STRUGGLED WITH THE
 BLACKBODY THEORY. I KNEW THE PROBLEM WAS FUNDAMENTAL, AND I KNEW
 THE ANSWER. I HAD TO FIND A THEORETICAL EXPLANATION AT ANY COST,
 EXCEPT FOR THE INVIOLABLITY OF THE TWO LAWS OF THERMODYNAMICS.
   -- MAX PLANCK, 1931
 Job cpu time:       0 days  0 hours 51 minutes 42.9 seconds.
 Elapsed time:       0 days  0 hours  1 minutes  4.8 seconds.
 File lengths (MBytes):  RWF=    460 Int=      0 D2E=      0 Chk=     15 Scr=      1
 Normal termination of Gaussian 16 at Tue Aug  2 13:14:42 2022.
