 Entering Gaussian System, Link 0=g16
 Initial command:
 /apps/gaussian/g16c01/g16/l1.exe "/jobfs/53803768.gadi-pbs/Gau-188069.inp" -scrdir="/jobfs/53803768.gadi-pbs/"
 Entering Link 1 = /apps/gaussian/g16c01/g16/l1.exe PID=    188070.
  
 Copyright (c) 1988-2019, Gaussian, Inc.  All Rights Reserved.
  
 This is part of the Gaussian(R) 16 program.  It is based on
 the Gaussian(R) 09 system (copyright 2009, Gaussian, Inc.),
 the Gaussian(R) 03 system (copyright 2003, Gaussian, Inc.),
 the Gaussian(R) 98 system (copyright 1998, Gaussian, Inc.),
 the Gaussian(R) 94 system (copyright 1995, Gaussian, Inc.),
 the Gaussian 92(TM) system (copyright 1992, Gaussian, Inc.),
 the Gaussian 90(TM) system (copyright 1990, Gaussian, Inc.),
 the Gaussian 88(TM) system (copyright 1988, Gaussian, Inc.),
 the Gaussian 86(TM) system (copyright 1986, Carnegie Mellon
 University), and the Gaussian 82(TM) system (copyright 1983,
 Carnegie Mellon University). Gaussian is a federally registered
 trademark of Gaussian, Inc.
  
 This software contains proprietary and confidential information,
 including trade secrets, belonging to Gaussian, Inc.
  
 This software is provided under written license and may be
 used, copied, transmitted, or stored only in accord with that
 written license.
  
 The following legend is applicable only to US Government
 contracts under FAR:
  
                    RESTRICTED RIGHTS LEGEND
  
 Use, reproduction and disclosure by the US Government is
 subject to restrictions as set forth in subparagraphs (a)
 and (c) of the Commercial Computer Software - Restricted
 Rights clause in FAR 52.227-19.
  
 Gaussian, Inc.
 340 Quinnipiac St., Bldg. 40, Wallingford CT 06492
  
  
 ---------------------------------------------------------------
 Warning -- This program may not be used in any manner that
 competes with the business of Gaussian, Inc. or will provide
 assistance to any competitor of Gaussian, Inc.  The licensee
 of this program is prohibited from giving any competitor of
 Gaussian, Inc. access to this program.  By using this program,
 the user acknowledges that Gaussian, Inc. is engaged in the
 business of creating and licensing software in the field of
 computational chemistry and represents and warrants to the
 licensee that it is not a competitor of Gaussian, Inc. and that
 it will not use this program in any manner prohibited above.
 ---------------------------------------------------------------
  

 Cite this work as:
 Gaussian 16, Revision C.01,
 M. J. Frisch, G. W. Trucks, H. B. Schlegel, G. E. Scuseria, 
 M. A. Robb, J. R. Cheeseman, G. Scalmani, V. Barone, 
 G. A. Petersson, H. Nakatsuji, X. Li, M. Caricato, A. V. Marenich, 
 J. Bloino, B. G. Janesko, R. Gomperts, B. Mennucci, H. P. Hratchian, 
 J. V. Ortiz, A. F. Izmaylov, J. L. Sonnenberg, D. Williams-Young, 
 F. Ding, F. Lipparini, F. Egidi, J. Goings, B. Peng, A. Petrone, 
 T. Henderson, D. Ranasinghe, V. G. Zakrzewski, J. Gao, N. Rega, 
 G. Zheng, W. Liang, M. Hada, M. Ehara, K. Toyota, R. Fukuda, 
 J. Hasegawa, M. Ishida, T. Nakajima, Y. Honda, O. Kitao, H. Nakai, 
 T. Vreven, K. Throssell, J. A. Montgomery, Jr., J. E. Peralta, 
 F. Ogliaro, M. J. Bearpark, J. J. Heyd, E. N. Brothers, K. N. Kudin, 
 V. N. Staroverov, T. A. Keith, R. Kobayashi, J. Normand, 
 K. Raghavachari, A. P. Rendell, J. C. Burant, S. S. Iyengar, 
 J. Tomasi, M. Cossi, J. M. Millam, M. Klene, C. Adamo, R. Cammi, 
 J. W. Ochterski, R. L. Martin, K. Morokuma, O. Farkas, 
 J. B. Foresman, and D. J. Fox, Gaussian, Inc., Wallingford CT, 2019.
 
 ******************************************
 Gaussian 16:  ES64L-G16RevC.01  3-Jul-2019
                 2-Aug-2022 
 ******************************************
 %NProcShared=48
 Will use up to   48 processors via shared memory.
 %mem = 190GB
 ---------------------------------------------------------------
 #n M062X/6-311++G(d,p) TD(NStates=1) EmpiricalDispersion=GD3 SP
 ---------------------------------------------------------------
 1/38=1,172=1/1;
 2/12=2,17=6,18=5,40=1/2;
 3/5=4,6=6,7=1111,11=9,25=1,30=1,74=-55,124=31/1,2,3,8;
 4//1;
 5/5=2,38=5/2;
 8/6=1,10=2,108=1/1;
 9/41=1,42=1,70=2/14;
 6/7=2,8=2,9=2,10=2/1;
 99/5=1,9=1/99;
 -----
 SP_-2
 -----
 Symbolic Z-matrix:
 Charge =  1 Multiplicity = 1
 C                     0.        2.51866   1.33043 
 C                     0.        3.71551   0.61399 
 C                     0.        3.67986  -0.76983 
 C                     0.        2.43916  -1.43354 
 C                     0.       -2.39116  -1.39754 
 C                     0.       -3.64786  -0.79383 
 C                     0.       -3.73551   0.59399 
 C                     0.       -2.57066   1.37443 
 C                     0.        0.008     1.51337 
 C                     0.       -0.012    -1.36919 
 C                     0.        1.26206   0.68707 
 C                     0.        1.23747  -0.7168 
 C                     0.       -1.28606   0.77107 
 C                     0.       -1.22147  -0.6408 
 H                     0.        2.55007   2.41365 
 H                     0.        4.65675   1.14169 
 H                     0.        4.59726  -1.34635 
 H                     0.        2.41155  -2.51606 
 H                     0.       -0.062    -2.44627 
 H                     0.       -2.30755  -2.48006 
 H                     0.       -4.54126  -1.40635 
 H                     0.       -4.70475   1.07369 
 H                     0.       -2.65807   2.45765 
 H                    -0.85959   0.048     2.20579 
 H                     0.85959   0.048     2.20579 
 
                          Input orientation:                          
 ---------------------------------------------------------------------
 Center     Atomic      Atomic             Coordinates (Angstroms)
 Number     Number       Type             X           Y           Z
 ---------------------------------------------------------------------
      1          6           0        0.000000    2.518655    1.330431
      2          6           0        0.000000    3.715508    0.613989
      3          6           0        0.000000    3.679861   -0.769830
      4          6           0        0.000000    2.439156   -1.433538
      5          6           0        0.000000   -2.391156   -1.397538
      6          6           0        0.000000   -3.647861   -0.793830
      7          6           0        0.000000   -3.735508    0.593989
      8          6           0        0.000000   -2.570655    1.374431
      9          6           0        0.000000    0.008000    1.513369
     10          6           0        0.000000   -0.012000   -1.369189
     11          6           0        0.000000    1.262055    0.687065
     12          6           0        0.000000    1.237471   -0.716804
     13          6           0        0.000000   -1.286055    0.771065
     14          6           0        0.000000   -1.221471   -0.640804
     15          1           0        0.000000    2.550071    2.413647
     16          1           0        0.000000    4.656753    1.141689
     17          1           0        0.000000    4.597262   -1.346349
     18          1           0        0.000000    2.411550   -2.516059
     19          1           0        0.000000   -0.062000   -2.446266
     20          1           0        0.000000   -2.307550   -2.480059
     21          1           0        0.000000   -4.541262   -1.406349
     22          1           0        0.000000   -4.704753    1.073689
     23          1           0        0.000000   -2.658071    2.457647
     24          1           0       -0.859585    0.048000    2.205787
     25          1           0        0.859585    0.048000    2.205787
 ---------------------------------------------------------------------
                    Distance matrix (angstroms):
                    1          2          3          4          5
     1  C    0.000000
     2  C    1.394900   0.000000
     3  C    2.399895   1.384278   0.000000
     4  C    2.765112   2.412766   1.407074   0.000000
     5  C    5.616766   6.429431   6.103381   4.830446   0.000000
     6  C    6.522147   7.496743   7.327761   6.120539   1.394192
     7  C    6.297373   7.451043   7.539741   6.499026   2.402803
     8  C    5.089500   6.331992   6.608086   5.743074   2.777775
     9  C    2.517311   3.815036   4.323836   3.820312   3.772178
    10  C    3.700292   4.222240   3.740196   2.452001   2.379325
    11  C    1.411724   2.454541   2.822823   2.425391   4.206129
    12  C    2.415078   2.812770   2.442966   1.399198   3.691928
    13  C    3.845609   5.004029   5.199488   4.328680   2.433945
    14  C    4.227802   5.093944   4.903030   3.745480   1.393129
    15  H    1.083671   2.144064   3.378010   3.848784   6.240261
    16  H    2.146412   1.079078   2.146677   3.398460   7.491375
    17  H    3.389065   2.149515   1.083512   2.159867   6.988605
    18  H    3.847981   3.390797   2.158223   1.082873   4.931235
    19  H    4.574191   4.861556   4.100239   2.698407   2.554368
    20  H    6.149153   6.771289   6.226875   4.860702   1.085745
    21  H    7.571816   8.500354   8.245727   6.980471   2.150124
    22  H    7.227969   8.432800   8.584889   7.571104   3.385217
    23  H    5.298029   6.634876   7.112383   6.412725   3.864414
    24  H    2.758491   4.089416   4.773217   4.438603   4.435349
    25  H    2.758491   4.089416   4.773217   4.438603   4.435349
                    6          7          8          9         10
     6  C    0.000000
     7  C    1.390584   0.000000
     8  C    2.421101   1.402131   0.000000
     9  C    4.323018   3.854752   2.582395   0.000000
    10  C    3.681104   4.209344   3.751555   2.882627   0.000000
    11  C    5.128384   4.998430   3.893859   1.501810   2.418966
    12  C    4.885939   5.142830   4.344547   2.546619   1.409533
    13  C    2.833200   2.455845   1.419242   1.491842   2.490764
    14  C    2.431211   2.800910   2.425174   2.480335   1.411866
    15  H    6.978701   6.543673   5.225113   2.696781   4.568813
    16  H    8.527183   8.410114   7.231154   4.663588   5.301110
    17  H    8.263615   8.555698   7.666921   5.407339   4.609319
    18  H    6.299407   6.889029   6.321256   4.691838   2.681213
    19  H    3.948284   4.768418   4.570676   3.960254   1.078237
    20  H    2.154020   3.389518   3.863459   4.616193   2.550212
    21  H    1.083210   2.156523   3.408230   5.405602   4.529414
    22  H    2.145844   1.081456   2.155184   4.733219   5.290518
    23  H    3.398792   2.152694   1.086738   2.828356   4.652565
    24  H    4.836939   4.201394   2.878783   1.104504   3.677355
    25  H    4.836939   4.201394   2.878783   1.104504   3.677355
                   11         12         13         14         15
    11  C    0.000000
    12  C    1.404084   0.000000
    13  C    2.549494   2.929494   0.000000
    14  C    2.816228   2.460116   1.413345   0.000000
    15  H    2.154082   3.394502   4.173001   4.853267   0.000000
    16  H    3.425005   3.891720   5.954354   6.142540   2.460891
    17  H    3.906197   3.418263   6.252748   5.861352   4.281187
    18  H    3.403137   2.148437   4.947471   4.088450   4.931652
    19  H    3.401600   2.163253   3.442315   2.145709   5.517397
    20  H    4.772081   3.959323   3.407823   2.135984   6.895277
    21  H    6.169349   5.819727   3.916313   3.406915   8.054773
    22  H    5.979321   6.206117   3.432066   3.882363   7.377531
    23  H    4.301436   5.025175   2.174163   3.415292   5.208328
    24  H    2.125872   3.270362   2.139396   3.233191   2.653762
    25  H    2.125872   3.270362   2.139396   3.233191   2.653762
                   16         17         18         19         20
    16  H    0.000000
    17  H    2.488749   0.000000
    18  H    4.291859   2.479024   0.000000
    19  H    5.927904   4.787331   2.474534   0.000000
    20  H    7.849750   6.997266   4.719237   2.245804   0.000000
    21  H    9.544421   9.138721   7.040813   4.598393   2.478371
    22  H    9.361753   9.611663   7.970449   5.826254   4.286690
    23  H    7.432254   8.192084   7.102028   5.548689   4.950132
    24  H    4.807473   5.835438   5.349868   4.732080   5.314570
    25  H    4.807473   5.835438   5.349868   4.732080   5.314570
                   21         22         23         24         25
    21  H    0.000000
    22  H    2.485421   0.000000
    23  H    4.298473   2.470677   0.000000
    24  H    5.903197   4.960765   2.850463   0.000000
    25  H    5.903197   4.960765   2.850463   1.719170   0.000000
 Stoichiometry    C14H11(1+)
 Framework group  CS[SG(C14H9),X(H2)]
 Deg. of freedom    46
 Full point group                 CS      NOp   2
 Largest Abelian subgroup         CS      NOp   2
 Largest concise Abelian subgroup CS      NOp   2
                         Standard orientation:                         
 ---------------------------------------------------------------------
 Center     Atomic      Atomic             Coordinates (Angstroms)
 Number     Number       Type             X           Y           Z
 ---------------------------------------------------------------------
      1          6           0        2.506583   -1.354005    0.000000
      2          6           0        3.709751   -0.648220    0.000000
      3          6           0        3.686393    0.735861    0.000000
      4          6           0        2.451631    1.410560    0.000000
      5          6           0       -2.378810    1.417454    0.000000
      6          6           0       -3.640827    0.824929    0.000000
      7          6           0       -3.740794   -0.562057    0.000000
      8          6           0       -2.582917   -1.352812    0.000000
      9          6           0       -0.005597   -1.514642    0.000000
     10          6           0        0.000000    1.367980    0.000000
     11          6           0        1.255746   -0.699506    0.000000
     12          6           0        1.243629    0.704525    0.000000
     13          6           0       -1.293010   -0.760877    0.000000
     14          6           0       -1.215891    0.650363    0.000000
     15          1           0        2.528379   -2.437458    0.000000
     16          1           0        4.646273   -1.184257    0.000000
     17          1           0        4.608877    1.304211    0.000000
     18          1           0        2.433638    2.493284    0.000000
     19          1           0       -0.040434    2.445458    0.000000
     20          1           0       -2.285595    2.499190    0.000000
     21          1           0       -4.528753    1.445357    0.000000
     22          1           0       -4.714260   -1.033131    0.000000
     23          1           0       -2.679948   -2.435209    0.000000
     24          1           0        0.028253   -2.207388    0.859585
     25          1           0        0.028253   -2.207388   -0.859585
 ---------------------------------------------------------------------
 Rotational constants (GHZ):           2.1285226           0.4438476           0.3680610
 Standard basis: 6-311++G(d,p) (5D, 7F)
 There are   299 symmetry adapted cartesian basis functions of A'  symmetry.
 There are   100 symmetry adapted cartesian basis functions of A"  symmetry.
 There are   285 symmetry adapted basis functions of A'  symmetry.
 There are   100 symmetry adapted basis functions of A"  symmetry.
   385 basis functions,   603 primitive gaussians,   399 cartesian basis functions
    47 alpha electrons       47 beta electrons
       nuclear repulsion energy       780.3191081714 Hartrees.
 NAtoms=   25 NActive=   25 NUniq=   24 SFac= 1.09D+00 NAtFMM=   60 NAOKFM=F Big=F
 Integral buffers will be    131072 words long.
 Regular integral format.
 Two-electron integral symmetry is turned on.
 Nuclear repulsion after empirical dispersion term =      780.3181271601 Hartrees.
 One-electron integrals computed using PRISM.
 NBasis=   385 RedAO= T EigKep=  1.37D-06  NBF=   285   100
 NBsUse=   379 1.00D-06 EigRej=  7.37D-07 NBFU=   279   100
 ExpMin= 3.60D-02 ExpMax= 4.56D+03 ExpMxC= 6.82D+02 IAcc=3 IRadAn=         5 AccDes= 0.00D+00
 Harris functional with IExCor= 1009 and IRadAn=       5 diagonalized for initial guess.
 HarFok:  IExCor= 1009 AccDes= 0.00D+00 IRadAn=         5 IDoV= 1 UseB2=F ITyADJ=14
 ICtDFT=  3500011 ScaDFX=  1.000000  1.000000  1.000000  1.000000
 FoFCou: FMM=F IPFlag=           0 FMFlag=      100000 FMFlg1=           0
         NFxFlg=           0 DoJE=T BraDBF=F KetDBF=T FulRan=T
         wScrn=  0.000000 ICntrl=       500 IOpCl=  0 I1Cent=   200000004 NGrid=           0
         NMat0=    1 NMatS0=      1 NMatT0=    0 NMatD0=    1 NMtDS0=    0 NMtDT0=    0
 Petite list used in FoFCou.
 Initial guess orbital symmetries:
       Occupied  (A') (A') (A') (A') (A') (A') (A') (A') (A') (A')
                 (A') (A') (A') (A') (A') (A') (A') (A') (A') (A')
                 (A') (A') (A') (A') (A') (A') (A') (A') (A') (A')
                 (A') (A') (A") (A') (A') (A') (A') (A') (A") (A')
                 (A") (A') (A') (A") (A") (A") (A")
       Virtual   (A") (A") (A") (A") (A") (A') (A') (A') (A') (A")
                 (A") (A') (A') (A') (A") (A') (A') (A') (A') (A')
                 (A") (A") (A') (A') (A') (A") (A') (A") (A') (A')
                 (A') (A') (A') (A") (A') (A') (A") (A') (A') (A")
                 (A') (A') (A') (A") (A') (A') (A') (A') (A') (A")
                 (A') (A") (A') (A") (A') (A') (A') (A") (A') (A")
                 (A') (A') (A') (A') (A') (A') (A") (A') (A') (A")
                 (A') (A') (A') (A') (A') (A') (A') (A') (A') (A')
                 (A') (A') (A') (A') (A') (A') (A') (A') (A') (A')
                 (A') (A') (A') (A') (A') (A') (A') (A") (A") (A')
                 (A') (A") (A') (A") (A') (A') (A") (A") (A') (A")
                 (A") (A') (A') (A') (A") (A') (A') (A") (A') (A")
                 (A") (A") (A') (A') (A') (A") (A') (A') (A') (A')
                 (A") (A') (A') (A') (A') (A') (A') (A") (A') (A')
                 (A') (A') (A') (A') (A') (A') (A') (A') (A') (A")
                 (A') (A") (A") (A") (A') (A') (A') (A") (A') (A")
                 (A") (A') (A") (A") (A') (A") (A') (A') (A') (A')
                 (A") (A') (A') (A") (A') (A') (A') (A') (A') (A')
                 (A") (A') (A') (A') (A") (A") (A') (A') (A") (A")
                 (A') (A") (A') (A") (A') (A') (A') (A") (A') (A')
                 (A") (A") (A") (A') (A') (A") (A') (A") (A') (A')
                 (A") (A") (A') (A") (A') (A') (A") (A') (A') (A')
                 (A") (A') (A') (A') (A") (A') (A') (A') (A") (A")
                 (A') (A') (A') (A") (A') (A') (A") (A') (A") (A')
                 (A") (A') (A') (A') (A') (A") (A') (A') (A') (A")
                 (A') (A') (A") (A') (A") (A') (A') (A") (A') (A')
                 (A") (A') (A') (A") (A') (A') (A') (A") (A') (A')
                 (A") (A') (A') (A') (A") (A") (A') (A') (A") (A')
                 (A") (A') (A") (A") (A") (A') (A') (A') (A') (A')
                 (A') (A') (A') (A') (A') (A') (A') (A') (A') (A')
                 (A') (A') (A') (A") (A') (A') (A') (A') (A') (A')
                 (A') (A') (A') (A') (A') (A') (A') (A') (A') (A')
                 (A') (A') (A') (A') (A') (A') (A') (A') (A') (A')
                 (A') (A')
 The electronic state of the initial guess is 1-A'.
 Requested convergence on RMS density matrix=1.00D-08 within 128 cycles.
 Requested convergence on MAX density matrix=1.00D-06.
 Requested convergence on             energy=1.00D-06.
 No special actions if energy rises.
 SCF Done:  E(RM062X) =  -539.759478117     A.U. after   15 cycles
            NFock= 15  Conv=0.74D-08     -V/T= 2.0043
 DoSCS=F DFT=T ScalE2(SS,OS)=  1.000000  1.000000
 ExpMin= 3.60D-02 ExpMax= 4.56D+03 ExpMxC= 6.82D+02 IAcc=3 IRadAn=         5 AccDes= 0.00D+00
 HarFok:  IExCor=  205 AccDes= 0.00D+00 IRadAn=         5 IDoV=-2 UseB2=F ITyADJ=14
 ICtDFT= 12500011 ScaDFX=  1.000000  1.000000  1.000000  1.000000
 Range of M.O.s used for correlation:    15   379
 NBasis=   385 NAE=    47 NBE=    47 NFC=    14 NFV=     0
 NROrb=    365 NOA=    33 NOB=    33 NVA=   332 NVB=   332

 **** Warning!!: The largest alpha MO coefficient is  0.13217289D+03

 Orbital symmetries:
       Occupied  (A') (A') (A') (A') (A') (A') (A') (A') (A') (A')
                 (A') (A') (A') (A') (A') (A') (A') (A') (A') (A')
                 (A') (A') (A') (A') (A') (A') (A') (A') (A') (A')
                 (A') (A') (A") (A') (A') (A') (A') (A") (A") (A')
                 (A') (A') (A') (A") (A") (A") (A")
       Virtual   (A") (A") (A") (A") (A') (A') (A') (A') (A") (A')
                 (A') (A") (A') (A') (A") (A') (A") (A') (A') (A')
                 (A") (A") (A') (A') (A') (A") (A') (A") (A') (A')
                 (A") (A') (A") (A') (A') (A') (A') (A') (A") (A')
                 (A") (A') (A') (A") (A") (A') (A") (A') (A") (A')
                 (A') (A') (A') (A') (A") (A') (A') (A') (A') (A')
                 (A') (A") (A') (A') (A') (A") (A') (A') (A') (A')
                 (A') (A') (A') (A') (A') (A') (A') (A') (A') (A')
                 (A') (A') (A') (A') (A') (A') (A') (A') (A') (A')
                 (A') (A') (A') (A') (A") (A') (A") (A") (A') (A")
                 (A') (A') (A') (A') (A") (A") (A') (A") (A') (A")
                 (A') (A') (A") (A') (A") (A') (A') (A") (A') (A")
                 (A") (A') (A") (A') (A') (A') (A") (A') (A') (A')
                 (A') (A') (A') (A') (A') (A') (A') (A') (A') (A')
                 (A') (A') (A') (A') (A") (A') (A') (A') (A') (A')
                 (A') (A') (A") (A') (A") (A') (A") (A") (A') (A")
                 (A") (A') (A') (A") (A") (A") (A') (A") (A') (A')
                 (A') (A') (A") (A') (A") (A') (A') (A') (A') (A")
                 (A') (A') (A') (A") (A') (A") (A') (A') (A") (A")
                 (A") (A') (A') (A") (A') (A") (A') (A') (A') (A')
                 (A") (A") (A") (A') (A') (A') (A") (A") (A') (A')
                 (A') (A") (A") (A") (A') (A') (A') (A") (A') (A')
                 (A") (A') (A') (A') (A") (A') (A') (A') (A") (A")
                 (A') (A') (A') (A") (A') (A') (A') (A") (A") (A')
                 (A") (A') (A') (A') (A") (A') (A') (A') (A') (A')
                 (A') (A") (A') (A') (A') (A") (A") (A') (A") (A')
                 (A') (A') (A') (A') (A') (A") (A') (A') (A') (A')
                 (A') (A") (A') (A") (A") (A") (A') (A") (A') (A")
                 (A') (A") (A") (A') (A") (A") (A') (A') (A') (A')
                 (A') (A') (A') (A') (A') (A') (A') (A') (A') (A')
                 (A') (A') (A') (A") (A') (A') (A') (A') (A') (A')
                 (A') (A') (A') (A') (A') (A') (A') (A') (A') (A')
                 (A') (A') (A') (A') (A') (A') (A') (A') (A') (A')
                 (A') (A')
     4 initial guesses have been made.
 Convergence on wavefunction:    0.001000000000000
 Iteration     1 Dimension     4 NMult     0 NNew      4
 CISAX will form     4 AO SS matrices at one time.
 Iteration     2 Dimension     6 NMult     4 NNew      2
 Iteration     3 Dimension     8 NMult     6 NNew      2
 Iteration     4 Dimension    10 NMult     8 NNew      2
 Iteration     5 Dimension    12 NMult    10 NNew      2
 Iteration     6 Dimension    14 NMult    12 NNew      2
 ***********************************************************************
 Excited states from <AA,BB:AA,BB> singles matrix:
 ***********************************************************************
 
 Ground to excited state transition densities written to RWF  633
 Ground to excited state transition electric dipole moments (Au):
       state          X           Y           Z        Dip. S.      Osc.
         1        -0.0562     -0.6504     -0.0000      0.4261      0.0305
 Ground to excited state transition velocity dipole moments (Au):
       state          X           Y           Z        Dip. S.      Osc.
         1         0.0068      0.0775     -0.0000      0.0061      0.0376
 Ground to excited state transition magnetic dipole moments (Au):
       state          X           Y           Z
         1         0.0000      0.0000      0.0009
 Ground to excited state transition velocity quadrupole moments (Au):
       state          XX          YY          ZZ          XY          XZ          YZ
         1         0.3119      0.0242     -0.0097      0.0157     -0.0000     -0.0000
 <0|del|b> * <b|rxdel|0> + <0|del|b> * <b|delr+rdel|0>
 Rotatory Strengths (R) in cgs (10**-40 erg-esu-cm/Gauss)
       state          XX          YY          ZZ    R(velocity)    E-M Angle
         1         0.0000      0.0000     -0.0000      0.0000       90.00
 1/2[<0|r|b>*<b|rxdel|0> + (<0|rxdel|b>*<b|r|0>)*]
 Rotatory Strengths (R) in cgs (10**-40 erg-esu-cm/Gauss)
       state          XX          YY          ZZ     R(length)
         1         0.0000      0.0000      0.0000      0.0000
  1/2[<0|del|b>*<b|r|0> + (<0|r|b>*<b|del|0>)*] (Au)
       state          X           Y           Z        Dip. S.   Osc.(frdel)
         1        -0.0004     -0.0504      0.0000      0.0508      0.0339

 Excitation energies and oscillator strengths:
 
 Excited State   1:      Singlet-A'     2.9204 eV  424.54 nm  f=0.0305  <S**2>=0.000
      47 -> 48         0.70372
 This state for optimization and/or second-order correction.
 Total Energy, E(TD-HF/TD-DFT) =  -539.652153719    
 Copying the excited state density for this state as the 1-particle RhoCI density.
 SavETr:  write IOETrn=   770 NScale= 10 NData=  16 NLR=1 NState=    1 LETran=      28.

 **********************************************************************

            Population analysis using the SCF Density.

 **********************************************************************

 Orbital symmetries:
       Occupied  (A') (A') (A') (A') (A') (A') (A') (A') (A') (A')
                 (A') (A') (A') (A') (A') (A') (A') (A') (A') (A')
                 (A') (A') (A') (A') (A') (A') (A') (A') (A') (A')
                 (A') (A') (A") (A') (A') (A') (A') (A") (A") (A')
                 (A') (A') (A') (A") (A") (A") (A")
       Virtual   (A") (A") (A") (A") (A') (A') (A') (A') (A") (A')
                 (A') (A") (A') (A') (A") (A') (A") (A') (A') (A')
                 (A") (A") (A') (A') (A') (A") (A') (A") (A') (A')
                 (A") (A') (A") (A') (A') (A') (A') (A') (A") (A')
                 (A") (A') (A') (A") (A") (A') (A") (A') (A") (A')
                 (A') (A') (A') (A') (A") (A') (A') (A') (A') (A')
                 (A') (A") (A') (A') (A') (A") (A') (A') (A') (A')
                 (A') (A') (A') (A') (A') (A') (A') (A') (A') (A')
                 (A') (A') (A') (A') (A') (A') (A') (A') (A') (A')
                 (A') (A') (A') (A') (A") (A') (A") (A") (A') (A")
                 (A') (A') (A') (A') (A") (A") (A') (A") (A') (A")
                 (A') (A') (A") (A') (A") (A') (A') (A") (A') (A")
                 (A") (A') (A") (A') (A') (A') (A") (A') (A') (A')
                 (A') (A') (A') (A') (A') (A') (A') (A') (A') (A')
                 (A') (A') (A') (A') (A") (A') (A') (A') (A') (A')
                 (A') (A') (A") (A') (A") (A') (A") (A") (A') (A")
                 (A") (A') (A') (A") (A") (A") (A') (A") (A') (A')
                 (A') (A') (A") (A') (A") (A') (A') (A') (A') (A")
                 (A') (A') (A') (A") (A') (A") (A') (A') (A") (A")
                 (A") (A') (A') (A") (A') (A") (A') (A') (A') (A')
                 (A") (A") (A") (A') (A') (A') (A") (A") (A') (A')
                 (A') (A") (A") (A") (A') (A') (A') (A") (A') (A')
                 (A") (A') (A') (A') (A") (A') (A') (A') (A") (A")
                 (A') (A') (A') (A") (A') (A') (A') (A") (A") (A')
                 (A") (A') (A') (A') (A") (A') (A') (A') (A') (A')
                 (A') (A") (A') (A') (A') (A") (A") (A') (A") (A')
                 (A') (A') (A') (A') (A') (A") (A') (A') (A') (A')
                 (A') (A") (A') (A") (A") (A") (A') (A") (A') (A")
                 (A') (A") (A") (A') (A") (A") (A') (A') (A') (A')
                 (A') (A') (A') (A') (A') (A') (A') (A') (A') (A')
                 (A') (A') (A') (A") (A') (A') (A') (A') (A') (A')
                 (A') (A') (A') (A') (A') (A') (A') (A') (A') (A')
                 (A') (A') (A') (A') (A') (A') (A') (A') (A') (A')
                 (A') (A')
 The electronic state is 1-A'.
 Alpha  occ. eigenvalues --  -10.77154 -10.73681 -10.73393 -10.72167 -10.72108
 Alpha  occ. eigenvalues --  -10.71439 -10.71383 -10.71282 -10.71245 -10.70973
 Alpha  occ. eigenvalues --  -10.70511 -10.70015 -10.69721 -10.69621  -1.16431
 Alpha  occ. eigenvalues --   -1.12410  -1.06905  -1.05555  -1.01258  -1.00182
 Alpha  occ. eigenvalues --   -0.95715  -0.91000  -0.86513  -0.85816  -0.83787
 Alpha  occ. eigenvalues --   -0.78315  -0.75897  -0.74335  -0.69721  -0.69227
 Alpha  occ. eigenvalues --   -0.68333  -0.68074  -0.67837  -0.64534  -0.64056
 Alpha  occ. eigenvalues --   -0.63208  -0.61951  -0.60166  -0.59626  -0.59034
 Alpha  occ. eigenvalues --   -0.56826  -0.55202  -0.54882  -0.52376  -0.46635
 Alpha  occ. eigenvalues --   -0.45998  -0.44666
 Alpha virt. eigenvalues --   -0.25882  -0.14705  -0.14087  -0.12850  -0.11166
 Alpha virt. eigenvalues --   -0.10093  -0.09238  -0.07979  -0.07956  -0.07477
 Alpha virt. eigenvalues --   -0.07155  -0.07060  -0.05667  -0.05591  -0.05310
 Alpha virt. eigenvalues --   -0.03840  -0.03644  -0.03310  -0.03138  -0.02160
 Alpha virt. eigenvalues --   -0.01387  -0.00905   0.00173   0.00477   0.00592
 Alpha virt. eigenvalues --    0.01038   0.01477   0.01914   0.02309   0.02415
 Alpha virt. eigenvalues --    0.02463   0.02629   0.02663   0.03297   0.03735
 Alpha virt. eigenvalues --    0.04235   0.04500   0.04716   0.05107   0.05430
 Alpha virt. eigenvalues --    0.06043   0.06300   0.06585   0.06913   0.07368
 Alpha virt. eigenvalues --    0.07697   0.08124   0.08386   0.08586   0.08865
 Alpha virt. eigenvalues --    0.09398   0.09603   0.09827   0.10712   0.11016
 Alpha virt. eigenvalues --    0.11039   0.11947   0.12096   0.12849   0.12921
 Alpha virt. eigenvalues --    0.13258   0.13362   0.14003   0.14865   0.15794
 Alpha virt. eigenvalues --    0.16366   0.16401   0.17251   0.17548   0.17973
 Alpha virt. eigenvalues --    0.18160   0.18820   0.19194   0.19576   0.19919
 Alpha virt. eigenvalues --    0.21476   0.21646   0.22780   0.23047   0.23333
 Alpha virt. eigenvalues --    0.24068   0.24786   0.25682   0.27035   0.27402
 Alpha virt. eigenvalues --    0.28892   0.29032   0.30397   0.31616   0.35826
 Alpha virt. eigenvalues --    0.36178   0.38404   0.39311   0.41265   0.41317
 Alpha virt. eigenvalues --    0.41995   0.42124   0.42996   0.43634   0.44225
 Alpha virt. eigenvalues --    0.44736   0.44967   0.46083   0.46355   0.47898
 Alpha virt. eigenvalues --    0.48480   0.48809   0.49142   0.50191   0.50430
 Alpha virt. eigenvalues --    0.51155   0.51426   0.52154   0.52990   0.54078
 Alpha virt. eigenvalues --    0.54313   0.54593   0.55592   0.55777   0.57532
 Alpha virt. eigenvalues --    0.58302   0.58652   0.61176   0.62057   0.62257
 Alpha virt. eigenvalues --    0.63487   0.63754   0.64596   0.65430   0.66912
 Alpha virt. eigenvalues --    0.69954   0.70600   0.70970   0.72086   0.72904
 Alpha virt. eigenvalues --    0.75303   0.75588   0.76291   0.76926   0.76965
 Alpha virt. eigenvalues --    0.77726   0.77888   0.78115   0.80256   0.80275
 Alpha virt. eigenvalues --    0.81545   0.81841   0.82287   0.83457   0.84892
 Alpha virt. eigenvalues --    0.86973   0.87743   0.88568   0.89408   0.90358
 Alpha virt. eigenvalues --    0.90765   0.90998   0.92785   0.94513   0.96712
 Alpha virt. eigenvalues --    0.96979   0.98383   1.00548   1.01555   1.02791
 Alpha virt. eigenvalues --    1.03138   1.03361   1.04840   1.05765   1.08075
 Alpha virt. eigenvalues --    1.21541   1.22682   1.24302   1.25391   1.27502
 Alpha virt. eigenvalues --    1.29429   1.31743   1.34691   1.36502   1.36899
 Alpha virt. eigenvalues --    1.38768   1.40196   1.41086   1.42560   1.43606
 Alpha virt. eigenvalues --    1.43686   1.44343   1.45050   1.46249   1.46710
 Alpha virt. eigenvalues --    1.47392   1.47837   1.51890   1.53380   1.55464
 Alpha virt. eigenvalues --    1.56016   1.56257   1.56773   1.57596   1.61805
 Alpha virt. eigenvalues --    1.63149   1.63396   1.63594   1.65699   1.68359
 Alpha virt. eigenvalues --    1.68513   1.68520   1.69805   1.74165   1.75068
 Alpha virt. eigenvalues --    1.77448   1.77644   1.79402   1.79759   1.79812
 Alpha virt. eigenvalues --    1.81799   1.83052   1.83739   1.84268   1.84390
 Alpha virt. eigenvalues --    1.84534   1.85653   1.86304   1.87948   1.91077
 Alpha virt. eigenvalues --    1.93000   1.93638   1.95373   1.97372   1.98435
 Alpha virt. eigenvalues --    1.99673   2.02557   2.04759   2.06938   2.11436
 Alpha virt. eigenvalues --    2.11612   2.14507   2.14906   2.19035   2.20989
 Alpha virt. eigenvalues --    2.22693   2.28378   2.30039   2.34063   2.34161
 Alpha virt. eigenvalues --    2.35736   2.38476   2.39516   2.42153   2.44992
 Alpha virt. eigenvalues --    2.45591   2.46185   2.49369   2.52868   2.53851
 Alpha virt. eigenvalues --    2.54046   2.56734   2.57681   2.57867   2.58806
 Alpha virt. eigenvalues --    2.59707   2.60086   2.62233   2.62914   2.63394
 Alpha virt. eigenvalues --    2.64751   2.64903   2.65191   2.65920   2.68077
 Alpha virt. eigenvalues --    2.69353   2.70696   2.71275   2.73546   2.74726
 Alpha virt. eigenvalues --    2.76486   2.77757   2.79529   2.80908   2.82826
 Alpha virt. eigenvalues --    2.84839   2.86190   2.91925   2.94480   2.99353
 Alpha virt. eigenvalues --    2.99931   3.04100   3.10457   3.12254   3.13242
 Alpha virt. eigenvalues --    3.21006   3.23065   3.26361   3.27997   3.30083
 Alpha virt. eigenvalues --    3.32254   3.33989   3.42773   3.44864   3.46243
 Alpha virt. eigenvalues --    3.48301   3.49610   3.55788   3.64561   3.66564
 Alpha virt. eigenvalues --    3.67666   3.93701   3.94095   3.95009   3.96006
 Alpha virt. eigenvalues --    4.03515   4.06605   4.06877   4.13019   4.34748
 Alpha virt. eigenvalues --    4.59860   4.69364   4.71133  23.45156  23.60716
 Alpha virt. eigenvalues --   23.82493  23.83841  23.86389  23.89262  23.89766
 Alpha virt. eigenvalues --   23.93238  23.97021  23.98584  23.99816  24.01197
 Alpha virt. eigenvalues --   24.09766  24.10188
          Condensed to atoms (all electrons):
               1          2          3          4          5          6
     1  C    9.843444  -0.099392  -0.629632   3.168100  -0.172395  -0.117585
     2  C   -0.099392   7.377170   0.226527  -1.191373   0.002858  -0.013898
     3  C   -0.629632   0.226527   6.688957   0.432518  -0.131187   0.025640
     4  C    3.168100  -1.191373   0.432518  12.301026  -0.795543  -0.152933
     5  C   -0.172395   0.002858  -0.131187  -0.795543  11.563524   0.852829
     6  C   -0.117585  -0.013898   0.025640  -0.152933   0.852829   6.978052
     7  C    0.013888  -0.002779  -0.009338  -0.016342  -1.113241   0.263236
     8  C    0.313385   0.039679  -0.086377  -0.269541   2.616402  -0.314398
     9  C   -0.693481  -0.870924   0.314423  -0.038981  -0.277140   0.382509
    10  C   -1.730581   0.201454  -0.172503  -2.584859  -2.706238  -0.476709
    11  C   -0.460670  -0.584672   1.112765  -0.838365  -1.479020  -0.186709
    12  C   -3.264993   1.434137  -1.374655  -2.564111  -0.333364  -0.122179
    13  C    0.306206  -0.272737  -0.023833  -1.424367  -1.250246   0.871601
    14  C   -1.006163  -0.152064  -0.236494  -0.350568  -1.248605  -1.851578
    15  H    0.391834  -0.116694   0.005670   0.032869   0.004598   0.001554
    16  H   -0.016367   0.382810  -0.025730   0.014884  -0.001518  -0.000345
    17  H   -0.042010  -0.006754   0.377573  -0.078686   0.000652   0.000543
    18  H    0.071169   0.001100  -0.086056   0.504232   0.000563  -0.005937
    19  H   -0.059471  -0.013882   0.063021  -0.087096  -0.038758   0.068480
    20  H    0.007073   0.002932  -0.006647   0.000193   0.476791  -0.093833
    21  H   -0.001167  -0.000430   0.000432   0.000571  -0.058925   0.363225
    22  H    0.000415   0.000403  -0.000243  -0.001983   0.006406  -0.021799
    23  H    0.005736  -0.001910   0.000566   0.004361   0.031529  -0.000734
    24  H    0.030177   0.013369  -0.000876  -0.009741  -0.009134  -0.002365
    25  H    0.030177   0.013369  -0.000876  -0.009741  -0.009134  -0.002365
               7          8          9         10         11         12
     1  C    0.013888   0.313385  -0.693481  -1.730581  -0.460670  -3.264993
     2  C   -0.002779   0.039679  -0.870924   0.201454  -0.584672   1.434137
     3  C   -0.009338  -0.086377   0.314423  -0.172503   1.112765  -1.374655
     4  C   -0.016342  -0.269541  -0.038981  -2.584859  -0.838365  -2.564111
     5  C   -1.113241   2.616402  -0.277140  -2.706238  -1.479020  -0.333364
     6  C    0.263236  -0.314398   0.382509  -0.476709  -0.186709  -0.122179
     7  C    6.861974   0.140293  -0.555200   0.197895  -0.205177  -0.175286
     8  C    0.140293   9.208755  -0.589151  -1.569952   0.345492  -1.085333
     9  C   -0.555200  -0.589151   9.179748   0.384493   1.059347  -1.849560
    10  C    0.197895  -1.569952   0.384493   8.973838   0.164766   2.432838
    11  C   -0.205177   0.345492   1.059347   0.164766  13.622355  -2.458158
    12  C   -0.175286  -1.085333  -1.849560   2.432838  -2.458158  15.223755
    13  C   -0.228190  -0.312578   1.103315   0.474405   0.685947  -3.856210
    14  C    0.910648  -2.822922  -1.993890   1.985318  -4.242610   3.535279
    15  H   -0.002395   0.002394   0.075875  -0.008924  -0.039635  -0.026719
    16  H    0.000312   0.000410   0.002464  -0.008175   0.014925  -0.019722
    17  H   -0.000362  -0.001192  -0.006049   0.019129  -0.020950   0.101942
    18  H    0.001468   0.003906  -0.020867  -0.007978  -0.003848  -0.089628
    19  H   -0.006023  -0.049641   0.080259   0.425474   0.062571  -0.046459
    20  H    0.008304   0.058465  -0.026462   0.006985  -0.013310  -0.017904
    21  H   -0.013152  -0.025772  -0.006326   0.017023  -0.005570   0.006360
    22  H    0.386800  -0.029456   0.005515  -0.005171   0.002229  -0.009367
    23  H   -0.093240   0.380528   0.051734  -0.012434  -0.004917   0.005583
    24  H    0.013418   0.029163   0.355999   0.004312   0.001041  -0.051142
    25  H    0.013418   0.029163   0.355999   0.004312   0.001041  -0.051142
              13         14         15         16         17         18
     1  C    0.306206  -1.006163   0.391834  -0.016367  -0.042010   0.071169
     2  C   -0.272737  -0.152064  -0.116694   0.382810  -0.006754   0.001100
     3  C   -0.023833  -0.236494   0.005670  -0.025730   0.377573  -0.086056
     4  C   -1.424367  -0.350568   0.032869   0.014884  -0.078686   0.504232
     5  C   -1.250246  -1.248605   0.004598  -0.001518   0.000652   0.000563
     6  C    0.871601  -1.851578   0.001554  -0.000345   0.000543  -0.005937
     7  C   -0.228190   0.910648  -0.002395   0.000312  -0.000362   0.001468
     8  C   -0.312578  -2.822922   0.002394   0.000410  -0.001192   0.003906
     9  C    1.103315  -1.993890   0.075875   0.002464  -0.006049  -0.020867
    10  C    0.474405   1.985318  -0.008924  -0.008175   0.019129  -0.007978
    11  C    0.685947  -4.242610  -0.039635   0.014925  -0.020950  -0.003848
    12  C   -3.856210   3.535279  -0.026719  -0.019722   0.101942  -0.089628
    13  C   13.314495  -2.867882   0.003114   0.001999  -0.005071  -0.018679
    14  C   -2.867882  15.754619   0.003595  -0.007905   0.004686  -0.017357
    15  H    0.003114   0.003595   0.443384  -0.010405   0.001697   0.000064
    16  H    0.001999  -0.007905  -0.010405   0.422600  -0.006626   0.001975
    17  H   -0.005071   0.004686   0.001697  -0.006626   0.419396  -0.009865
    18  H   -0.018679  -0.017357   0.000064   0.001975  -0.009865   0.455923
    19  H    0.087107  -0.102714   0.000650  -0.000845   0.002285  -0.009856
    20  H   -0.030061  -0.045343  -0.000158   0.000027  -0.000220   0.001450
    21  H   -0.029515   0.094974   0.000026  -0.000008   0.000014  -0.000148
    22  H    0.026509  -0.019948  -0.000134   0.000007  -0.000007   0.000001
    23  H   -0.040622   0.004177   0.000380  -0.000099   0.000014  -0.000079
    24  H    0.015023  -0.053264  -0.001096   0.000588  -0.000124   0.000149
    25  H    0.015023  -0.053264  -0.001096   0.000588  -0.000124   0.000149
              19         20         21         22         23         24
     1  C   -0.059471   0.007073  -0.001167   0.000415   0.005736   0.030177
     2  C   -0.013882   0.002932  -0.000430   0.000403  -0.001910   0.013369
     3  C    0.063021  -0.006647   0.000432  -0.000243   0.000566  -0.000876
     4  C   -0.087096   0.000193   0.000571  -0.001983   0.004361  -0.009741
     5  C   -0.038758   0.476791  -0.058925   0.006406   0.031529  -0.009134
     6  C    0.068480  -0.093833   0.363225  -0.021799  -0.000734  -0.002365
     7  C   -0.006023   0.008304  -0.013152   0.386800  -0.093240   0.013418
     8  C   -0.049641   0.058465  -0.025772  -0.029456   0.380528   0.029163
     9  C    0.080259  -0.026462  -0.006326   0.005515   0.051734   0.355999
    10  C    0.425474   0.006985   0.017023  -0.005171  -0.012434   0.004312
    11  C    0.062571  -0.013310  -0.005570   0.002229  -0.004917   0.001041
    12  C   -0.046459  -0.017904   0.006360  -0.009367   0.005583  -0.051142
    13  C    0.087107  -0.030061  -0.029515   0.026509  -0.040622   0.015023
    14  C   -0.102714  -0.045343   0.094974  -0.019948   0.004177  -0.053264
    15  H    0.000650  -0.000158   0.000026  -0.000134   0.000380  -0.001096
    16  H   -0.000845   0.000027  -0.000008   0.000007  -0.000099   0.000588
    17  H    0.002285  -0.000220   0.000014  -0.000007   0.000014  -0.000124
    18  H   -0.009856   0.001450  -0.000148   0.000001  -0.000079   0.000149
    19  H    0.462912  -0.007856   0.001720  -0.000597   0.000268   0.000418
    20  H   -0.007856   0.464713  -0.010368   0.001865   0.000147   0.000181
    21  H    0.001720  -0.010368   0.419701  -0.006549   0.001711  -0.000156
    22  H   -0.000597   0.001865  -0.006549   0.420121  -0.009356   0.000600
    23  H    0.000268   0.000147   0.001711  -0.009356   0.435022  -0.000791
    24  H    0.000418   0.000181  -0.000156   0.000600  -0.000791   0.492271
    25  H    0.000418   0.000181  -0.000156   0.000600  -0.000791  -0.079133
              25
     1  C    0.030177
     2  C    0.013369
     3  C   -0.000876
     4  C   -0.009741
     5  C   -0.009134
     6  C   -0.002365
     7  C    0.013418
     8  C    0.029163
     9  C    0.355999
    10  C    0.004312
    11  C    0.001041
    12  C   -0.051142
    13  C    0.015023
    14  C   -0.053264
    15  H   -0.001096
    16  H    0.000588
    17  H   -0.000124
    18  H    0.000149
    19  H    0.000418
    20  H    0.000181
    21  H   -0.000156
    22  H    0.000600
    23  H   -0.000791
    24  H   -0.079133
    25  H    0.492271
 Mulliken charges:
               1
     1  C    0.112302
     2  C   -0.368300
     3  C   -0.463646
     4  C   -0.044523
     5  C    0.068296
     6  C   -0.444301
     7  C   -0.390931
     8  C   -0.011723
     9  C   -0.423649
    10  C   -0.008720
    11  C   -0.528869
    12  C    0.656040
    13  C   -0.544754
    14  C    0.779275
    15  H    0.239552
    16  H    0.254156
    17  H    0.250109
    18  H    0.228151
    19  H    0.167614
    20  H    0.222856
    21  H    0.252484
    22  H    0.253138
    23  H    0.243218
    24  H    0.251112
    25  H    0.251112
 Sum of Mulliken charges =   1.00000
 Mulliken charges with hydrogens summed into heavy atoms:
               1
     1  C    0.351854
     2  C   -0.114143
     3  C   -0.213537
     4  C    0.183628
     5  C    0.291153
     6  C   -0.191817
     7  C   -0.137793
     8  C    0.231495
     9  C    0.078575
    10  C    0.158894
    11  C   -0.528869
    12  C    0.656040
    13  C   -0.544754
    14  C    0.779275
 Electronic spatial extent (au):  <R**2>=           2861.7397
 Charge=              1.0000 electrons
 Dipole moment (field-independent basis, Debye):
    X=             -0.0513    Y=              0.2226    Z=              0.0000  Tot=              0.2284
 Quadrupole moment (field-independent basis, Debye-Ang):
   XX=            -30.7008   YY=            -56.3422   ZZ=            -84.2050
   XY=             -0.1346   XZ=             -0.0000   YZ=              0.0000
 Traceless Quadrupole moment (field-independent basis, Debye-Ang):
   XX=             26.3819   YY=              0.7405   ZZ=            -27.1223
   XY=             -0.1346   XZ=             -0.0000   YZ=              0.0000
 Octapole moment (field-independent basis, Debye-Ang**2):
  XXX=             -0.7662  YYY=              4.7388  ZZZ=             -0.0000  XYY=             -0.1001
  XXY=             -3.3448  XXZ=             -0.0000  XZZ=              0.0613  YZZ=             -2.9605
  YYZ=              0.0000  XYZ=              0.0000
 Hexadecapole moment (field-independent basis, Debye-Ang**3):
 XXXX=          -2118.1815 YYYY=           -613.0515 ZZZZ=            -99.4526 XXXY=              2.8969
 XXXZ=             -0.0000 YYYX=              3.9648 YYYZ=             -0.0000 ZZZX=              0.0000
 ZZZY=             -0.0000 XXYY=           -508.4490 XXZZ=           -592.0226 YYZZ=           -146.0326
 XXYZ=              0.0000 YYXZ=             -0.0000 ZZXY=              1.3131
 N-N= 7.803181271601D+02 E-N=-2.796926589830D+03  KE= 5.374368023980D+02
 Symmetry A'   KE= 5.227991047573D+02
 Symmetry A"   KE= 1.463769764080D+01
 Unable to Open any file for archive entry.
 1\1\GINC-GADI-CPU-CLX-0359\SP\RM062X TD-FC\6-311++G(d,p)\C14H11(1+)\TS
 1578\02-Aug-2022\0\\#n M062X/6-311++G(d,p) TD(NStates=1) EmpiricalDisp
 ersion=GD3 SP\\SP_-2\\1,1\C,0,0.,2.518655,1.330431\C,0,0.,3.715508,0.6
 13989\C,0,0.,3.679861,-0.76983\C,0,0.,2.439156,-1.433538\C,0,0.,-2.391
 156,-1.397538\C,0,0.,-3.647861,-0.79383\C,0,0.,-3.735508,0.593989\C,0,
 0.,-2.570655,1.374431\C,0,0.,0.008,1.513369\C,0,0.,-0.012,-1.369189\C,
 0,0.,1.262055,0.687065\C,0,0.,1.237471,-0.716804\C,0,0.,-1.286055,0.77
 1065\C,0,0.,-1.221471,-0.640804\H,0,0.,2.550071,2.413647\H,0,0.,4.6567
 53,1.141689\H,0,0.,4.597262,-1.346349\H,0,0.,2.41155,-2.516059\H,0,0.,
 -0.062,-2.446266\H,0,0.,-2.30755,-2.480059\H,0,0.,-4.541262,-1.406349\
 H,0,0.,-4.704753,1.073689\H,0,0.,-2.658071,2.457647\H,0,-0.859585,0.04
 8,2.205787\H,0,0.859585,0.048,2.205787\\Version=ES64L-G16RevC.01\State
 =1-A'\HF=-539.7594781\RMSD=7.368e-09\PG=CS [SG(C14H9),X(H2)]\\@
 The archive entry for this job was punched.


 A leading authority is anyone who has guessed right more than once.
 -- Frank A. Clark
 Job cpu time:       0 days  0 hours 51 minutes 28.5 seconds.
 Elapsed time:       0 days  0 hours  1 minutes  4.5 seconds.
 File lengths (MBytes):  RWF=    460 Int=      0 D2E=      0 Chk=     15 Scr=      1
 Normal termination of Gaussian 16 at Tue Aug  2 12:33:46 2022.
