 Entering Gaussian System, Link 0=g16
 Initial command:
 /apps/gaussian/g16c01/g16/l1.exe "/jobfs/53803768.gadi-pbs/Gau-163769.inp" -scrdir="/jobfs/53803768.gadi-pbs/"
 Entering Link 1 = /apps/gaussian/g16c01/g16/l1.exe PID=    163770.
  
 Copyright (c) 1988-2019, Gaussian, Inc.  All Rights Reserved.
  
 This is part of the Gaussian(R) 16 program.  It is based on
 the Gaussian(R) 09 system (copyright 2009, Gaussian, Inc.),
 the Gaussian(R) 03 system (copyright 2003, Gaussian, Inc.),
 the Gaussian(R) 98 system (copyright 1998, Gaussian, Inc.),
 the Gaussian(R) 94 system (copyright 1995, Gaussian, Inc.),
 the Gaussian 92(TM) system (copyright 1992, Gaussian, Inc.),
 the Gaussian 90(TM) system (copyright 1990, Gaussian, Inc.),
 the Gaussian 88(TM) system (copyright 1988, Gaussian, Inc.),
 the Gaussian 86(TM) system (copyright 1986, Carnegie Mellon
 University), and the Gaussian 82(TM) system (copyright 1983,
 Carnegie Mellon University). Gaussian is a federally registered
 trademark of Gaussian, Inc.
  
 This software contains proprietary and confidential information,
 including trade secrets, belonging to Gaussian, Inc.
  
 This software is provided under written license and may be
 used, copied, transmitted, or stored only in accord with that
 written license.
  
 The following legend is applicable only to US Government
 contracts under FAR:
  
                    RESTRICTED RIGHTS LEGEND
  
 Use, reproduction and disclosure by the US Government is
 subject to restrictions as set forth in subparagraphs (a)
 and (c) of the Commercial Computer Software - Restricted
 Rights clause in FAR 52.227-19.
  
 Gaussian, Inc.
 340 Quinnipiac St., Bldg. 40, Wallingford CT 06492
  
  
 ---------------------------------------------------------------
 Warning -- This program may not be used in any manner that
 competes with the business of Gaussian, Inc. or will provide
 assistance to any competitor of Gaussian, Inc.  The licensee
 of this program is prohibited from giving any competitor of
 Gaussian, Inc. access to this program.  By using this program,
 the user acknowledges that Gaussian, Inc. is engaged in the
 business of creating and licensing software in the field of
 computational chemistry and represents and warrants to the
 licensee that it is not a competitor of Gaussian, Inc. and that
 it will not use this program in any manner prohibited above.
 ---------------------------------------------------------------
  

 Cite this work as:
 Gaussian 16, Revision C.01,
 M. J. Frisch, G. W. Trucks, H. B. Schlegel, G. E. Scuseria, 
 M. A. Robb, J. R. Cheeseman, G. Scalmani, V. Barone, 
 G. A. Petersson, H. Nakatsuji, X. Li, M. Caricato, A. V. Marenich, 
 J. Bloino, B. G. Janesko, R. Gomperts, B. Mennucci, H. P. Hratchian, 
 J. V. Ortiz, A. F. Izmaylov, J. L. Sonnenberg, D. Williams-Young, 
 F. Ding, F. Lipparini, F. Egidi, J. Goings, B. Peng, A. Petrone, 
 T. Henderson, D. Ranasinghe, V. G. Zakrzewski, J. Gao, N. Rega, 
 G. Zheng, W. Liang, M. Hada, M. Ehara, K. Toyota, R. Fukuda, 
 J. Hasegawa, M. Ishida, T. Nakajima, Y. Honda, O. Kitao, H. Nakai, 
 T. Vreven, K. Throssell, J. A. Montgomery, Jr., J. E. Peralta, 
 F. Ogliaro, M. J. Bearpark, J. J. Heyd, E. N. Brothers, K. N. Kudin, 
 V. N. Staroverov, T. A. Keith, R. Kobayashi, J. Normand, 
 K. Raghavachari, A. P. Rendell, J. C. Burant, S. S. Iyengar, 
 J. Tomasi, M. Cossi, J. M. Millam, M. Klene, C. Adamo, R. Cammi, 
 J. W. Ochterski, R. L. Martin, K. Morokuma, O. Farkas, 
 J. B. Foresman, and D. J. Fox, Gaussian, Inc., Wallingford CT, 2019.
 
 ******************************************
 Gaussian 16:  ES64L-G16RevC.01  3-Jul-2019
                 2-Aug-2022 
 ******************************************
 %NProcShared=48
 Will use up to   48 processors via shared memory.
 %mem = 190GB
 ---------------------------------------------------------------
 #n M062X/6-311++G(d,p) TD(NStates=1) EmpiricalDispersion=GD3 SP
 ---------------------------------------------------------------
 1/38=1,172=1/1;
 2/12=2,17=6,18=5,40=1/2;
 3/5=4,6=6,7=1111,11=9,25=1,30=1,74=-55,124=31/1,2,3,8;
 4//1;
 5/5=2,38=5/2;
 8/6=1,10=2,108=1/1;
 9/41=1,42=1,70=2/14;
 6/7=2,8=2,9=2,10=2/1;
 99/5=1,9=1/99;
 ------
 SP_-10
 ------
 Symbolic Z-matrix:
 Charge =  1 Multiplicity = 1
 C                     0.        2.28466   1.26243 
 C                     0.        3.61551   0.82399 
 C                     0.        3.79386  -0.55183 
 C                     0.        2.65516  -1.48554 
 C                     0.       -2.41516  -1.30554 
 C                     0.       -3.63386  -0.67183 
 C                     0.       -3.71551   0.72399 
 C                     0.       -2.54466   1.48243 
 C                     0.        0.04      1.36337 
 C                     0.       -0.06     -1.51919 
 C                     0.        1.18406   0.38907 
 C                     0.        1.28947  -0.9988 
 C                     0.       -1.30406   0.80907 
 C                     0.       -1.20947  -0.6188 
 H                     0.        2.04407   2.34565 
 H                     0.        4.45075   1.53769 
 H                     0.        4.80926  -0.96635 
 H                     0.        2.88955  -2.56806 
 H                     0.       -0.31     -2.60627 
 H                     0.       -2.36955  -2.38806 
 H                     0.       -4.52926  -1.26635 
 H                     0.       -4.69075   1.19769 
 H                     0.       -2.58407   2.56565 
 H                    -0.85959   0.24      2.05579 
 H                     0.85959   0.24      2.05579 
 
                          Input orientation:                          
 ---------------------------------------------------------------------
 Center     Atomic      Atomic             Coordinates (Angstroms)
 Number     Number       Type             X           Y           Z
 ---------------------------------------------------------------------
      1          6           0        0.000000    2.284655    1.262431
      2          6           0        0.000000    3.615508    0.823989
      3          6           0        0.000000    3.793861   -0.551830
      4          6           0        0.000000    2.655156   -1.485538
      5          6           0        0.000000   -2.415156   -1.305538
      6          6           0        0.000000   -3.633861   -0.671830
      7          6           0        0.000000   -3.715508    0.723989
      8          6           0        0.000000   -2.544655    1.482431
      9          6           0        0.000000    0.040000    1.363369
     10          6           0        0.000000   -0.060000   -1.519189
     11          6           0        0.000000    1.184055    0.389065
     12          6           0        0.000000    1.289471   -0.998804
     13          6           0        0.000000   -1.304055    0.809065
     14          6           0        0.000000   -1.209471   -0.618804
     15          1           0        0.000000    2.044071    2.345647
     16          1           0        0.000000    4.450753    1.537689
     17          1           0        0.000000    4.809262   -0.966349
     18          1           0        0.000000    2.889550   -2.568059
     19          1           0        0.000000   -0.310000   -2.606266
     20          1           0        0.000000   -2.369550   -2.388059
     21          1           0        0.000000   -4.529262   -1.266349
     22          1           0        0.000000   -4.690753    1.197689
     23          1           0        0.000000   -2.584071    2.565647
     24          1           0       -0.859585    0.240000    2.055787
     25          1           0        0.859585    0.240000    2.055787
 ---------------------------------------------------------------------
                    Distance matrix (angstroms):
                    1          2          3          4          5
     1  C    0.000000
     2  C    1.401214   0.000000
     3  C    2.359925   1.387331   0.000000
     4  C    2.772833   2.501238   1.472569   0.000000
     5  C    5.355622   6.395607   6.254596   5.073506   0.000000
     6  C    6.226572   7.402083   7.428691   6.341440   1.373618
     7  C    6.024274   7.331698   7.616977   6.742950   2.410372
     8  C    4.834318   6.195253   6.656951   5.987226   2.790975
     9  C    2.246923   3.615963   4.214197   3.867210   3.626411
    10  C    3.637969   4.358881   3.973415   2.715365   2.364827
    11  C    1.405023   2.470045   2.774233   2.382913   3.978190
    12  C    2.470541   2.955169   2.543964   1.449829   3.717304
    13  C    3.617234   4.919586   5.276437   4.576085   2.388743
    14  C    3.968370   5.036077   5.003780   3.960627   1.387545
    15  H    1.109611   2.187432   3.384839   3.879614   5.763320
    16  H    2.183517   1.098636   2.190342   3.516258   7.431329
    17  H    3.367655   2.151827   1.096752   2.215791   7.232376
    18  H    3.877957   3.468862   2.209742   1.107607   5.452877
    19  H    4.658224   5.213086   4.589377   3.169887   2.474586
    20  H    5.915040   6.792508   6.431125   5.105117   1.083481
    21  H    7.268025   8.408733   8.353737   7.187761   2.114469
    22  H    6.975708   8.314663   8.663111   7.820619   3.382970
    23  H    5.040125   6.439577   7.099062   6.622809   3.874868
    24  H    2.355613   3.694627   4.490933   4.371824   4.368895
    25  H    2.355613   3.694627   4.490933   4.371824   4.368895
                    6          7          8          9         10
     6  C    0.000000
     7  C    1.398205   0.000000
     8  C    2.413962   1.395038   0.000000
     9  C    4.199915   3.809547   2.587396   0.000000
    10  C    3.672942   4.288891   3.896567   2.884292   0.000000
    11  C    4.933337   4.910997   3.885708   1.502708   2.277961
    12  C    4.934178   5.293187   4.566952   2.672272   1.446331
    13  C    2.760624   2.412953   1.411563   1.453870   2.639780
    14  C    2.424970   2.843117   2.489559   2.343115   1.460129
    15  H    6.429936   5.983521   4.669213   2.231854   4.400463
    16  H    8.381107   8.206700   6.995626   4.414196   5.448981
    17  H    8.448258   8.690739   7.750911   5.307866   4.900545
    18  H    6.793421   7.379998   6.777688   4.855519   3.130491
    19  H    3.845789   4.763201   4.659520   3.985035   1.115453
    20  H    2.131648   3.390641   3.874449   4.458603   2.467581
    21  H    1.074800   2.150265   3.390348   5.271961   4.476408
    22  H    2.147585   1.084202   2.164905   4.733653   5.368920
    23  H    3.403427   2.161447   1.083933   2.886385   4.801752
    24  H    4.815141   4.261293   2.970173   1.121753   3.689084
    25  H    4.815141   4.261293   2.970173   1.121753   3.689084
                   11         12         13         14         15
    11  C    0.000000
    12  C    1.391867   0.000000
    13  C    2.523310   3.161450   0.000000
    14  C    2.597069   2.527669   1.430998   0.000000
    15  H    2.137251   3.428524   3.683888   4.401534   0.000000
    16  H    3.462752   4.053085   5.800751   6.057111   2.538684
    17  H    3.870307   3.519941   6.365904   6.028759   4.314580
    18  H    3.413692   2.241164   5.384356   4.538895   4.985914
    19  H    3.347269   2.267651   3.557054   2.181525   5.482982
    20  H    4.510047   3.913881   3.369997   2.115667   6.472096
    21  H    5.948310   5.824881   3.835271   3.382355   7.500348
    22  H    5.930197   6.370845   3.408922   3.926700   6.831959
    23  H    4.351584   5.263995   2.173481   3.468466   4.633368
    24  H    2.099545   3.342275   2.162708   3.161216   2.019301
    25  H    2.099545   3.342275   2.162708   3.161216   2.019301
                   16         17         18         19         20
    16  H    0.000000
    17  H    2.529572   0.000000
    18  H    4.392553   2.500154   0.000000
    19  H    6.311666   5.375516   3.199778   0.000000
    20  H    7.869436   7.318238   5.262179   2.071077   0.000000
    21  H    9.407619   9.343342   7.532146   4.426912   2.433637
    22  H    9.147827   9.743374   8.464151   5.801816   4.271484
    23  H    7.109532   8.193679   7.504363   5.649786   4.958349
    24  H    4.328713   5.545300   5.398051   4.772434   5.224596
    25  H    4.328713   5.545300   5.398051   4.772434   5.224596
                   21         22         23         24         25
    21  H    0.000000
    22  H    2.469324   0.000000
    23  H    4.297437   2.511856   0.000000
    24  H    5.875486   5.078144   2.995700   0.000000
    25  H    5.875486   5.078144   2.995700   1.719170   0.000000
 Stoichiometry    C14H11(1+)
 Framework group  CS[SG(C14H9),X(H2)]
 Deg. of freedom    46
 Full point group                 CS      NOp   2
 Largest Abelian subgroup         CS      NOp   2
 Largest concise Abelian subgroup CS      NOp   2
                         Standard orientation:                         
 ---------------------------------------------------------------------
 Center     Atomic      Atomic             Coordinates (Angstroms)
 Number     Number       Type             X           Y           Z
 ---------------------------------------------------------------------
      1          6           0        0.487813    2.562669    0.000000
      2          6           0       -0.342744    3.691197    0.000000
      3          6           0       -1.705813    3.432871    0.000000
      4          6           0       -2.239127    2.060269    0.000000
      5          6           0       -0.491344   -2.702684    0.000000
      6          6           0        0.489923   -3.663903    0.000000
      7          6           0        1.841927   -3.307446    0.000000
      8          6           0        2.198668   -1.958792    0.000000
      9          6           0        1.281763    0.460692    0.000000
     10          6           0       -1.426782   -0.530734    0.000000
     11          6           0        0.000000    1.245047    0.000000
     12          6           0       -1.351840    0.913653    0.000000
     13          6           0        1.172900   -0.989096    0.000000
     14          6           0       -0.213588   -1.343224    0.000000
     15          1           0        1.592137    2.670859    0.000000
     16          1           0        0.075836    4.706969    0.000000
     17          1           0       -2.415538    4.269027    0.000000
     18          1           0       -3.340866    1.946412    0.000000
     19          1           0       -2.382220   -1.106386    0.000000
     20          1           0       -1.534376   -2.995969    0.000000
     21          1           0        0.203322   -4.699786    0.000000
     22          1           0        2.595412   -4.087033    0.000000
     23          1           0        3.240436   -1.659408    0.000000
     24          1           0        1.877658    0.866096    0.859585
     25          1           0        1.877658    0.866096   -0.859585
 ---------------------------------------------------------------------
 Rotational constants (GHZ):           2.1115366           0.4445197           0.3680105
 Standard basis: 6-311++G(d,p) (5D, 7F)
 There are   299 symmetry adapted cartesian basis functions of A'  symmetry.
 There are   100 symmetry adapted cartesian basis functions of A"  symmetry.
 There are   285 symmetry adapted basis functions of A'  symmetry.
 There are   100 symmetry adapted basis functions of A"  symmetry.
   385 basis functions,   603 primitive gaussians,   399 cartesian basis functions
    47 alpha electrons       47 beta electrons
       nuclear repulsion energy       778.9460867368 Hartrees.
 NAtoms=   25 NActive=   25 NUniq=   24 SFac= 1.09D+00 NAtFMM=   60 NAOKFM=F Big=F
 Integral buffers will be    131072 words long.
 Regular integral format.
 Two-electron integral symmetry is turned on.
 Nuclear repulsion after empirical dispersion term =      778.9451108104 Hartrees.
 One-electron integrals computed using PRISM.
 NBasis=   385 RedAO= T EigKep=  1.09D-06  NBF=   285   100
 NBsUse=   379 1.00D-06 EigRej=  9.41D-07 NBFU=   279   100
 ExpMin= 3.60D-02 ExpMax= 4.56D+03 ExpMxC= 6.82D+02 IAcc=3 IRadAn=         5 AccDes= 0.00D+00
 Harris functional with IExCor= 1009 and IRadAn=       5 diagonalized for initial guess.
 HarFok:  IExCor= 1009 AccDes= 0.00D+00 IRadAn=         5 IDoV= 1 UseB2=F ITyADJ=14
 ICtDFT=  3500011 ScaDFX=  1.000000  1.000000  1.000000  1.000000
 FoFCou: FMM=F IPFlag=           0 FMFlag=      100000 FMFlg1=           0
         NFxFlg=           0 DoJE=T BraDBF=F KetDBF=T FulRan=T
         wScrn=  0.000000 ICntrl=       500 IOpCl=  0 I1Cent=   200000004 NGrid=           0
         NMat0=    1 NMatS0=      1 NMatT0=    0 NMatD0=    1 NMtDS0=    0 NMtDT0=    0
 Petite list used in FoFCou.
 Initial guess orbital symmetries:
       Occupied  (A') (A') (A') (A') (A') (A') (A') (A') (A') (A')
                 (A') (A') (A') (A') (A') (A') (A') (A') (A') (A')
                 (A') (A') (A') (A') (A') (A') (A') (A') (A') (A')
                 (A') (A') (A") (A') (A') (A') (A') (A') (A") (A')
                 (A") (A') (A') (A") (A") (A") (A")
       Virtual   (A") (A") (A") (A") (A") (A') (A') (A') (A') (A")
                 (A") (A') (A') (A') (A') (A") (A') (A') (A') (A")
                 (A') (A') (A") (A') (A') (A") (A') (A') (A") (A')
                 (A') (A') (A') (A') (A") (A') (A') (A') (A") (A")
                 (A') (A') (A') (A") (A') (A') (A') (A') (A') (A")
                 (A') (A") (A') (A') (A") (A') (A') (A") (A') (A")
                 (A') (A') (A') (A') (A') (A") (A') (A') (A') (A')
                 (A") (A') (A') (A') (A') (A') (A') (A') (A') (A')
                 (A') (A') (A') (A') (A') (A') (A') (A') (A') (A')
                 (A') (A') (A') (A') (A') (A') (A') (A') (A") (A")
                 (A') (A") (A') (A") (A') (A") (A') (A') (A") (A")
                 (A') (A") (A') (A") (A') (A") (A') (A') (A") (A")
                 (A') (A") (A') (A') (A") (A') (A') (A') (A') (A")
                 (A') (A') (A') (A') (A') (A') (A') (A") (A') (A')
                 (A') (A') (A') (A') (A') (A') (A') (A") (A') (A')
                 (A") (A') (A") (A') (A') (A") (A') (A") (A") (A')
                 (A') (A') (A") (A") (A") (A") (A') (A') (A') (A')
                 (A') (A') (A") (A') (A") (A') (A') (A') (A") (A')
                 (A') (A') (A") (A') (A') (A") (A') (A") (A") (A")
                 (A') (A') (A') (A') (A") (A') (A') (A') (A") (A")
                 (A') (A") (A") (A') (A") (A") (A') (A') (A') (A')
                 (A') (A") (A") (A') (A") (A') (A') (A") (A") (A')
                 (A') (A') (A') (A') (A") (A') (A') (A") (A") (A')
                 (A') (A') (A") (A') (A') (A") (A') (A') (A") (A")
                 (A') (A') (A') (A") (A') (A') (A') (A') (A') (A')
                 (A") (A') (A') (A") (A") (A') (A') (A") (A') (A')
                 (A') (A") (A') (A') (A") (A') (A') (A") (A') (A")
                 (A') (A') (A') (A") (A') (A") (A') (A") (A') (A')
                 (A") (A') (A") (A") (A") (A') (A') (A') (A') (A')
                 (A') (A') (A') (A') (A') (A') (A') (A') (A') (A')
                 (A') (A') (A') (A") (A') (A') (A') (A') (A') (A')
                 (A') (A') (A') (A') (A') (A') (A') (A') (A') (A')
                 (A') (A') (A') (A') (A') (A') (A') (A') (A') (A')
                 (A') (A')
 The electronic state of the initial guess is 1-A'.
 Requested convergence on RMS density matrix=1.00D-08 within 128 cycles.
 Requested convergence on MAX density matrix=1.00D-06.
 Requested convergence on             energy=1.00D-06.
 No special actions if energy rises.
 SCF Done:  E(RM062X) =  -539.694332819     A.U. after   15 cycles
            NFock= 15  Conv=0.90D-08     -V/T= 2.0049
 DoSCS=F DFT=T ScalE2(SS,OS)=  1.000000  1.000000
 ExpMin= 3.60D-02 ExpMax= 4.56D+03 ExpMxC= 6.82D+02 IAcc=3 IRadAn=         5 AccDes= 0.00D+00
 HarFok:  IExCor=  205 AccDes= 0.00D+00 IRadAn=         5 IDoV=-2 UseB2=F ITyADJ=14
 ICtDFT= 12500011 ScaDFX=  1.000000  1.000000  1.000000  1.000000
 Range of M.O.s used for correlation:    15   379
 NBasis=   385 NAE=    47 NBE=    47 NFC=    14 NFV=     0
 NROrb=    365 NOA=    33 NOB=    33 NVA=   332 NVB=   332

 **** Warning!!: The largest alpha MO coefficient is  0.17850081D+03

 Orbital symmetries:
       Occupied  (A') (A') (A') (A') (A') (A') (A') (A') (A') (A')
                 (A') (A') (A') (A') (A') (A') (A') (A') (A') (A')
                 (A') (A') (A') (A') (A') (A') (A') (A') (A') (A')
                 (A') (A") (A') (A') (A') (A') (A') (A") (A") (A')
                 (A') (A') (A') (A") (A") (A") (A")
       Virtual   (A") (A") (A") (A") (A') (A') (A') (A") (A') (A')
                 (A") (A') (A') (A') (A") (A') (A") (A') (A') (A')
                 (A") (A") (A') (A') (A') (A') (A") (A") (A') (A')
                 (A") (A') (A") (A') (A') (A') (A') (A") (A') (A')
                 (A') (A") (A') (A") (A") (A') (A") (A') (A') (A")
                 (A') (A') (A') (A') (A') (A") (A') (A') (A') (A")
                 (A') (A') (A') (A') (A') (A') (A") (A') (A') (A')
                 (A') (A') (A') (A') (A') (A') (A') (A') (A') (A')
                 (A') (A') (A') (A') (A') (A') (A') (A') (A') (A')
                 (A') (A') (A') (A') (A') (A") (A") (A") (A') (A')
                 (A") (A') (A') (A') (A") (A') (A") (A") (A') (A')
                 (A") (A") (A') (A') (A") (A') (A") (A') (A') (A")
                 (A") (A") (A') (A') (A') (A') (A") (A') (A') (A')
                 (A') (A') (A') (A') (A') (A') (A') (A') (A') (A')
                 (A') (A') (A') (A") (A') (A') (A') (A') (A') (A')
                 (A') (A") (A') (A') (A") (A') (A") (A') (A") (A')
                 (A") (A") (A') (A') (A') (A") (A") (A") (A") (A')
                 (A') (A') (A') (A') (A") (A") (A") (A') (A') (A')
                 (A') (A") (A') (A') (A") (A') (A') (A") (A") (A')
                 (A") (A') (A') (A") (A') (A') (A') (A") (A') (A")
                 (A') (A") (A") (A') (A") (A") (A') (A') (A') (A')
                 (A') (A") (A') (A") (A') (A") (A') (A') (A") (A")
                 (A') (A') (A') (A') (A") (A') (A') (A") (A") (A')
                 (A') (A') (A") (A') (A') (A') (A") (A') (A") (A")
                 (A') (A') (A') (A") (A') (A') (A') (A') (A') (A')
                 (A') (A') (A") (A') (A') (A") (A') (A") (A') (A")
                 (A') (A') (A') (A') (A') (A') (A") (A') (A') (A')
                 (A") (A') (A") (A') (A") (A') (A") (A') (A") (A')
                 (A") (A") (A") (A') (A") (A") (A') (A') (A') (A')
                 (A') (A') (A') (A') (A') (A') (A') (A') (A') (A')
                 (A') (A') (A') (A") (A') (A') (A') (A') (A') (A')
                 (A') (A') (A') (A') (A') (A') (A') (A') (A') (A')
                 (A') (A') (A') (A') (A') (A') (A') (A') (A') (A')
                 (A') (A')
     4 initial guesses have been made.
 Convergence on wavefunction:    0.001000000000000
 Iteration     1 Dimension     4 NMult     0 NNew      4
 CISAX will form     4 AO SS matrices at one time.
 Iteration     2 Dimension     6 NMult     4 NNew      2
 Iteration     3 Dimension     8 NMult     6 NNew      2
 Iteration     4 Dimension    10 NMult     8 NNew      2
 Iteration     5 Dimension    12 NMult    10 NNew      2
 Iteration     6 Dimension    14 NMult    12 NNew      2
 ***********************************************************************
 Excited states from <AA,BB:AA,BB> singles matrix:
 ***********************************************************************
 
 Ground to excited state transition densities written to RWF  633
 Ground to excited state transition electric dipole moments (Au):
       state          X           Y           Z        Dip. S.      Osc.
         1        -0.6516      0.0896      0.0000      0.4326      0.0270
 Ground to excited state transition velocity dipole moments (Au):
       state          X           Y           Z        Dip. S.      Osc.
         1         0.0701     -0.0103     -0.0000      0.0050      0.0358
 Ground to excited state transition magnetic dipole moments (Au):
       state          X           Y           Z
         1         0.0000      0.0000      0.0591
 Ground to excited state transition velocity quadrupole moments (Au):
       state          XX          YY          ZZ          XY          XZ          YZ
         1        -0.1156     -0.2009      0.0078      0.1323     -0.0000      0.0000
 <0|del|b> * <b|rxdel|0> + <0|del|b> * <b|delr+rdel|0>
 Rotatory Strengths (R) in cgs (10**-40 erg-esu-cm/Gauss)
       state          XX          YY          ZZ    R(velocity)    E-M Angle
         1        -0.0000      0.0000      0.0000      0.0000       90.00
 1/2[<0|r|b>*<b|rxdel|0> + (<0|rxdel|b>*<b|r|0>)*]
 Rotatory Strengths (R) in cgs (10**-40 erg-esu-cm/Gauss)
       state          XX          YY          ZZ     R(length)
         1         0.0000     -0.0000     -0.0000      0.0000
  1/2[<0|del|b>*<b|r|0> + (<0|r|b>*<b|del|0>)*] (Au)
       state          X           Y           Z        Dip. S.   Osc.(frdel)
         1        -0.0457     -0.0009     -0.0000      0.0466      0.0311

 Excitation energies and oscillator strengths:
 
 Excited State   1:      Singlet-A'     2.5449 eV  487.19 nm  f=0.0270  <S**2>=0.000
      47 -> 48         0.70444
 This state for optimization and/or second-order correction.
 Total Energy, E(TD-HF/TD-DFT) =  -539.600809281    
 Copying the excited state density for this state as the 1-particle RhoCI density.
 SavETr:  write IOETrn=   770 NScale= 10 NData=  16 NLR=1 NState=    1 LETran=      28.

 **********************************************************************

            Population analysis using the SCF Density.

 **********************************************************************

 Orbital symmetries:
       Occupied  (A') (A') (A') (A') (A') (A') (A') (A') (A') (A')
                 (A') (A') (A') (A') (A') (A') (A') (A') (A') (A')
                 (A') (A') (A') (A') (A') (A') (A') (A') (A') (A')
                 (A') (A") (A') (A') (A') (A') (A') (A") (A") (A')
                 (A') (A') (A') (A") (A") (A") (A")
       Virtual   (A") (A") (A") (A") (A') (A') (A') (A") (A') (A')
                 (A") (A') (A') (A') (A") (A') (A") (A') (A') (A')
                 (A") (A") (A') (A') (A') (A') (A") (A") (A') (A')
                 (A") (A') (A") (A') (A') (A') (A') (A") (A') (A')
                 (A') (A") (A') (A") (A") (A') (A") (A') (A') (A")
                 (A') (A') (A') (A') (A') (A") (A') (A') (A') (A")
                 (A') (A') (A') (A') (A') (A') (A") (A') (A') (A')
                 (A') (A') (A') (A') (A') (A') (A') (A') (A') (A')
                 (A') (A') (A') (A') (A') (A') (A') (A') (A') (A')
                 (A') (A') (A') (A') (A') (A") (A") (A") (A') (A')
                 (A") (A') (A') (A') (A") (A') (A") (A") (A') (A')
                 (A") (A") (A') (A') (A") (A') (A") (A') (A') (A")
                 (A") (A") (A') (A') (A') (A') (A") (A') (A') (A')
                 (A') (A') (A') (A') (A') (A') (A') (A') (A') (A')
                 (A') (A') (A') (A") (A') (A') (A') (A') (A') (A')
                 (A') (A") (A') (A') (A") (A') (A") (A') (A") (A')
                 (A") (A") (A') (A') (A') (A") (A") (A") (A") (A')
                 (A') (A') (A') (A') (A") (A") (A") (A') (A') (A')
                 (A') (A") (A') (A') (A") (A') (A') (A") (A") (A')
                 (A") (A') (A') (A") (A') (A') (A') (A") (A') (A")
                 (A') (A") (A") (A') (A") (A") (A') (A') (A') (A')
                 (A') (A") (A') (A") (A') (A") (A') (A') (A") (A")
                 (A') (A') (A') (A') (A") (A') (A') (A") (A") (A')
                 (A') (A') (A") (A') (A') (A') (A") (A') (A") (A")
                 (A') (A') (A') (A") (A') (A') (A') (A') (A') (A')
                 (A') (A') (A") (A') (A') (A") (A') (A") (A') (A")
                 (A') (A') (A') (A') (A') (A') (A") (A') (A') (A')
                 (A") (A') (A") (A') (A") (A') (A") (A') (A") (A')
                 (A") (A") (A") (A') (A") (A") (A') (A') (A') (A')
                 (A') (A') (A') (A') (A') (A') (A') (A') (A') (A')
                 (A') (A') (A') (A") (A') (A') (A') (A') (A') (A')
                 (A') (A') (A') (A') (A') (A') (A') (A') (A') (A')
                 (A') (A') (A') (A') (A') (A') (A') (A') (A') (A')
                 (A') (A')
 The electronic state is 1-A'.
 Alpha  occ. eigenvalues --  -10.79324 -10.73929 -10.73431 -10.73040 -10.73029
 Alpha  occ. eigenvalues --  -10.72773 -10.71394 -10.71345 -10.71024 -10.70784
 Alpha  occ. eigenvalues --  -10.70657 -10.70614 -10.69728 -10.69147  -1.16422
 Alpha  occ. eigenvalues --   -1.12187  -1.06593  -1.05754  -1.01297  -0.99969
 Alpha  occ. eigenvalues --   -0.95227  -0.90436  -0.87186  -0.84964  -0.83266
 Alpha  occ. eigenvalues --   -0.77860  -0.75769  -0.73742  -0.69693  -0.69185
 Alpha  occ. eigenvalues --   -0.68552  -0.67997  -0.67606  -0.64636  -0.64099
 Alpha  occ. eigenvalues --   -0.61944  -0.60673  -0.59735  -0.59049  -0.58799
 Alpha  occ. eigenvalues --   -0.56310  -0.55389  -0.54165  -0.52215  -0.46669
 Alpha  occ. eigenvalues --   -0.45978  -0.43717
 Alpha virt. eigenvalues --   -0.26331  -0.15188  -0.14474  -0.12808  -0.11333
 Alpha virt. eigenvalues --   -0.10186  -0.09227  -0.08156  -0.08056  -0.07607
 Alpha virt. eigenvalues --   -0.07377  -0.07360  -0.05769  -0.05621  -0.05363
 Alpha virt. eigenvalues --   -0.03925  -0.03606  -0.03403  -0.03122  -0.02130
 Alpha virt. eigenvalues --   -0.01421  -0.00781  -0.00012   0.00161   0.00721
 Alpha virt. eigenvalues --    0.00971   0.01002   0.01475   0.02098   0.02254
 Alpha virt. eigenvalues --    0.02320   0.02540   0.02569   0.03269   0.03315
 Alpha virt. eigenvalues --    0.04028   0.04207   0.04541   0.04689   0.05237
 Alpha virt. eigenvalues --    0.05910   0.05952   0.06581   0.06969   0.07190
 Alpha virt. eigenvalues --    0.07714   0.08068   0.08151   0.08361   0.08674
 Alpha virt. eigenvalues --    0.08740   0.09087   0.09581   0.09838   0.11073
 Alpha virt. eigenvalues --    0.11286   0.11611   0.12036   0.12377   0.12744
 Alpha virt. eigenvalues --    0.12746   0.12940   0.13380   0.14367   0.15474
 Alpha virt. eigenvalues --    0.16271   0.16567   0.16882   0.17312   0.17966
 Alpha virt. eigenvalues --    0.18375   0.18822   0.19213   0.19362   0.20217
 Alpha virt. eigenvalues --    0.21387   0.21673   0.22119   0.22456   0.23255
 Alpha virt. eigenvalues --    0.23961   0.24791   0.25866   0.26624   0.27425
 Alpha virt. eigenvalues --    0.27854   0.28588   0.29991   0.30875   0.34894
 Alpha virt. eigenvalues --    0.35713   0.38363   0.39500   0.40380   0.41523
 Alpha virt. eigenvalues --    0.41583   0.41862   0.43163   0.43465   0.43828
 Alpha virt. eigenvalues --    0.44461   0.44915   0.45779   0.46873   0.48000
 Alpha virt. eigenvalues --    0.48392   0.48496   0.49182   0.49256   0.50483
 Alpha virt. eigenvalues --    0.50518   0.51960   0.52182   0.52559   0.53775
 Alpha virt. eigenvalues --    0.54667   0.55056   0.55741   0.56017   0.57422
 Alpha virt. eigenvalues --    0.58331   0.60478   0.60585   0.61707   0.61975
 Alpha virt. eigenvalues --    0.62997   0.63045   0.64804   0.65999   0.67435
 Alpha virt. eigenvalues --    0.68927   0.70511   0.71008   0.71510   0.72088
 Alpha virt. eigenvalues --    0.73219   0.75279   0.76191   0.76625   0.77513
 Alpha virt. eigenvalues --    0.77912   0.78310   0.78765   0.79310   0.80027
 Alpha virt. eigenvalues --    0.81563   0.82325   0.82987   0.83325   0.84774
 Alpha virt. eigenvalues --    0.85254   0.86490   0.87154   0.88096   0.89811
 Alpha virt. eigenvalues --    0.90063   0.92199   0.93179   0.93933   0.94609
 Alpha virt. eigenvalues --    0.95931   0.96215   0.99829   1.00742   1.01566
 Alpha virt. eigenvalues --    1.01698   1.03229   1.03828   1.04083   1.07238
 Alpha virt. eigenvalues --    1.18491   1.20972   1.22410   1.24749   1.25037
 Alpha virt. eigenvalues --    1.26653   1.32634   1.33889   1.34697   1.37075
 Alpha virt. eigenvalues --    1.38143   1.40292   1.40337   1.42712   1.42954
 Alpha virt. eigenvalues --    1.43559   1.44916   1.45207   1.46135   1.46166
 Alpha virt. eigenvalues --    1.47216   1.49576   1.51283   1.52898   1.53255
 Alpha virt. eigenvalues --    1.55267   1.56602   1.56914   1.58919   1.61306
 Alpha virt. eigenvalues --    1.62876   1.63228   1.63604   1.65101   1.67181
 Alpha virt. eigenvalues --    1.67421   1.68973   1.70789   1.71877   1.73629
 Alpha virt. eigenvalues --    1.74958   1.77312   1.77799   1.78498   1.79663
 Alpha virt. eigenvalues --    1.79732   1.81971   1.82753   1.82898   1.83500
 Alpha virt. eigenvalues --    1.85319   1.85456   1.86826   1.88531   1.89024
 Alpha virt. eigenvalues --    1.92553   1.94488   1.96252   1.97220   1.97700
 Alpha virt. eigenvalues --    1.99762   2.03769   2.05853   2.07527   2.09995
 Alpha virt. eigenvalues --    2.12738   2.13750   2.14138   2.16780   2.22061
 Alpha virt. eigenvalues --    2.22791   2.25668   2.28371   2.30613   2.31784
 Alpha virt. eigenvalues --    2.34087   2.36702   2.37962   2.39789   2.40682
 Alpha virt. eigenvalues --    2.44407   2.44974   2.45889   2.49196   2.50879
 Alpha virt. eigenvalues --    2.54599   2.55005   2.55174   2.58837   2.59095
 Alpha virt. eigenvalues --    2.59679   2.60484   2.60946   2.62988   2.63498
 Alpha virt. eigenvalues --    2.64445   2.64490   2.65315   2.67572   2.68435
 Alpha virt. eigenvalues --    2.70531   2.71507   2.72209   2.74673   2.75128
 Alpha virt. eigenvalues --    2.75397   2.76323   2.78266   2.79494   2.83102
 Alpha virt. eigenvalues --    2.83218   2.85551   2.90786   2.96604   2.97923
 Alpha virt. eigenvalues --    2.99590   3.01058   3.03253   3.09176   3.13248
 Alpha virt. eigenvalues --    3.15094   3.22348   3.24541   3.26483   3.27484
 Alpha virt. eigenvalues --    3.31168   3.32766   3.41727   3.42923   3.44801
 Alpha virt. eigenvalues --    3.46586   3.47554   3.52817   3.60179   3.63399
 Alpha virt. eigenvalues --    3.68841   3.88763   3.92666   3.94633   3.96560
 Alpha virt. eigenvalues --    3.99530   4.02162   4.07046   4.10219   4.34389
 Alpha virt. eigenvalues --    4.47366   4.64784   4.69405  23.45580  23.58514
 Alpha virt. eigenvalues --   23.73975  23.79878  23.83180  23.85967  23.87074
 Alpha virt. eigenvalues --   23.89730  23.92988  23.96435  23.99599  24.02047
 Alpha virt. eigenvalues --   24.06346  24.13019
          Condensed to atoms (all electrons):
               1          2          3          4          5          6
     1  C   10.745442   1.291033  -1.066423   1.497719   0.515359  -0.148227
     2  C    1.291033   9.090458   0.298400  -0.197855  -0.059418  -0.052637
     3  C   -1.066423   0.298400   6.418432   0.204219  -0.062053  -0.000810
     4  C    1.497719  -0.197855   0.204219   8.946389   0.258537   0.189829
     5  C    0.515359  -0.059418  -0.062053   0.258537   9.430568  -0.792174
     6  C   -0.148227  -0.052637  -0.000810   0.189829  -0.792174   9.114491
     7  C    0.024172   0.043323  -0.002833  -0.069473  -0.916576   0.324967
     8  C   -0.198362  -0.031506   0.019537  -0.540297   2.922998  -1.995026
     9  C   -3.462727  -1.717354  -0.050016  -0.514934  -1.430857   0.268197
    10  C   -0.769413   0.282707  -0.155771  -0.225229  -0.552832  -1.845295
    11  C   -1.390917  -2.939949   1.090327  -3.076161  -0.016948  -0.580699
    12  C   -0.372374   0.453830  -0.284047  -0.632257  -0.358677  -0.347715
    13  C    0.034500   0.300978   0.090770  -1.835440  -2.480702   1.443496
    14  C   -1.505189  -0.589167  -0.417665   1.812682  -0.954056   0.502169
    15  H    0.323982  -0.147911   0.011133   0.037020   0.002199   0.005211
    16  H   -0.011663   0.360290  -0.023885   0.012644   0.000392  -0.000339
    17  H   -0.022790  -0.037968   0.402772  -0.060849  -0.000802   0.000300
    18  H    0.051754   0.002964  -0.072305   0.398916   0.021258   0.001499
    19  H   -0.036404  -0.016295   0.031362  -0.060820   0.009697   0.011159
    20  H    0.023023   0.007213  -0.005099  -0.001248   0.484014  -0.162977
    21  H   -0.002715  -0.000760   0.000169   0.001248  -0.055315   0.404090
    22  H    0.003671   0.000936  -0.000115  -0.001727  -0.021123  -0.002337
    23  H   -0.000888  -0.003630  -0.000073   0.001169   0.037812  -0.015435
    24  H    0.046277   0.029066   0.005997  -0.018708   0.001571  -0.006381
    25  H    0.046277   0.029066   0.005997  -0.018708   0.001571  -0.006381
               7          8          9         10         11         12
     1  C    0.024172  -0.198362  -3.462727  -0.769413  -1.390917  -0.372374
     2  C    0.043323  -0.031506  -1.717354   0.282707  -2.939949   0.453830
     3  C   -0.002833   0.019537  -0.050016  -0.155771   1.090327  -0.284047
     4  C   -0.069473  -0.540297  -0.514934  -0.225229  -3.076161  -0.632257
     5  C   -0.916576   2.922998  -1.430857  -0.552832  -0.016948  -0.358677
     6  C    0.324967  -1.995026   0.268197  -1.845295  -0.580699  -0.347715
     7  C    6.419744   0.153650   0.287099  -0.006231  -0.048448  -0.163344
     8  C    0.153650  14.016333  -2.532327   1.392672   0.309289  -0.639236
     9  C    0.287099  -2.532327  10.923278   0.445238   1.121017   0.134185
    10  C   -0.006231   1.392672   0.445238  10.687854  -1.777496   0.594650
    11  C   -0.048448   0.309289   1.121017  -1.777496  14.743277   1.217668
    12  C   -0.163344  -0.639236   0.134185   0.594650   1.217668  11.085810
    13  C    0.202908  -4.878380   2.628074  -2.480266   2.042873  -3.006500
    14  C   -0.306469  -2.063191  -0.297150   0.173880  -5.119916  -1.677431
    15  H   -0.004266  -0.029305   0.103595  -0.003104  -0.003989   0.003421
    16  H    0.000102   0.000079  -0.004396  -0.010248   0.027919  -0.022861
    17  H   -0.000094  -0.001219   0.005259   0.006574   0.041240   0.024881
    18  H   -0.000399   0.000041  -0.028825   0.004184  -0.002882  -0.050151
    19  H    0.008670   0.001169   0.041647   0.376334   0.076671   0.125673
    20  H    0.011534   0.059517  -0.036619   0.108756   0.023709   0.004278
    21  H   -0.045496  -0.001059  -0.006213   0.003126  -0.009272   0.005315
    22  H    0.409034  -0.073327   0.016806  -0.012606   0.004955  -0.009792
    23  H   -0.050698   0.460544  -0.007488   0.005771  -0.019733   0.000169
    24  H    0.011016   0.041866   0.329316   0.004229  -0.006525  -0.033228
    25  H    0.011016   0.041866   0.329316   0.004229  -0.006525  -0.033228
              13         14         15         16         17         18
     1  C    0.034500  -1.505189   0.323982  -0.011663  -0.022790   0.051754
     2  C    0.300978  -0.589167  -0.147911   0.360290  -0.037968   0.002964
     3  C    0.090770  -0.417665   0.011133  -0.023885   0.402772  -0.072305
     4  C   -1.835440   1.812682   0.037020   0.012644  -0.060849   0.398916
     5  C   -2.480702  -0.954056   0.002199   0.000392  -0.000802   0.021258
     6  C    1.443496   0.502169   0.005211  -0.000339   0.000300   0.001499
     7  C    0.202908  -0.306469  -0.004266   0.000102  -0.000094  -0.000399
     8  C   -4.878380  -2.063191  -0.029305   0.000079  -0.001219   0.000041
     9  C    2.628074  -0.297150   0.103595  -0.004396   0.005259  -0.028825
    10  C   -2.480266   0.173880  -0.003104  -0.010248   0.006574   0.004184
    11  C    2.042873  -5.119916  -0.003989   0.027919   0.041240  -0.002882
    12  C   -3.006500  -1.677431   0.003421  -0.022861   0.024881  -0.050151
    13  C   20.108245  -5.645535  -0.022360   0.002388  -0.002445  -0.018144
    14  C   -5.645535  21.696703   0.025907  -0.000208  -0.006362   0.014441
    15  H   -0.022360   0.025907   0.470985  -0.010839   0.001250  -0.000129
    16  H    0.002388  -0.000208  -0.010839   0.416201  -0.005487   0.002051
    17  H   -0.002445  -0.006362   0.001250  -0.005487   0.417373  -0.008345
    18  H   -0.018144   0.014441  -0.000129   0.002051  -0.008345   0.423233
    19  H    0.000953  -0.224842   0.000457  -0.000545   0.001292  -0.004598
    20  H   -0.050502  -0.122421  -0.000202   0.000067  -0.000211   0.000887
    21  H   -0.019392   0.063255   0.000033  -0.000006   0.000006  -0.000037
    22  H    0.095223  -0.072560  -0.000270   0.000007  -0.000004  -0.000004
    23  H   -0.128673   0.074194   0.000593  -0.000020  -0.000020  -0.000015
    24  H    0.022798  -0.092798  -0.006183   0.000257   0.000026   0.000028
    25  H    0.022798  -0.092798  -0.006183   0.000257   0.000026   0.000028
              19         20         21         22         23         24
     1  C   -0.036404   0.023023  -0.002715   0.003671  -0.000888   0.046277
     2  C   -0.016295   0.007213  -0.000760   0.000936  -0.003630   0.029066
     3  C    0.031362  -0.005099   0.000169  -0.000115  -0.000073   0.005997
     4  C   -0.060820  -0.001248   0.001248  -0.001727   0.001169  -0.018708
     5  C    0.009697   0.484014  -0.055315  -0.021123   0.037812   0.001571
     6  C    0.011159  -0.162977   0.404090  -0.002337  -0.015435  -0.006381
     7  C    0.008670   0.011534  -0.045496   0.409034  -0.050698   0.011016
     8  C    0.001169   0.059517  -0.001059  -0.073327   0.460544   0.041866
     9  C    0.041647  -0.036619  -0.006213   0.016806  -0.007488   0.329316
    10  C    0.376334   0.108756   0.003126  -0.012606   0.005771   0.004229
    11  C    0.076671   0.023709  -0.009272   0.004955  -0.019733  -0.006525
    12  C    0.125673   0.004278   0.005315  -0.009792   0.000169  -0.033228
    13  C    0.000953  -0.050502  -0.019392   0.095223  -0.128673   0.022798
    14  C   -0.224842  -0.122421   0.063255  -0.072560   0.074194  -0.092798
    15  H    0.000457  -0.000202   0.000033  -0.000270   0.000593  -0.006183
    16  H   -0.000545   0.000067  -0.000006   0.000007  -0.000020   0.000257
    17  H    0.001292  -0.000211   0.000006  -0.000004  -0.000020   0.000026
    18  H   -0.004598   0.000887  -0.000037  -0.000004  -0.000015   0.000028
    19  H    0.413767   0.001990  -0.000327   0.000055  -0.000246   0.000836
    20  H    0.001990   0.480176  -0.013003   0.002014   0.000500   0.000295
    21  H   -0.000327  -0.013003   0.431242  -0.008101   0.001576  -0.000241
    22  H    0.000055   0.002014  -0.008101   0.414032  -0.007537   0.000663
    23  H   -0.000246   0.000500   0.001576  -0.007537   0.427723  -0.000097
    24  H    0.000836   0.000295  -0.000241   0.000663  -0.000097   0.501036
    25  H    0.000836   0.000295  -0.000241   0.000663  -0.000097  -0.083673
              25
     1  C    0.046277
     2  C    0.029066
     3  C    0.005997
     4  C   -0.018708
     5  C    0.001571
     6  C   -0.006381
     7  C    0.011016
     8  C    0.041866
     9  C    0.329316
    10  C    0.004229
    11  C   -0.006525
    12  C   -0.033228
    13  C    0.022798
    14  C   -0.092798
    15  H   -0.006183
    16  H    0.000257
    17  H    0.000026
    18  H    0.000028
    19  H    0.000836
    20  H    0.000295
    21  H   -0.000241
    22  H    0.000663
    23  H   -0.000097
    24  H   -0.083673
    25  H    0.501036
 Mulliken charges:
               1
     1  C    0.384885
     2  C   -0.395812
     3  C   -0.438021
     4  C   -0.106665
     5  C    0.015560
     6  C   -0.308974
     7  C   -0.292908
     8  C   -0.436324
     9  C   -0.544120
    10  C   -0.251711
    11  C    0.300517
    12  C   -0.019041
    13  C   -0.427664
    14  C    0.824526
    15  H    0.248955
    16  H    0.267844
    17  H    0.245597
    18  H    0.264553
    19  H    0.241510
    20  H    0.184013
    21  H    0.252118
    22  H    0.261442
    23  H    0.224600
    24  H    0.252559
    25  H    0.252559
 Sum of Mulliken charges =   1.00000
 Mulliken charges with hydrogens summed into heavy atoms:
               1
     1  C    0.633841
     2  C   -0.127967
     3  C   -0.192423
     4  C    0.157888
     5  C    0.199573
     6  C   -0.056856
     7  C   -0.031466
     8  C   -0.211724
     9  C   -0.039003
    10  C   -0.010201
    11  C    0.300517
    12  C   -0.019041
    13  C   -0.427664
    14  C    0.824526
 Electronic spatial extent (au):  <R**2>=           2862.4176
 Charge=              1.0000 electrons
 Dipole moment (field-independent basis, Debye):
    X=             -0.0683    Y=             -0.0933    Z=              0.0000  Tot=              0.1157
 Quadrupole moment (field-independent basis, Debye-Ang):
   XX=            -53.4230   YY=            -33.9938   ZZ=            -84.6540
   XY=             -7.5684   XZ=             -0.0000   YZ=              0.0000
 Traceless Quadrupole moment (field-independent basis, Debye-Ang):
   XX=              3.9340   YY=             23.3631   ZZ=            -27.2971
   XY=             -7.5684   XZ=             -0.0000   YZ=              0.0000
 Octapole moment (field-independent basis, Debye-Ang**2):
  XXX=             -2.0535  YYY=              7.2873  ZZZ=             -0.0000  XYY=              4.3690
  XXY=             -5.7066  XXZ=              0.0000  XZZ=              3.3577  YZZ=              0.1084
  YYZ=             -0.0000  XYZ=             -0.0000
 Hexadecapole moment (field-independent basis, Debye-Ang**3):
 XXXX=           -809.8582 YYYY=          -1988.6233 ZZZZ=           -100.4902 XXXY=            272.5341
 XXXZ=              0.0000 YYYX=            200.4306 YYYZ=              0.0000 ZZZX=             -0.0000
 ZZZY=             -0.0000 XXYY=           -474.3701 XXZZ=           -199.7194 YYZZ=           -543.8641
 XXYZ=             -0.0000 YYXZ=             -0.0000 ZZXY=            142.3112
 N-N= 7.789451108104D+02 E-N=-2.793788590479D+03  KE= 5.370632540020D+02
 Symmetry A'   KE= 5.224532366669D+02
 Symmetry A"   KE= 1.461001733511D+01
 Unable to Open any file for archive entry.
 1\1\GINC-GADI-CPU-CLX-0359\SP\RM062X TD-FC\6-311++G(d,p)\C14H11(1+)\TS
 1578\02-Aug-2022\0\\#n M062X/6-311++G(d,p) TD(NStates=1) EmpiricalDisp
 ersion=GD3 SP\\SP_-10\\1,1\C,0,0.,2.284655,1.262431\C,0,0.,3.615508,0.
 823989\C,0,0.,3.793861,-0.55183\C,0,0.,2.655156,-1.485538\C,0,0.,-2.41
 5156,-1.305538\C,0,0.,-3.633861,-0.67183\C,0,0.,-3.715508,0.723989\C,0
 ,0.,-2.544655,1.482431\C,0,0.,0.04,1.363369\C,0,0.,-0.06,-1.519189\C,0
 ,0.,1.184055,0.389065\C,0,0.,1.289471,-0.998804\C,0,0.,-1.304055,0.809
 065\C,0,0.,-1.209471,-0.618804\H,0,0.,2.044071,2.345647\H,0,0.,4.45075
 3,1.537689\H,0,0.,4.809262,-0.966349\H,0,0.,2.88955,-2.568059\H,0,0.,-
 0.31,-2.606266\H,0,0.,-2.36955,-2.388059\H,0,0.,-4.529262,-1.266349\H,
 0,0.,-4.690753,1.197689\H,0,0.,-2.584071,2.565647\H,0,-0.859585,0.24,2
 .055787\H,0,0.859585,0.24,2.055787\\Version=ES64L-G16RevC.01\State=1-A
 '\HF=-539.6943328\RMSD=9.033e-09\PG=CS [SG(C14H9),X(H2)]\\@
 The archive entry for this job was punched.


 IF IT HAPPENS, IT MUST BE POSSIBLE.

 -- THE UNNAMED LAW FROM PAUL DICKSON'S 
    "THE OFFICIAL RULES"
 Job cpu time:       0 days  0 hours 54 minutes  5.6 seconds.
 Elapsed time:       0 days  0 hours  1 minutes  8.3 seconds.
 File lengths (MBytes):  RWF=    460 Int=      0 D2E=      0 Chk=     15 Scr=      1
 Normal termination of Gaussian 16 at Tue Aug  2 11:50:38 2022.
