 Entering Gaussian System, Link 0=g16
 Initial command:
 /apps/gaussian/g16c01/g16/l1.exe "/jobfs/53803768.gadi-pbs/Gau-186219.inp" -scrdir="/jobfs/53803768.gadi-pbs/"
 Entering Link 1 = /apps/gaussian/g16c01/g16/l1.exe PID=    186220.
  
 Copyright (c) 1988-2019, Gaussian, Inc.  All Rights Reserved.
  
 This is part of the Gaussian(R) 16 program.  It is based on
 the Gaussian(R) 09 system (copyright 2009, Gaussian, Inc.),
 the Gaussian(R) 03 system (copyright 2003, Gaussian, Inc.),
 the Gaussian(R) 98 system (copyright 1998, Gaussian, Inc.),
 the Gaussian(R) 94 system (copyright 1995, Gaussian, Inc.),
 the Gaussian 92(TM) system (copyright 1992, Gaussian, Inc.),
 the Gaussian 90(TM) system (copyright 1990, Gaussian, Inc.),
 the Gaussian 88(TM) system (copyright 1988, Gaussian, Inc.),
 the Gaussian 86(TM) system (copyright 1986, Carnegie Mellon
 University), and the Gaussian 82(TM) system (copyright 1983,
 Carnegie Mellon University). Gaussian is a federally registered
 trademark of Gaussian, Inc.
  
 This software contains proprietary and confidential information,
 including trade secrets, belonging to Gaussian, Inc.
  
 This software is provided under written license and may be
 used, copied, transmitted, or stored only in accord with that
 written license.
  
 The following legend is applicable only to US Government
 contracts under FAR:
  
                    RESTRICTED RIGHTS LEGEND
  
 Use, reproduction and disclosure by the US Government is
 subject to restrictions as set forth in subparagraphs (a)
 and (c) of the Commercial Computer Software - Restricted
 Rights clause in FAR 52.227-19.
  
 Gaussian, Inc.
 340 Quinnipiac St., Bldg. 40, Wallingford CT 06492
  
  
 ---------------------------------------------------------------
 Warning -- This program may not be used in any manner that
 competes with the business of Gaussian, Inc. or will provide
 assistance to any competitor of Gaussian, Inc.  The licensee
 of this program is prohibited from giving any competitor of
 Gaussian, Inc. access to this program.  By using this program,
 the user acknowledges that Gaussian, Inc. is engaged in the
 business of creating and licensing software in the field of
 computational chemistry and represents and warrants to the
 licensee that it is not a competitor of Gaussian, Inc. and that
 it will not use this program in any manner prohibited above.
 ---------------------------------------------------------------
  

 Cite this work as:
 Gaussian 16, Revision C.01,
 M. J. Frisch, G. W. Trucks, H. B. Schlegel, G. E. Scuseria, 
 M. A. Robb, J. R. Cheeseman, G. Scalmani, V. Barone, 
 G. A. Petersson, H. Nakatsuji, X. Li, M. Caricato, A. V. Marenich, 
 J. Bloino, B. G. Janesko, R. Gomperts, B. Mennucci, H. P. Hratchian, 
 J. V. Ortiz, A. F. Izmaylov, J. L. Sonnenberg, D. Williams-Young, 
 F. Ding, F. Lipparini, F. Egidi, J. Goings, B. Peng, A. Petrone, 
 T. Henderson, D. Ranasinghe, V. G. Zakrzewski, J. Gao, N. Rega, 
 G. Zheng, W. Liang, M. Hada, M. Ehara, K. Toyota, R. Fukuda, 
 J. Hasegawa, M. Ishida, T. Nakajima, Y. Honda, O. Kitao, H. Nakai, 
 T. Vreven, K. Throssell, J. A. Montgomery, Jr., J. E. Peralta, 
 F. Ogliaro, M. J. Bearpark, J. J. Heyd, E. N. Brothers, K. N. Kudin, 
 V. N. Staroverov, T. A. Keith, R. Kobayashi, J. Normand, 
 K. Raghavachari, A. P. Rendell, J. C. Burant, S. S. Iyengar, 
 J. Tomasi, M. Cossi, J. M. Millam, M. Klene, C. Adamo, R. Cammi, 
 J. W. Ochterski, R. L. Martin, K. Morokuma, O. Farkas, 
 J. B. Foresman, and D. J. Fox, Gaussian, Inc., Wallingford CT, 2019.
 
 ******************************************
 Gaussian 16:  ES64L-G16RevC.01  3-Jul-2019
                 2-Aug-2022 
 ******************************************
 %NProcShared=48
 Will use up to   48 processors via shared memory.
 %mem = 190GB
 ---------------------------------------------------------------
 #n M062X/6-311++G(d,p) TD(NStates=1) EmpiricalDispersion=GD3 SP
 ---------------------------------------------------------------
 1/38=1,172=1/1;
 2/12=2,17=6,18=5,40=1/2;
 3/5=4,6=6,7=1111,11=9,25=1,30=1,74=-55,124=31/1,2,3,8;
 4//1;
 5/5=2,38=5/2;
 8/6=1,10=2,108=1/1;
 9/41=1,42=1,70=2/14;
 6/7=2,8=2,9=2,10=2/1;
 99/5=1,9=1/99;
 -----
 SP_-2
 -----
 Symbolic Z-matrix:
 Charge =  1 Multiplicity = 1
 C                     0.        2.59666   1.31843 
 C                     0.        3.75151   0.51199 
 C                     0.        3.64986  -0.87183 
 C                     0.        2.36716  -1.44554 
 C                     0.       -2.31916  -1.40954 
 C                     0.       -3.61786  -0.89583 
 C                     0.       -3.77151   0.49199 
 C                     0.       -2.64866   1.36243 
 C                     0.        0.008     1.60337 
 C                     0.       -0.012    -1.27919 
 C                     0.        1.28006   0.76507 
 C                     0.        1.22547  -0.6388 
 C                     0.       -1.30406   0.84907 
 C                     0.       -1.20947  -0.5628 
 H                     0.        2.72407   2.40165 
 H                     0.        4.72275   0.98569 
 H                     0.        4.53726  -1.50235 
 H                     0.        2.24955  -2.52806 
 H                     0.       -0.062    -2.35027 
 H                     0.       -2.14555  -2.49206 
 H                     0.       -4.48126  -1.56235 
 H                     0.       -4.77075   0.91769 
 H                     0.       -2.83207   2.44565 
 H                    -0.85959   0.048     2.29579 
 H                     0.85959   0.048     2.29579 
 
                          Input orientation:                          
 ---------------------------------------------------------------------
 Center     Atomic      Atomic             Coordinates (Angstroms)
 Number     Number       Type             X           Y           Z
 ---------------------------------------------------------------------
      1          6           0        0.000000    2.596655    1.318431
      2          6           0        0.000000    3.751508    0.511989
      3          6           0        0.000000    3.649861   -0.871830
      4          6           0        0.000000    2.367156   -1.445538
      5          6           0        0.000000   -2.319156   -1.409538
      6          6           0        0.000000   -3.617861   -0.895830
      7          6           0        0.000000   -3.771508    0.491989
      8          6           0        0.000000   -2.648655    1.362431
      9          6           0        0.000000    0.008000    1.603369
     10          6           0        0.000000   -0.012000   -1.279189
     11          6           0        0.000000    1.280055    0.765065
     12          6           0        0.000000    1.225471   -0.638804
     13          6           0        0.000000   -1.304055    0.849065
     14          6           0        0.000000   -1.209471   -0.562804
     15          1           0        0.000000    2.724071    2.401647
     16          1           0        0.000000    4.722753    0.985689
     17          1           0        0.000000    4.537262   -1.502349
     18          1           0        0.000000    2.249550   -2.528059
     19          1           0        0.000000   -0.062000   -2.350266
     20          1           0        0.000000   -2.145550   -2.492059
     21          1           0        0.000000   -4.481262   -1.562349
     22          1           0        0.000000   -4.770753    0.917689
     23          1           0        0.000000   -2.832071    2.445647
     24          1           0       -0.859585    0.048000    2.295787
     25          1           0        0.859585    0.048000    2.295787
 ---------------------------------------------------------------------
                    Distance matrix (angstroms):
                    1          2          3          4          5
     1  C    0.000000
     2  C    1.408557   0.000000
     3  C    2.430326   1.387547   0.000000
     4  C    2.773481   2.397570   1.405159   0.000000
     5  C    5.622011   6.367513   5.993187   4.686450   0.000000
     6  C    6.597209   7.502636   7.267762   6.010209   1.396614
     7  C    6.421566   7.523043   7.545642   6.437174   2.392725
     8  C    5.245495   6.456418   6.683055   5.748308   2.791484
     9  C    2.604290   3.899354   4.403381   3.855055   3.807002
    10  C    3.681401   4.168010   3.684449   2.384964   2.310835
    11  C    1.428163   2.484377   2.880175   2.463444   4.205142
    12  C    2.389752   2.775822   2.435563   1.397950   3.627452
    13  C    3.928848   5.066788   5.244308   4.329318   2.476231
    14  C    4.245661   5.076071   4.869148   3.683949   1.395836
    15  H    1.090684   2.150915   3.401873   3.863706   6.321334
    16  H    2.151978   1.080606   2.145105   3.385218   7.438118
    17  H    3.423851   2.162167   1.088593   2.170849   6.857046
    18  H    3.862120   3.390836   2.168863   1.088891   4.703633
    19  H    4.530760   4.768160   3.995458   2.592167   2.445347
    20  H    6.083448   6.618126   6.017635   4.632464   1.096353
    21  H    7.641715   8.490075   8.160391   6.849414   2.167499
    22  H    7.378299   8.531912   8.608665   7.518949   3.380283
    23  H    5.544518   6.861672   7.281559   6.494096   3.889156
    24  H    2.861775   4.199618   4.872996   4.484962   4.480150
    25  H    2.861775   4.199618   4.872996   4.484962   4.480150
                    6          7          8          9         10
     6  C    0.000000
     7  C    1.396298   0.000000
     8  C    2.457459   1.420728   0.000000
     9  C    4.403733   3.939524   2.667558   0.000000
    10  C    3.626182   4.155836   3.732306   2.882627   0.000000
    11  C    5.171862   5.058939   3.973866   1.523443   2.418343
    12  C    4.850147   5.123328   4.360481   2.551387   1.393351
    13  C    2.897992   2.493156   1.439268   1.513428   2.489753
    14  C    2.431306   2.770672   2.403701   2.484862   1.395401
    15  H    7.147969   6.770476   5.472308   2.830952   4.586353
    16  H    8.550202   8.508596   7.381029   4.755042   5.248577
    17  H    8.177646   8.544767   7.735914   5.491785   4.554732
    18  H    6.090212   6.736010   6.255264   4.700345   2.583464
    19  H    3.841814   4.673207   4.524920   3.954255   1.072243
    20  H    2.171554   3.398276   3.887185   4.627127   2.454198
    21  H    1.090738   2.173489   3.451490   5.493200   4.478223
    22  H    2.148956   1.086145   2.168201   4.827695   5.241374
    23  H    3.432628   2.167792   1.098635   2.962336   4.671959
    24  H    4.935974   4.310593   2.980266   1.104504   3.677355
    25  H    4.935974   4.310593   2.980266   1.104504   3.677355
                   11         12         13         14         15
    11  C    0.000000
    12  C    1.404930   0.000000
    13  C    2.585475   2.934665   0.000000
    14  C    2.821520   2.436128   1.415034   0.000000
    15  H    2.182563   3.389712   4.316979   4.925517   0.000000
    16  H    3.449760   3.856159   6.028356   6.130996   2.449422
    17  H    3.968698   3.422524   6.296835   5.823031   4.304515
    18  H    3.432869   2.148958   4.902354   3.978323   4.952491
    19  H    3.392108   2.141654   3.431970   2.124079   5.508436
    20  H    4.726905   3.846861   3.445464   2.144357   6.903736
    21  H    6.213665   5.780981   3.988679   3.421068   8.223751
    22  H    6.052733   6.194947   3.467377   3.856759   7.640322
    23  H    4.442290   5.096811   2.209956   3.418129   5.556316
    24  H    2.144751   3.276759   2.158690   3.239084   2.812730
    25  H    2.144751   3.276759   2.158690   3.239084   2.812730
                   16         17         18         19         20
    16  H    0.000000
    17  H    2.494943   0.000000
    18  H    4.296878   2.507131   0.000000
    19  H    5.832877   4.676770   2.318377   0.000000
    20  H    7.698592   6.755701   4.395247   2.088369   0.000000
    21  H    9.550204   9.018724   6.799737   4.488952   2.513943
    22  H    9.493750   9.617470   7.820347   5.731656   4.303263
    23  H    7.694598   8.360248   7.110599   5.538418   4.985203
    24  H    4.930371   5.942911   5.371704   4.726182   5.336105
    25  H    4.930371   5.942911   5.371704   4.726182   5.336105
                   21         22         23         24         25
    21  H    0.000000
    22  H    2.496877   0.000000
    23  H    4.334035   2.468429   0.000000
    24  H    6.011515   5.085118   3.009344   0.000000
    25  H    6.011515   5.085118   3.009344   1.719170   0.000000
 Stoichiometry    C14H11(1+)
 Framework group  CS[SG(C14H9),X(H2)]
 Deg. of freedom    46
 Full point group                 CS      NOp   2
 Largest Abelian subgroup         CS      NOp   2
 Largest concise Abelian subgroup CS      NOp   2
                         Standard orientation:                         
 ---------------------------------------------------------------------
 Center     Atomic      Atomic             Coordinates (Angstroms)
 Number     Number       Type             X           Y           Z
 ---------------------------------------------------------------------
      1          6           0        2.583809   -1.346246    0.000000
      2          6           0        3.746287   -0.550834    0.000000
      3          6           0        3.657817    0.833890    0.000000
      4          6           0        2.380632    1.419783    0.000000
      5          6           0       -2.305811    1.428394    0.000000
      6          6           0       -3.609347    0.927072    0.000000
      7          6           0       -3.776198   -0.459221    0.000000
      8          6           0       -2.661682   -1.340312    0.000000
      9          6           0       -0.007441   -1.606529    0.000000
     10          6           0        0.000000    1.276089    0.000000
     11          6           0        1.272537   -0.780372    0.000000
     12          6           0        1.231319    0.623953    0.000000
     13          6           0       -1.312256   -0.839769    0.000000
     14          6           0       -1.204236    0.571135    0.000000
     15          1           0        2.700908   -2.430626    0.000000
     16          1           0        4.712979   -1.033758    0.000000
     17          1           0        4.551180    1.455933    0.000000
     18          1           0        2.273336    2.503374    0.000000
     19          1           0       -0.039802    2.347593    0.000000
     20          1           0       -2.121908    2.509214    0.000000
     21          1           0       -4.466364    1.601780    0.000000
     22          1           0       -4.779450   -0.875390    0.000000
     23          1           0       -2.855401   -2.421733    0.000000
     24          1           0        0.025966   -2.299296    0.859585
     25          1           0        0.025966   -2.299296   -0.859585
 ---------------------------------------------------------------------
 Rotational constants (GHZ):           2.1017651           0.4424389           0.3662875
 Standard basis: 6-311++G(d,p) (5D, 7F)
 There are   299 symmetry adapted cartesian basis functions of A'  symmetry.
 There are   100 symmetry adapted cartesian basis functions of A"  symmetry.
 There are   285 symmetry adapted basis functions of A'  symmetry.
 There are   100 symmetry adapted basis functions of A"  symmetry.
   385 basis functions,   603 primitive gaussians,   399 cartesian basis functions
    47 alpha electrons       47 beta electrons
       nuclear repulsion energy       777.8919018742 Hartrees.
 NAtoms=   25 NActive=   25 NUniq=   24 SFac= 1.09D+00 NAtFMM=   60 NAOKFM=F Big=F
 Integral buffers will be    131072 words long.
 Regular integral format.
 Two-electron integral symmetry is turned on.
 Nuclear repulsion after empirical dispersion term =      777.8909176798 Hartrees.
 One-electron integrals computed using PRISM.
 NBasis=   385 RedAO= T EigKep=  1.75D-06  NBF=   285   100
 NBsUse=   379 1.00D-06 EigRej=  6.54D-07 NBFU=   279   100
 ExpMin= 3.60D-02 ExpMax= 4.56D+03 ExpMxC= 6.82D+02 IAcc=3 IRadAn=         5 AccDes= 0.00D+00
 Harris functional with IExCor= 1009 and IRadAn=       5 diagonalized for initial guess.
 HarFok:  IExCor= 1009 AccDes= 0.00D+00 IRadAn=         5 IDoV= 1 UseB2=F ITyADJ=14
 ICtDFT=  3500011 ScaDFX=  1.000000  1.000000  1.000000  1.000000
 FoFCou: FMM=F IPFlag=           0 FMFlag=      100000 FMFlg1=           0
         NFxFlg=           0 DoJE=T BraDBF=F KetDBF=T FulRan=T
         wScrn=  0.000000 ICntrl=       500 IOpCl=  0 I1Cent=   200000004 NGrid=           0
         NMat0=    1 NMatS0=      1 NMatT0=    0 NMatD0=    1 NMtDS0=    0 NMtDT0=    0
 Petite list used in FoFCou.
 Initial guess orbital symmetries:
       Occupied  (A') (A') (A') (A') (A') (A') (A') (A') (A') (A')
                 (A') (A') (A') (A') (A') (A') (A') (A') (A') (A')
                 (A') (A') (A') (A') (A') (A') (A') (A') (A') (A')
                 (A') (A') (A") (A') (A') (A') (A') (A') (A") (A')
                 (A") (A') (A') (A") (A") (A") (A")
       Virtual   (A") (A") (A") (A") (A") (A') (A') (A') (A') (A")
                 (A") (A') (A') (A') (A") (A') (A') (A') (A') (A')
                 (A") (A") (A') (A') (A') (A") (A') (A") (A') (A')
                 (A') (A') (A') (A") (A') (A') (A') (A") (A') (A")
                 (A') (A') (A') (A") (A') (A') (A') (A') (A') (A")
                 (A') (A") (A') (A") (A') (A') (A') (A") (A') (A")
                 (A') (A') (A') (A') (A') (A') (A') (A") (A') (A")
                 (A') (A') (A') (A') (A') (A') (A') (A') (A') (A')
                 (A') (A') (A') (A') (A') (A') (A') (A') (A') (A')
                 (A') (A') (A') (A') (A') (A') (A') (A") (A") (A')
                 (A') (A") (A') (A") (A') (A') (A") (A") (A') (A")
                 (A') (A") (A') (A') (A") (A') (A") (A') (A') (A")
                 (A") (A") (A') (A') (A") (A') (A') (A') (A') (A')
                 (A") (A') (A') (A') (A') (A') (A') (A') (A') (A")
                 (A') (A') (A') (A') (A') (A') (A') (A') (A') (A')
                 (A") (A") (A") (A") (A') (A') (A') (A') (A") (A")
                 (A') (A") (A') (A") (A") (A") (A') (A') (A') (A')
                 (A") (A') (A') (A") (A') (A') (A') (A') (A') (A')
                 (A') (A") (A') (A') (A") (A') (A") (A') (A") (A")
                 (A") (A') (A') (A') (A") (A') (A') (A") (A') (A')
                 (A") (A") (A") (A') (A') (A") (A') (A") (A') (A')
                 (A") (A") (A") (A') (A') (A') (A') (A') (A") (A')
                 (A") (A') (A') (A') (A") (A') (A') (A') (A") (A")
                 (A') (A') (A') (A") (A') (A') (A") (A') (A") (A')
                 (A") (A') (A') (A') (A') (A") (A') (A') (A') (A')
                 (A") (A') (A') (A") (A") (A') (A') (A") (A') (A')
                 (A") (A') (A') (A") (A') (A') (A') (A') (A") (A')
                 (A") (A') (A') (A') (A") (A') (A") (A') (A") (A')
                 (A") (A') (A") (A') (A") (A") (A') (A') (A') (A')
                 (A') (A') (A') (A') (A') (A') (A') (A') (A') (A')
                 (A') (A') (A') (A") (A') (A') (A') (A') (A') (A')
                 (A') (A') (A') (A') (A') (A') (A') (A') (A') (A')
                 (A') (A') (A') (A') (A') (A') (A') (A') (A') (A')
                 (A') (A')
 The electronic state of the initial guess is 1-A'.
 Requested convergence on RMS density matrix=1.00D-08 within 128 cycles.
 Requested convergence on MAX density matrix=1.00D-06.
 Requested convergence on             energy=1.00D-06.
 No special actions if energy rises.
 SCF Done:  E(RM062X) =  -539.749942591     A.U. after   15 cycles
            NFock= 15  Conv=0.60D-08     -V/T= 2.0048
 DoSCS=F DFT=T ScalE2(SS,OS)=  1.000000  1.000000
 ExpMin= 3.60D-02 ExpMax= 4.56D+03 ExpMxC= 6.82D+02 IAcc=3 IRadAn=         5 AccDes= 0.00D+00
 HarFok:  IExCor=  205 AccDes= 0.00D+00 IRadAn=         5 IDoV=-2 UseB2=F ITyADJ=14
 ICtDFT= 12500011 ScaDFX=  1.000000  1.000000  1.000000  1.000000
 Range of M.O.s used for correlation:    15   379
 NBasis=   385 NAE=    47 NBE=    47 NFC=    14 NFV=     0
 NROrb=    365 NOA=    33 NOB=    33 NVA=   332 NVB=   332

 **** Warning!!: The largest alpha MO coefficient is  0.13431309D+03

 Orbital symmetries:
       Occupied  (A') (A') (A') (A') (A') (A') (A') (A') (A') (A')
                 (A') (A') (A') (A') (A') (A') (A') (A') (A') (A')
                 (A') (A') (A') (A') (A') (A') (A') (A') (A') (A')
                 (A') (A') (A") (A') (A') (A') (A') (A") (A") (A')
                 (A') (A') (A') (A") (A") (A") (A")
       Virtual   (A") (A") (A") (A") (A') (A') (A') (A') (A") (A')
                 (A') (A") (A') (A') (A") (A') (A") (A') (A') (A')
                 (A") (A") (A') (A') (A') (A") (A') (A") (A") (A")
                 (A') (A') (A') (A') (A') (A') (A') (A') (A") (A')
                 (A") (A') (A') (A") (A') (A") (A") (A') (A") (A')
                 (A') (A') (A') (A') (A') (A") (A') (A') (A') (A')
                 (A") (A') (A') (A') (A') (A") (A') (A') (A') (A')
                 (A') (A') (A') (A') (A') (A') (A') (A') (A') (A')
                 (A') (A') (A') (A') (A') (A') (A') (A') (A') (A')
                 (A') (A') (A') (A") (A') (A") (A') (A") (A') (A')
                 (A") (A') (A') (A') (A") (A") (A') (A') (A") (A')
                 (A") (A') (A") (A') (A") (A') (A') (A") (A') (A")
                 (A") (A') (A") (A') (A') (A') (A") (A') (A') (A')
                 (A') (A') (A') (A') (A') (A') (A') (A') (A') (A')
                 (A') (A') (A') (A') (A") (A') (A') (A') (A') (A')
                 (A') (A') (A") (A') (A") (A') (A") (A") (A') (A')
                 (A") (A") (A') (A") (A') (A") (A") (A") (A') (A')
                 (A') (A') (A") (A') (A") (A') (A') (A') (A') (A")
                 (A') (A') (A') (A") (A') (A') (A") (A') (A") (A")
                 (A") (A') (A') (A") (A') (A') (A') (A") (A') (A')
                 (A") (A") (A") (A') (A') (A") (A') (A") (A') (A')
                 (A") (A") (A') (A") (A') (A') (A') (A') (A") (A')
                 (A") (A') (A') (A') (A") (A') (A') (A') (A") (A")
                 (A') (A') (A') (A") (A') (A') (A") (A') (A") (A')
                 (A") (A') (A') (A') (A") (A') (A') (A') (A') (A')
                 (A') (A") (A') (A') (A') (A") (A') (A") (A') (A")
                 (A') (A') (A') (A') (A') (A") (A') (A') (A') (A')
                 (A') (A") (A') (A") (A") (A') (A") (A') (A") (A")
                 (A') (A") (A') (A") (A") (A") (A') (A') (A') (A')
                 (A') (A') (A') (A') (A') (A') (A') (A') (A') (A')
                 (A') (A') (A') (A") (A') (A') (A') (A') (A') (A')
                 (A') (A') (A') (A') (A') (A') (A') (A') (A') (A')
                 (A') (A') (A') (A') (A') (A') (A') (A') (A') (A')
                 (A') (A')
     4 initial guesses have been made.
 Convergence on wavefunction:    0.001000000000000
 Iteration     1 Dimension     4 NMult     0 NNew      4
 CISAX will form     4 AO SS matrices at one time.
 Iteration     2 Dimension     6 NMult     4 NNew      2
 Iteration     3 Dimension     8 NMult     6 NNew      2
 Iteration     4 Dimension    10 NMult     8 NNew      2
 Iteration     5 Dimension    12 NMult    10 NNew      2
 Iteration     6 Dimension    14 NMult    12 NNew      2
 ***********************************************************************
 Excited states from <AA,BB:AA,BB> singles matrix:
 ***********************************************************************
 
 Ground to excited state transition densities written to RWF  633
 Ground to excited state transition electric dipole moments (Au):
       state          X           Y           Z        Dip. S.      Osc.
         1        -0.0444     -0.6594     -0.0000      0.4368      0.0326
 Ground to excited state transition velocity dipole moments (Au):
       state          X           Y           Z        Dip. S.      Osc.
         1         0.0055      0.0813     -0.0000      0.0066      0.0396
 Ground to excited state transition magnetic dipole moments (Au):
       state          X           Y           Z
         1        -0.0000      0.0000      0.0019
 Ground to excited state transition velocity quadrupole moments (Au):
       state          XX          YY          ZZ          XY          XZ          YZ
         1         0.3371      0.0083     -0.0094      0.0135      0.0000      0.0000
 <0|del|b> * <b|rxdel|0> + <0|del|b> * <b|delr+rdel|0>
 Rotatory Strengths (R) in cgs (10**-40 erg-esu-cm/Gauss)
       state          XX          YY          ZZ    R(velocity)    E-M Angle
         1         0.0000      0.0000      0.0000      0.0000       90.00
 1/2[<0|r|b>*<b|rxdel|0> + (<0|rxdel|b>*<b|r|0>)*]
 Rotatory Strengths (R) in cgs (10**-40 erg-esu-cm/Gauss)
       state          XX          YY          ZZ     R(length)
         1        -0.0000      0.0000      0.0000      0.0000
  1/2[<0|del|b>*<b|r|0> + (<0|r|b>*<b|del|0>)*] (Au)
       state          X           Y           Z        Dip. S.   Osc.(frdel)
         1        -0.0002     -0.0536      0.0000      0.0539      0.0359

 Excitation energies and oscillator strengths:
 
 Excited State   1:      Singlet-A'     3.0483 eV  406.73 nm  f=0.0326  <S**2>=0.000
      47 -> 48         0.70277
 This state for optimization and/or second-order correction.
 Total Energy, E(TD-HF/TD-DFT) =  -539.637920100    
 Copying the excited state density for this state as the 1-particle RhoCI density.
 SavETr:  write IOETrn=   770 NScale= 10 NData=  16 NLR=1 NState=    1 LETran=      28.

 **********************************************************************

            Population analysis using the SCF Density.

 **********************************************************************

 Orbital symmetries:
       Occupied  (A') (A') (A') (A') (A') (A') (A') (A') (A') (A')
                 (A') (A') (A') (A') (A') (A') (A') (A') (A') (A')
                 (A') (A') (A') (A') (A') (A') (A') (A') (A') (A')
                 (A') (A') (A") (A') (A') (A') (A') (A") (A") (A')
                 (A') (A') (A') (A") (A") (A") (A")
       Virtual   (A") (A") (A") (A") (A') (A') (A') (A') (A") (A')
                 (A') (A") (A') (A') (A") (A') (A") (A') (A') (A')
                 (A") (A") (A') (A') (A') (A") (A') (A") (A") (A")
                 (A') (A') (A') (A') (A') (A') (A') (A') (A") (A')
                 (A") (A') (A') (A") (A') (A") (A") (A') (A") (A')
                 (A') (A') (A') (A') (A') (A") (A') (A') (A') (A')
                 (A") (A') (A') (A') (A') (A") (A') (A') (A') (A')
                 (A') (A') (A') (A') (A') (A') (A') (A') (A') (A')
                 (A') (A') (A') (A') (A') (A') (A') (A') (A') (A')
                 (A') (A') (A') (A") (A') (A") (A') (A") (A') (A')
                 (A") (A') (A') (A') (A") (A") (A') (A') (A") (A')
                 (A") (A') (A") (A') (A") (A') (A') (A") (A') (A")
                 (A") (A') (A") (A') (A') (A') (A") (A') (A') (A')
                 (A') (A') (A') (A') (A') (A') (A') (A') (A') (A')
                 (A') (A') (A') (A') (A") (A') (A') (A') (A') (A')
                 (A') (A') (A") (A') (A") (A') (A") (A") (A') (A')
                 (A") (A") (A') (A") (A') (A") (A") (A") (A') (A')
                 (A') (A') (A") (A') (A") (A') (A') (A') (A') (A")
                 (A') (A') (A') (A") (A') (A') (A") (A') (A") (A")
                 (A") (A') (A') (A") (A') (A') (A') (A") (A') (A')
                 (A") (A") (A") (A') (A') (A") (A') (A") (A') (A')
                 (A") (A") (A') (A") (A') (A') (A') (A') (A") (A')
                 (A") (A') (A') (A') (A") (A') (A') (A') (A") (A")
                 (A') (A') (A') (A") (A') (A') (A") (A') (A") (A')
                 (A") (A') (A') (A') (A") (A') (A') (A') (A') (A')
                 (A') (A") (A') (A') (A') (A") (A') (A") (A') (A")
                 (A') (A') (A') (A') (A') (A") (A') (A') (A') (A')
                 (A') (A") (A') (A") (A") (A') (A") (A') (A") (A")
                 (A') (A") (A') (A") (A") (A") (A') (A') (A') (A')
                 (A') (A') (A') (A') (A') (A') (A') (A') (A') (A')
                 (A') (A') (A') (A") (A') (A') (A') (A') (A') (A')
                 (A') (A') (A') (A') (A') (A') (A') (A') (A') (A')
                 (A') (A') (A') (A') (A') (A') (A') (A') (A') (A')
                 (A') (A')
 The electronic state is 1-A'.
 Alpha  occ. eigenvalues --  -10.76309 -10.74263 -10.73865 -10.71984 -10.71800
 Alpha  occ. eigenvalues --  -10.71736 -10.71651 -10.71497 -10.71495 -10.71251
 Alpha  occ. eigenvalues --  -10.71190 -10.70562 -10.69885 -10.69838  -1.16398
 Alpha  occ. eigenvalues --   -1.12138  -1.06717  -1.05258  -1.01038  -1.00074
 Alpha  occ. eigenvalues --   -0.95496  -0.90793  -0.86489  -0.85813  -0.83579
 Alpha  occ. eigenvalues --   -0.78029  -0.75566  -0.74021  -0.69944  -0.69142
 Alpha  occ. eigenvalues --   -0.68028  -0.67835  -0.67502  -0.64099  -0.63619
 Alpha  occ. eigenvalues --   -0.63215  -0.61965  -0.60363  -0.59405  -0.58870
 Alpha  occ. eigenvalues --   -0.56792  -0.55175  -0.54756  -0.52217  -0.46580
 Alpha  occ. eigenvalues --   -0.45814  -0.44815
 Alpha virt. eigenvalues --   -0.25557  -0.14879  -0.14163  -0.13051  -0.11168
 Alpha virt. eigenvalues --   -0.10108  -0.09248  -0.07987  -0.07932  -0.07481
 Alpha virt. eigenvalues --   -0.07125  -0.06936  -0.05727  -0.05622  -0.05296
 Alpha virt. eigenvalues --   -0.03841  -0.03627  -0.03384  -0.03138  -0.02146
 Alpha virt. eigenvalues --   -0.01413  -0.00825   0.00027   0.00269   0.00596
 Alpha virt. eigenvalues --    0.00983   0.01420   0.01857   0.02385   0.02512
 Alpha virt. eigenvalues --    0.02530   0.02562   0.02634   0.03011   0.03837
 Alpha virt. eigenvalues --    0.04296   0.04540   0.04634   0.05144   0.05351
 Alpha virt. eigenvalues --    0.06028   0.06191   0.06575   0.06724   0.07133
 Alpha virt. eigenvalues --    0.07516   0.08007   0.08219   0.08587   0.08643
 Alpha virt. eigenvalues --    0.08845   0.09551   0.09660   0.10558   0.10802
 Alpha virt. eigenvalues --    0.10873   0.11674   0.11984   0.12655   0.12964
 Alpha virt. eigenvalues --    0.13016   0.13026   0.13947   0.15133   0.15581
 Alpha virt. eigenvalues --    0.16257   0.16891   0.16945   0.17086   0.18232
 Alpha virt. eigenvalues --    0.18251   0.18351   0.19237   0.19469   0.20123
 Alpha virt. eigenvalues --    0.21129   0.21232   0.22684   0.22865   0.23484
 Alpha virt. eigenvalues --    0.23795   0.25071   0.25303   0.26884   0.27112
 Alpha virt. eigenvalues --    0.28589   0.28780   0.30815   0.31593   0.35576
 Alpha virt. eigenvalues --    0.35796   0.38873   0.38891   0.41209   0.41625
 Alpha virt. eigenvalues --    0.41975   0.42377   0.43058   0.43372   0.44038
 Alpha virt. eigenvalues --    0.44292   0.44629   0.45975   0.46592   0.47869
 Alpha virt. eigenvalues --    0.48313   0.48368   0.48731   0.49266   0.50054
 Alpha virt. eigenvalues --    0.50445   0.51284   0.52225   0.53859   0.53898
 Alpha virt. eigenvalues --    0.54493   0.54681   0.55428   0.55915   0.57579
 Alpha virt. eigenvalues --    0.58327   0.58350   0.60701   0.61495   0.62213
 Alpha virt. eigenvalues --    0.63581   0.63832   0.64925   0.65961   0.66967
 Alpha virt. eigenvalues --    0.69137   0.69929   0.70678   0.71618   0.72786
 Alpha virt. eigenvalues --    0.74360   0.75200   0.76051   0.76686   0.76989
 Alpha virt. eigenvalues --    0.77190   0.77683   0.78340   0.79941   0.81037
 Alpha virt. eigenvalues --    0.81841   0.82119   0.82543   0.83952   0.84151
 Alpha virt. eigenvalues --    0.86320   0.88052   0.88416   0.88693   0.90168
 Alpha virt. eigenvalues --    0.90294   0.90924   0.91986   0.93121   0.94340
 Alpha virt. eigenvalues --    0.97029   0.97442   1.00272   1.01200   1.01840
 Alpha virt. eigenvalues --    1.02639   1.03209   1.04844   1.06182   1.07889
 Alpha virt. eigenvalues --    1.20923   1.21764   1.22769   1.26175   1.26692
 Alpha virt. eigenvalues --    1.32133   1.32477   1.34629   1.36724   1.38115
 Alpha virt. eigenvalues --    1.38198   1.39035   1.41145   1.41758   1.43132
 Alpha virt. eigenvalues --    1.43444   1.43647   1.44842   1.45328   1.46445
 Alpha virt. eigenvalues --    1.47112   1.47793   1.51700   1.53005   1.54185
 Alpha virt. eigenvalues --    1.55622   1.55988   1.56273   1.58497   1.61426
 Alpha virt. eigenvalues --    1.62711   1.62951   1.63405   1.65374   1.67781
 Alpha virt. eigenvalues --    1.68441   1.69506   1.69892   1.72662   1.74432
 Alpha virt. eigenvalues --    1.76570   1.77798   1.78037   1.78179   1.79253
 Alpha virt. eigenvalues --    1.79928   1.81553   1.83101   1.84301   1.84628
 Alpha virt. eigenvalues --    1.84719   1.85665   1.86185   1.87547   1.90374
 Alpha virt. eigenvalues --    1.91676   1.94443   1.95281   1.96580   1.98344
 Alpha virt. eigenvalues --    1.99269   2.02982   2.03539   2.06220   2.09989
 Alpha virt. eigenvalues --    2.10928   2.13823   2.17065   2.18275   2.20219
 Alpha virt. eigenvalues --    2.21931   2.27274   2.29034   2.32533   2.33136
 Alpha virt. eigenvalues --    2.34133   2.37622   2.38954   2.41146   2.43225
 Alpha virt. eigenvalues --    2.45323   2.46059   2.48135   2.51241   2.52240
 Alpha virt. eigenvalues --    2.53603   2.54629   2.56588   2.57240   2.57669
 Alpha virt. eigenvalues --    2.59601   2.60290   2.61788   2.62629   2.63818
 Alpha virt. eigenvalues --    2.64247   2.64934   2.65292   2.65785   2.66885
 Alpha virt. eigenvalues --    2.68377   2.70095   2.72637   2.73481   2.74316
 Alpha virt. eigenvalues --    2.75438   2.76747   2.77791   2.79296   2.82318
 Alpha virt. eigenvalues --    2.83331   2.86033   2.90729   2.91538   2.98664
 Alpha virt. eigenvalues --    2.99408   3.02655   3.08715   3.11515   3.14027
 Alpha virt. eigenvalues --    3.20302   3.22650   3.25365   3.27104   3.28441
 Alpha virt. eigenvalues --    3.30381   3.33542   3.40200   3.42326   3.44909
 Alpha virt. eigenvalues --    3.46406   3.47341   3.54580   3.63045   3.66410
 Alpha virt. eigenvalues --    3.67720   3.91766   3.93296   3.93670   3.95275
 Alpha virt. eigenvalues --    4.02602   4.04352   4.05786   4.13779   4.32928
 Alpha virt. eigenvalues --    4.57402   4.67225   4.68770  23.44615  23.61126
 Alpha virt. eigenvalues --   23.80621  23.81659  23.83411  23.87176  23.88624
 Alpha virt. eigenvalues --   23.92731  23.94397  23.95821  23.99343  24.03659
 Alpha virt. eigenvalues --   24.07541  24.08539
          Condensed to atoms (all electrons):
               1          2          3          4          5          6
     1  C   10.348366   0.234552  -0.750933   3.488786  -0.288935  -0.117952
     2  C    0.234552   7.035753   0.099161  -0.839142  -0.066785  -0.013597
     3  C   -0.750933   0.099161   7.156459  -0.052777  -0.089248   0.047948
     4  C    3.488786  -0.839142  -0.052777  12.245005  -1.010819  -0.118155
     5  C   -0.288935  -0.066785  -0.089248  -1.010819  11.961844   0.335233
     6  C   -0.117952  -0.013597   0.047948  -0.118155   0.335233   7.434272
     7  C    0.016776   0.004223  -0.007134  -0.067093  -0.860127   0.251368
     8  C    0.178143   0.042644  -0.083836  -0.361764   3.071831  -0.449629
     9  C   -0.609119  -0.494502   0.316388  -0.189296  -0.400218   0.364218
    10  C   -1.891296   0.007517  -0.150092  -2.468927  -2.690962  -0.437087
    11  C   -1.441689  -0.310132   1.370204  -1.557095  -1.718865  -0.066172
    12  C   -2.774126   0.712335  -1.535279  -1.600203  -0.315100  -0.114312
    13  C    0.020318  -0.173378   0.107634  -1.547723  -2.024195   1.112099
    14  C   -0.850131  -0.189636  -0.250303  -0.358227  -0.472741  -2.045564
    15  H    0.391101  -0.095404   0.006702   0.030449   0.004839   0.001243
    16  H   -0.013882   0.391098  -0.036367   0.014877  -0.002349  -0.000292
    17  H   -0.042347  -0.012149   0.371019  -0.067492   0.001931   0.000751
    18  H    0.079206   0.014215  -0.104992   0.521147  -0.006285  -0.007433
    19  H   -0.078655  -0.019435   0.086540  -0.093726  -0.032939   0.092328
    20  H    0.006912   0.002251  -0.008323  -0.003561   0.501564  -0.112598
    21  H   -0.001130  -0.000414   0.000624   0.001460  -0.049289   0.358906
    22  H    0.000001   0.000367  -0.000186  -0.002415   0.003481  -0.032524
    23  H    0.003562  -0.001851   0.000469   0.003559   0.035316  -0.001878
    24  H    0.026522   0.011347  -0.000897  -0.005964  -0.007320  -0.001610
    25  H    0.026522   0.011347  -0.000897  -0.005964  -0.007320  -0.001610
               7          8          9         10         11         12
     1  C    0.016776   0.178143  -0.609119  -1.891296  -1.441689  -2.774126
     2  C    0.004223   0.042644  -0.494502   0.007517  -0.310132   0.712335
     3  C   -0.007134  -0.083836   0.316388  -0.150092   1.370204  -1.535279
     4  C   -0.067093  -0.361764  -0.189296  -2.468927  -1.557095  -1.600203
     5  C   -0.860127   3.071831  -0.400218  -2.690962  -1.718865  -0.315100
     6  C    0.251368  -0.449629   0.364218  -0.437087  -0.066172  -0.114312
     7  C    6.619293   0.356503  -0.258044   0.015901  -0.131458  -0.185295
     8  C    0.356503   9.829916  -0.505692  -1.782701   0.043164  -0.912292
     9  C   -0.258044  -0.505692   8.206058   0.461730   0.934258  -1.482004
    10  C    0.015901  -1.782701   0.461730   9.198657   0.716466   1.999027
    11  C   -0.131458   0.043164   0.934258   0.716466  13.061270  -1.778041
    12  C   -0.185295  -0.912292  -1.482004   1.999027  -1.778041  13.312116
    13  C   -0.052608  -1.426734   1.000435   1.036964   0.960866  -3.130161
    14  C    0.336606  -2.281836  -1.703474   1.614337  -3.624934   3.352159
    15  H   -0.002195   0.001553   0.037385  -0.009097  -0.039274  -0.001023
    16  H    0.000289  -0.000120   0.005784  -0.008861   0.010604  -0.013015
    17  H   -0.000331  -0.001017  -0.005331   0.019685  -0.018265   0.093251
    18  H    0.000685   0.003047  -0.023262  -0.007147  -0.038049  -0.068505
    19  H   -0.006811  -0.065546   0.088273   0.433267   0.071845  -0.060532
    20  H    0.014889   0.069371  -0.029028   0.001530  -0.023980  -0.015438
    21  H   -0.017593  -0.022236  -0.004982   0.015712  -0.003728   0.006254
    22  H    0.392626  -0.032509   0.008016  -0.003590   0.001142  -0.009118
    23  H   -0.078539   0.389533   0.019946  -0.014351  -0.010945   0.005109
    24  H    0.011177   0.022055   0.359295   0.003197  -0.002534  -0.042619
    25  H    0.011177   0.022055   0.359295   0.003197  -0.002534  -0.042619
              13         14         15         16         17         18
     1  C    0.020318  -0.850131   0.391101  -0.013882  -0.042347   0.079206
     2  C   -0.173378  -0.189636  -0.095404   0.391098  -0.012149   0.014215
     3  C    0.107634  -0.250303   0.006702  -0.036367   0.371019  -0.104992
     4  C   -1.547723  -0.358227   0.030449   0.014877  -0.067492   0.521147
     5  C   -2.024195  -0.472741   0.004839  -0.002349   0.001931  -0.006285
     6  C    1.112099  -2.045564   0.001243  -0.000292   0.000751  -0.007433
     7  C   -0.052608   0.336606  -0.002195   0.000289  -0.000331   0.000685
     8  C   -1.426734  -2.281836   0.001553  -0.000120  -0.001017   0.003047
     9  C    1.000435  -1.703474   0.037385   0.005784  -0.005331  -0.023262
    10  C    1.036964   1.614337  -0.009097  -0.008861   0.019685  -0.007147
    11  C    0.960866  -3.624934  -0.039274   0.010604  -0.018265  -0.038049
    12  C   -3.130161   3.352159  -0.001023  -0.013015   0.093251  -0.068505
    13  C   13.006572  -2.448662  -0.003823   0.000738  -0.002909  -0.028716
    14  C   -2.448662  14.357180   0.003901  -0.008635   0.005010  -0.012918
    15  H   -0.003823   0.003901   0.439250  -0.011009   0.002085  -0.000106
    16  H    0.000738  -0.008635  -0.011009   0.425635  -0.007261   0.002325
    17  H   -0.002909   0.005010   0.002085  -0.007261   0.416049  -0.009951
    18  H   -0.028716  -0.012918  -0.000106   0.002325  -0.009951   0.461287
    19  H    0.104700  -0.118215   0.000931  -0.001294   0.003803  -0.016793
    20  H   -0.063677  -0.026728  -0.000174   0.000034  -0.000341   0.002185
    21  H   -0.024406   0.080297   0.000028  -0.000008   0.000020  -0.000230
    22  H    0.024979  -0.008874  -0.000104   0.000005  -0.000007  -0.000003
    23  H   -0.044683   0.022171   0.000313  -0.000084   0.000019  -0.000102
    24  H    0.008885  -0.044370  -0.001198   0.000535  -0.000124   0.000143
    25  H    0.008885  -0.044370  -0.001198   0.000535  -0.000124   0.000143
              19         20         21         22         23         24
     1  C   -0.078655   0.006912  -0.001130   0.000001   0.003562   0.026522
     2  C   -0.019435   0.002251  -0.000414   0.000367  -0.001851   0.011347
     3  C    0.086540  -0.008323   0.000624  -0.000186   0.000469  -0.000897
     4  C   -0.093726  -0.003561   0.001460  -0.002415   0.003559  -0.005964
     5  C   -0.032939   0.501564  -0.049289   0.003481   0.035316  -0.007320
     6  C    0.092328  -0.112598   0.358906  -0.032524  -0.001878  -0.001610
     7  C   -0.006811   0.014889  -0.017593   0.392626  -0.078539   0.011177
     8  C   -0.065546   0.069371  -0.022236  -0.032509   0.389533   0.022055
     9  C    0.088273  -0.029028  -0.004982   0.008016   0.019946   0.359295
    10  C    0.433267   0.001530   0.015712  -0.003590  -0.014351   0.003197
    11  C    0.071845  -0.023980  -0.003728   0.001142  -0.010945  -0.002534
    12  C   -0.060532  -0.015438   0.006254  -0.009118   0.005109  -0.042619
    13  C    0.104700  -0.063677  -0.024406   0.024979  -0.044683   0.008885
    14  C   -0.118215  -0.026728   0.080297  -0.008874   0.022171  -0.044370
    15  H    0.000931  -0.000174   0.000028  -0.000104   0.000313  -0.001198
    16  H   -0.001294   0.000034  -0.000008   0.000005  -0.000084   0.000535
    17  H    0.003803  -0.000341   0.000020  -0.000007   0.000019  -0.000124
    18  H   -0.016793   0.002185  -0.000230  -0.000003  -0.000102   0.000143
    19  H    0.514342  -0.015994   0.003013  -0.000915   0.000502   0.000199
    20  H   -0.015994   0.470398  -0.009899   0.002017   0.000077   0.000143
    21  H    0.003013  -0.009899   0.415067  -0.006810   0.001995  -0.000140
    22  H   -0.000915   0.002017  -0.006810   0.422475  -0.009927   0.000504
    23  H    0.000502   0.000077   0.001995  -0.009927   0.429308  -0.000945
    24  H    0.000199   0.000143  -0.000140   0.000504  -0.000945   0.491634
    25  H    0.000199   0.000143  -0.000140   0.000504  -0.000945  -0.078983
              25
     1  C    0.026522
     2  C    0.011347
     3  C   -0.000897
     4  C   -0.005964
     5  C   -0.007320
     6  C   -0.001610
     7  C    0.011177
     8  C    0.022055
     9  C    0.359295
    10  C    0.003197
    11  C   -0.002534
    12  C   -0.042619
    13  C    0.008885
    14  C   -0.044370
    15  H   -0.001198
    16  H    0.000535
    17  H   -0.000124
    18  H    0.000143
    19  H    0.000199
    20  H    0.000143
    21  H   -0.000140
    22  H    0.000504
    23  H   -0.000945
    24  H   -0.078983
    25  H    0.491634
 Mulliken charges:
               1
     1  C    0.039427
     2  C   -0.350388
     3  C   -0.491886
     4  C    0.045059
     5  C    0.127456
     6  C   -0.477951
     7  C   -0.364288
     8  C   -0.103902
     9  C   -0.456131
    10  C   -0.063075
    11  C   -0.402123
    12  C    0.599429
    13  C   -0.421400
    14  C    0.717959
    15  H    0.244825
    16  H    0.250716
    17  H    0.254026
    18  H    0.240107
    19  H    0.110914
    20  H    0.238227
    21  H    0.257628
    22  H    0.250865
    23  H    0.252371
    24  H    0.251068
    25  H    0.251068
 Sum of Mulliken charges =   1.00000
 Mulliken charges with hydrogens summed into heavy atoms:
               1
     1  C    0.284251
     2  C   -0.099671
     3  C   -0.237861
     4  C    0.285165
     5  C    0.365683
     6  C   -0.220324
     7  C   -0.113423
     8  C    0.148469
     9  C    0.046006
    10  C    0.047839
    11  C   -0.402123
    12  C    0.599429
    13  C   -0.421400
    14  C    0.717959
 Electronic spatial extent (au):  <R**2>=           2875.3653
 Charge=              1.0000 electrons
 Dipole moment (field-independent basis, Debye):
    X=             -0.0836    Y=              0.2680    Z=              0.0000  Tot=              0.2807
 Quadrupole moment (field-independent basis, Debye-Ang):
   XX=            -30.0507   YY=            -56.3350   ZZ=            -84.4407
   XY=             -0.1512   XZ=             -0.0000   YZ=              0.0000
 Traceless Quadrupole moment (field-independent basis, Debye-Ang):
   XX=             26.8914   YY=              0.6072   ZZ=            -27.4986
   XY=             -0.1512   XZ=             -0.0000   YZ=              0.0000
 Octapole moment (field-independent basis, Debye-Ang**2):
  XXX=             -1.3510  YYY=              4.0981  ZZZ=              0.0000  XYY=             -0.2787
  XXY=             -0.5186  XXZ=              0.0000  XZZ=              0.2186  YZZ=             -2.8059
  YYZ=             -0.0000  XYZ=              0.0000
 Hexadecapole moment (field-independent basis, Debye-Ang**3):
 XXXX=          -2111.0487 YYYY=           -621.8151 ZZZZ=            -99.9509 XXXY=              3.2847
 XXXZ=              0.0000 YYYX=              4.4941 YYYZ=              0.0000 ZZZX=              0.0000
 ZZZY=              0.0000 XXYY=           -509.4366 XXZZ=           -595.7519 YYZZ=           -147.6479
 XXYZ=              0.0000 YYXZ=             -0.0000 ZZXY=              1.5826
 N-N= 7.778909176798D+02 E-N=-2.791880873106D+03  KE= 5.371946618307D+02
 Symmetry A'   KE= 5.225798758043D+02
 Symmetry A"   KE= 1.461478602643D+01
 Unable to Open any file for archive entry.
 1\1\GINC-GADI-CPU-CLX-0359\SP\RM062X TD-FC\6-311++G(d,p)\C14H11(1+)\TS
 1578\02-Aug-2022\0\\#n M062X/6-311++G(d,p) TD(NStates=1) EmpiricalDisp
 ersion=GD3 SP\\SP_-2\\1,1\C,0,0.,2.596655,1.318431\C,0,0.,3.751508,0.5
 11989\C,0,0.,3.649861,-0.87183\C,0,0.,2.367156,-1.445538\C,0,0.,-2.319
 156,-1.409538\C,0,0.,-3.617861,-0.89583\C,0,0.,-3.771508,0.491989\C,0,
 0.,-2.648655,1.362431\C,0,0.,0.008,1.603369\C,0,0.,-0.012,-1.279189\C,
 0,0.,1.280055,0.765065\C,0,0.,1.225471,-0.638804\C,0,0.,-1.304055,0.84
 9065\C,0,0.,-1.209471,-0.562804\H,0,0.,2.724071,2.401647\H,0,0.,4.7227
 53,0.985689\H,0,0.,4.537262,-1.502349\H,0,0.,2.24955,-2.528059\H,0,0.,
 -0.062,-2.350266\H,0,0.,-2.14555,-2.492059\H,0,0.,-4.481262,-1.562349\
 H,0,0.,-4.770753,0.917689\H,0,0.,-2.832071,2.445647\H,0,-0.859585,0.04
 8,2.295787\H,0,0.859585,0.048,2.295787\\Version=ES64L-G16RevC.01\State
 =1-A'\HF=-539.7499426\RMSD=6.003e-09\PG=CS [SG(C14H9),X(H2)]\\@
 The archive entry for this job was punched.


 ABSOLUTISM, OBSOLETISM -- IF IT WORKS, IT'S OUT OF DATE

                          -- STAFFORD BEER
 Job cpu time:       0 days  0 hours 52 minutes 11.8 seconds.
 Elapsed time:       0 days  0 hours  1 minutes  5.8 seconds.
 File lengths (MBytes):  RWF=    460 Int=      0 D2E=      0 Chk=     15 Scr=      1
 Normal termination of Gaussian 16 at Tue Aug  2 12:30:30 2022.
