 Entering Gaussian System, Link 0=g16
 Initial command:
 /apps/gaussian/g16c01/g16/l1.exe "/jobfs/53803768.gadi-pbs/Gau-166865.inp" -scrdir="/jobfs/53803768.gadi-pbs/"
 Entering Link 1 = /apps/gaussian/g16c01/g16/l1.exe PID=    166866.
  
 Copyright (c) 1988-2019, Gaussian, Inc.  All Rights Reserved.
  
 This is part of the Gaussian(R) 16 program.  It is based on
 the Gaussian(R) 09 system (copyright 2009, Gaussian, Inc.),
 the Gaussian(R) 03 system (copyright 2003, Gaussian, Inc.),
 the Gaussian(R) 98 system (copyright 1998, Gaussian, Inc.),
 the Gaussian(R) 94 system (copyright 1995, Gaussian, Inc.),
 the Gaussian 92(TM) system (copyright 1992, Gaussian, Inc.),
 the Gaussian 90(TM) system (copyright 1990, Gaussian, Inc.),
 the Gaussian 88(TM) system (copyright 1988, Gaussian, Inc.),
 the Gaussian 86(TM) system (copyright 1986, Carnegie Mellon
 University), and the Gaussian 82(TM) system (copyright 1983,
 Carnegie Mellon University). Gaussian is a federally registered
 trademark of Gaussian, Inc.
  
 This software contains proprietary and confidential information,
 including trade secrets, belonging to Gaussian, Inc.
  
 This software is provided under written license and may be
 used, copied, transmitted, or stored only in accord with that
 written license.
  
 The following legend is applicable only to US Government
 contracts under FAR:
  
                    RESTRICTED RIGHTS LEGEND
  
 Use, reproduction and disclosure by the US Government is
 subject to restrictions as set forth in subparagraphs (a)
 and (c) of the Commercial Computer Software - Restricted
 Rights clause in FAR 52.227-19.
  
 Gaussian, Inc.
 340 Quinnipiac St., Bldg. 40, Wallingford CT 06492
  
  
 ---------------------------------------------------------------
 Warning -- This program may not be used in any manner that
 competes with the business of Gaussian, Inc. or will provide
 assistance to any competitor of Gaussian, Inc.  The licensee
 of this program is prohibited from giving any competitor of
 Gaussian, Inc. access to this program.  By using this program,
 the user acknowledges that Gaussian, Inc. is engaged in the
 business of creating and licensing software in the field of
 computational chemistry and represents and warrants to the
 licensee that it is not a competitor of Gaussian, Inc. and that
 it will not use this program in any manner prohibited above.
 ---------------------------------------------------------------
  

 Cite this work as:
 Gaussian 16, Revision C.01,
 M. J. Frisch, G. W. Trucks, H. B. Schlegel, G. E. Scuseria, 
 M. A. Robb, J. R. Cheeseman, G. Scalmani, V. Barone, 
 G. A. Petersson, H. Nakatsuji, X. Li, M. Caricato, A. V. Marenich, 
 J. Bloino, B. G. Janesko, R. Gomperts, B. Mennucci, H. P. Hratchian, 
 J. V. Ortiz, A. F. Izmaylov, J. L. Sonnenberg, D. Williams-Young, 
 F. Ding, F. Lipparini, F. Egidi, J. Goings, B. Peng, A. Petrone, 
 T. Henderson, D. Ranasinghe, V. G. Zakrzewski, J. Gao, N. Rega, 
 G. Zheng, W. Liang, M. Hada, M. Ehara, K. Toyota, R. Fukuda, 
 J. Hasegawa, M. Ishida, T. Nakajima, Y. Honda, O. Kitao, H. Nakai, 
 T. Vreven, K. Throssell, J. A. Montgomery, Jr., J. E. Peralta, 
 F. Ogliaro, M. J. Bearpark, J. J. Heyd, E. N. Brothers, K. N. Kudin, 
 V. N. Staroverov, T. A. Keith, R. Kobayashi, J. Normand, 
 K. Raghavachari, A. P. Rendell, J. C. Burant, S. S. Iyengar, 
 J. Tomasi, M. Cossi, J. M. Millam, M. Klene, C. Adamo, R. Cammi, 
 J. W. Ochterski, R. L. Martin, K. Morokuma, O. Farkas, 
 J. B. Foresman, and D. J. Fox, Gaussian, Inc., Wallingford CT, 2019.
 
 ******************************************
 Gaussian 16:  ES64L-G16RevC.01  3-Jul-2019
                 2-Aug-2022 
 ******************************************
 %NProcShared=48
 Will use up to   48 processors via shared memory.
 %mem = 190GB
 ---------------------------------------------------------------
 #n M062X/6-311++G(d,p) TD(NStates=1) EmpiricalDispersion=GD3 SP
 ---------------------------------------------------------------
 1/38=1,172=1/1;
 2/12=2,17=6,18=5,40=1/2;
 3/5=4,6=6,7=1111,11=9,25=1,30=1,74=-55,124=31/1,2,3,8;
 4//1;
 5/5=2,38=5/2;
 8/6=1,10=2,108=1/1;
 9/41=1,42=1,70=2/14;
 6/7=2,8=2,9=2,10=2/1;
 99/5=1,9=1/99;
 -----
 SP_-8
 -----
 Symbolic Z-matrix:
 Charge =  1 Multiplicity = 1
 C                     0.        2.46666   1.26043 
 C                     0.        3.69751   0.60999 
 C                     0.        3.71786  -0.76783 
 C                     0.        2.48716  -1.49154 
 C                     0.       -2.29516  -1.34754 
 C                     0.       -3.58986  -0.86383 
 C                     0.       -3.77751   0.52999 
 C                     0.       -2.67466   1.43643 
 C                     0.        0.032     1.54337 
 C                     0.       -0.048    -1.33919 
 C                     0.        1.23206   0.58707 
 C                     0.        1.25747  -0.8048 
 C                     0.       -1.32805   0.92307 
 C                     0.       -1.19347  -0.5008 
 H                     0.        2.44607   2.34365 
 H                     0.        4.60675   1.19169 
 H                     0.        4.66126  -1.30835 
 H                     0.        2.51355  -2.57406 
 H                     0.       -0.248    -2.41427 
 H                     0.       -2.09755  -2.43006 
 H                     0.       -4.43726  -1.54835 
 H                     0.       -4.79875   0.91969 
 H                     0.       -2.87807   2.51965 
 H                    -0.85959   0.192     2.23579 
 H                     0.85959   0.192     2.23579 
 
                          Input orientation:                          
 ---------------------------------------------------------------------
 Center     Atomic      Atomic             Coordinates (Angstroms)
 Number     Number       Type             X           Y           Z
 ---------------------------------------------------------------------
      1          6           0        0.000000    2.466655    1.260431
      2          6           0        0.000000    3.697508    0.609989
      3          6           0        0.000000    3.717861   -0.767830
      4          6           0        0.000000    2.487156   -1.491538
      5          6           0        0.000000   -2.295156   -1.347538
      6          6           0        0.000000   -3.589861   -0.863830
      7          6           0        0.000000   -3.777508    0.529989
      8          6           0        0.000000   -2.674655    1.436431
      9          6           0        0.000000    0.032000    1.543369
     10          6           0        0.000000   -0.048000   -1.339189
     11          6           0        0.000000    1.232055    0.587065
     12          6           0        0.000000    1.257471   -0.804804
     13          6           0        0.000000   -1.328055    0.923065
     14          6           0        0.000000   -1.193471   -0.500804
     15          1           0        0.000000    2.446071    2.343647
     16          1           0        0.000000    4.606753    1.191689
     17          1           0        0.000000    4.661262   -1.308349
     18          1           0        0.000000    2.513550   -2.574059
     19          1           0        0.000000   -0.248000   -2.414266
     20          1           0        0.000000   -2.097550   -2.430059
     21          1           0        0.000000   -4.437262   -1.548349
     22          1           0        0.000000   -4.798753    0.919689
     23          1           0        0.000000   -2.878071    2.519647
     24          1           0       -0.859585    0.192000    2.235787
     25          1           0        0.859585    0.192000    2.235787
 ---------------------------------------------------------------------
                    Distance matrix (angstroms):
                    1          2          3          4          5
     1  C    0.000000
     2  C    1.392147   0.000000
     3  C    2.383141   1.377969   0.000000
     4  C    2.752045   2.425153   1.427721   0.000000
     5  C    5.429212   6.304279   6.040897   4.784479   0.000000
     6  C    6.418245   7.434910   7.308353   6.109350   1.382112
     7  C    6.286741   7.475444   7.606898   6.582749   2.392170
     8  C    5.144322   6.425532   6.761880   5.934416   2.809716
     9  C    2.451040   3.782479   4.350542   3.903646   3.711199
    10  C    3.616838   4.222336   3.808958   2.539730   2.247172
    11  C    1.406293   2.465560   2.831073   2.428141   4.022923
    12  C    2.393182   2.820535   2.460668   1.408449   3.593845
    13  C    3.809677   5.035305   5.321691   4.515102   2.467979
    14  C    4.061831   5.015530   4.918586   3.811636   1.389485
    15  H    1.083412   2.138145   3.361360   3.835405   6.008667
    16  H    2.141202   1.079399   2.151707   3.419415   7.354184
    17  H    3.378599   2.146821   1.087275   2.181810   6.956528
    18  H    3.834777   3.397046   2.170905   1.082843   4.962661
    19  H    4.568670   4.971232   4.294043   2.886608   2.308410
    20  H    5.869556   6.544050   6.048306   4.679781   1.100409
    21  H    7.453410   8.416229   8.192389   6.924651   2.151498
    22  H    7.273394   8.501904   8.682191   7.674535   3.377620
    23  H    5.491058   6.847265   7.369791   6.698900   3.910871
    24  H    2.619973   3.958622   4.710870   4.460894   4.445790
    25  H    2.619973   3.958622   4.710870   4.460894   4.445790
                    6          7          8          9         10
     6  C    0.000000
     7  C    1.406394   0.000000
     8  C    2.475642   1.427558   0.000000
     9  C    4.348849   3.941991   2.708767   0.000000
    10  C    3.573618   4.171697   3.821437   2.883668   0.000000
    11  C    5.035471   5.009888   3.997975   1.534487   2.312790
    12  C    4.847691   5.208904   4.526008   2.648716   1.410610
    13  C    2.882492   2.480792   1.441137   1.494833   2.599295
    14  C    2.423731   2.782046   2.438603   2.383364   1.419505
    15  H    6.835231   6.482460   5.200469   2.543262   4.447884
    16  H    8.450422   8.410332   7.285520   4.588251   5.298308
    17  H    8.263088   8.636685   7.832592   5.437128   4.709363
    18  H    6.338494   7.015164   6.557553   4.807422   2.843667
    19  H    3.684004   4.596310   4.551541   3.967528   1.093522
    20  H    2.163346   3.403549   3.909322   4.508116   2.321778
    21  H    1.089337   2.180542   3.466366   5.434429   4.394243
    22  H    2.154614   1.093072   2.186050   4.870847   5.260436
    23  H    3.457537   2.183512   1.102150   3.069468   4.785386
    24  H    4.964774   4.405182   3.097671   1.115316   3.684690
    25  H    4.964774   4.405182   3.097671   1.115316   3.684690
                   11         12         13         14         15
    11  C    0.000000
    12  C    1.392101   0.000000
    13  C    2.582065   3.109739   0.000000
    14  C    2.658314   2.469723   1.430215   0.000000
    15  H    2.135279   3.365340   4.032627   4.619217   0.000000
    16  H    3.428434   3.899189   5.940884   6.042113   2.448582
    17  H    3.918170   3.440836   6.391489   5.910163   4.271317
    18  H    3.411002   2.169792   5.194979   4.247398   4.918169
    19  H    3.346424   2.203817   3.507748   2.134304   5.467701
    20  H    4.493251   3.727951   3.440285   2.130583   6.590354
    21  H    6.058147   5.743069   3.971782   3.408743   7.907459
    22  H    6.039974   6.296962   3.470700   3.875030   7.383436
    23  H    4.541807   5.306099   2.225224   3.458468   5.327050
    24  H    2.130466   3.334563   2.184649   3.185490   2.414820
    25  H    2.130466   3.334563   2.184649   3.185490   2.414820
                   16         17         18         19         20
    16  H    0.000000
    17  H    2.500632   0.000000
    18  H    4.308405   2.492928   0.000000
    19  H    6.047441   5.032286   2.766169   0.000000
    20  H    7.620022   6.851261   4.613348   1.849617   0.000000
    21  H    9.449974   9.101689   7.026085   4.277818   2.500333
    22  H    9.409438   9.718850   8.104076   5.641330   4.303174
    23  H    7.601714   8.455477   7.417238   5.591133   5.010868
    24  H    4.617258   5.768370   5.409538   4.749261   5.267926
    25  H    4.617258   5.768370   5.409538   4.749261   5.267926
                   21         22         23         24         25
    21  H    0.000000
    22  H    2.494371   0.000000
    23  H    4.356566   2.499777   0.000000
    24  H    6.040583   5.232458   3.200750   0.000000
    25  H    6.040583   5.232458   3.200750   1.719170   0.000000
 Stoichiometry    C14H11(1+)
 Framework group  CS[SG(C14H9),X(H2)]
 Deg. of freedom    46
 Full point group                 CS      NOp   2
 Largest Abelian subgroup         CS      NOp   2
 Largest concise Abelian subgroup CS      NOp   2
                         Standard orientation:                         
 ---------------------------------------------------------------------
 Center     Atomic      Atomic             Coordinates (Angstroms)
 Number     Number       Type             X           Y           Z
 ---------------------------------------------------------------------
      1          6           0       -0.214010   -2.762091    0.000000
      2          6           0        0.860677   -3.647032    0.000000
      3          6           0        2.139833   -3.134626    0.000000
      4          6           0        2.333126   -1.720050    0.000000
      5          6           0        0.356550    2.637058    0.000000
      6          6           0       -0.588909    3.645196    0.000000
      7          6           0       -1.947324    3.280983    0.000000
      8          6           0       -2.358516    1.913927    0.000000
      9          6           0       -1.413700   -0.624723    0.000000
     10          6           0        1.215185    0.560396    0.000000
     11          6           0       -0.068669   -1.363329    0.000000
     12          6           0        1.225403   -0.850178    0.000000
     13          6           0       -1.365685    0.869339    0.000000
     14          6           0        0.000000    1.294098    0.000000
     15          1           0       -1.221426   -3.160706    0.000000
     16          1           0        0.674482   -4.710250    0.000000
     17          1           0        3.002274   -3.796715    0.000000
     18          1           0        3.342141   -1.327063    0.000000
     19          1           0        2.130049    1.159406    0.000000
     20          1           0        1.431571    2.872068    0.000000
     21          1           0       -0.284001    4.690990    0.000000
     22          1           0       -2.700616    4.073043    0.000000
     23          1           0       -3.436418    1.684010    0.000000
     24          1           0       -1.990908   -1.039299    0.859585
     25          1           0       -1.990908   -1.039299   -0.859585
 ---------------------------------------------------------------------
 Rotational constants (GHZ):           2.1108560           0.4428645           0.3668547
 Standard basis: 6-311++G(d,p) (5D, 7F)
 There are   299 symmetry adapted cartesian basis functions of A'  symmetry.
 There are   100 symmetry adapted cartesian basis functions of A"  symmetry.
 There are   285 symmetry adapted basis functions of A'  symmetry.
 There are   100 symmetry adapted basis functions of A"  symmetry.
   385 basis functions,   603 primitive gaussians,   399 cartesian basis functions
    47 alpha electrons       47 beta electrons
       nuclear repulsion energy       778.3560719971 Hartrees.
 NAtoms=   25 NActive=   25 NUniq=   24 SFac= 1.09D+00 NAtFMM=   60 NAOKFM=F Big=F
 Integral buffers will be    131072 words long.
 Regular integral format.
 Two-electron integral symmetry is turned on.
 Nuclear repulsion after empirical dispersion term =      778.3550919584 Hartrees.
 One-electron integrals computed using PRISM.
 NBasis=   385 RedAO= T EigKep=  1.35D-06  NBF=   285   100
 NBsUse=   379 1.00D-06 EigRej=  7.84D-07 NBFU=   279   100
 ExpMin= 3.60D-02 ExpMax= 4.56D+03 ExpMxC= 6.82D+02 IAcc=3 IRadAn=         5 AccDes= 0.00D+00
 Harris functional with IExCor= 1009 and IRadAn=       5 diagonalized for initial guess.
 HarFok:  IExCor= 1009 AccDes= 0.00D+00 IRadAn=         5 IDoV= 1 UseB2=F ITyADJ=14
 ICtDFT=  3500011 ScaDFX=  1.000000  1.000000  1.000000  1.000000
 FoFCou: FMM=F IPFlag=           0 FMFlag=      100000 FMFlg1=           0
         NFxFlg=           0 DoJE=T BraDBF=F KetDBF=T FulRan=T
         wScrn=  0.000000 ICntrl=       500 IOpCl=  0 I1Cent=   200000004 NGrid=           0
         NMat0=    1 NMatS0=      1 NMatT0=    0 NMatD0=    1 NMtDS0=    0 NMtDT0=    0
 Petite list used in FoFCou.
 Initial guess orbital symmetries:
       Occupied  (A') (A') (A') (A') (A') (A') (A') (A') (A') (A')
                 (A') (A') (A') (A') (A') (A') (A') (A') (A') (A')
                 (A') (A') (A') (A') (A') (A') (A') (A') (A') (A')
                 (A') (A') (A") (A') (A') (A') (A') (A') (A") (A")
                 (A') (A') (A') (A") (A") (A") (A")
       Virtual   (A") (A") (A") (A") (A") (A') (A') (A') (A') (A")
                 (A") (A') (A') (A') (A") (A') (A') (A') (A') (A')
                 (A") (A") (A') (A') (A') (A") (A') (A") (A') (A')
                 (A') (A') (A') (A') (A") (A') (A') (A") (A') (A")
                 (A') (A') (A') (A") (A') (A') (A') (A') (A') (A")
                 (A') (A") (A') (A") (A') (A') (A') (A") (A') (A")
                 (A') (A') (A') (A') (A') (A') (A") (A') (A') (A")
                 (A') (A') (A') (A') (A') (A') (A') (A') (A') (A')
                 (A') (A') (A') (A') (A') (A') (A') (A') (A') (A')
                 (A') (A') (A') (A') (A') (A') (A') (A") (A") (A')
                 (A') (A") (A') (A") (A') (A") (A') (A') (A") (A")
                 (A') (A") (A') (A") (A') (A') (A") (A') (A") (A")
                 (A') (A") (A') (A') (A") (A') (A') (A') (A') (A")
                 (A') (A') (A') (A') (A') (A') (A') (A") (A') (A')
                 (A') (A') (A') (A') (A') (A') (A') (A') (A") (A')
                 (A') (A") (A") (A') (A") (A') (A') (A") (A") (A')
                 (A') (A") (A') (A") (A") (A") (A') (A') (A') (A')
                 (A') (A") (A') (A") (A') (A') (A') (A') (A') (A")
                 (A') (A') (A') (A") (A') (A") (A') (A') (A") (A")
                 (A") (A') (A') (A') (A") (A') (A') (A') (A") (A')
                 (A") (A") (A") (A') (A") (A') (A') (A") (A') (A')
                 (A") (A') (A") (A") (A') (A') (A') (A") (A') (A')
                 (A") (A') (A') (A') (A") (A') (A') (A") (A') (A")
                 (A') (A') (A') (A") (A') (A') (A") (A') (A") (A')
                 (A") (A') (A') (A') (A") (A') (A') (A') (A') (A')
                 (A") (A') (A') (A') (A") (A") (A') (A") (A') (A')
                 (A') (A") (A') (A') (A") (A') (A') (A") (A') (A')
                 (A') (A") (A') (A') (A") (A') (A") (A") (A') (A')
                 (A") (A") (A') (A") (A") (A') (A') (A') (A') (A')
                 (A') (A') (A') (A') (A') (A') (A') (A') (A') (A')
                 (A') (A') (A') (A") (A') (A') (A') (A') (A') (A')
                 (A') (A') (A') (A') (A') (A') (A') (A') (A') (A')
                 (A') (A') (A') (A') (A') (A') (A') (A') (A') (A')
                 (A') (A')
 The electronic state of the initial guess is 1-A'.
 Requested convergence on RMS density matrix=1.00D-08 within 128 cycles.
 Requested convergence on MAX density matrix=1.00D-06.
 Requested convergence on             energy=1.00D-06.
 No special actions if energy rises.
 SCF Done:  E(RM062X) =  -539.726864893     A.U. after   15 cycles
            NFock= 15  Conv=0.94D-08     -V/T= 2.0048
 DoSCS=F DFT=T ScalE2(SS,OS)=  1.000000  1.000000
 ExpMin= 3.60D-02 ExpMax= 4.56D+03 ExpMxC= 6.82D+02 IAcc=3 IRadAn=         5 AccDes= 0.00D+00
 HarFok:  IExCor=  205 AccDes= 0.00D+00 IRadAn=         5 IDoV=-2 UseB2=F ITyADJ=14
 ICtDFT= 12500011 ScaDFX=  1.000000  1.000000  1.000000  1.000000
 Range of M.O.s used for correlation:    15   379
 NBasis=   385 NAE=    47 NBE=    47 NFC=    14 NFV=     0
 NROrb=    365 NOA=    33 NOB=    33 NVA=   332 NVB=   332

 **** Warning!!: The largest alpha MO coefficient is  0.17540598D+03

 Orbital symmetries:
       Occupied  (A') (A') (A') (A') (A') (A') (A') (A') (A') (A')
                 (A') (A') (A') (A') (A') (A') (A') (A') (A') (A')
                 (A') (A') (A') (A') (A') (A') (A') (A') (A') (A')
                 (A') (A') (A") (A') (A') (A') (A') (A") (A") (A')
                 (A') (A') (A') (A") (A") (A") (A")
       Virtual   (A") (A") (A") (A") (A') (A') (A') (A') (A") (A')
                 (A') (A") (A') (A') (A") (A') (A") (A') (A') (A')
                 (A") (A") (A') (A') (A') (A") (A') (A") (A') (A")
                 (A') (A") (A') (A') (A') (A') (A') (A') (A") (A')
                 (A") (A') (A') (A") (A") (A') (A") (A') (A') (A")
                 (A') (A') (A') (A') (A') (A") (A') (A') (A') (A')
                 (A") (A') (A') (A') (A') (A') (A") (A') (A') (A')
                 (A') (A') (A') (A') (A') (A') (A') (A') (A') (A')
                 (A') (A') (A') (A') (A') (A') (A') (A') (A') (A')
                 (A') (A') (A') (A') (A") (A") (A') (A") (A') (A')
                 (A") (A') (A') (A') (A") (A') (A") (A') (A") (A')
                 (A") (A') (A') (A") (A") (A') (A') (A") (A') (A")
                 (A") (A') (A") (A') (A') (A') (A') (A") (A') (A')
                 (A') (A') (A') (A') (A') (A') (A') (A') (A') (A')
                 (A') (A') (A') (A') (A") (A') (A') (A') (A') (A')
                 (A') (A') (A") (A') (A") (A') (A") (A') (A") (A')
                 (A") (A") (A') (A") (A') (A') (A") (A") (A") (A')
                 (A') (A') (A") (A') (A") (A') (A') (A') (A') (A")
                 (A') (A') (A") (A') (A') (A") (A') (A') (A") (A")
                 (A") (A') (A') (A") (A') (A') (A") (A') (A') (A")
                 (A') (A") (A") (A') (A') (A") (A") (A') (A') (A')
                 (A') (A") (A') (A") (A") (A') (A') (A') (A") (A')
                 (A") (A') (A') (A') (A") (A') (A') (A") (A') (A")
                 (A') (A') (A') (A") (A') (A') (A") (A') (A") (A')
                 (A") (A') (A') (A") (A') (A') (A') (A') (A') (A')
                 (A') (A") (A') (A') (A') (A") (A') (A") (A') (A")
                 (A') (A') (A') (A') (A') (A") (A') (A') (A') (A')
                 (A') (A") (A") (A') (A") (A") (A') (A") (A') (A")
                 (A') (A") (A") (A') (A") (A") (A') (A') (A') (A')
                 (A') (A') (A') (A') (A') (A') (A') (A') (A') (A')
                 (A') (A') (A') (A") (A') (A') (A') (A') (A') (A')
                 (A') (A') (A') (A') (A') (A') (A') (A') (A') (A')
                 (A') (A') (A') (A') (A') (A') (A') (A') (A') (A')
                 (A') (A')
     4 initial guesses have been made.
 Convergence on wavefunction:    0.001000000000000
 Iteration     1 Dimension     4 NMult     0 NNew      4
 CISAX will form     4 AO SS matrices at one time.
 Iteration     2 Dimension     6 NMult     4 NNew      2
 Iteration     3 Dimension     8 NMult     6 NNew      2
 Iteration     4 Dimension    10 NMult     8 NNew      2
 Iteration     5 Dimension    12 NMult    10 NNew      2
 Iteration     6 Dimension    14 NMult    12 NNew      2
 ***********************************************************************
 Excited states from <AA,BB:AA,BB> singles matrix:
 ***********************************************************************
 
 Ground to excited state transition densities written to RWF  633
 Ground to excited state transition electric dipole moments (Au):
       state          X           Y           Z        Dip. S.      Osc.
         1        -0.6557     -0.0890      0.0000      0.4378      0.0315
 Ground to excited state transition velocity dipole moments (Au):
       state          X           Y           Z        Dip. S.      Osc.
         1         0.0790      0.0106      0.0000      0.0063      0.0393
 Ground to excited state transition magnetic dipole moments (Au):
       state          X           Y           Z
         1         0.0000     -0.0000     -0.0059
 Ground to excited state transition velocity quadrupole moments (Au):
       state          XX          YY          ZZ          XY          XZ          YZ
         1         0.1113      0.2233     -0.0089     -0.1509      0.0000      0.0000
 <0|del|b> * <b|rxdel|0> + <0|del|b> * <b|delr+rdel|0>
 Rotatory Strengths (R) in cgs (10**-40 erg-esu-cm/Gauss)
       state          XX          YY          ZZ    R(velocity)    E-M Angle
         1        -0.0000      0.0000      0.0000      0.0000       90.00
 1/2[<0|r|b>*<b|rxdel|0> + (<0|rxdel|b>*<b|r|0>)*]
 Rotatory Strengths (R) in cgs (10**-40 erg-esu-cm/Gauss)
       state          XX          YY          ZZ     R(length)
         1         0.0000     -0.0000      0.0000      0.0000
  1/2[<0|del|b>*<b|r|0> + (<0|r|b>*<b|del|0>)*] (Au)
       state          X           Y           Z        Dip. S.   Osc.(frdel)
         1        -0.0518     -0.0009      0.0000      0.0527      0.0351

 Excitation energies and oscillator strengths:
 
 Excited State   1:      Singlet-A'     2.9336 eV  422.63 nm  f=0.0315  <S**2>=0.000
      47 -> 48         0.70340
 This state for optimization and/or second-order correction.
 Total Energy, E(TD-HF/TD-DFT) =  -539.619055738    
 Copying the excited state density for this state as the 1-particle RhoCI density.
 SavETr:  write IOETrn=   770 NScale= 10 NData=  16 NLR=1 NState=    1 LETran=      28.

 **********************************************************************

            Population analysis using the SCF Density.

 **********************************************************************

 Orbital symmetries:
       Occupied  (A') (A') (A') (A') (A') (A') (A') (A') (A') (A')
                 (A') (A') (A') (A') (A') (A') (A') (A') (A') (A')
                 (A') (A') (A') (A') (A') (A') (A') (A') (A') (A')
                 (A') (A') (A") (A') (A') (A') (A') (A") (A") (A')
                 (A') (A') (A') (A") (A") (A") (A")
       Virtual   (A") (A") (A") (A") (A') (A') (A') (A') (A") (A')
                 (A') (A") (A') (A') (A") (A') (A") (A') (A') (A')
                 (A") (A") (A') (A') (A') (A") (A') (A") (A') (A")
                 (A') (A") (A') (A') (A') (A') (A') (A') (A") (A')
                 (A") (A') (A') (A") (A") (A') (A") (A') (A') (A")
                 (A') (A') (A') (A') (A') (A") (A') (A') (A') (A')
                 (A") (A') (A') (A') (A') (A') (A") (A') (A') (A')
                 (A') (A') (A') (A') (A') (A') (A') (A') (A') (A')
                 (A') (A') (A') (A') (A') (A') (A') (A') (A') (A')
                 (A') (A') (A') (A') (A") (A") (A') (A") (A') (A')
                 (A") (A') (A') (A') (A") (A') (A") (A') (A") (A')
                 (A") (A') (A') (A") (A") (A') (A') (A") (A') (A")
                 (A") (A') (A") (A') (A') (A') (A') (A") (A') (A')
                 (A') (A') (A') (A') (A') (A') (A') (A') (A') (A')
                 (A') (A') (A') (A') (A") (A') (A') (A') (A') (A')
                 (A') (A') (A") (A') (A") (A') (A") (A') (A") (A')
                 (A") (A") (A') (A") (A') (A') (A") (A") (A") (A')
                 (A') (A') (A") (A') (A") (A') (A') (A') (A') (A")
                 (A') (A') (A") (A') (A') (A") (A') (A') (A") (A")
                 (A") (A') (A') (A") (A') (A') (A") (A') (A') (A")
                 (A') (A") (A") (A') (A') (A") (A") (A') (A') (A')
                 (A') (A") (A') (A") (A") (A') (A') (A') (A") (A')
                 (A") (A') (A') (A') (A") (A') (A') (A") (A') (A")
                 (A') (A') (A') (A") (A') (A') (A") (A') (A") (A')
                 (A") (A') (A') (A") (A') (A') (A') (A') (A') (A')
                 (A') (A") (A') (A') (A') (A") (A') (A") (A') (A")
                 (A') (A') (A') (A') (A') (A") (A') (A') (A') (A')
                 (A') (A") (A") (A') (A") (A") (A') (A") (A') (A")
                 (A') (A") (A") (A') (A") (A") (A') (A') (A') (A')
                 (A') (A') (A') (A') (A') (A') (A') (A') (A') (A')
                 (A') (A') (A') (A") (A') (A') (A') (A') (A') (A')
                 (A') (A') (A') (A') (A') (A') (A') (A') (A') (A')
                 (A') (A') (A') (A') (A') (A') (A') (A') (A') (A')
                 (A') (A')
 The electronic state is 1-A'.
 Alpha  occ. eigenvalues --  -10.77388 -10.74508 -10.73204 -10.72245 -10.72212
 Alpha  occ. eigenvalues --  -10.72081 -10.72066 -10.71787 -10.71784 -10.71261
 Alpha  occ. eigenvalues --  -10.70647 -10.69963 -10.69765 -10.69539  -1.16417
 Alpha  occ. eigenvalues --   -1.12241  -1.06691  -1.05368  -1.01172  -1.00059
 Alpha  occ. eigenvalues --   -0.95433  -0.90635  -0.87029  -0.85184  -0.83575
 Alpha  occ. eigenvalues --   -0.77976  -0.75655  -0.73915  -0.70013  -0.69317
 Alpha  occ. eigenvalues --   -0.67979  -0.67694  -0.67399  -0.64270  -0.63804
 Alpha  occ. eigenvalues --   -0.62560  -0.61551  -0.60016  -0.59463  -0.58750
 Alpha  occ. eigenvalues --   -0.56383  -0.55368  -0.54659  -0.52209  -0.46616
 Alpha  occ. eigenvalues --   -0.45928  -0.44565
 Alpha virt. eigenvalues --   -0.25736  -0.14944  -0.14227  -0.13026  -0.11223
 Alpha virt. eigenvalues --   -0.10154  -0.09248  -0.08016  -0.07976  -0.07519
 Alpha virt. eigenvalues --   -0.07191  -0.07058  -0.05748  -0.05610  -0.05303
 Alpha virt. eigenvalues --   -0.03893  -0.03628  -0.03418  -0.03153  -0.02128
 Alpha virt. eigenvalues --   -0.01433  -0.00815   0.00072   0.00147   0.00578
 Alpha virt. eigenvalues --    0.00958   0.01367   0.01800   0.02226   0.02349
 Alpha virt. eigenvalues --    0.02453   0.02477   0.02599   0.03186   0.03755
 Alpha virt. eigenvalues --    0.04147   0.04314   0.04828   0.04884   0.05349
 Alpha virt. eigenvalues --    0.06060   0.06146   0.06540   0.06847   0.07278
 Alpha virt. eigenvalues --    0.07586   0.08042   0.08129   0.08607   0.08729
 Alpha virt. eigenvalues --    0.08736   0.09523   0.09705   0.10499   0.10903
 Alpha virt. eigenvalues --    0.10985   0.11420   0.12001   0.12448   0.12787
 Alpha virt. eigenvalues --    0.12844   0.13284   0.13772   0.14776   0.15222
 Alpha virt. eigenvalues --    0.16405   0.16525   0.16982   0.17118   0.17965
 Alpha virt. eigenvalues --    0.18427   0.18843   0.19233   0.19692   0.20514
 Alpha virt. eigenvalues --    0.21496   0.21619   0.22210   0.22948   0.23353
 Alpha virt. eigenvalues --    0.24274   0.24552   0.25860   0.26569   0.27268
 Alpha virt. eigenvalues --    0.28040   0.28885   0.30911   0.31537   0.35257
 Alpha virt. eigenvalues --    0.35588   0.38840   0.39586   0.40529   0.41327
 Alpha virt. eigenvalues --    0.41810   0.42066   0.43092   0.43605   0.43744
 Alpha virt. eigenvalues --    0.44246   0.45415   0.45978   0.47082   0.47693
 Alpha virt. eigenvalues --    0.48738   0.48746   0.49044   0.49149   0.50393
 Alpha virt. eigenvalues --    0.50462   0.51016   0.51908   0.52030   0.53908
 Alpha virt. eigenvalues --    0.54461   0.55086   0.55206   0.55795   0.57610
 Alpha virt. eigenvalues --    0.58536   0.60062   0.60454   0.61879   0.62607
 Alpha virt. eigenvalues --    0.63528   0.63642   0.63810   0.65400   0.67477
 Alpha virt. eigenvalues --    0.68693   0.69928   0.71309   0.71664   0.72452
 Alpha virt. eigenvalues --    0.74073   0.75466   0.76298   0.76921   0.77270
 Alpha virt. eigenvalues --    0.77596   0.78337   0.78496   0.80233   0.80413
 Alpha virt. eigenvalues --    0.81347   0.82181   0.82686   0.83487   0.85001
 Alpha virt. eigenvalues --    0.85823   0.86826   0.87789   0.89651   0.89857
 Alpha virt. eigenvalues --    0.90518   0.91299   0.93068   0.93073   0.94397
 Alpha virt. eigenvalues --    0.96767   0.96943   1.00362   1.01426   1.01585
 Alpha virt. eigenvalues --    1.02516   1.02773   1.03320   1.05009   1.06799
 Alpha virt. eigenvalues --    1.18925   1.21128   1.22831   1.25534   1.25980
 Alpha virt. eigenvalues --    1.29178   1.33930   1.34676   1.35882   1.36288
 Alpha virt. eigenvalues --    1.39155   1.40561   1.40762   1.41477   1.42324
 Alpha virt. eigenvalues --    1.42739   1.44011   1.45973   1.46507   1.46570
 Alpha virt. eigenvalues --    1.47221   1.49024   1.51383   1.52966   1.54221
 Alpha virt. eigenvalues --    1.55037   1.56644   1.56811   1.58235   1.62438
 Alpha virt. eigenvalues --    1.62443   1.62696   1.63501   1.66173   1.67570
 Alpha virt. eigenvalues --    1.67632   1.68988   1.69357   1.72087   1.74345
 Alpha virt. eigenvalues --    1.76162   1.76583   1.77534   1.78189   1.79208
 Alpha virt. eigenvalues --    1.81105   1.81578   1.83032   1.83246   1.84320
 Alpha virt. eigenvalues --    1.84324   1.85574   1.86758   1.87945   1.89729
 Alpha virt. eigenvalues --    1.89917   1.92594   1.95959   1.96798   1.98831
 Alpha virt. eigenvalues --    1.99262   2.01357   2.05711   2.05944   2.08095
 Alpha virt. eigenvalues --    2.11139   2.13895   2.16695   2.17751   2.21849
 Alpha virt. eigenvalues --    2.22626   2.27093   2.28270   2.31160   2.32786
 Alpha virt. eigenvalues --    2.34189   2.36945   2.38896   2.40032   2.42295
 Alpha virt. eigenvalues --    2.43799   2.45647   2.45760   2.48320   2.51101
 Alpha virt. eigenvalues --    2.54202   2.54242   2.56439   2.58056   2.58185
 Alpha virt. eigenvalues --    2.59382   2.60349   2.61326   2.62993   2.63168
 Alpha virt. eigenvalues --    2.64260   2.64490   2.65689   2.65855   2.67527
 Alpha virt. eigenvalues --    2.68419   2.70493   2.72921   2.74254   2.74674
 Alpha virt. eigenvalues --    2.76562   2.77638   2.79471   2.81182   2.82543
 Alpha virt. eigenvalues --    2.83615   2.85983   2.91157   2.97610   2.98231
 Alpha virt. eigenvalues --    2.99796   3.01530   3.05088   3.09013   3.12950
 Alpha virt. eigenvalues --    3.17763   3.22436   3.24078   3.28633   3.29317
 Alpha virt. eigenvalues --    3.30211   3.31517   3.40260   3.44021   3.45196
 Alpha virt. eigenvalues --    3.46008   3.49382   3.53422   3.59763   3.64699
 Alpha virt. eigenvalues --    3.68641   3.90429   3.92771   3.95091   3.95880
 Alpha virt. eigenvalues --    4.01873   4.04016   4.05823   4.11566   4.33497
 Alpha virt. eigenvalues --    4.51913   4.66667   4.69963  23.45178  23.59337
 Alpha virt. eigenvalues --   23.79629  23.81265  23.82313  23.86323  23.89239
 Alpha virt. eigenvalues --   23.90339  23.93246  23.97894  23.97967  24.02363
 Alpha virt. eigenvalues --   24.08931  24.10696
          Condensed to atoms (all electrons):
               1          2          3          4          5          6
     1  C   11.688668  -0.734210  -1.097490   4.183608  -0.065239  -0.205210
     2  C   -0.734210   8.740457   0.019271  -1.533118   0.005665  -0.020726
     3  C   -1.097490   0.019271   6.798889  -0.012724  -0.054992   0.032055
     4  C    4.183608  -1.533118  -0.012724  13.253992  -1.073856  -0.203097
     5  C   -0.065239   0.005665  -0.054992  -1.073856  10.841868   1.106652
     6  C   -0.205210  -0.020726   0.032055  -0.203097   1.106652   8.806085
     7  C    0.023822  -0.001828  -0.000944  -0.016282  -0.995710   0.150329
     8  C    0.372579   0.109763  -0.042144  -0.397816   2.026044  -0.127643
     9  C   -0.714176  -1.417901   0.202292   0.469483  -0.837355   0.405934
    10  C   -2.005269   0.238439   0.148268  -2.445096  -3.002937  -1.363942
    11  C   -0.757554  -0.908317   0.973323   0.064001  -1.054194  -0.506386
    12  C   -4.641585   1.990867  -0.641485  -4.579185  -0.433095   0.110824
    13  C    0.594768  -0.322556   0.121961  -0.804319  -1.698892  -0.052615
    14  C   -1.385258  -0.090292  -0.306879  -0.989082   0.568451  -1.951609
    15  H    0.420906  -0.161294   0.024306   0.036809   0.004239   0.003649
    16  H   -0.001199   0.387861  -0.044574   0.022378  -0.000784  -0.000408
    17  H   -0.066860   0.003062   0.395987  -0.095248   0.001229   0.000745
    18  H    0.099662  -0.008249  -0.083282   0.542235  -0.000251  -0.005239
    19  H   -0.069679  -0.018299   0.056167  -0.127986   0.093952   0.099308
    20  H    0.015607   0.005275  -0.008012   0.001490   0.443315  -0.132517
    21  H   -0.001563  -0.000388   0.000249  -0.000131  -0.031578   0.358820
    22  H    0.000947   0.000441  -0.000061  -0.001965   0.002609  -0.038868
    23  H    0.008708  -0.000623  -0.000179   0.001741   0.033578   0.000577
    24  H    0.036655   0.012836   0.000185  -0.004854  -0.003329  -0.004117
    25  H    0.036655   0.012836   0.000185  -0.004854  -0.003329  -0.004117
               7          8          9         10         11         12
     1  C    0.023822   0.372579  -0.714176  -2.005269  -0.757554  -4.641585
     2  C   -0.001828   0.109763  -1.417901   0.238439  -0.908317   1.990867
     3  C   -0.000944  -0.042144   0.202292   0.148268   0.973323  -0.641485
     4  C   -0.016282  -0.397816   0.469483  -2.445096   0.064001  -4.579185
     5  C   -0.995710   2.026044  -0.837355  -3.002937  -1.054194  -0.433095
     6  C    0.150329  -0.127643   0.405934  -1.363942  -0.506386   0.110824
     7  C    6.518920   0.487554  -0.133923   0.238327  -0.156356  -0.106957
     8  C    0.487554   9.170803  -0.404622  -1.320753   0.423004  -1.221080
     9  C   -0.133923  -0.404622   9.531830   0.705803   0.538286  -1.366429
    10  C    0.238327  -1.320753   0.705803   9.565666   0.103857   2.889077
    11  C   -0.156356   0.423004   0.538286   0.103857  12.348878  -1.023625
    12  C   -0.106957  -1.221080  -1.366429   2.889077  -1.023625  14.363257
    13  C    0.003369  -0.379602   0.911291   1.267887   0.113610  -2.612325
    14  C   -0.008575  -2.863887  -2.108721   0.742948  -3.803505   2.963229
    15  H   -0.002527  -0.002462   0.091023  -0.008008  -0.041289  -0.059304
    16  H    0.000119   0.000195  -0.002196  -0.008241  -0.003804  -0.009278
    17  H   -0.000202  -0.000961  -0.005233   0.017209  -0.004306   0.101642
    18  H    0.000163   0.000415  -0.013939  -0.040679   0.044045  -0.163781
    19  H    0.007165  -0.034640   0.071471   0.367863  -0.021716   0.037751
    20  H    0.016744   0.054481  -0.041085   0.021704   0.015872  -0.025218
    21  H   -0.021662  -0.004998  -0.005044   0.003316  -0.006514   0.006116
    22  H    0.404625  -0.049191   0.008538   0.005095   0.000106  -0.007987
    23  H   -0.063471   0.383506   0.004156  -0.019886  -0.007409  -0.001489
    24  H    0.011637   0.030428   0.351381   0.002836  -0.022110  -0.042718
    25  H    0.011637   0.030428   0.351381   0.002836  -0.022110  -0.042718
              13         14         15         16         17         18
     1  C    0.594768  -1.385258   0.420906  -0.001199  -0.066860   0.099662
     2  C   -0.322556  -0.090292  -0.161294   0.387861   0.003062  -0.008249
     3  C    0.121961  -0.306879   0.024306  -0.044574   0.395987  -0.083282
     4  C   -0.804319  -0.989082   0.036809   0.022378  -0.095248   0.542235
     5  C   -1.698892   0.568451   0.004239  -0.000784   0.001229  -0.000251
     6  C   -0.052615  -1.951609   0.003649  -0.000408   0.000745  -0.005239
     7  C    0.003369  -0.008575  -0.002527   0.000119  -0.000202   0.000163
     8  C   -0.379602  -2.863887  -0.002462   0.000195  -0.000961   0.000415
     9  C    0.911291  -2.108721   0.091023  -0.002196  -0.005233  -0.013939
    10  C    1.267887   0.742948  -0.008008  -0.008241   0.017209  -0.040679
    11  C    0.113610  -3.803505  -0.041289  -0.003804  -0.004306   0.044045
    12  C   -2.612325   2.963229  -0.059304  -0.009278   0.101642  -0.163781
    13  C   12.430858  -3.125947   0.020573  -0.000973  -0.003417  -0.015644
    14  C   -3.125947  17.524688  -0.012506  -0.003197   0.001283  -0.022142
    15  H    0.020573  -0.012506   0.459965  -0.013285   0.001846  -0.000145
    16  H   -0.000973  -0.003197  -0.013285   0.426369  -0.006763   0.002270
    17  H   -0.003417   0.001283   0.001846  -0.006763   0.416510  -0.009532
    18  H   -0.015644  -0.022142  -0.000145   0.002270  -0.009532   0.450262
    19  H    0.058134  -0.145663   0.001100  -0.001069   0.002937  -0.011873
    20  H   -0.046051  -0.004401  -0.000252   0.000080  -0.000403   0.002147
    21  H   -0.036214   0.077538   0.000044  -0.000008   0.000014  -0.000087
    22  H    0.030343  -0.012659  -0.000171   0.000005  -0.000004  -0.000021
    23  H   -0.039800   0.030342   0.000274  -0.000053   0.000004  -0.000010
    24  H    0.023080  -0.055410  -0.002159   0.000572  -0.000082   0.000131
    25  H    0.023080  -0.055410  -0.002159   0.000572  -0.000082   0.000131
              19         20         21         22         23         24
     1  C   -0.069679   0.015607  -0.001563   0.000947   0.008708   0.036655
     2  C   -0.018299   0.005275  -0.000388   0.000441  -0.000623   0.012836
     3  C    0.056167  -0.008012   0.000249  -0.000061  -0.000179   0.000185
     4  C   -0.127986   0.001490  -0.000131  -0.001965   0.001741  -0.004854
     5  C    0.093952   0.443315  -0.031578   0.002609   0.033578  -0.003329
     6  C    0.099308  -0.132517   0.358820  -0.038868   0.000577  -0.004117
     7  C    0.007165   0.016744  -0.021662   0.404625  -0.063471   0.011637
     8  C   -0.034640   0.054481  -0.004998  -0.049191   0.383506   0.030428
     9  C    0.071471  -0.041085  -0.005044   0.008538   0.004156   0.351381
    10  C    0.367863   0.021704   0.003316   0.005095  -0.019886   0.002836
    11  C   -0.021716   0.015872  -0.006514   0.000106  -0.007409  -0.022110
    12  C    0.037751  -0.025218   0.006116  -0.007987  -0.001489  -0.042718
    13  C    0.058134  -0.046051  -0.036214   0.030343  -0.039800   0.023080
    14  C   -0.145663  -0.004401   0.077538  -0.012659   0.030342  -0.055410
    15  H    0.001100  -0.000252   0.000044  -0.000171   0.000274  -0.002159
    16  H   -0.001069   0.000080  -0.000008   0.000005  -0.000053   0.000572
    17  H    0.002937  -0.000403   0.000014  -0.000004   0.000004  -0.000082
    18  H   -0.011873   0.002147  -0.000087  -0.000021  -0.000010   0.000131
    19  H    0.468911  -0.007493   0.000781  -0.000180  -0.000195   0.000336
    20  H   -0.007493   0.487444  -0.010443   0.001786   0.000410   0.000183
    21  H    0.000781  -0.010443   0.415496  -0.006486   0.001875  -0.000179
    22  H   -0.000180   0.001786  -0.006486   0.416706  -0.009087   0.000545
    23  H   -0.000195   0.000410   0.001875  -0.009087   0.418545  -0.000519
    24  H    0.000336   0.000183  -0.000179   0.000545  -0.000519   0.493426
    25  H    0.000336   0.000183  -0.000179   0.000545  -0.000519  -0.080908
              25
     1  C    0.036655
     2  C    0.012836
     3  C    0.000185
     4  C   -0.004854
     5  C   -0.003329
     6  C   -0.004117
     7  C    0.011637
     8  C    0.030428
     9  C    0.351381
    10  C    0.002836
    11  C   -0.022110
    12  C   -0.042718
    13  C    0.023080
    14  C   -0.055410
    15  H   -0.002159
    16  H    0.000572
    17  H   -0.000082
    18  H    0.000131
    19  H    0.000336
    20  H    0.000183
    21  H   -0.000179
    22  H    0.000545
    23  H   -0.000519
    24  H   -0.080908
    25  H    0.493426
 Mulliken charges:
               1
     1  C    0.262708
     2  C   -0.308971
     3  C   -0.480373
     4  C   -0.286122
     5  C    0.127940
     6  C   -0.458481
     7  C   -0.365974
     8  C   -0.239400
     9  C   -0.592244
    10  C   -0.106318
    11  C   -0.285785
    12  C    0.515494
    13  C   -0.460600
    14  C    1.036663
    15  H    0.240826
    16  H    0.255409
    17  H    0.250626
    18  H    0.233413
    19  H    0.172581
    20  H    0.209155
    21  H    0.261224
    22  H    0.254391
    23  H    0.259526
    24  H    0.252157
    25  H    0.252157
 Sum of Mulliken charges =   1.00000
 Mulliken charges with hydrogens summed into heavy atoms:
               1
     1  C    0.503534
     2  C   -0.053562
     3  C   -0.229747
     4  C   -0.052709
     5  C    0.337095
     6  C   -0.197257
     7  C   -0.111583
     8  C    0.020126
     9  C   -0.087931
    10  C    0.066263
    11  C   -0.285785
    12  C    0.515494
    13  C   -0.460600
    14  C    1.036663
 Electronic spatial extent (au):  <R**2>=           2871.0556
 Charge=              1.0000 electrons
 Dipole moment (field-independent basis, Debye):
    X=              0.1160    Y=              0.3319    Z=             -0.0000  Tot=              0.3516
 Quadrupole moment (field-independent basis, Debye-Ang):
   XX=            -52.2082   YY=            -34.4189   ZZ=            -84.5084
   XY=             -9.5458   XZ=              0.0000   YZ=             -0.0000
 Traceless Quadrupole moment (field-independent basis, Debye-Ang):
   XX=              4.8370   YY=             22.6262   ZZ=            -27.4632
   XY=             -9.5458   XZ=              0.0000   YZ=             -0.0000
 Octapole moment (field-independent basis, Debye-Ang**2):
  XXX=              1.1596  YYY=              0.9420  ZZZ=              0.0000  XYY=             -1.2771
  XXY=              4.0064  XXZ=              0.0000  XZZ=             -2.3734  YZZ=             -1.5904
  YYZ=             -0.0000  XYZ=              0.0000
 Hexadecapole moment (field-independent basis, Debye-Ang**3):
 XXXX=           -902.8685 YYYY=          -1916.3557 ZZZZ=           -100.1240 XXXY=            313.5336
 XXXZ=             -0.0000 YYYX=            235.8776 YYYZ=              0.0000 ZZZX=              0.0000
 ZZZY=              0.0000 XXYY=           -464.2195 XXZZ=           -221.8632 YYZZ=           -521.0500
 XXYZ=             -0.0000 YYXZ=             -0.0000 ZZXY=            166.6190
 N-N= 7.783550919584D+02 E-N=-2.792738157022D+03  KE= 5.371561924890D+02
 Symmetry A'   KE= 5.225481334695D+02
 Symmetry A"   KE= 1.460805901945D+01
 Unable to Open any file for archive entry.
 1\1\GINC-GADI-CPU-CLX-0359\SP\RM062X TD-FC\6-311++G(d,p)\C14H11(1+)\TS
 1578\02-Aug-2022\0\\#n M062X/6-311++G(d,p) TD(NStates=1) EmpiricalDisp
 ersion=GD3 SP\\SP_-8\\1,1\C,0,0.,2.466655,1.260431\C,0,0.,3.697508,0.6
 09989\C,0,0.,3.717861,-0.76783\C,0,0.,2.487156,-1.491538\C,0,0.,-2.295
 156,-1.347538\C,0,0.,-3.589861,-0.86383\C,0,0.,-3.777508,0.529989\C,0,
 0.,-2.674655,1.436431\C,0,0.,0.032,1.543369\C,0,0.,-0.048,-1.339189\C,
 0,0.,1.232055,0.587065\C,0,0.,1.257471,-0.804804\C,0,0.,-1.328055,0.92
 3065\C,0,0.,-1.193471,-0.500804\H,0,0.,2.446071,2.343647\H,0,0.,4.6067
 53,1.191689\H,0,0.,4.661262,-1.308349\H,0,0.,2.51355,-2.574059\H,0,0.,
 -0.248,-2.414266\H,0,0.,-2.09755,-2.430059\H,0,0.,-4.437262,-1.548349\
 H,0,0.,-4.798753,0.919689\H,0,0.,-2.878071,2.519647\H,0,-0.859585,0.19
 2,2.235787\H,0,0.859585,0.192,2.235787\\Version=ES64L-G16RevC.01\State
 =1-A'\HF=-539.7268649\RMSD=9.379e-09\PG=CS [SG(C14H9),X(H2)]\\@
 The archive entry for this job was punched.


 ASKING FOR EFFICIENCY AND ADAPTABILITY IN THE SAME PROGRAM IS LIKE
 ASKING FOR A BEAUTIFUL AND MODEST WIFE ...
 WE'LL PROBABLY HAVE TO SETTLE FOR ONE OR THE OTHER.

             -- THE PSYCHOLOGY OF COMPUTER PROGRAMMING
                GERALD M. WEINBERG
 Job cpu time:       0 days  0 hours 51 minutes 50.8 seconds.
 Elapsed time:       0 days  0 hours  1 minutes  4.9 seconds.
 File lengths (MBytes):  RWF=    460 Int=      0 D2E=      0 Chk=     15 Scr=      1
 Normal termination of Gaussian 16 at Tue Aug  2 11:56:10 2022.
