 Entering Gaussian System, Link 0=g16
 Initial command:
 /apps/gaussian/g16c01/g16/l1.exe "/jobfs/52803152.gadi-pbs/Gau-2811968.inp" -scrdir="/jobfs/52803152.gadi-pbs/"
 Entering Link 1 = /apps/gaussian/g16c01/g16/l1.exe PID=   2811969.
  
 Copyright (c) 1988-2019, Gaussian, Inc.  All Rights Reserved.
  
 This is part of the Gaussian(R) 16 program.  It is based on
 the Gaussian(R) 09 system (copyright 2009, Gaussian, Inc.),
 the Gaussian(R) 03 system (copyright 2003, Gaussian, Inc.),
 the Gaussian(R) 98 system (copyright 1998, Gaussian, Inc.),
 the Gaussian(R) 94 system (copyright 1995, Gaussian, Inc.),
 the Gaussian 92(TM) system (copyright 1992, Gaussian, Inc.),
 the Gaussian 90(TM) system (copyright 1990, Gaussian, Inc.),
 the Gaussian 88(TM) system (copyright 1988, Gaussian, Inc.),
 the Gaussian 86(TM) system (copyright 1986, Carnegie Mellon
 University), and the Gaussian 82(TM) system (copyright 1983,
 Carnegie Mellon University). Gaussian is a federally registered
 trademark of Gaussian, Inc.
  
 This software contains proprietary and confidential information,
 including trade secrets, belonging to Gaussian, Inc.
  
 This software is provided under written license and may be
 used, copied, transmitted, or stored only in accord with that
 written license.
  
 The following legend is applicable only to US Government
 contracts under FAR:
  
                    RESTRICTED RIGHTS LEGEND
  
 Use, reproduction and disclosure by the US Government is
 subject to restrictions as set forth in subparagraphs (a)
 and (c) of the Commercial Computer Software - Restricted
 Rights clause in FAR 52.227-19.
  
 Gaussian, Inc.
 340 Quinnipiac St., Bldg. 40, Wallingford CT 06492
  
  
 ---------------------------------------------------------------
 Warning -- This program may not be used in any manner that
 competes with the business of Gaussian, Inc. or will provide
 assistance to any competitor of Gaussian, Inc.  The licensee
 of this program is prohibited from giving any competitor of
 Gaussian, Inc. access to this program.  By using this program,
 the user acknowledges that Gaussian, Inc. is engaged in the
 business of creating and licensing software in the field of
 computational chemistry and represents and warrants to the
 licensee that it is not a competitor of Gaussian, Inc. and that
 it will not use this program in any manner prohibited above.
 ---------------------------------------------------------------
  

 Cite this work as:
 Gaussian 16, Revision C.01,
 M. J. Frisch, G. W. Trucks, H. B. Schlegel, G. E. Scuseria, 
 M. A. Robb, J. R. Cheeseman, G. Scalmani, V. Barone, 
 G. A. Petersson, H. Nakatsuji, X. Li, M. Caricato, A. V. Marenich, 
 J. Bloino, B. G. Janesko, R. Gomperts, B. Mennucci, H. P. Hratchian, 
 J. V. Ortiz, A. F. Izmaylov, J. L. Sonnenberg, D. Williams-Young, 
 F. Ding, F. Lipparini, F. Egidi, J. Goings, B. Peng, A. Petrone, 
 T. Henderson, D. Ranasinghe, V. G. Zakrzewski, J. Gao, N. Rega, 
 G. Zheng, W. Liang, M. Hada, M. Ehara, K. Toyota, R. Fukuda, 
 J. Hasegawa, M. Ishida, T. Nakajima, Y. Honda, O. Kitao, H. Nakai, 
 T. Vreven, K. Throssell, J. A. Montgomery, Jr., J. E. Peralta, 
 F. Ogliaro, M. J. Bearpark, J. J. Heyd, E. N. Brothers, K. N. Kudin, 
 V. N. Staroverov, T. A. Keith, R. Kobayashi, J. Normand, 
 K. Raghavachari, A. P. Rendell, J. C. Burant, S. S. Iyengar, 
 J. Tomasi, M. Cossi, J. M. Millam, M. Klene, C. Adamo, R. Cammi, 
 J. W. Ochterski, R. L. Martin, K. Morokuma, O. Farkas, 
 J. B. Foresman, and D. J. Fox, Gaussian, Inc., Wallingford CT, 2019.
 
 ******************************************
 Gaussian 16:  ES64L-G16RevC.01  3-Jul-2019
                27-Jul-2022 
 ******************************************
 %NProcShared=32
 Will use up to   32 processors via shared memory.
 %mem = 128GB
 ---------------------------------------------------------------
 #n M062X/6-311++G(d,p) TD(NStates=1) EmpiricalDispersion=GD3 SP
 ---------------------------------------------------------------
 1/38=1,172=1/1;
 2/12=2,17=6,18=5,40=1/2;
 3/5=4,6=6,7=1111,11=9,25=1,30=1,74=-55,124=31/1,2,3,8;
 4//1;
 5/5=2,38=5/2;
 8/6=1,10=2,108=1/1;
 9/41=1,42=1,70=2/14;
 6/7=2,8=2,9=2,10=2/1;
 99/5=1,9=1/99;
 -----
 SP_-1
 -----
 Symbolic Z-matrix:
 Charge =  1 Multiplicity = 1
 C                     2.4927    1.3931   -0.017 
 C                     3.7015    0.7167    0.013 
 C                     3.6839   -0.6841    0.032 
 C                     2.4632   -1.4449    0.036 
 C                    -2.4632   -1.4329    0.004 
 C                    -3.6839   -0.6901   -0.032 
 C                    -3.7015    0.7167   -0.019 
 C                    -2.4927    1.4091   -0.017 
 C                     0.        1.4781   -0.033 
 C                     0.       -1.4785    0.027 
 C                     1.2621    0.6637   -0.03 
 C                     1.2375   -0.7431    0.015 
 C                    -1.2621    0.6717    0.014 
 C                    -1.2375   -0.7371    0.011 
 H                     2.4881    2.4483   -0.018 
 H                     4.6368    1.2474    0.026 
 H                     4.6093   -1.2677   -0.01 
 H                     2.4675   -2.5174    0.037 
 H                     0.       -2.5516    0.028 
 H                    -2.4675   -2.4814    0.005 
 H                    -4.6093   -1.2557   -0.018 
 H                    -4.6368    1.2654   -0.002 
 H                    -2.4881    2.4763   -0.018 
 H                     0.002     2.2425   -0.8896 
 H                    -0.002     2.2425    0.8296 
 
                          Input orientation:                          
 ---------------------------------------------------------------------
 Center     Atomic      Atomic             Coordinates (Angstroms)
 Number     Number       Type             X           Y           Z
 ---------------------------------------------------------------------
      1          6           0        2.492700    1.393100   -0.017000
      2          6           0        3.701500    0.716700    0.013000
      3          6           0        3.683900   -0.684100    0.032000
      4          6           0        2.463200   -1.444900    0.036000
      5          6           0       -2.463200   -1.432900    0.004000
      6          6           0       -3.683900   -0.690100   -0.032000
      7          6           0       -3.701500    0.716700   -0.019000
      8          6           0       -2.492700    1.409100   -0.017000
      9          6           0        0.000000    1.478100   -0.033000
     10          6           0        0.000000   -1.478500    0.027000
     11          6           0        1.262100    0.663700   -0.030000
     12          6           0        1.237500   -0.743100    0.015000
     13          6           0       -1.262100    0.671700    0.014000
     14          6           0       -1.237500   -0.737100    0.011000
     15          1           0        2.488100    2.448300   -0.018000
     16          1           0        4.636800    1.247400    0.026000
     17          1           0        4.609300   -1.267700   -0.010000
     18          1           0        2.467500   -2.517400    0.037000
     19          1           0        0.000000   -2.551600    0.028000
     20          1           0       -2.467500   -2.481400    0.005000
     21          1           0       -4.609300   -1.255700   -0.018000
     22          1           0       -4.636800    1.265400   -0.002000
     23          1           0       -2.488100    2.476300   -0.018000
     24          1           0        0.002000    2.242500   -0.889600
     25          1           0       -0.002000    2.242500    0.829600
 ---------------------------------------------------------------------
                    Distance matrix (angstroms):
                    1          2          3          4          5
     1  C    0.000000
     2  C    1.385501   0.000000
     3  C    2.395019   1.401039   0.000000
     4  C    2.838648   2.491271   1.438381   0.000000
     5  C    5.705056   6.528736   6.192602   4.926519   0.000000
     6  C    6.518461   7.518327   7.368080   6.193641   1.429390
     7  C    6.231022   7.403069   7.517245   6.532922   2.480866
     8  C    4.985426   6.232851   6.521831   5.719184   2.842231
     9  C    2.494200   3.779279   4.272055   3.823094   3.813482
    10  C    3.802838   4.303510   3.768583   2.463446   2.463729
    11  C    1.430584   2.440355   2.772278   2.427590   4.274897
    12  C    2.477882   2.863969   2.447170   1.412553   3.764456
    13  C    3.823598   4.963804   5.128492   4.284663   2.423238
    14  C    4.295687   5.148520   4.921730   3.767862   1.409442
    15  H    1.055211   2.114649   3.353262   3.893654   6.291230
    16  H    2.149475   1.075452   2.153775   3.460219   7.589104
    17  H    3.399985   2.182309   1.094860   2.153894   7.074443
    18  H    3.910954   3.461609   2.200146   1.072509   5.048666
    19  H    4.666502   4.937926   4.130217   2.700408   2.705443
    20  H    6.294110   6.948703   6.408646   5.038561   1.048509
    21  H    7.579878   8.541705   8.313025   7.075236   2.153516
    22  H    7.130659   8.356348   8.546096   7.599814   3.464880
    23  H    5.097224   6.434928   6.934278   6.316177   3.909341
    24  H    2.772453   4.102323   4.792778   4.528925   4.514897
    25  H    2.767985   4.087886   4.773574   4.505988   4.499743
                    6          7          8          9         10
     6  C    0.000000
     7  C    1.406970   0.000000
     8  C    2.413674   1.393061   0.000000
     9  C    4.274601   3.779025   2.493706   0.000000
    10  C    3.767781   4.303733   3.814934   2.957209   0.000000
    11  C    5.127933   4.963895   3.828095   1.502050   2.486999
    12  C    4.921910   5.150329   4.306667   2.543116   1.439571
    13  C    2.778800   2.440038   1.434955   1.498461   2.493276
    14  C    2.447229   2.861072   2.486460   2.537805   1.442684
    15  H    6.924113   6.427254   5.088055   2.670609   4.648917
    16  H    8.543496   8.355293   7.131463   4.642910   5.378703
    17  H    8.313319   8.544432   7.589711   5.365221   4.614266
    18  H    6.417438   6.965565   6.326445   4.696539   2.677306
    19  H    4.127942   4.938127   4.680034   4.030162   1.073100
    20  H    2.165584   3.427999   3.890644   4.665580   2.663616
    21  H    1.084649   2.171282   3.403110   5.359061   4.614901
    22  H    2.175523   1.084503   2.148962   4.641779   5.387926
    23  H    3.384704   2.137413   1.067210   2.680908   4.672591
    24  H    4.787638   4.099015   2.771194   1.148074   3.832232
    25  H    4.785278   4.090781   2.759506   1.152558   3.806575
                   11         12         13         14         15
    11  C    0.000000
    12  C    1.407734   0.000000
    13  C    2.524596   2.872222   0.000000
    14  C    2.865645   2.475011   1.409018   0.000000
    15  H    2.165183   3.427845   4.149859   4.901807   0.000000
    16  H    3.425265   3.939220   5.926938   6.200473   2.461912
    17  H    3.864512   3.412457   6.183461   5.870864   4.278809
    18  H    3.402481   2.159056   4.907220   4.110617   4.966047
    19  H    3.454622   2.191403   3.461612   2.196385   5.584958
    20  H    4.878811   4.092531   3.375664   2.134366   6.990024
    21  H    6.177182   5.869320   3.862595   3.411572   8.005792
    22  H    5.929574   6.208201   3.426563   3.945303   7.222445
    23  H    4.165293   4.923994   2.181899   3.448301   4.976279
    24  H    2.195307   3.355379   2.209492   3.350441   2.642486
    25  H    2.197606   3.333728   2.172664   3.327850   2.638442
                   16         17         18         19         20
    16  H    0.000000
    17  H    2.515508   0.000000
    18  H    4.345078   2.480175   0.000000
    19  H    5.994357   4.784923   2.467753   0.000000
    20  H    8.023432   7.180139   4.935235   2.468606   0.000000
    21  H    9.579030   9.218611   7.188603   4.788227   2.467828
    22  H    9.273660   9.586815   8.048737   6.005856   4.329483
    23  H    7.230237   8.024381   7.035484   5.610039   4.957796
    24  H    4.828035   5.858533   5.440030   4.881126   5.404995
    25  H    4.811908   5.855811   5.420636   4.860654   5.392021
                   21         22         23         24         25
    21  H    0.000000
    22  H    2.521301   0.000000
    23  H    4.292705   2.466464   0.000000
    24  H    5.853305   4.822968   2.648575   0.000000
    25  H    5.846627   4.809122   2.637002   1.719205   0.000000
 Stoichiometry    C14H11(1+)
 Framework group  C1[X(C14H11)]
 Deg. of freedom    69
 Full point group                 C1      NOp   1
 Largest Abelian subgroup         C1      NOp   1
 Largest concise Abelian subgroup C1      NOp   1
                         Standard orientation:                         
 ---------------------------------------------------------------------
 Center     Atomic      Atomic             Coordinates (Angstroms)
 Number     Number       Type             X           Y           Z
 ---------------------------------------------------------------------
      1          6           0        2.490593   -1.387698    0.010802
      2          6           0        3.700489   -0.712811   -0.006309
      3          6           0        3.685006    0.688141   -0.008891
      4          6           0        2.465441    1.450770   -0.008909
      5          6           0       -2.461061    1.445803    0.002877
      6          6           0       -3.682978    0.704468    0.025158
      7          6           0       -3.702572   -0.702054   -0.004472
      8          6           0       -2.494784   -1.396199   -0.009697
      9          6           0       -0.002273   -1.469132    0.015645
     10          6           0        0.002277    1.487966   -0.009549
     11          6           0        1.261013   -0.656652    0.027373
     12          6           0        1.238645    0.750616   -0.001165
     13          6           0       -1.262995   -0.660337   -0.027001
     14          6           0       -1.236357    0.748291   -0.007319
     15          1           0        2.484452   -2.442829   -0.000637
     16          1           0        4.635060   -1.244727   -0.021744
     17          1           0        4.611075    1.269814    0.043745
     18          1           0        2.471307    2.523200    0.002733
     19          1           0        0.003843    2.561003    0.002082
     20          1           0       -2.463830    2.494248    0.014201
     21          1           0       -4.607488    1.271584    0.014046
     22          1           0       -4.638593   -1.249109   -0.031740
     23          1           0       -2.491742   -2.463343   -0.021240
     24          1           0       -0.004891   -2.243558    0.863189
     25          1           0       -0.001857   -2.223326   -0.855894
 ---------------------------------------------------------------------
 Rotational constants (GHZ):           2.0524786           0.4445943           0.3662456
 Standard basis: 6-311++G(d,p) (5D, 7F)
 There are   399 symmetry adapted cartesian basis functions of A   symmetry.
 There are   385 symmetry adapted basis functions of A   symmetry.
   385 basis functions,   603 primitive gaussians,   399 cartesian basis functions
    47 alpha electrons       47 beta electrons
       nuclear repulsion energy       775.4768324330 Hartrees.
 NAtoms=   25 NActive=   25 NUniq=   25 SFac= 1.00D+00 NAtFMM=   60 NAOKFM=F Big=F
 Integral buffers will be    131072 words long.
 Regular integral format.
 Two-electron integral symmetry is turned on.
 Nuclear repulsion after empirical dispersion term =      775.4758441475 Hartrees.
 One-electron integrals computed using PRISM.
 NBasis=   385 RedAO= T EigKep=  1.07D-06  NBF=   385
 NBsUse=   380 1.00D-06 EigRej=  5.64D-07 NBFU=   380
 ExpMin= 3.60D-02 ExpMax= 4.56D+03 ExpMxC= 6.82D+02 IAcc=3 IRadAn=         5 AccDes= 0.00D+00
 Harris functional with IExCor= 1009 and IRadAn=       5 diagonalized for initial guess.
 HarFok:  IExCor= 1009 AccDes= 0.00D+00 IRadAn=         5 IDoV= 1 UseB2=F ITyADJ=14
 ICtDFT=  3500011 ScaDFX=  1.000000  1.000000  1.000000  1.000000
 FoFCou: FMM=F IPFlag=           0 FMFlag=      100000 FMFlg1=           0
         NFxFlg=           0 DoJE=T BraDBF=F KetDBF=T FulRan=T
         wScrn=  0.000000 ICntrl=       500 IOpCl=  0 I1Cent=   200000004 NGrid=           0
         NMat0=    1 NMatS0=      1 NMatT0=    0 NMatD0=    1 NMtDS0=    0 NMtDT0=    0
 Petite list used in FoFCou.
 Requested convergence on RMS density matrix=1.00D-08 within 128 cycles.
 Requested convergence on MAX density matrix=1.00D-06.
 Requested convergence on             energy=1.00D-06.
 No special actions if energy rises.
 SCF Done:  E(RM062X) =  -539.741950766     A.U. after   16 cycles
            NFock= 16  Conv=0.48D-08     -V/T= 2.0052
 DoSCS=F DFT=T ScalE2(SS,OS)=  1.000000  1.000000
 ExpMin= 3.60D-02 ExpMax= 4.56D+03 ExpMxC= 6.82D+02 IAcc=3 IRadAn=         5 AccDes= 0.00D+00
 HarFok:  IExCor=  205 AccDes= 0.00D+00 IRadAn=         5 IDoV=-2 UseB2=F ITyADJ=14
 ICtDFT= 12500011 ScaDFX=  1.000000  1.000000  1.000000  1.000000
 Range of M.O.s used for correlation:    15   380
 NBasis=   385 NAE=    47 NBE=    47 NFC=    14 NFV=     0
 NROrb=    366 NOA=    33 NOB=    33 NVA=   333 NVB=   333

 **** Warning!!: The largest alpha MO coefficient is  0.16478220D+03

 Orbital symmetries:
       Occupied  (A) (A) (A) (A) (A) (A) (A) (A) (A) (A) (A) (A)
                 (A) (A) (A) (A) (A) (A) (A) (A) (A) (A) (A) (A)
                 (A) (A) (A) (A) (A) (A) (A) (A) (A) (A) (A) (A)
                 (A) (A) (A) (A) (A) (A) (A) (A) (A) (A) (A)
       Virtual   (A) (A) (A) (A) (A) (A) (A) (A) (A) (A) (A) (A)
                 (A) (A) (A) (A) (A) (A) (A) (A) (A) (A) (A) (A)
                 (A) (A) (A) (A) (A) (A) (A) (A) (A) (A) (A) (A)
                 (A) (A) (A) (A) (A) (A) (A) (A) (A) (A) (A) (A)
                 (A) (A) (A) (A) (A) (A) (A) (A) (A) (A) (A) (A)
                 (A) (A) (A) (A) (A) (A) (A) (A) (A) (A) (A) (A)
                 (A) (A) (A) (A) (A) (A) (A) (A) (A) (A) (A) (A)
                 (A) (A) (A) (A) (A) (A) (A) (A) (A) (A) (A) (A)
                 (A) (A) (A) (A) (A) (A) (A) (A) (A) (A) (A) (A)
                 (A) (A) (A) (A) (A) (A) (A) (A) (A) (A) (A) (A)
                 (A) (A) (A) (A) (A) (A) (A) (A) (A) (A) (A) (A)
                 (A) (A) (A) (A) (A) (A) (A) (A) (A) (A) (A) (A)
                 (A) (A) (A) (A) (A) (A) (A) (A) (A) (A) (A) (A)
                 (A) (A) (A) (A) (A) (A) (A) (A) (A) (A) (A) (A)
                 (A) (A) (A) (A) (A) (A) (A) (A) (A) (A) (A) (A)
                 (A) (A) (A) (A) (A) (A) (A) (A) (A) (A) (A) (A)
                 (A) (A) (A) (A) (A) (A) (A) (A) (A) (A) (A) (A)
                 (A) (A) (A) (A) (A) (A) (A) (A) (A) (A) (A) (A)
                 (A) (A) (A) (A) (A) (A) (A) (A) (A) (A) (A) (A)
                 (A) (A) (A) (A) (A) (A) (A) (A) (A) (A) (A) (A)
                 (A) (A) (A) (A) (A) (A) (A) (A) (A) (A) (A) (A)
                 (A) (A) (A) (A) (A) (A) (A) (A) (A) (A) (A) (A)
                 (A) (A) (A) (A) (A) (A) (A) (A) (A) (A) (A) (A)
                 (A) (A) (A) (A) (A) (A) (A) (A) (A) (A) (A) (A)
                 (A) (A) (A) (A) (A) (A) (A) (A) (A) (A) (A) (A)
                 (A) (A) (A) (A) (A) (A) (A) (A) (A) (A) (A) (A)
                 (A) (A) (A) (A) (A) (A) (A) (A) (A) (A) (A) (A)
                 (A) (A) (A) (A) (A) (A) (A) (A) (A)
     4 initial guesses have been made.
 Convergence on wavefunction:    0.001000000000000
 Iteration     1 Dimension     4 NMult     0 NNew      4
 CISAX will form     4 AO SS matrices at one time.
 Iteration     2 Dimension     6 NMult     4 NNew      2
 Iteration     3 Dimension     8 NMult     6 NNew      2
 Iteration     4 Dimension    10 NMult     8 NNew      2
 Iteration     5 Dimension    12 NMult    10 NNew      2
 Iteration     6 Dimension    14 NMult    12 NNew      2
 ***********************************************************************
 Excited states from <AA,BB:AA,BB> singles matrix:
 ***********************************************************************
 
 Ground to excited state transition densities written to RWF  633
 Ground to excited state transition electric dipole moments (Au):
       state          X           Y           Z        Dip. S.      Osc.
         1        -0.0057     -0.6638      0.0003      0.4407      0.0285
 Ground to excited state transition velocity dipole moments (Au):
       state          X           Y           Z        Dip. S.      Osc.
         1         0.0009      0.0714     -0.0001      0.0051      0.0350
 Ground to excited state transition magnetic dipole moments (Au):
       state          X           Y           Z
         1        -0.0037      0.0050      0.0092
 Ground to excited state transition velocity quadrupole moments (Au):
       state          XX          YY          ZZ          XY          XZ          YZ
         1         0.2853      0.0241     -0.0113      0.0088     -0.0032     -0.0004
 <0|del|b> * <b|rxdel|0> + <0|del|b> * <b|delr+rdel|0>
 Rotatory Strengths (R) in cgs (10**-40 erg-esu-cm/Gauss)
       state          XX          YY          ZZ    R(velocity)    E-M Angle
         1         2.1226     -0.0130      0.4455      0.8517       63.62
 1/2[<0|r|b>*<b|rxdel|0> + (<0|rxdel|b>*<b|r|0>)*]
 Rotatory Strengths (R) in cgs (10**-40 erg-esu-cm/Gauss)
       state          XX          YY          ZZ     R(length)
         1        -0.0149      2.3325     -0.0020      0.7719
  1/2[<0|del|b>*<b|r|0> + (<0|r|b>*<b|del|0>)*] (Au)
       state          X           Y           Z        Dip. S.   Osc.(frdel)
         1        -0.0000     -0.0474     -0.0000      0.0474      0.0316

 Excitation energies and oscillator strengths:
 
 Excited State   1:      Singlet-A      2.6434 eV  469.04 nm  f=0.0285  <S**2>=0.000
      47 -> 48         0.70455
 This state for optimization and/or second-order correction.
 Total Energy, E(TD-HF/TD-DFT) =  -539.644809435    
 Copying the excited state density for this state as the 1-particle RhoCI density.
 SavETr:  write IOETrn=   770 NScale= 10 NData=  16 NLR=1 NState=    1 LETran=      28.

 **********************************************************************

            Population analysis using the SCF Density.

 **********************************************************************

 Orbital symmetries:
       Occupied  (A) (A) (A) (A) (A) (A) (A) (A) (A) (A) (A) (A)
                 (A) (A) (A) (A) (A) (A) (A) (A) (A) (A) (A) (A)
                 (A) (A) (A) (A) (A) (A) (A) (A) (A) (A) (A) (A)
                 (A) (A) (A) (A) (A) (A) (A) (A) (A) (A) (A)
       Virtual   (A) (A) (A) (A) (A) (A) (A) (A) (A) (A) (A) (A)
                 (A) (A) (A) (A) (A) (A) (A) (A) (A) (A) (A) (A)
                 (A) (A) (A) (A) (A) (A) (A) (A) (A) (A) (A) (A)
                 (A) (A) (A) (A) (A) (A) (A) (A) (A) (A) (A) (A)
                 (A) (A) (A) (A) (A) (A) (A) (A) (A) (A) (A) (A)
                 (A) (A) (A) (A) (A) (A) (A) (A) (A) (A) (A) (A)
                 (A) (A) (A) (A) (A) (A) (A) (A) (A) (A) (A) (A)
                 (A) (A) (A) (A) (A) (A) (A) (A) (A) (A) (A) (A)
                 (A) (A) (A) (A) (A) (A) (A) (A) (A) (A) (A) (A)
                 (A) (A) (A) (A) (A) (A) (A) (A) (A) (A) (A) (A)
                 (A) (A) (A) (A) (A) (A) (A) (A) (A) (A) (A) (A)
                 (A) (A) (A) (A) (A) (A) (A) (A) (A) (A) (A) (A)
                 (A) (A) (A) (A) (A) (A) (A) (A) (A) (A) (A) (A)
                 (A) (A) (A) (A) (A) (A) (A) (A) (A) (A) (A) (A)
                 (A) (A) (A) (A) (A) (A) (A) (A) (A) (A) (A) (A)
                 (A) (A) (A) (A) (A) (A) (A) (A) (A) (A) (A) (A)
                 (A) (A) (A) (A) (A) (A) (A) (A) (A) (A) (A) (A)
                 (A) (A) (A) (A) (A) (A) (A) (A) (A) (A) (A) (A)
                 (A) (A) (A) (A) (A) (A) (A) (A) (A) (A) (A) (A)
                 (A) (A) (A) (A) (A) (A) (A) (A) (A) (A) (A) (A)
                 (A) (A) (A) (A) (A) (A) (A) (A) (A) (A) (A) (A)
                 (A) (A) (A) (A) (A) (A) (A) (A) (A) (A) (A) (A)
                 (A) (A) (A) (A) (A) (A) (A) (A) (A) (A) (A) (A)
                 (A) (A) (A) (A) (A) (A) (A) (A) (A) (A) (A) (A)
                 (A) (A) (A) (A) (A) (A) (A) (A) (A) (A) (A) (A)
                 (A) (A) (A) (A) (A) (A) (A) (A) (A) (A) (A) (A)
                 (A) (A) (A) (A) (A) (A) (A) (A) (A) (A) (A) (A)
                 (A) (A) (A) (A) (A) (A) (A) (A) (A)
 The electronic state is 1-A.
 Alpha  occ. eigenvalues --  -10.78208 -10.73767 -10.73704 -10.72859 -10.72844
 Alpha  occ. eigenvalues --  -10.72059 -10.71671 -10.71313 -10.71161 -10.70950
 Alpha  occ. eigenvalues --  -10.70252 -10.70125 -10.70043 -10.70014  -1.15672
 Alpha  occ. eigenvalues --   -1.11667  -1.06365  -1.04818  -1.01247  -0.99249
 Alpha  occ. eigenvalues --   -0.95453  -0.90210  -0.86625  -0.85346  -0.84017
 Alpha  occ. eigenvalues --   -0.77962  -0.75244  -0.74489  -0.69844  -0.69414
 Alpha  occ. eigenvalues --   -0.68331  -0.68060  -0.66523  -0.65116  -0.64914
 Alpha  occ. eigenvalues --   -0.61969  -0.61614  -0.59078  -0.58923  -0.58460
 Alpha  occ. eigenvalues --   -0.57552  -0.56302  -0.53771  -0.52024  -0.46410
 Alpha  occ. eigenvalues --   -0.45602  -0.43931
 Alpha virt. eigenvalues --   -0.26258  -0.15292  -0.14060  -0.13227  -0.11195
 Alpha virt. eigenvalues --   -0.10210  -0.09183  -0.08150  -0.07885  -0.07506
 Alpha virt. eigenvalues --   -0.07258  -0.07210  -0.05665  -0.05638  -0.05446
 Alpha virt. eigenvalues --   -0.03751  -0.03577  -0.03405  -0.03230  -0.02198
 Alpha virt. eigenvalues --   -0.01308  -0.00991   0.00099   0.00238   0.00663
 Alpha virt. eigenvalues --    0.00908   0.01450   0.01557   0.01893   0.02150
 Alpha virt. eigenvalues --    0.02349   0.02566   0.02633   0.02729   0.03401
 Alpha virt. eigenvalues --    0.04207   0.04452   0.04531   0.04701   0.05281
 Alpha virt. eigenvalues --    0.05874   0.06139   0.06695   0.07039   0.07101
 Alpha virt. eigenvalues --    0.07851   0.07892   0.08353   0.08526   0.08881
 Alpha virt. eigenvalues --    0.09295   0.09484   0.10134   0.10529   0.10779
 Alpha virt. eigenvalues --    0.11283   0.11401   0.12185   0.12264   0.12880
 Alpha virt. eigenvalues --    0.13223   0.13561   0.13792   0.14172   0.14306
 Alpha virt. eigenvalues --    0.15344   0.15942   0.17127   0.17252   0.17438
 Alpha virt. eigenvalues --    0.17694   0.18074   0.18963   0.19026   0.19556
 Alpha virt. eigenvalues --    0.19656   0.21144   0.21631   0.22363   0.22472
 Alpha virt. eigenvalues --    0.23670   0.23972   0.24660   0.26580   0.26911
 Alpha virt. eigenvalues --    0.27946   0.28244   0.28908   0.29047   0.31894
 Alpha virt. eigenvalues --    0.34480   0.35262   0.37460   0.38864   0.40736
 Alpha virt. eigenvalues --    0.41368   0.41544   0.41769   0.43186   0.43591
 Alpha virt. eigenvalues --    0.43873   0.44304   0.45029   0.45286   0.45790
 Alpha virt. eigenvalues --    0.47310   0.48622   0.48834   0.49204   0.50507
 Alpha virt. eigenvalues --    0.50526   0.51097   0.51954   0.52565   0.52988
 Alpha virt. eigenvalues --    0.53200   0.53946   0.54820   0.55507   0.55670
 Alpha virt. eigenvalues --    0.56898   0.58142   0.58166   0.61288   0.61780
 Alpha virt. eigenvalues --    0.63062   0.63273   0.64046   0.64180   0.64633
 Alpha virt. eigenvalues --    0.66282   0.68843   0.69964   0.70618   0.71869
 Alpha virt. eigenvalues --    0.72345   0.75176   0.75721   0.75974   0.76250
 Alpha virt. eigenvalues --    0.76434   0.77086   0.77494   0.78356   0.79713
 Alpha virt. eigenvalues --    0.80063   0.80420   0.81706   0.82408   0.83128
 Alpha virt. eigenvalues --    0.84596   0.86594   0.87469   0.88056   0.88821
 Alpha virt. eigenvalues --    0.89735   0.90381   0.91429   0.93524   0.94783
 Alpha virt. eigenvalues --    0.95919   0.96083   0.99530   1.00685   1.01538
 Alpha virt. eigenvalues --    1.02000   1.02714   1.03286   1.04386   1.05102
 Alpha virt. eigenvalues --    1.09179   1.17376   1.21032   1.22707   1.24084
 Alpha virt. eigenvalues --    1.26040   1.29260   1.31939   1.35513   1.35914
 Alpha virt. eigenvalues --    1.36424   1.38801   1.39006   1.39930   1.41710
 Alpha virt. eigenvalues --    1.42125   1.42938   1.43709   1.43842   1.45465
 Alpha virt. eigenvalues --    1.45968   1.47207   1.48209   1.49389   1.52291
 Alpha virt. eigenvalues --    1.55073   1.55199   1.55534   1.56328   1.56647
 Alpha virt. eigenvalues --    1.60757   1.63952   1.64018   1.64855   1.65187
 Alpha virt. eigenvalues --    1.65683   1.68506   1.69040   1.69283   1.73693
 Alpha virt. eigenvalues --    1.75051   1.75621   1.77107   1.77895   1.79113
 Alpha virt. eigenvalues --    1.79521   1.81307   1.82031   1.82582   1.83253
 Alpha virt. eigenvalues --    1.83775   1.83924   1.85680   1.86591   1.87388
 Alpha virt. eigenvalues --    1.90266   1.92435   1.93581   1.94502   1.96455
 Alpha virt. eigenvalues --    1.97151   1.98602   2.00208   2.04501   2.05256
 Alpha virt. eigenvalues --    2.08720   2.10847   2.13589   2.13995   2.16977
 Alpha virt. eigenvalues --    2.18121   2.19814   2.24122   2.28701   2.31549
 Alpha virt. eigenvalues --    2.33680   2.34525   2.38011   2.38873   2.39262
 Alpha virt. eigenvalues --    2.41235   2.42409   2.43264   2.49360   2.49664
 Alpha virt. eigenvalues --    2.52332   2.55007   2.57269   2.57793   2.58822
 Alpha virt. eigenvalues --    2.59450   2.59839   2.60898   2.62365   2.62479
 Alpha virt. eigenvalues --    2.63176   2.63699   2.64241   2.64767   2.65335
 Alpha virt. eigenvalues --    2.66171   2.67945   2.68368   2.70977   2.72976
 Alpha virt. eigenvalues --    2.73813   2.75147   2.76005   2.79291   2.81962
 Alpha virt. eigenvalues --    2.82951   2.83919   2.85049   2.90704   2.94834
 Alpha virt. eigenvalues --    2.98208   2.98648   3.01815   3.06652   3.10101
 Alpha virt. eigenvalues --    3.11472   3.17064   3.19252   3.23570   3.25420
 Alpha virt. eigenvalues --    3.27283   3.28550   3.30333   3.41640   3.42936
 Alpha virt. eigenvalues --    3.45633   3.46883   3.47252   3.48990   3.52971
 Alpha virt. eigenvalues --    3.66036   3.67297   3.91830   3.93370   3.96203
 Alpha virt. eigenvalues --    3.97287   4.06550   4.08421   4.10242   4.12661
 Alpha virt. eigenvalues --    4.30839   4.55724   4.66728   4.68599  23.46623
 Alpha virt. eigenvalues --   23.60716  23.78220  23.79835  23.83523  23.85553
 Alpha virt. eigenvalues --   23.87903  23.89690  23.93608  23.94492  23.96282
 Alpha virt. eigenvalues --   23.97249  24.05738  24.08022
          Condensed to atoms (all electrons):
               1          2          3          4          5          6
     1  C   14.181339  -0.794889  -1.373346   4.471595  -0.450355   0.003975
     2  C   -0.794889   7.196297   0.384267  -1.676289   0.062932  -0.021311
     3  C   -1.373346   0.384267   6.772397   0.033896  -0.020985   0.007407
     4  C    4.471595  -1.676289   0.033896  13.191818  -0.897309  -0.018782
     5  C   -0.450355   0.062932  -0.020985  -0.897309  12.955316   0.369755
     6  C    0.003975  -0.021311   0.007407  -0.018782   0.369755   6.676685
     7  C    0.108650  -0.007352  -0.024772   0.075821  -1.792735   0.362687
     8  C   -0.934786   0.097460   0.024829  -0.573574   4.302511  -1.223777
     9  C   -0.645233  -0.648065   0.115617  -0.189298   0.361016   0.183445
    10  C    0.213743   0.057609  -0.616839  -0.877689  -1.456636  -0.606606
    11  C   -5.742343   0.064387   1.793982  -2.710655  -0.964402  -0.132378
    12  C   -4.336236   1.867677  -0.365503  -5.372167   0.828465  -0.411472
    13  C    1.064048  -0.314240  -0.122477  -0.722665  -2.602758   1.616940
    14  C   -0.045496  -0.200239  -0.488324   1.004400  -4.956603  -0.676796
    15  H    0.489331  -0.146775  -0.007830   0.065012  -0.002263   0.002067
    16  H   -0.085639   0.407900  -0.014420  -0.015748  -0.000669  -0.000380
    17  H   -0.036971  -0.012655   0.388433  -0.095607   0.000754   0.000351
    18  H    0.092121  -0.005581  -0.129975   0.533437  -0.002780  -0.003448
    19  H   -0.035521  -0.009213   0.046663  -0.049189  -0.047324   0.042524
    20  H    0.000078   0.003030  -0.003405  -0.002854   0.530057  -0.131820
    21  H   -0.000442  -0.000389   0.000311   0.000525  -0.095219   0.393636
    22  H    0.002098   0.000314  -0.000403  -0.000449  -0.013671  -0.014818
    23  H   -0.018076  -0.000547   0.002098  -0.003462   0.065948  -0.004884
    24  H   -0.013647   0.013334   0.004928  -0.006419  -0.007536  -0.003709
    25  H    0.056498   0.004584  -0.007805  -0.006271  -0.011985   0.000576
               7          8          9         10         11         12
     1  C    0.108650  -0.934786  -0.645233   0.213743  -5.742343  -4.336236
     2  C   -0.007352   0.097460  -0.648065   0.057609   0.064387   1.867677
     3  C   -0.024772   0.024829   0.115617  -0.616839   1.793982  -0.365503
     4  C    0.075821  -0.573574  -0.189298  -0.877689  -2.710655  -5.372167
     5  C   -1.792735   4.302511   0.361016  -1.456636  -0.964402   0.828465
     6  C    0.362687  -1.223777   0.183445  -0.606606  -0.132378  -0.411472
     7  C    7.296613  -1.185275  -0.890010   0.073663  -0.265262  -0.255558
     8  C   -1.185275  15.323628  -0.293906   0.234702   0.932010   0.142236
     9  C   -0.890010  -0.293906   9.104816   0.564800   0.941853  -1.469279
    10  C    0.073663   0.234702   0.564800   9.166423  -1.317868   0.568239
    11  C   -0.265262   0.932010   0.941853  -1.317868  19.405989  -1.865185
    12  C   -0.255558   0.142236  -1.469279   0.568239  -1.865185  21.046837
    13  C    0.511618  -6.875825   0.489959  -1.434322   1.383197  -5.475932
    14  C    2.022705  -4.179159  -2.059967   0.936680  -5.274744   0.627198
    15  H   -0.000540  -0.016600   0.097527  -0.001879  -0.115477  -0.065387
    16  H    0.000333   0.001907   0.000023  -0.011403   0.078890  -0.020652
    17  H   -0.000449  -0.000469  -0.005655   0.005342   0.002058   0.097820
    18  H    0.003116  -0.000554  -0.020732   0.095916  -0.077161  -0.177171
    19  H   -0.008184  -0.033392   0.062342   0.411196   0.067407  -0.058582
    20  H   -0.009027   0.099097  -0.019598   0.091941  -0.010547   0.038246
    21  H   -0.014234  -0.039438  -0.004059   0.002849  -0.004180   0.001061
    22  H    0.407988  -0.094543  -0.000999  -0.011215   0.002814  -0.009235
    23  H   -0.145748   0.505343   0.110532  -0.002093   0.020193   0.016321
    24  H   -0.000446   0.043028   0.352756   0.006767   0.046395  -0.033246
    25  H    0.020810  -0.019257   0.364450   0.006781  -0.032731  -0.057616
              13         14         15         16         17         18
     1  C    1.064048  -0.045496   0.489331  -0.085639  -0.036971   0.092121
     2  C   -0.314240  -0.200239  -0.146775   0.407900  -0.012655  -0.005581
     3  C   -0.122477  -0.488324  -0.007830  -0.014420   0.388433  -0.129975
     4  C   -0.722665   1.004400   0.065012  -0.015748  -0.095607   0.533437
     5  C   -2.602758  -4.956603  -0.002263  -0.000669   0.000754  -0.002780
     6  C    1.616940  -0.676796   0.002067  -0.000380   0.000351  -0.003448
     7  C    0.511618   2.022705  -0.000540   0.000333  -0.000449   0.003116
     8  C   -6.875825  -4.179159  -0.016600   0.001907  -0.000469  -0.000554
     9  C    0.489959  -2.059967   0.097527   0.000023  -0.005655  -0.020732
    10  C   -1.434322   0.936680  -0.001879  -0.011403   0.005342   0.095916
    11  C    1.383197  -5.274744  -0.115477   0.078890   0.002058  -0.077161
    12  C   -5.475932   0.627198  -0.065387  -0.020652   0.097820  -0.177171
    13  C   21.036082  -2.382742   0.025957   0.003612  -0.004724  -0.008727
    14  C   -2.382742  21.199981   0.012366  -0.008817   0.001277   0.039911
    15  H    0.025957   0.012366   0.447460  -0.011966   0.001146   0.000674
    16  H    0.003612  -0.008817  -0.011966   0.424436  -0.006674   0.001724
    17  H   -0.004724   0.001277   0.001146  -0.006674   0.426585  -0.011419
    18  H   -0.008727   0.039911   0.000674   0.001724  -0.011419   0.458610
    19  H    0.063365  -0.079456   0.000454  -0.000527   0.001393  -0.006858
    20  H   -0.087865  -0.154223  -0.000211   0.000031  -0.000157   0.001263
    21  H    0.009795   0.090039   0.000025  -0.000008   0.000012  -0.000150
    22  H    0.085064  -0.020178  -0.000136   0.000010  -0.000008   0.000031
    23  H   -0.153658  -0.056882   0.000631  -0.000133   0.000020  -0.000177
    24  H   -0.030929  -0.037533  -0.003880   0.000400   0.000078   0.000150
    25  H    0.068592  -0.050142   0.001120   0.000877  -0.000297   0.000084
              19         20         21         22         23         24
     1  C   -0.035521   0.000078  -0.000442   0.002098  -0.018076  -0.013647
     2  C   -0.009213   0.003030  -0.000389   0.000314  -0.000547   0.013334
     3  C    0.046663  -0.003405   0.000311  -0.000403   0.002098   0.004928
     4  C   -0.049189  -0.002854   0.000525  -0.000449  -0.003462  -0.006419
     5  C   -0.047324   0.530057  -0.095219  -0.013671   0.065948  -0.007536
     6  C    0.042524  -0.131820   0.393636  -0.014818  -0.004884  -0.003709
     7  C   -0.008184  -0.009027  -0.014234   0.407988  -0.145748  -0.000446
     8  C   -0.033392   0.099097  -0.039438  -0.094543   0.505343   0.043028
     9  C    0.062342  -0.019598  -0.004059  -0.000999   0.110532   0.352756
    10  C    0.411196   0.091941   0.002849  -0.011215  -0.002093   0.006767
    11  C    0.067407  -0.010547  -0.004180   0.002814   0.020193   0.046395
    12  C   -0.058582   0.038246   0.001061  -0.009235   0.016321  -0.033246
    13  C    0.063365  -0.087865   0.009795   0.085064  -0.153658  -0.030929
    14  C   -0.079456  -0.154223   0.090039  -0.020178  -0.056882  -0.037533
    15  H    0.000454  -0.000211   0.000025  -0.000136   0.000631  -0.003880
    16  H   -0.000527   0.000031  -0.000008   0.000010  -0.000133   0.000400
    17  H    0.001393  -0.000157   0.000012  -0.000008   0.000020   0.000078
    18  H   -0.006858   0.001263  -0.000150   0.000031  -0.000177   0.000150
    19  H    0.433705  -0.006947   0.001264  -0.000486   0.000373   0.000583
    20  H   -0.006947   0.465452  -0.012394   0.001776   0.000750  -0.000130
    21  H    0.001264  -0.012394   0.426445  -0.006544   0.001113  -0.000109
    22  H   -0.000486   0.001776  -0.006544   0.423506  -0.012158   0.000360
    23  H    0.000373   0.000750   0.001113  -0.012158   0.447478   0.002332
    24  H    0.000583  -0.000130  -0.000109   0.000360   0.002332   0.491445
    25  H    0.000360   0.000345  -0.000134   0.000982  -0.005329  -0.087941
              25
     1  C    0.056498
     2  C    0.004584
     3  C   -0.007805
     4  C   -0.006271
     5  C   -0.011985
     6  C    0.000576
     7  C    0.020810
     8  C   -0.019257
     9  C    0.364450
    10  C    0.006781
    11  C   -0.032731
    12  C   -0.057616
    13  C    0.068592
    14  C   -0.050142
    15  H    0.001120
    16  H    0.000877
    17  H   -0.000297
    18  H    0.000084
    19  H    0.000360
    20  H    0.000345
    21  H   -0.000134
    22  H    0.000982
    23  H   -0.005329
    24  H   -0.087941
    25  H    0.493567
 Mulliken charges:
               1
     1  C   -0.170494
     2  C   -0.322244
     3  C   -0.398745
     4  C   -0.158078
     5  C   -0.153525
     6  C   -0.409868
     7  C   -0.284412
     8  C   -0.236196
     9  C   -0.502336
    10  C   -0.100101
    11  C   -0.226241
    12  C    0.739122
    13  C   -0.141362
    14  C    0.736744
    15  H    0.229176
    16  H    0.256892
    17  H    0.249815
    18  H    0.217693
    19  H    0.204051
    20  H    0.207114
    21  H    0.250226
    22  H    0.259901
    23  H    0.230016
    24  H    0.262967
    25  H    0.259885
 Sum of Mulliken charges =   1.00000
 Mulliken charges with hydrogens summed into heavy atoms:
               1
     1  C    0.058682
     2  C   -0.065352
     3  C   -0.148930
     4  C    0.059616
     5  C    0.053590
     6  C   -0.159642
     7  C   -0.024511
     8  C   -0.006181
     9  C    0.020516
    10  C    0.103951
    11  C   -0.226241
    12  C    0.739122
    13  C   -0.141362
    14  C    0.736744
 Electronic spatial extent (au):  <R**2>=           2876.1050
 Charge=              1.0000 electrons
 Dipole moment (field-independent basis, Debye):
    X=             -0.0088    Y=              0.1234    Z=             -0.0035  Tot=              0.1238
 Quadrupole moment (field-independent basis, Debye-Ang):
   XX=            -32.6149   YY=            -54.4540   ZZ=            -84.7917
   XY=              0.0910   XZ=              0.2671   YZ=              0.1800
 Traceless Quadrupole moment (field-independent basis, Debye-Ang):
   XX=             24.6719   YY=              2.8329   ZZ=            -27.5048
   XY=              0.0910   XZ=              0.2671   YZ=              0.1800
 Octapole moment (field-independent basis, Debye-Ang**2):
  XXX=             -0.3594  YYY=              4.9588  ZZZ=              0.0175  XYY=              0.0006
  XXY=             -7.7442  XXZ=              0.0073  XZZ=              0.0132  YZZ=             -3.0578
  YYZ=              0.1411  XYZ=              0.1827
 Hexadecapole moment (field-independent basis, Debye-Ang**3):
 XXXX=          -2162.0484 YYYY=           -616.9532 ZZZZ=           -101.3671 XXXY=             -1.1807
 XXXZ=              6.2607 YYYX=              1.7469 YYYZ=              0.8012 ZZZX=              0.3301
 ZZZY=              0.1061 XXYY=           -506.9448 XXZZ=           -595.1599 YYZZ=           -150.3893
 XXYZ=              3.7703 YYXZ=              0.6712 ZZXY=             -0.4514
 N-N= 7.754758441475D+02 E-N=-2.786901388429D+03  KE= 5.369659338296D+02
 Unable to Open any file for archive entry.
 1\1\GINC-GADI-CPU-CLX-0572\SP\RM062X TD-FC\6-311++G(d,p)\C14H11(1+)\TS
 1578\27-Jul-2022\0\\#n M062X/6-311++G(d,p) TD(NStates=1) EmpiricalDisp
 ersion=GD3 SP\\SP_-1\\1,1\C,0,2.4927,1.3931,-0.017\C,0,3.7015,0.7167,0
 .013\C,0,3.6839,-0.6841,0.032\C,0,2.4632,-1.4449,0.036\C,0,-2.4632,-1.
 4329,0.004\C,0,-3.6839,-0.6901,-0.032\C,0,-3.7015,0.7167,-0.019\C,0,-2
 .4927,1.4091,-0.017\C,0,0.,1.4781,-0.033\C,0,0.,-1.4785,0.027\C,0,1.26
 21,0.6637,-0.03\C,0,1.2375,-0.7431,0.015\C,0,-1.2621,0.6717,0.014\C,0,
 -1.2375,-0.7371,0.011\H,0,2.4881,2.4483,-0.018\H,0,4.6368,1.2474,0.026
 \H,0,4.6093,-1.2677,-0.01\H,0,2.4675,-2.5174,0.037\H,0,0.,-2.5516,0.02
 8\H,0,-2.4675,-2.4814,0.005\H,0,-4.6093,-1.2557,-0.018\H,0,-4.6368,1.2
 654,-0.002\H,0,-2.4881,2.4763,-0.018\H,0,0.002,2.2425,-0.8896\H,0,-0.0
 02,2.2425,0.8296\\Version=ES64L-G16RevC.01\State=1-A\HF=-539.7419508\R
 MSD=4.816e-09\PG=C01 [X(C14H11)]\\@
 The archive entry for this job was punched.


 IT IS A QUALITY OF REVOLUTIONS NOT TO GO BY OLD LINES OR OLD LAWS,
 BUT TO BREAK UP BOTH, AND MAKE NEW ONES.
                                              -- A. LINCOLN (1848)
 Job cpu time:       0 days  1 hours 12 minutes 56.5 seconds.
 Elapsed time:       0 days  0 hours  2 minutes 17.2 seconds.
 File lengths (MBytes):  RWF=    461 Int=      0 D2E=      0 Chk=     15 Scr=      1
 Normal termination of Gaussian 16 at Wed Jul 27 10:38:54 2022.
