 Entering Gaussian System, Link 0=g16
 Initial command:
 /apps/gaussian/g16c01/g16/l1.exe "/jobfs/52803152.gadi-pbs/Gau-2742381.inp" -scrdir="/jobfs/52803152.gadi-pbs/"
 Entering Link 1 = /apps/gaussian/g16c01/g16/l1.exe PID=   2742382.
  
 Copyright (c) 1988-2019, Gaussian, Inc.  All Rights Reserved.
  
 This is part of the Gaussian(R) 16 program.  It is based on
 the Gaussian(R) 09 system (copyright 2009, Gaussian, Inc.),
 the Gaussian(R) 03 system (copyright 2003, Gaussian, Inc.),
 the Gaussian(R) 98 system (copyright 1998, Gaussian, Inc.),
 the Gaussian(R) 94 system (copyright 1995, Gaussian, Inc.),
 the Gaussian 92(TM) system (copyright 1992, Gaussian, Inc.),
 the Gaussian 90(TM) system (copyright 1990, Gaussian, Inc.),
 the Gaussian 88(TM) system (copyright 1988, Gaussian, Inc.),
 the Gaussian 86(TM) system (copyright 1986, Carnegie Mellon
 University), and the Gaussian 82(TM) system (copyright 1983,
 Carnegie Mellon University). Gaussian is a federally registered
 trademark of Gaussian, Inc.
  
 This software contains proprietary and confidential information,
 including trade secrets, belonging to Gaussian, Inc.
  
 This software is provided under written license and may be
 used, copied, transmitted, or stored only in accord with that
 written license.
  
 The following legend is applicable only to US Government
 contracts under FAR:
  
                    RESTRICTED RIGHTS LEGEND
  
 Use, reproduction and disclosure by the US Government is
 subject to restrictions as set forth in subparagraphs (a)
 and (c) of the Commercial Computer Software - Restricted
 Rights clause in FAR 52.227-19.
  
 Gaussian, Inc.
 340 Quinnipiac St., Bldg. 40, Wallingford CT 06492
  
  
 ---------------------------------------------------------------
 Warning -- This program may not be used in any manner that
 competes with the business of Gaussian, Inc. or will provide
 assistance to any competitor of Gaussian, Inc.  The licensee
 of this program is prohibited from giving any competitor of
 Gaussian, Inc. access to this program.  By using this program,
 the user acknowledges that Gaussian, Inc. is engaged in the
 business of creating and licensing software in the field of
 computational chemistry and represents and warrants to the
 licensee that it is not a competitor of Gaussian, Inc. and that
 it will not use this program in any manner prohibited above.
 ---------------------------------------------------------------
  

 Cite this work as:
 Gaussian 16, Revision C.01,
 M. J. Frisch, G. W. Trucks, H. B. Schlegel, G. E. Scuseria, 
 M. A. Robb, J. R. Cheeseman, G. Scalmani, V. Barone, 
 G. A. Petersson, H. Nakatsuji, X. Li, M. Caricato, A. V. Marenich, 
 J. Bloino, B. G. Janesko, R. Gomperts, B. Mennucci, H. P. Hratchian, 
 J. V. Ortiz, A. F. Izmaylov, J. L. Sonnenberg, D. Williams-Young, 
 F. Ding, F. Lipparini, F. Egidi, J. Goings, B. Peng, A. Petrone, 
 T. Henderson, D. Ranasinghe, V. G. Zakrzewski, J. Gao, N. Rega, 
 G. Zheng, W. Liang, M. Hada, M. Ehara, K. Toyota, R. Fukuda, 
 J. Hasegawa, M. Ishida, T. Nakajima, Y. Honda, O. Kitao, H. Nakai, 
 T. Vreven, K. Throssell, J. A. Montgomery, Jr., J. E. Peralta, 
 F. Ogliaro, M. J. Bearpark, J. J. Heyd, E. N. Brothers, K. N. Kudin, 
 V. N. Staroverov, T. A. Keith, R. Kobayashi, J. Normand, 
 K. Raghavachari, A. P. Rendell, J. C. Burant, S. S. Iyengar, 
 J. Tomasi, M. Cossi, J. M. Millam, M. Klene, C. Adamo, R. Cammi, 
 J. W. Ochterski, R. L. Martin, K. Morokuma, O. Farkas, 
 J. B. Foresman, and D. J. Fox, Gaussian, Inc., Wallingford CT, 2019.
 
 ******************************************
 Gaussian 16:  ES64L-G16RevC.01  3-Jul-2019
                27-Jul-2022 
 ******************************************
 %NProcShared=32
 Will use up to   32 processors via shared memory.
 %mem = 128GB
 ---------------------------------------------------------------
 #n M062X/6-311++G(d,p) TD(NStates=1) EmpiricalDispersion=GD3 SP
 ---------------------------------------------------------------
 1/38=1,172=1/1;
 2/12=2,17=6,18=5,40=1/2;
 3/5=4,6=6,7=1111,11=9,25=1,30=1,74=-55,124=31/1,2,3,8;
 4//1;
 5/5=2,38=5/2;
 8/6=1,10=2,108=1/1;
 9/41=1,42=1,70=2/14;
 6/7=2,8=2,9=2,10=2/1;
 99/5=1,9=1/99;
 -----
 SP_-4
 -----
 Symbolic Z-matrix:
 Charge =  1 Multiplicity = 1
 C                     2.4927    1.3851   -0.068 
 C                     3.7015    0.7347    0.012 
 C                     3.6839   -0.6661    0.048 
 C                     2.4632   -1.4829    0.104 
 C                    -2.4632   -1.4349    0.056 
 C                    -3.6839   -0.6901   -0.048 
 C                    -3.7015    0.7347   -0.036 
 C                    -2.4927    1.4491   -0.068 
 C                     0.        1.4861   -0.132 
 C                     0.       -1.5075    0.108 
 C                     1.2621    0.6427   -0.065 
 C                     1.2375   -0.7611    0.055 
 C                    -1.2621    0.6747    0.001 
 C                    -1.2375   -0.7371    0.049 
 H                     2.4881    2.4113   -0.072 
 H                     4.6368    1.2384    0.069 
 H                     4.6093   -1.2847   -0.05 
 H                     2.4675   -2.5804    0.108 
 H                     0.       -2.5766    0.112 
 H                    -2.4675   -2.4364    0.06 
 H                    -4.6093   -1.2367   -0.062 
 H                    -4.6368    1.3104    0.027 
 H                    -2.4881    2.5233   -0.072 
 H                     0.008     2.2865   -0.9796 
 H                    -0.008     2.2865    0.7396 
 
                          Input orientation:                          
 ---------------------------------------------------------------------
 Center     Atomic      Atomic             Coordinates (Angstroms)
 Number     Number       Type             X           Y           Z
 ---------------------------------------------------------------------
      1          6           0        2.492700    1.385100   -0.068000
      2          6           0        3.701500    0.734700    0.012000
      3          6           0        3.683900   -0.666100    0.048000
      4          6           0        2.463200   -1.482900    0.104000
      5          6           0       -2.463200   -1.434900    0.056000
      6          6           0       -3.683900   -0.690100   -0.048000
      7          6           0       -3.701500    0.734700   -0.036000
      8          6           0       -2.492700    1.449100   -0.068000
      9          6           0        0.000000    1.486100   -0.132000
     10          6           0        0.000000   -1.507500    0.108000
     11          6           0        1.262100    0.642700   -0.065000
     12          6           0        1.237500   -0.761100    0.055000
     13          6           0       -1.262100    0.674700    0.001000
     14          6           0       -1.237500   -0.737100    0.049000
     15          1           0        2.488100    2.411300   -0.072000
     16          1           0        4.636800    1.238400    0.069000
     17          1           0        4.609300   -1.284700   -0.050000
     18          1           0        2.467500   -2.580400    0.108000
     19          1           0        0.000000   -2.576600    0.112000
     20          1           0       -2.467500   -2.436400    0.060000
     21          1           0       -4.609300   -1.236700   -0.062000
     22          1           0       -4.636800    1.310400    0.027000
     23          1           0       -2.488100    2.523300   -0.072000
     24          1           0        0.008000    2.286500   -0.979600
     25          1           0       -0.008000    2.286500    0.739600
 ---------------------------------------------------------------------
                    Distance matrix (angstroms):
                    1          2          3          4          5
     1  C    0.000000
     2  C    1.374997   0.000000
     3  C    2.374834   1.401373   0.000000
     4  C    2.873304   2.541574   1.469832   0.000000
     5  C    5.703396   6.535490   6.194994   4.926868   0.000000
     6  C    6.515922   7.521821   7.368464   6.199877   1.433754
     7  C    6.228335   7.403156   7.517541   6.552929   2.499803
     8  C    4.985811   6.235774   6.529771   5.760829   2.886815
     9  C    2.495566   3.779741   4.270303   3.864972   3.825564
    10  C    3.822521   4.328716   3.779242   2.463326   2.464818
    11  C    1.437200   2.442348   2.755148   2.447320   4.267191
    12  C    2.489343   2.882805   2.448254   1.423284   3.761541
    13  C    3.822035   4.963975   5.124731   4.306240   2.428184
    14  C    4.293229   5.153764   4.921912   3.775503   1.410431
    15  H    1.026218   2.071324   3.303745   3.898255   6.270966
    16  H    2.153475   1.063837   2.129690   3.482992   7.586613
    17  H    3.407074   2.214931   1.117423   2.160728   7.074889
    18  H    3.969484   3.538624   2.268871   1.097516   5.062280
    19  H    4.684124   4.967475   4.150328   2.695106   2.715505
    20  H    6.262893   6.936479   6.401080   5.022241   1.001517
    21  H    7.570487   8.541738   8.313534   7.078731   2.158461
    22  H    7.130524   8.358164   8.552254   7.630102   3.501721
    23  H    5.109196   6.443392   6.948400   6.371498   3.960347
    24  H    2.795938   4.127141   4.825562   4.627156   4.585642
    25  H    2.778172   4.086303   4.777686   4.551834   4.510447
                    6          7          8          9         10
     6  C    0.000000
     7  C    1.424959   0.000000
     8  C    2.448578   1.404489   0.000000
     9  C    4.279488   3.778217   2.493796   0.000000
    10  C    3.776718   4.330046   3.871177   3.003205   0.000000
    11  C    5.122457   4.964537   3.840418   1.519444   2.499237
    12  C    4.922990   5.161339   4.337569   2.572214   1.446143
    13  C    2.780323   2.440418   1.455621   1.506305   2.523161
    14  C    2.448773   2.871361   2.523626   2.550840   1.458905
    15  H    6.907448   6.412755   5.072890   2.655228   4.645432
    16  H    8.542064   8.354160   7.133928   4.647760   5.389008
    17  H    8.314489   8.552635   7.610019   5.378634   4.617386
    18  H    6.437180   7.004797   6.393077   4.762623   2.690664
    19  H    4.141932   4.968673   4.738377   4.070021   1.069107
    20  H    2.130929   3.404093   3.887689   4.638041   2.636990
    21  H    1.074864   2.170529   3.419584   5.353895   4.620377
    22  H    2.217125   1.100084   2.150681   4.642851   5.426512
    23  H    3.428768   2.161649   1.074217   2.696298   4.740294
    24  H    4.833027   4.130237   2.790296   1.165817   3.946818
    25  H    4.795071   4.080635   2.743573   1.183381   3.846221
                   11         12         13         14         15
    11  C    0.000000
    12  C    1.409134   0.000000
    13  C    2.525265   2.883130   0.000000
    14  C    2.857419   2.475124   1.412830   0.000000
    15  H    2.151992   3.412367   4.133414   4.879258   0.000000
    16  H    3.429492   3.943785   5.926163   6.197613   2.452037
    17  H    3.862492   3.413827   6.189926   5.873222   4.261501
    18  H    3.445474   2.196716   4.951469   4.138630   4.994987
    19  H    3.462386   2.197884   3.489437   2.217912   5.577064
    20  H    4.838016   4.066163   3.336977   2.097771   6.933656
    21  H    6.164859   5.867278   3.855018   3.410419   7.980043
    22  H    5.937281   6.228908   3.434151   3.968373   7.210130
    23  H    4.195319   4.968250   2.219398   3.494116   4.977460
    24  H    2.260827   3.445277   2.274342   3.428038   2.643900
    25  H    2.227692   3.362709   2.171680   3.336279   2.627696
                   16         17         18         19         20
    16  H    0.000000
    17  H    2.526054   0.000000
    18  H    4.392108   2.508208   0.000000
    19  H    6.004664   4.789666   2.467506   0.000000
    20  H    7.998457   7.170747   4.937334   2.472027   0.000000
    21  H    9.572546   9.218733   7.205243   4.803255   2.457940
    22  H    9.273975   9.603689   8.100368   6.051108   4.329603
    23  H    7.241205   8.054467   7.116047   5.677453   4.961499
    24  H    4.860439   5.898270   5.560461   4.984114   5.432739
    25  H    4.808574   5.890365   5.496702   4.903436   5.368126
                   21         22         23         24         25
    21  H    0.000000
    22  H    2.548803   0.000000
    23  H    4.317081   2.469380   0.000000
    24  H    5.879999   4.851823   2.666520   0.000000
    25  H    5.850424   4.783969   2.620241   1.719274   0.000000
 Stoichiometry    C14H11(1+)
 Framework group  C1[X(C14H11)]
 Deg. of freedom    69
 Full point group                 C1      NOp   1
 Largest Abelian subgroup         C1      NOp   1
 Largest concise Abelian subgroup C1      NOp   1
                         Standard orientation:                         
 ---------------------------------------------------------------------
 Center     Atomic      Atomic             Coordinates (Angstroms)
 Number     Number       Type             X           Y           Z
 ---------------------------------------------------------------------
      1          6           0        2.484089   -1.392583    0.018244
      2          6           0        3.697170   -0.746634   -0.024198
      3          6           0        3.688043    0.654404    0.005064
      4          6           0        2.472545    1.480444   -0.019992
      5          6           0       -2.454255    1.460663   -0.003376
      6          6           0       -3.679941    0.719373    0.058567
      7          6           0       -3.705857   -0.703184   -0.019969
      8          6           0       -2.501506   -1.425746   -0.014182
      9          6           0       -0.009511   -1.481070    0.062743
     10          6           0        0.009604    1.520404   -0.037386
     11          6           0        1.257924   -0.643269    0.042602
     12          6           0        1.242335    0.764723   -0.011945
     13          6           0       -1.265964   -0.656581   -0.039724
     14          6           0       -1.232753    0.755744   -0.021687
     15          1           0        2.473421   -2.417806   -0.025645
     16          1           0        4.629822   -1.252893   -0.099102
     17          1           0        4.616446    1.262043    0.137268
     18          1           0        2.483333    2.576891    0.027220
     19          1           0        0.015925    2.588509    0.008475
     20          1           0       -2.452632    2.461269    0.039308
     21          1           0       -4.602174    1.270427    0.092578
     22          1           0       -4.644123   -1.269540   -0.115270
     23          1           0       -2.503257   -2.498973   -0.060254
     24          1           0       -0.011469   -2.320132    0.872126
     25          1           0       -0.016832   -2.239921   -0.845268
 ---------------------------------------------------------------------
 Rotational constants (GHZ):           2.0057192           0.4445021           0.3647660
 Standard basis: 6-311++G(d,p) (5D, 7F)
 There are   399 symmetry adapted cartesian basis functions of A   symmetry.
 There are   385 symmetry adapted basis functions of A   symmetry.
   385 basis functions,   603 primitive gaussians,   399 cartesian basis functions
    47 alpha electrons       47 beta electrons
       nuclear repulsion energy       772.1887365827 Hartrees.
 NAtoms=   25 NActive=   25 NUniq=   25 SFac= 1.00D+00 NAtFMM=   60 NAOKFM=F Big=F
 Integral buffers will be    131072 words long.
 Regular integral format.
 Two-electron integral symmetry is turned on.
 Nuclear repulsion after empirical dispersion term =      772.1877436276 Hartrees.
 One-electron integrals computed using PRISM.
 NBasis=   385 RedAO= T EigKep=  1.31D-06  NBF=   385
 NBsUse=   380 1.00D-06 EigRej=  7.58D-07 NBFU=   380
 ExpMin= 3.60D-02 ExpMax= 4.56D+03 ExpMxC= 6.82D+02 IAcc=3 IRadAn=         5 AccDes= 0.00D+00
 Harris functional with IExCor= 1009 and IRadAn=       5 diagonalized for initial guess.
 HarFok:  IExCor= 1009 AccDes= 0.00D+00 IRadAn=         5 IDoV= 1 UseB2=F ITyADJ=14
 ICtDFT=  3500011 ScaDFX=  1.000000  1.000000  1.000000  1.000000
 FoFCou: FMM=F IPFlag=           0 FMFlag=      100000 FMFlg1=           0
         NFxFlg=           0 DoJE=T BraDBF=F KetDBF=T FulRan=T
         wScrn=  0.000000 ICntrl=       500 IOpCl=  0 I1Cent=   200000004 NGrid=           0
         NMat0=    1 NMatS0=      1 NMatT0=    0 NMatD0=    1 NMtDS0=    0 NMtDT0=    0
 Petite list used in FoFCou.
 Requested convergence on RMS density matrix=1.00D-08 within 128 cycles.
 Requested convergence on MAX density matrix=1.00D-06.
 Requested convergence on             energy=1.00D-06.
 No special actions if energy rises.
 SCF Done:  E(RM062X) =  -539.711775740     A.U. after   16 cycles
            NFock= 16  Conv=0.83D-08     -V/T= 2.0057
 DoSCS=F DFT=T ScalE2(SS,OS)=  1.000000  1.000000
 ExpMin= 3.60D-02 ExpMax= 4.56D+03 ExpMxC= 6.82D+02 IAcc=3 IRadAn=         5 AccDes= 0.00D+00
 HarFok:  IExCor=  205 AccDes= 0.00D+00 IRadAn=         5 IDoV=-2 UseB2=F ITyADJ=14
 ICtDFT= 12500011 ScaDFX=  1.000000  1.000000  1.000000  1.000000
 Range of M.O.s used for correlation:    15   380
 NBasis=   385 NAE=    47 NBE=    47 NFC=    14 NFV=     0
 NROrb=    366 NOA=    33 NOB=    33 NVA=   333 NVB=   333

 **** Warning!!: The largest alpha MO coefficient is  0.15600471D+03

 Orbital symmetries:
       Occupied  (A) (A) (A) (A) (A) (A) (A) (A) (A) (A) (A) (A)
                 (A) (A) (A) (A) (A) (A) (A) (A) (A) (A) (A) (A)
                 (A) (A) (A) (A) (A) (A) (A) (A) (A) (A) (A) (A)
                 (A) (A) (A) (A) (A) (A) (A) (A) (A) (A) (A)
       Virtual   (A) (A) (A) (A) (A) (A) (A) (A) (A) (A) (A) (A)
                 (A) (A) (A) (A) (A) (A) (A) (A) (A) (A) (A) (A)
                 (A) (A) (A) (A) (A) (A) (A) (A) (A) (A) (A) (A)
                 (A) (A) (A) (A) (A) (A) (A) (A) (A) (A) (A) (A)
                 (A) (A) (A) (A) (A) (A) (A) (A) (A) (A) (A) (A)
                 (A) (A) (A) (A) (A) (A) (A) (A) (A) (A) (A) (A)
                 (A) (A) (A) (A) (A) (A) (A) (A) (A) (A) (A) (A)
                 (A) (A) (A) (A) (A) (A) (A) (A) (A) (A) (A) (A)
                 (A) (A) (A) (A) (A) (A) (A) (A) (A) (A) (A) (A)
                 (A) (A) (A) (A) (A) (A) (A) (A) (A) (A) (A) (A)
                 (A) (A) (A) (A) (A) (A) (A) (A) (A) (A) (A) (A)
                 (A) (A) (A) (A) (A) (A) (A) (A) (A) (A) (A) (A)
                 (A) (A) (A) (A) (A) (A) (A) (A) (A) (A) (A) (A)
                 (A) (A) (A) (A) (A) (A) (A) (A) (A) (A) (A) (A)
                 (A) (A) (A) (A) (A) (A) (A) (A) (A) (A) (A) (A)
                 (A) (A) (A) (A) (A) (A) (A) (A) (A) (A) (A) (A)
                 (A) (A) (A) (A) (A) (A) (A) (A) (A) (A) (A) (A)
                 (A) (A) (A) (A) (A) (A) (A) (A) (A) (A) (A) (A)
                 (A) (A) (A) (A) (A) (A) (A) (A) (A) (A) (A) (A)
                 (A) (A) (A) (A) (A) (A) (A) (A) (A) (A) (A) (A)
                 (A) (A) (A) (A) (A) (A) (A) (A) (A) (A) (A) (A)
                 (A) (A) (A) (A) (A) (A) (A) (A) (A) (A) (A) (A)
                 (A) (A) (A) (A) (A) (A) (A) (A) (A) (A) (A) (A)
                 (A) (A) (A) (A) (A) (A) (A) (A) (A) (A) (A) (A)
                 (A) (A) (A) (A) (A) (A) (A) (A) (A) (A) (A) (A)
                 (A) (A) (A) (A) (A) (A) (A) (A) (A) (A) (A) (A)
                 (A) (A) (A) (A) (A) (A) (A) (A) (A) (A) (A) (A)
                 (A) (A) (A) (A) (A) (A) (A) (A) (A)
     4 initial guesses have been made.
 Convergence on wavefunction:    0.001000000000000
 Iteration     1 Dimension     4 NMult     0 NNew      4
 CISAX will form     4 AO SS matrices at one time.
 Iteration     2 Dimension     6 NMult     4 NNew      2
 Iteration     3 Dimension     8 NMult     6 NNew      2
 Iteration     4 Dimension    10 NMult     8 NNew      2
 Iteration     5 Dimension    12 NMult    10 NNew      2
 Iteration     6 Dimension    14 NMult    12 NNew      2
 ***********************************************************************
 Excited states from <AA,BB:AA,BB> singles matrix:
 ***********************************************************************
 
 Ground to excited state transition densities written to RWF  633
 Ground to excited state transition electric dipole moments (Au):
       state          X           Y           Z        Dip. S.      Osc.
         1         0.0162      0.6721     -0.0018      0.4519      0.0281
 Ground to excited state transition velocity dipole moments (Au):
       state          X           Y           Z        Dip. S.      Osc.
         1        -0.0027     -0.0688      0.0004      0.0047      0.0339
 Ground to excited state transition magnetic dipole moments (Au):
       state          X           Y           Z
         1         0.0130     -0.0046     -0.0407
 Ground to excited state transition velocity quadrupole moments (Au):
       state          XX          YY          ZZ          XY          XZ          YZ
         1        -0.2728     -0.0179      0.0114     -0.0344      0.0043      0.0016
 <0|del|b> * <b|rxdel|0> + <0|del|b> * <b|delr+rdel|0>
 Rotatory Strengths (R) in cgs (10**-40 erg-esu-cm/Gauss)
       state          XX          YY          ZZ    R(velocity)    E-M Angle
         1         2.2222     -0.1614     -0.0511      0.6699       84.87
 1/2[<0|r|b>*<b|rxdel|0> + (<0|rxdel|b>*<b|r|0>)*]
 Rotatory Strengths (R) in cgs (10**-40 erg-esu-cm/Gauss)
       state          XX          YY          ZZ     R(length)
         1        -0.1488      2.1860     -0.0530      0.6614
  1/2[<0|del|b>*<b|r|0> + (<0|r|b>*<b|del|0>)*] (Au)
       state          X           Y           Z        Dip. S.   Osc.(frdel)
         1        -0.0000     -0.0462     -0.0000      0.0463      0.0309

 Excitation energies and oscillator strengths:
 
 Excited State   1:      Singlet-A      2.5336 eV  489.35 nm  f=0.0281  <S**2>=0.000
      47 -> 48         0.70459
 This state for optimization and/or second-order correction.
 Total Energy, E(TD-HF/TD-DFT) =  -539.618666264    
 Copying the excited state density for this state as the 1-particle RhoCI density.
 SavETr:  write IOETrn=   770 NScale= 10 NData=  16 NLR=1 NState=    1 LETran=      28.

 **********************************************************************

            Population analysis using the SCF Density.

 **********************************************************************

 Orbital symmetries:
       Occupied  (A) (A) (A) (A) (A) (A) (A) (A) (A) (A) (A) (A)
                 (A) (A) (A) (A) (A) (A) (A) (A) (A) (A) (A) (A)
                 (A) (A) (A) (A) (A) (A) (A) (A) (A) (A) (A) (A)
                 (A) (A) (A) (A) (A) (A) (A) (A) (A) (A) (A)
       Virtual   (A) (A) (A) (A) (A) (A) (A) (A) (A) (A) (A) (A)
                 (A) (A) (A) (A) (A) (A) (A) (A) (A) (A) (A) (A)
                 (A) (A) (A) (A) (A) (A) (A) (A) (A) (A) (A) (A)
                 (A) (A) (A) (A) (A) (A) (A) (A) (A) (A) (A) (A)
                 (A) (A) (A) (A) (A) (A) (A) (A) (A) (A) (A) (A)
                 (A) (A) (A) (A) (A) (A) (A) (A) (A) (A) (A) (A)
                 (A) (A) (A) (A) (A) (A) (A) (A) (A) (A) (A) (A)
                 (A) (A) (A) (A) (A) (A) (A) (A) (A) (A) (A) (A)
                 (A) (A) (A) (A) (A) (A) (A) (A) (A) (A) (A) (A)
                 (A) (A) (A) (A) (A) (A) (A) (A) (A) (A) (A) (A)
                 (A) (A) (A) (A) (A) (A) (A) (A) (A) (A) (A) (A)
                 (A) (A) (A) (A) (A) (A) (A) (A) (A) (A) (A) (A)
                 (A) (A) (A) (A) (A) (A) (A) (A) (A) (A) (A) (A)
                 (A) (A) (A) (A) (A) (A) (A) (A) (A) (A) (A) (A)
                 (A) (A) (A) (A) (A) (A) (A) (A) (A) (A) (A) (A)
                 (A) (A) (A) (A) (A) (A) (A) (A) (A) (A) (A) (A)
                 (A) (A) (A) (A) (A) (A) (A) (A) (A) (A) (A) (A)
                 (A) (A) (A) (A) (A) (A) (A) (A) (A) (A) (A) (A)
                 (A) (A) (A) (A) (A) (A) (A) (A) (A) (A) (A) (A)
                 (A) (A) (A) (A) (A) (A) (A) (A) (A) (A) (A) (A)
                 (A) (A) (A) (A) (A) (A) (A) (A) (A) (A) (A) (A)
                 (A) (A) (A) (A) (A) (A) (A) (A) (A) (A) (A) (A)
                 (A) (A) (A) (A) (A) (A) (A) (A) (A) (A) (A) (A)
                 (A) (A) (A) (A) (A) (A) (A) (A) (A) (A) (A) (A)
                 (A) (A) (A) (A) (A) (A) (A) (A) (A) (A) (A) (A)
                 (A) (A) (A) (A) (A) (A) (A) (A) (A) (A) (A) (A)
                 (A) (A) (A) (A) (A) (A) (A) (A) (A) (A) (A) (A)
                 (A) (A) (A) (A) (A) (A) (A) (A) (A)
 The electronic state is 1-A.
 Alpha  occ. eigenvalues --  -10.78471 -10.74171 -10.73924 -10.73132 -10.73092
 Alpha  occ. eigenvalues --  -10.72662 -10.72299 -10.71524 -10.70864 -10.70717
 Alpha  occ. eigenvalues --  -10.70704 -10.70536 -10.70195 -10.69764  -1.15227
 Alpha  occ. eigenvalues --   -1.11254  -1.06117  -1.04320  -1.01153  -0.98759
 Alpha  occ. eigenvalues --   -0.95240  -0.89799  -0.86722  -0.85033  -0.84097
 Alpha  occ. eigenvalues --   -0.77740  -0.74814  -0.74470  -0.70256  -0.69583
 Alpha  occ. eigenvalues --   -0.68372  -0.67649  -0.65779  -0.65434  -0.64755
 Alpha  occ. eigenvalues --   -0.61993  -0.60945  -0.58800  -0.58530  -0.57809
 Alpha  occ. eigenvalues --   -0.57769  -0.56745  -0.53101  -0.51727  -0.46339
 Alpha  occ. eigenvalues --   -0.45235  -0.43588
 Alpha virt. eigenvalues --   -0.26360  -0.15620  -0.14173  -0.13455  -0.11223
 Alpha virt. eigenvalues --   -0.10287  -0.09161  -0.08358  -0.07861  -0.07526
 Alpha virt. eigenvalues --   -0.07366  -0.07168  -0.05713  -0.05674  -0.05524
 Alpha virt. eigenvalues --   -0.03793  -0.03694  -0.03506  -0.03143  -0.02205
 Alpha virt. eigenvalues --   -0.01450  -0.01073   0.00099   0.00198   0.00604
 Alpha virt. eigenvalues --    0.00809   0.01263   0.01421   0.01652   0.02014
 Alpha virt. eigenvalues --    0.02166   0.02582   0.02685   0.02981   0.03385
 Alpha virt. eigenvalues --    0.04100   0.04261   0.04423   0.04726   0.05253
 Alpha virt. eigenvalues --    0.05594   0.06013   0.06678   0.06855   0.06982
 Alpha virt. eigenvalues --    0.07692   0.07835   0.08262   0.08572   0.08816
 Alpha virt. eigenvalues --    0.09160   0.09437   0.10021   0.10166   0.10408
 Alpha virt. eigenvalues --    0.11127   0.11508   0.11871   0.12134   0.12720
 Alpha virt. eigenvalues --    0.12999   0.13138   0.13372   0.13758   0.14244
 Alpha virt. eigenvalues --    0.15202   0.15771   0.16577   0.16757   0.17156
 Alpha virt. eigenvalues --    0.17402   0.17637   0.18642   0.18978   0.19217
 Alpha virt. eigenvalues --    0.19654   0.20989   0.21496   0.21637   0.22004
 Alpha virt. eigenvalues --    0.23311   0.23574   0.24188   0.26136   0.26508
 Alpha virt. eigenvalues --    0.26694   0.27644   0.28194   0.28491   0.30846
 Alpha virt. eigenvalues --    0.33616   0.34332   0.37012   0.38386   0.39607
 Alpha virt. eigenvalues --    0.41108   0.41320   0.42080   0.42387   0.42882
 Alpha virt. eigenvalues --    0.43261   0.43914   0.44629   0.45188   0.45686
 Alpha virt. eigenvalues --    0.47167   0.48607   0.48682   0.49154   0.49756
 Alpha virt. eigenvalues --    0.50492   0.50706   0.51898   0.52356   0.52757
 Alpha virt. eigenvalues --    0.53347   0.53886   0.54738   0.55378   0.55777
 Alpha virt. eigenvalues --    0.57063   0.57832   0.58090   0.60902   0.61328
 Alpha virt. eigenvalues --    0.62120   0.63001   0.63180   0.63635   0.64131
 Alpha virt. eigenvalues --    0.65286   0.67893   0.68574   0.69974   0.71349
 Alpha virt. eigenvalues --    0.71894   0.73094   0.73785   0.74716   0.75336
 Alpha virt. eigenvalues --    0.76045   0.76305   0.76764   0.78163   0.78930
 Alpha virt. eigenvalues --    0.79843   0.80311   0.80886   0.82269   0.82876
 Alpha virt. eigenvalues --    0.83423   0.85899   0.86629   0.87075   0.87932
 Alpha virt. eigenvalues --    0.89422   0.90493   0.91511   0.93664   0.94717
 Alpha virt. eigenvalues --    0.95099   0.96245   0.99111   0.99232   1.00425
 Alpha virt. eigenvalues --    1.02222   1.02735   1.03478   1.05297   1.07156
 Alpha virt. eigenvalues --    1.09707   1.15854   1.18167   1.21686   1.23533
 Alpha virt. eigenvalues --    1.25526   1.29933   1.32412   1.34861   1.35668
 Alpha virt. eigenvalues --    1.36339   1.37677   1.38605   1.39320   1.40527
 Alpha virt. eigenvalues --    1.41674   1.42158   1.42721   1.43431   1.45041
 Alpha virt. eigenvalues --    1.45756   1.47218   1.48185   1.48781   1.51613
 Alpha virt. eigenvalues --    1.53827   1.54401   1.54965   1.56103   1.56928
 Alpha virt. eigenvalues --    1.60039   1.63503   1.63955   1.64250   1.64641
 Alpha virt. eigenvalues --    1.65985   1.68314   1.69182   1.69239   1.72966
 Alpha virt. eigenvalues --    1.73432   1.74781   1.75413   1.77252   1.78183
 Alpha virt. eigenvalues --    1.79651   1.80204   1.80731   1.81979   1.82600
 Alpha virt. eigenvalues --    1.84092   1.84290   1.85350   1.86318   1.86969
 Alpha virt. eigenvalues --    1.89355   1.91746   1.92858   1.94159   1.95939
 Alpha virt. eigenvalues --    1.96368   1.98442   1.99092   2.03204   2.05065
 Alpha virt. eigenvalues --    2.07153   2.09465   2.12668   2.13521   2.15559
 Alpha virt. eigenvalues --    2.16175   2.18407   2.21088   2.26817   2.29580
 Alpha virt. eigenvalues --    2.31219   2.32503   2.35362   2.37155   2.38297
 Alpha virt. eigenvalues --    2.38598   2.40164   2.42103   2.45890   2.46440
 Alpha virt. eigenvalues --    2.50252   2.54730   2.56883   2.57064   2.58477
 Alpha virt. eigenvalues --    2.59471   2.60681   2.61042   2.61809   2.62578
 Alpha virt. eigenvalues --    2.62897   2.63286   2.63809   2.64605   2.65552
 Alpha virt. eigenvalues --    2.66152   2.66977   2.67606   2.71239   2.72997
 Alpha virt. eigenvalues --    2.73061   2.74618   2.76175   2.79250   2.81460
 Alpha virt. eigenvalues --    2.82195   2.84787   2.85444   2.89990   2.92891
 Alpha virt. eigenvalues --    2.97519   2.97950   2.99685   3.03997   3.08027
 Alpha virt. eigenvalues --    3.08994   3.14299   3.16454   3.21356   3.22569
 Alpha virt. eigenvalues --    3.25148   3.26403   3.28613   3.38342   3.40463
 Alpha virt. eigenvalues --    3.41853   3.44266   3.45541   3.47658   3.51205
 Alpha virt. eigenvalues --    3.65405   3.67052   3.86777   3.91721   3.97437
 Alpha virt. eigenvalues --    3.98673   4.07384   4.08821   4.10788   4.14320
 Alpha virt. eigenvalues --    4.27535   4.52109   4.63456   4.65278  23.46934
 Alpha virt. eigenvalues --   23.60397  23.73924  23.77709  23.80066  23.82870
 Alpha virt. eigenvalues --   23.84685  23.88685  23.90699  23.93206  23.93876
 Alpha virt. eigenvalues --   23.96676  24.02349  24.10830
          Condensed to atoms (all electrons):
               1          2          3          4          5          6
     1  C   11.109851   0.050610  -1.345544   3.247560  -0.169024  -0.008517
     2  C    0.050610   6.786214   0.230266  -1.094287   0.014882  -0.015047
     3  C   -1.345544   0.230266   6.950260  -0.079834  -0.045629   0.005111
     4  C    3.247560  -1.094287  -0.079834  11.608112  -0.566121  -0.034595
     5  C   -0.169024   0.014882  -0.045629  -0.566121  11.293966   0.949521
     6  C   -0.008517  -0.015047   0.005111  -0.034595   0.949521   6.620104
     7  C    0.090434   0.003178  -0.029186   0.053410  -1.471409   0.163898
     8  C   -0.738152   0.048495   0.054932  -0.521372   2.863216  -0.980992
     9  C   -1.040131  -0.167775   0.014946  -0.892721   0.809223   0.291366
    10  C    0.163072   0.011081  -0.597028  -0.360149  -2.215919  -0.588539
    11  C   -2.506370  -0.657649   1.598934  -1.182018  -1.322585  -0.068532
    12  C   -4.126436   1.180354   0.035725  -4.628320   0.264227  -0.415293
    13  C    0.929743  -0.215818  -0.044238  -0.623731  -1.265691   1.338483
    14  C   -0.015419  -0.092006  -0.670105   0.892824  -3.367926  -1.120871
    15  H    0.434837  -0.129946   0.000109   0.039013   0.000893   0.001926
    16  H   -0.060003   0.414812  -0.026629  -0.010198  -0.001156  -0.000345
    17  H   -0.032368  -0.022723   0.383802  -0.087085   0.000936   0.000362
    18  H    0.068186   0.011850  -0.127670   0.488055   0.000666  -0.003612
    19  H   -0.026912  -0.012398   0.050270  -0.032169  -0.042434   0.034854
    20  H   -0.000375   0.002305  -0.003200  -0.001159   0.483283  -0.148095
    21  H    0.000219  -0.000243   0.000194   0.000347  -0.073839   0.407895
    22  H    0.001947   0.000347  -0.000432  -0.000388  -0.010831  -0.016061
    23  H   -0.015182  -0.001157   0.002051  -0.002580   0.045017   0.006725
    24  H   -0.035027   0.002199   0.012533   0.000760  -0.006392  -0.000798
    25  H    0.084219   0.008683  -0.015680  -0.000993  -0.015572  -0.001789
               7          8          9         10         11         12
     1  C    0.090434  -0.738152  -1.040131   0.163072  -2.506370  -4.126436
     2  C    0.003178   0.048495  -0.167775   0.011081  -0.657649   1.180354
     3  C   -0.029186   0.054932   0.014946  -0.597028   1.598934   0.035725
     4  C    0.053410  -0.521372  -0.892721  -0.360149  -1.182018  -4.628320
     5  C   -1.471409   2.863216   0.809223  -2.215919  -1.322585   0.264227
     6  C    0.163898  -0.980992   0.291366  -0.588539  -0.068532  -0.415293
     7  C    7.243865  -1.357405  -0.993870   0.085423  -0.066123  -0.338616
     8  C   -1.357405  15.266333   0.510546   0.070103   0.197833   0.866645
     9  C   -0.993870   0.510546   9.059280   0.481560   0.615889  -0.095348
    10  C    0.085423   0.070103   0.481560   8.567904  -0.397359  -0.081367
    11  C   -0.066123   0.197833   0.615889  -0.397359  14.499068  -2.315382
    12  C   -0.338616   0.866645  -0.095348  -0.081367  -2.315382  20.076554
    13  C    0.653998  -6.449816  -0.745309  -0.791398   2.261664  -5.225823
    14  C    1.900568  -3.845670  -2.103006   1.211466  -4.321095   0.206791
    15  H   -0.001612  -0.010149   0.051189  -0.000132  -0.026998  -0.051019
    16  H    0.000490   0.001207   0.000690  -0.008737   0.047069  -0.018295
    17  H   -0.000555   0.000268  -0.004459   0.005660   0.001438   0.096601
    18  H    0.002807  -0.001262  -0.022047   0.088069  -0.042207  -0.161939
    19  H   -0.009215  -0.026330   0.051233   0.407709   0.058262  -0.030267
    20  H    0.003631   0.104525  -0.022017   0.078981  -0.017072   0.044844
    21  H   -0.035853  -0.042158   0.003722  -0.004171  -0.001421  -0.003856
    22  H    0.412736  -0.096601  -0.008065  -0.007339   0.002046  -0.009118
    23  H   -0.126975   0.492076   0.087612  -0.003115  -0.003161   0.027126
    24  H   -0.012115   0.046662   0.331460   0.004073   0.027908   0.009902
    25  H    0.032373  -0.068043   0.366723   0.010275  -0.031217  -0.097117
              13         14         15         16         17         18
     1  C    0.929743  -0.015419   0.434837  -0.060003  -0.032368   0.068186
     2  C   -0.215818  -0.092006  -0.129946   0.414812  -0.022723   0.011850
     3  C   -0.044238  -0.670105   0.000109  -0.026629   0.383802  -0.127670
     4  C   -0.623731   0.892824   0.039013  -0.010198  -0.087085   0.488055
     5  C   -1.265691  -3.367926   0.000893  -0.001156   0.000936   0.000666
     6  C    1.338483  -1.120871   0.001926  -0.000345   0.000362  -0.003612
     7  C    0.653998   1.900568  -0.001612   0.000490  -0.000555   0.002807
     8  C   -6.449816  -3.845670  -0.010149   0.001207   0.000268  -0.001262
     9  C   -0.745309  -2.103006   0.051189   0.000690  -0.004459  -0.022047
    10  C   -0.791398   1.211466  -0.000132  -0.008737   0.005660   0.088069
    11  C    2.261664  -4.321095  -0.026998   0.047069   0.001438  -0.042207
    12  C   -5.225823   0.206791  -0.051019  -0.018295   0.096601  -0.161939
    13  C   19.630015  -3.410393   0.016101   0.004681  -0.003106  -0.008912
    14  C   -3.410393  20.090416   0.008132  -0.006960  -0.002207   0.041991
    15  H    0.016101   0.008132   0.456052  -0.012344   0.001276   0.000196
    16  H    0.004681  -0.006960  -0.012344   0.428238  -0.008218   0.002060
    17  H   -0.003106  -0.002207   0.001276  -0.008218   0.434109  -0.010845
    18  H   -0.008912   0.041991   0.000196   0.002060  -0.010845   0.453775
    19  H    0.051077  -0.101859   0.000702  -0.000668   0.001714  -0.006810
    20  H   -0.092524  -0.085817  -0.000227   0.000032  -0.000174   0.001231
    21  H    0.035415   0.054010   0.000029  -0.000007   0.000013  -0.000147
    22  H    0.063269  -0.003994  -0.000152   0.000012  -0.000009   0.000034
    23  H   -0.149818  -0.024046   0.000752  -0.000145   0.000024  -0.000125
    24  H   -0.046542  -0.007293  -0.002782  -0.000443   0.000344  -0.000028
    25  H    0.120407  -0.053042  -0.000543   0.001625  -0.000483   0.000231
              19         20         21         22         23         24
     1  C   -0.026912  -0.000375   0.000219   0.001947  -0.015182  -0.035027
     2  C   -0.012398   0.002305  -0.000243   0.000347  -0.001157   0.002199
     3  C    0.050270  -0.003200   0.000194  -0.000432   0.002051   0.012533
     4  C   -0.032169  -0.001159   0.000347  -0.000388  -0.002580   0.000760
     5  C   -0.042434   0.483283  -0.073839  -0.010831   0.045017  -0.006392
     6  C    0.034854  -0.148095   0.407895  -0.016061   0.006725  -0.000798
     7  C   -0.009215   0.003631  -0.035853   0.412736  -0.126975  -0.012115
     8  C   -0.026330   0.104525  -0.042158  -0.096601   0.492076   0.046662
     9  C    0.051233  -0.022017   0.003722  -0.008065   0.087612   0.331460
    10  C    0.407709   0.078981  -0.004171  -0.007339  -0.003115   0.004073
    11  C    0.058262  -0.017072  -0.001421   0.002046  -0.003161   0.027908
    12  C   -0.030267   0.044844  -0.003856  -0.009118   0.027126   0.009902
    13  C    0.051077  -0.092524   0.035415   0.063269  -0.149818  -0.046542
    14  C   -0.101859  -0.085817   0.054010  -0.003994  -0.024046  -0.007293
    15  H    0.000702  -0.000227   0.000029  -0.000152   0.000752  -0.002782
    16  H   -0.000668   0.000032  -0.000007   0.000012  -0.000145  -0.000443
    17  H    0.001714  -0.000174   0.000013  -0.000009   0.000024   0.000344
    18  H   -0.006810   0.001231  -0.000147   0.000034  -0.000125  -0.000028
    19  H    0.433859  -0.008439   0.001307  -0.000478   0.000390   0.000640
    20  H   -0.008439   0.488679  -0.016446   0.002166   0.000539  -0.000520
    21  H    0.001307  -0.016446   0.431795  -0.007356   0.001249   0.000124
    22  H   -0.000478   0.002166  -0.007356   0.424528  -0.012476  -0.000158
    23  H    0.000390   0.000539   0.001249  -0.012476   0.453516   0.005040
    24  H    0.000640  -0.000520   0.000124  -0.000158   0.005040   0.474930
    25  H    0.000101   0.000541  -0.000299   0.001595  -0.008668  -0.084453
              25
     1  C    0.084219
     2  C    0.008683
     3  C   -0.015680
     4  C   -0.000993
     5  C   -0.015572
     6  C   -0.001789
     7  C    0.032373
     8  C   -0.068043
     9  C    0.366723
    10  C    0.010275
    11  C   -0.031217
    12  C   -0.097117
    13  C    0.120407
    14  C   -0.053042
    15  H   -0.000543
    16  H    0.001625
    17  H   -0.000483
    18  H    0.000231
    19  H    0.000101
    20  H    0.000541
    21  H   -0.000299
    22  H    0.001595
    23  H   -0.008668
    24  H   -0.084453
    25  H    0.492395
 Mulliken charges:
               1
     1  C   -0.061218
     2  C   -0.356227
     3  C   -0.353959
     4  C   -0.212363
     5  C   -0.151304
     6  C   -0.417163
     7  C   -0.203878
     8  C   -0.384890
     9  C   -0.580692
    10  C   -0.130121
    11  C   -0.350920
    12  C    0.789425
    13  C   -0.031734
    14  C    0.825512
    15  H    0.224698
    16  H    0.253231
    17  H    0.245687
    18  H    0.226452
    19  H    0.205861
    20  H    0.185308
    21  H    0.249476
    22  H    0.264779
    23  H    0.225333
    24  H    0.279975
    25  H    0.258732
 Sum of Mulliken charges =   1.00000
 Mulliken charges with hydrogens summed into heavy atoms:
               1
     1  C    0.163480
     2  C   -0.102996
     3  C   -0.108272
     4  C    0.014088
     5  C    0.034004
     6  C   -0.167686
     7  C    0.060901
     8  C   -0.159557
     9  C   -0.041985
    10  C    0.075740
    11  C   -0.350920
    12  C    0.789425
    13  C   -0.031734
    14  C    0.825512
 Electronic spatial extent (au):  <R**2>=           2888.0589
 Charge=              1.0000 electrons
 Dipole moment (field-independent basis, Debye):
    X=             -0.0282    Y=              0.0870    Z=             -0.0129  Tot=              0.0923
 Quadrupole moment (field-independent basis, Debye-Ang):
   XX=            -33.4027   YY=            -53.5156   ZZ=            -85.1135
   XY=              0.3688   XZ=              0.4204   YZ=              0.7149
 Traceless Quadrupole moment (field-independent basis, Debye-Ang):
   XX=             23.9413   YY=              3.8283   ZZ=            -27.7696
   XY=              0.3688   XZ=              0.4204   YZ=              0.7149
 Octapole moment (field-independent basis, Debye-Ang**2):
  XXX=             -1.5041  YYY=              4.7623  ZZZ=              0.0537  XYY=              0.0380
  XXY=             -8.9106  XXZ=             -0.0079  XZZ=              0.0626  YZZ=             -3.0205
  YYZ=              0.5649  XYZ=              0.2321
 Hexadecapole moment (field-independent basis, Debye-Ang**3):
 XXXX=          -2185.1679 YYYY=           -621.4670 ZZZZ=           -103.0517 XXXY=             -5.0861
 XXXZ=              9.1882 YYYX=              7.1677 YYYZ=              3.1146 ZZZX=              0.4316
 ZZZY=              0.4757 XXYY=           -507.9751 XXZZ=           -596.5972 YYZZ=           -153.1652
 XXYZ=             15.0973 YYXZ=              1.3708 ZZXY=             -1.7619
 N-N= 7.721877436276D+02 E-N=-2.780086963903D+03  KE= 5.366794316042D+02
 Unable to Open any file for archive entry.
 1\1\GINC-GADI-CPU-CLX-0572\SP\RM062X TD-FC\6-311++G(d,p)\C14H11(1+)\TS
 1578\27-Jul-2022\0\\#n M062X/6-311++G(d,p) TD(NStates=1) EmpiricalDisp
 ersion=GD3 SP\\SP_-4\\1,1\C,0,2.4927,1.3851,-0.068\C,0,3.7015,0.7347,0
 .012\C,0,3.6839,-0.6661,0.048\C,0,2.4632,-1.4829,0.104\C,0,-2.4632,-1.
 4349,0.056\C,0,-3.6839,-0.6901,-0.048\C,0,-3.7015,0.7347,-0.036\C,0,-2
 .4927,1.4491,-0.068\C,0,0.,1.4861,-0.132\C,0,0.,-1.5075,0.108\C,0,1.26
 21,0.6427,-0.065\C,0,1.2375,-0.7611,0.055\C,0,-1.2621,0.6747,0.001\C,0
 ,-1.2375,-0.7371,0.049\H,0,2.4881,2.4113,-0.072\H,0,4.6368,1.2384,0.06
 9\H,0,4.6093,-1.2847,-0.05\H,0,2.4675,-2.5804,0.108\H,0,0.,-2.5766,0.1
 12\H,0,-2.4675,-2.4364,0.06\H,0,-4.6093,-1.2367,-0.062\H,0,-4.6368,1.3
 104,0.027\H,0,-2.4881,2.5233,-0.072\H,0,0.008,2.2865,-0.9796\H,0,-0.00
 8,2.2865,0.7396\\Version=ES64L-G16RevC.01\State=1-A\HF=-539.7117757\RM
 SD=8.300e-09\PG=C01 [X(C14H11)]\\@
 The archive entry for this job was punched.


 A MAN IS EXACTLY AS GREAT AS THE TIDE SURGING
 BENEATH HIM.      - BISMARCK
 Job cpu time:       0 days  1 hours 14 minutes 36.2 seconds.
 Elapsed time:       0 days  0 hours  2 minutes 21.1 seconds.
 File lengths (MBytes):  RWF=    461 Int=      0 D2E=      0 Chk=     15 Scr=      1
 Normal termination of Gaussian 16 at Wed Jul 27 09:33:44 2022.
