 Entering Gaussian System, Link 0=g16
 Initial command:
 /apps/gaussian/g16c01/g16/l1.exe "/jobfs/52803152.gadi-pbs/Gau-2887466.inp" -scrdir="/jobfs/52803152.gadi-pbs/"
 Entering Link 1 = /apps/gaussian/g16c01/g16/l1.exe PID=   2887467.
  
 Copyright (c) 1988-2019, Gaussian, Inc.  All Rights Reserved.
  
 This is part of the Gaussian(R) 16 program.  It is based on
 the Gaussian(R) 09 system (copyright 2009, Gaussian, Inc.),
 the Gaussian(R) 03 system (copyright 2003, Gaussian, Inc.),
 the Gaussian(R) 98 system (copyright 1998, Gaussian, Inc.),
 the Gaussian(R) 94 system (copyright 1995, Gaussian, Inc.),
 the Gaussian 92(TM) system (copyright 1992, Gaussian, Inc.),
 the Gaussian 90(TM) system (copyright 1990, Gaussian, Inc.),
 the Gaussian 88(TM) system (copyright 1988, Gaussian, Inc.),
 the Gaussian 86(TM) system (copyright 1986, Carnegie Mellon
 University), and the Gaussian 82(TM) system (copyright 1983,
 Carnegie Mellon University). Gaussian is a federally registered
 trademark of Gaussian, Inc.
  
 This software contains proprietary and confidential information,
 including trade secrets, belonging to Gaussian, Inc.
  
 This software is provided under written license and may be
 used, copied, transmitted, or stored only in accord with that
 written license.
  
 The following legend is applicable only to US Government
 contracts under FAR:
  
                    RESTRICTED RIGHTS LEGEND
  
 Use, reproduction and disclosure by the US Government is
 subject to restrictions as set forth in subparagraphs (a)
 and (c) of the Commercial Computer Software - Restricted
 Rights clause in FAR 52.227-19.
  
 Gaussian, Inc.
 340 Quinnipiac St., Bldg. 40, Wallingford CT 06492
  
  
 ---------------------------------------------------------------
 Warning -- This program may not be used in any manner that
 competes with the business of Gaussian, Inc. or will provide
 assistance to any competitor of Gaussian, Inc.  The licensee
 of this program is prohibited from giving any competitor of
 Gaussian, Inc. access to this program.  By using this program,
 the user acknowledges that Gaussian, Inc. is engaged in the
 business of creating and licensing software in the field of
 computational chemistry and represents and warrants to the
 licensee that it is not a competitor of Gaussian, Inc. and that
 it will not use this program in any manner prohibited above.
 ---------------------------------------------------------------
  

 Cite this work as:
 Gaussian 16, Revision C.01,
 M. J. Frisch, G. W. Trucks, H. B. Schlegel, G. E. Scuseria, 
 M. A. Robb, J. R. Cheeseman, G. Scalmani, V. Barone, 
 G. A. Petersson, H. Nakatsuji, X. Li, M. Caricato, A. V. Marenich, 
 J. Bloino, B. G. Janesko, R. Gomperts, B. Mennucci, H. P. Hratchian, 
 J. V. Ortiz, A. F. Izmaylov, J. L. Sonnenberg, D. Williams-Young, 
 F. Ding, F. Lipparini, F. Egidi, J. Goings, B. Peng, A. Petrone, 
 T. Henderson, D. Ranasinghe, V. G. Zakrzewski, J. Gao, N. Rega, 
 G. Zheng, W. Liang, M. Hada, M. Ehara, K. Toyota, R. Fukuda, 
 J. Hasegawa, M. Ishida, T. Nakajima, Y. Honda, O. Kitao, H. Nakai, 
 T. Vreven, K. Throssell, J. A. Montgomery, Jr., J. E. Peralta, 
 F. Ogliaro, M. J. Bearpark, J. J. Heyd, E. N. Brothers, K. N. Kudin, 
 V. N. Staroverov, T. A. Keith, R. Kobayashi, J. Normand, 
 K. Raghavachari, A. P. Rendell, J. C. Burant, S. S. Iyengar, 
 J. Tomasi, M. Cossi, J. M. Millam, M. Klene, C. Adamo, R. Cammi, 
 J. W. Ochterski, R. L. Martin, K. Morokuma, O. Farkas, 
 J. B. Foresman, and D. J. Fox, Gaussian, Inc., Wallingford CT, 2019.
 
 ******************************************
 Gaussian 16:  ES64L-G16RevC.01  3-Jul-2019
                27-Jul-2022 
 ******************************************
 %NProcShared=32
 Will use up to   32 processors via shared memory.
 %mem = 128GB
 ---------------------------------------------------------------
 #n M062X/6-311++G(d,p) TD(NStates=1) EmpiricalDispersion=GD3 SP
 ---------------------------------------------------------------
 1/38=1,172=1/1;
 2/12=2,17=6,18=5,40=1/2;
 3/5=4,6=6,7=1111,11=9,25=1,30=1,74=-55,124=31/1,2,3,8;
 4//1;
 5/5=2,38=5/2;
 8/6=1,10=2,108=1/1;
 9/41=1,42=1,70=2/14;
 6/7=2,8=2,9=2,10=2/1;
 99/5=1,9=1/99;
 ----
 SP_1
 ----
 Symbolic Z-matrix:
 Charge =  1 Multiplicity = 1
 C                     2.4927    1.4091    0.017 
 C                     3.7015    0.7167    0.019 
 C                     3.6839   -0.6901    0.032 
 C                     2.4632   -1.4329   -0.004 
 C                    -2.4632   -1.4449   -0.036 
 C                    -3.6839   -0.6841   -0.032 
 C                    -3.7015    0.7167   -0.013 
 C                    -2.4927    1.3931    0.017 
 C                     0.        1.4781    0.033 
 C                     0.       -1.4785   -0.027 
 C                     1.2621    0.6717   -0.014 
 C                     1.2375   -0.7371   -0.011 
 C                    -1.2621    0.6637    0.03 
 C                    -1.2375   -0.7431   -0.015 
 H                     2.4881    2.4763    0.018 
 H                     4.6368    1.2654    0.002 
 H                     4.6093   -1.2557    0.018 
 H                     2.4675   -2.4814   -0.005 
 H                     0.       -2.5516   -0.028 
 H                    -2.4675   -2.5174   -0.037 
 H                    -4.6093   -1.2677    0.01 
 H                    -4.6368    1.2474   -0.026 
 H                    -2.4881    2.4483    0.018 
 H                    -0.002     2.2425   -0.8296 
 H                     0.002     2.2425    0.8896 
 
                          Input orientation:                          
 ---------------------------------------------------------------------
 Center     Atomic      Atomic             Coordinates (Angstroms)
 Number     Number       Type             X           Y           Z
 ---------------------------------------------------------------------
      1          6           0        2.492700    1.409100    0.017000
      2          6           0        3.701500    0.716700    0.019000
      3          6           0        3.683900   -0.690100    0.032000
      4          6           0        2.463200   -1.432900   -0.004000
      5          6           0       -2.463200   -1.444900   -0.036000
      6          6           0       -3.683900   -0.684100   -0.032000
      7          6           0       -3.701500    0.716700   -0.013000
      8          6           0       -2.492700    1.393100    0.017000
      9          6           0        0.000000    1.478100    0.033000
     10          6           0        0.000000   -1.478500   -0.027000
     11          6           0        1.262100    0.671700   -0.014000
     12          6           0        1.237500   -0.737100   -0.011000
     13          6           0       -1.262100    0.663700    0.030000
     14          6           0       -1.237500   -0.743100   -0.015000
     15          1           0        2.488100    2.476300    0.018000
     16          1           0        4.636800    1.265400    0.002000
     17          1           0        4.609300   -1.255700    0.018000
     18          1           0        2.467500   -2.481400   -0.005000
     19          1           0        0.000000   -2.551600   -0.028000
     20          1           0       -2.467500   -2.517400   -0.037000
     21          1           0       -4.609300   -1.267700    0.010000
     22          1           0       -4.636800    1.247400   -0.026000
     23          1           0       -2.488100    2.448300    0.018000
     24          1           0       -0.002000    2.242500   -0.829600
     25          1           0        0.002000    2.242500    0.889600
 ---------------------------------------------------------------------
                    Distance matrix (angstroms):
                    1          2          3          4          5
     1  C    0.000000
     2  C    1.393061   0.000000
     3  C    2.413674   1.406970   0.000000
     4  C    2.842231   2.480866   1.429390   0.000000
     5  C    5.719184   6.532922   6.193641   4.926519   0.000000
     6  C    6.521831   7.517245   7.368080   6.192602   1.438381
     7  C    6.232851   7.403069   7.518327   6.528736   2.491271
     8  C    4.985426   6.231022   6.518461   5.705056   2.838648
     9  C    2.493706   3.779025   4.274601   3.813482   3.823094
    10  C    3.814934   4.303733   3.767781   2.463729   2.463446
    11  C    1.434955   2.440038   2.778800   2.423238   4.284663
    12  C    2.486460   2.861072   2.447229   1.409442   3.767862
    13  C    3.828095   4.963895   5.127933   4.274897   2.427590
    14  C    4.306667   5.150329   4.921910   3.764456   1.412553
    15  H    1.067210   2.137413   3.384704   3.909341   6.316177
    16  H    2.148962   1.084503   2.175523   3.464880   7.599814
    17  H    3.403110   2.171282   1.084649   2.153516   7.075236
    18  H    3.890644   3.427999   2.165584   1.048509   5.038561
    19  H    4.680034   4.938127   4.127942   2.705443   2.700408
    20  H    6.326445   6.965565   6.417438   5.048666   1.072509
    21  H    7.589711   8.544432   8.313319   7.074443   2.153894
    22  H    7.131463   8.355293   8.543496   7.589104   3.460219
    23  H    5.088055   6.427254   6.924113   6.291230   3.893654
    24  H    2.763117   4.094399   4.788356   4.501932   4.503801
    25  H    2.767593   4.095401   4.784559   4.512714   4.531100
                    6          7          8          9         10
     6  C    0.000000
     7  C    1.401039   0.000000
     8  C    2.395019   1.385501   0.000000
     9  C    4.272055   3.779279   2.494200   0.000000
    10  C    3.768583   4.303510   3.802838   2.957209   0.000000
    11  C    5.128492   4.963804   3.823598   1.498461   2.493276
    12  C    4.921730   5.148520   4.295687   2.537805   1.442684
    13  C    2.772278   2.440355   1.430584   1.502050   2.486999
    14  C    2.447170   2.863969   2.477882   2.543116   1.439571
    15  H    6.934278   6.434928   5.097224   2.680908   4.672591
    16  H    8.546096   8.356348   7.130659   4.641779   5.387926
    17  H    8.313025   8.541705   7.579878   5.359061   4.614901
    18  H    6.408646   6.948703   6.294110   4.665580   2.663616
    19  H    4.130217   4.937926   4.666502   4.030162   1.073100
    20  H    2.200146   3.461609   3.910954   4.696539   2.677306
    21  H    1.094860   2.182309   3.399985   5.365221   4.614266
    22  H    2.153775   1.075452   2.149475   4.642910   5.378703
    23  H    3.353262   2.114649   1.055211   2.670609   4.648917
    24  H    4.770486   4.084263   2.764380   1.152558   3.806575
    25  H    4.795852   4.105930   2.776047   1.148074   3.832232
                   11         12         13         14         15
    11  C    0.000000
    12  C    1.409018   0.000000
    13  C    2.524596   2.865645   0.000000
    14  C    2.872222   2.475011   1.407734   0.000000
    15  H    2.181899   3.448301   4.165293   4.923994   0.000000
    16  H    3.426563   3.945303   5.929574   6.208201   2.466464
    17  H    3.862595   3.411572   6.177182   5.869320   4.292705
    18  H    3.375664   2.134366   4.878811   4.092531   4.957796
    19  H    3.461612   2.196385   3.454622   2.191403   5.610039
    20  H    4.907220   4.110617   3.402481   2.159056   7.035484
    21  H    6.183461   5.870864   3.864512   3.412457   8.024381
    22  H    5.926938   6.200473   3.425265   3.939220   7.230237
    23  H    4.149859   4.901807   2.165183   3.427845   4.976279
    24  H    2.174986   3.329337   2.195307   3.332243   2.640774
    25  H    2.207206   3.348964   2.197606   3.356854   2.644814
                   16         17         18         19         20
    16  H    0.000000
    17  H    2.521301   0.000000
    18  H    4.329483   2.467828   0.000000
    19  H    6.005856   4.788227   2.468606   0.000000
    20  H    8.048737   7.188603   4.935235   2.467753   0.000000
    21  H    9.586815   9.218611   7.180139   4.784923   2.480175
    22  H    9.273660   9.579030   8.023432   5.994357   4.345078
    23  H    7.222445   8.005792   6.990024   5.584958   4.966047
    24  H    4.812977   5.849779   5.393851   4.860654   5.418815
    25  H    4.819121   5.850154   5.403169   4.881126   5.441844
                   21         22         23         24         25
    21  H    0.000000
    22  H    2.515508   0.000000
    23  H    4.278809   2.461912   0.000000
    24  H    5.852661   4.808052   2.634667   0.000000
    25  H    5.861680   4.831875   2.646250   1.719205   0.000000
 Stoichiometry    C14H11(1+)
 Framework group  C1[X(C14H11)]
 Deg. of freedom    69
 Full point group                 C1      NOp   1
 Largest Abelian subgroup         C1      NOp   1
 Largest concise Abelian subgroup C1      NOp   1
                         Standard orientation:                         
 ---------------------------------------------------------------------
 Center     Atomic      Atomic             Coordinates (Angstroms)
 Number     Number       Type             X           Y           Z
 ---------------------------------------------------------------------
      1          6           0       -2.494784   -1.396199   -0.009725
      2          6           0       -3.702573   -0.702053   -0.004513
      3          6           0       -3.682978    0.704468    0.025117
      4          6           0       -2.461060    1.445804    0.002850
      5          6           0        2.465442    1.450770   -0.008881
      6          6           0        3.685006    0.688140   -0.008850
      7          6           0        3.700489   -0.712811   -0.006268
      8          6           0        2.490592   -1.387698    0.010830
      9          6           0       -0.002274   -1.469132    0.015645
     10          6           0        0.002277    1.487966   -0.009549
     11          6           0       -1.262995   -0.660337   -0.027015
     12          6           0       -1.236356    0.748292   -0.007333
     13          6           0        1.261012   -0.656652    0.027387
     14          6           0        1.238645    0.750616   -0.001151
     15          1           0       -2.491742   -2.463343   -0.021268
     16          1           0       -4.638593   -1.249108   -0.031791
     17          1           0       -4.607488    1.271585    0.013995
     18          1           0       -2.463830    2.494248    0.014174
     19          1           0        0.003843    2.561003    0.002082
     20          1           0        2.471307    2.523200    0.002760
     21          1           0        4.611075    1.269813    0.043796
     22          1           0        4.635060   -1.244728   -0.021693
     23          1           0        2.484452   -2.442829   -0.000610
     24          1           0        0.002152   -2.223333   -0.855878
     25          1           0       -0.008901   -2.243552    0.863173
 ---------------------------------------------------------------------
 Rotational constants (GHZ):           2.0524791           0.4445943           0.3662456
 Standard basis: 6-311++G(d,p) (5D, 7F)
 There are   399 symmetry adapted cartesian basis functions of A   symmetry.
 There are   385 symmetry adapted basis functions of A   symmetry.
   385 basis functions,   603 primitive gaussians,   399 cartesian basis functions
    47 alpha electrons       47 beta electrons
       nuclear repulsion energy       775.4767773886 Hartrees.
 NAtoms=   25 NActive=   25 NUniq=   25 SFac= 1.00D+00 NAtFMM=   60 NAOKFM=F Big=F
 Integral buffers will be    131072 words long.
 Regular integral format.
 Two-electron integral symmetry is turned on.
 Nuclear repulsion after empirical dispersion term =      775.4757891051 Hartrees.
 One-electron integrals computed using PRISM.
 NBasis=   385 RedAO= T EigKep=  1.07D-06  NBF=   385
 NBsUse=   380 1.00D-06 EigRej=  5.63D-07 NBFU=   380
 ExpMin= 3.60D-02 ExpMax= 4.56D+03 ExpMxC= 6.82D+02 IAcc=3 IRadAn=         5 AccDes= 0.00D+00
 Harris functional with IExCor= 1009 and IRadAn=       5 diagonalized for initial guess.
 HarFok:  IExCor= 1009 AccDes= 0.00D+00 IRadAn=         5 IDoV= 1 UseB2=F ITyADJ=14
 ICtDFT=  3500011 ScaDFX=  1.000000  1.000000  1.000000  1.000000
 FoFCou: FMM=F IPFlag=           0 FMFlag=      100000 FMFlg1=           0
         NFxFlg=           0 DoJE=T BraDBF=F KetDBF=T FulRan=T
         wScrn=  0.000000 ICntrl=       500 IOpCl=  0 I1Cent=   200000004 NGrid=           0
         NMat0=    1 NMatS0=      1 NMatT0=    0 NMatD0=    1 NMtDS0=    0 NMtDT0=    0
 Petite list used in FoFCou.
 Requested convergence on RMS density matrix=1.00D-08 within 128 cycles.
 Requested convergence on MAX density matrix=1.00D-06.
 Requested convergence on             energy=1.00D-06.
 No special actions if energy rises.
 SCF Done:  E(RM062X) =  -539.741975953     A.U. after   16 cycles
            NFock= 16  Conv=0.49D-08     -V/T= 2.0052
 DoSCS=F DFT=T ScalE2(SS,OS)=  1.000000  1.000000
 ExpMin= 3.60D-02 ExpMax= 4.56D+03 ExpMxC= 6.82D+02 IAcc=3 IRadAn=         5 AccDes= 0.00D+00
 HarFok:  IExCor=  205 AccDes= 0.00D+00 IRadAn=         5 IDoV=-2 UseB2=F ITyADJ=14
 ICtDFT= 12500011 ScaDFX=  1.000000  1.000000  1.000000  1.000000
 Range of M.O.s used for correlation:    15   380
 NBasis=   385 NAE=    47 NBE=    47 NFC=    14 NFV=     0
 NROrb=    366 NOA=    33 NOB=    33 NVA=   333 NVB=   333

 **** Warning!!: The largest alpha MO coefficient is  0.16478365D+03

 Orbital symmetries:
       Occupied  (A) (A) (A) (A) (A) (A) (A) (A) (A) (A) (A) (A)
                 (A) (A) (A) (A) (A) (A) (A) (A) (A) (A) (A) (A)
                 (A) (A) (A) (A) (A) (A) (A) (A) (A) (A) (A) (A)
                 (A) (A) (A) (A) (A) (A) (A) (A) (A) (A) (A)
       Virtual   (A) (A) (A) (A) (A) (A) (A) (A) (A) (A) (A) (A)
                 (A) (A) (A) (A) (A) (A) (A) (A) (A) (A) (A) (A)
                 (A) (A) (A) (A) (A) (A) (A) (A) (A) (A) (A) (A)
                 (A) (A) (A) (A) (A) (A) (A) (A) (A) (A) (A) (A)
                 (A) (A) (A) (A) (A) (A) (A) (A) (A) (A) (A) (A)
                 (A) (A) (A) (A) (A) (A) (A) (A) (A) (A) (A) (A)
                 (A) (A) (A) (A) (A) (A) (A) (A) (A) (A) (A) (A)
                 (A) (A) (A) (A) (A) (A) (A) (A) (A) (A) (A) (A)
                 (A) (A) (A) (A) (A) (A) (A) (A) (A) (A) (A) (A)
                 (A) (A) (A) (A) (A) (A) (A) (A) (A) (A) (A) (A)
                 (A) (A) (A) (A) (A) (A) (A) (A) (A) (A) (A) (A)
                 (A) (A) (A) (A) (A) (A) (A) (A) (A) (A) (A) (A)
                 (A) (A) (A) (A) (A) (A) (A) (A) (A) (A) (A) (A)
                 (A) (A) (A) (A) (A) (A) (A) (A) (A) (A) (A) (A)
                 (A) (A) (A) (A) (A) (A) (A) (A) (A) (A) (A) (A)
                 (A) (A) (A) (A) (A) (A) (A) (A) (A) (A) (A) (A)
                 (A) (A) (A) (A) (A) (A) (A) (A) (A) (A) (A) (A)
                 (A) (A) (A) (A) (A) (A) (A) (A) (A) (A) (A) (A)
                 (A) (A) (A) (A) (A) (A) (A) (A) (A) (A) (A) (A)
                 (A) (A) (A) (A) (A) (A) (A) (A) (A) (A) (A) (A)
                 (A) (A) (A) (A) (A) (A) (A) (A) (A) (A) (A) (A)
                 (A) (A) (A) (A) (A) (A) (A) (A) (A) (A) (A) (A)
                 (A) (A) (A) (A) (A) (A) (A) (A) (A) (A) (A) (A)
                 (A) (A) (A) (A) (A) (A) (A) (A) (A) (A) (A) (A)
                 (A) (A) (A) (A) (A) (A) (A) (A) (A) (A) (A) (A)
                 (A) (A) (A) (A) (A) (A) (A) (A) (A) (A) (A) (A)
                 (A) (A) (A) (A) (A) (A) (A) (A) (A) (A) (A) (A)
                 (A) (A) (A) (A) (A) (A) (A) (A) (A)
     4 initial guesses have been made.
 Convergence on wavefunction:    0.001000000000000
 Iteration     1 Dimension     4 NMult     0 NNew      4
 CISAX will form     4 AO SS matrices at one time.
 Iteration     2 Dimension     6 NMult     4 NNew      2
 Iteration     3 Dimension     8 NMult     6 NNew      2
 Iteration     4 Dimension    10 NMult     8 NNew      2
 Iteration     5 Dimension    12 NMult    10 NNew      2
 Iteration     6 Dimension    14 NMult    12 NNew      2
 ***********************************************************************
 Excited states from <AA,BB:AA,BB> singles matrix:
 ***********************************************************************
 
 Ground to excited state transition densities written to RWF  633
 Ground to excited state transition electric dipole moments (Au):
       state          X           Y           Z        Dip. S.      Osc.
         1        -0.0057     -0.6638      0.0003      0.4407      0.0285
 Ground to excited state transition velocity dipole moments (Au):
       state          X           Y           Z        Dip. S.      Osc.
         1         0.0009      0.0714     -0.0001      0.0051      0.0350
 Ground to excited state transition magnetic dipole moments (Au):
       state          X           Y           Z
         1        -0.0037      0.0057      0.0092
 Ground to excited state transition velocity quadrupole moments (Au):
       state          XX          YY          ZZ          XY          XZ          YZ
         1         0.2854      0.0241     -0.0113      0.0088     -0.0031     -0.0004
 <0|del|b> * <b|rxdel|0> + <0|del|b> * <b|delr+rdel|0>
 Rotatory Strengths (R) in cgs (10**-40 erg-esu-cm/Gauss)
       state          XX          YY          ZZ    R(velocity)    E-M Angle
         1         2.2820     -0.0131      0.6515      0.9735       60.56
 1/2[<0|r|b>*<b|rxdel|0> + (<0|rxdel|b>*<b|r|0>)*]
 Rotatory Strengths (R) in cgs (10**-40 erg-esu-cm/Gauss)
       state          XX          YY          ZZ     R(length)
         1        -0.0149      2.6625     -0.0021      0.8818
  1/2[<0|del|b>*<b|r|0> + (<0|r|b>*<b|del|0>)*] (Au)
       state          X           Y           Z        Dip. S.   Osc.(frdel)
         1        -0.0000     -0.0474     -0.0000      0.0474      0.0316

 Excitation energies and oscillator strengths:
 
 Excited State   1:      Singlet-A      2.6435 eV  469.02 nm  f=0.0285  <S**2>=0.000
      47 -> 48         0.70456
 This state for optimization and/or second-order correction.
 Total Energy, E(TD-HF/TD-DFT) =  -539.644830720    
 Copying the excited state density for this state as the 1-particle RhoCI density.
 SavETr:  write IOETrn=   770 NScale= 10 NData=  16 NLR=1 NState=    1 LETran=      28.

 **********************************************************************

            Population analysis using the SCF Density.

 **********************************************************************

 Orbital symmetries:
       Occupied  (A) (A) (A) (A) (A) (A) (A) (A) (A) (A) (A) (A)
                 (A) (A) (A) (A) (A) (A) (A) (A) (A) (A) (A) (A)
                 (A) (A) (A) (A) (A) (A) (A) (A) (A) (A) (A) (A)
                 (A) (A) (A) (A) (A) (A) (A) (A) (A) (A) (A)
       Virtual   (A) (A) (A) (A) (A) (A) (A) (A) (A) (A) (A) (A)
                 (A) (A) (A) (A) (A) (A) (A) (A) (A) (A) (A) (A)
                 (A) (A) (A) (A) (A) (A) (A) (A) (A) (A) (A) (A)
                 (A) (A) (A) (A) (A) (A) (A) (A) (A) (A) (A) (A)
                 (A) (A) (A) (A) (A) (A) (A) (A) (A) (A) (A) (A)
                 (A) (A) (A) (A) (A) (A) (A) (A) (A) (A) (A) (A)
                 (A) (A) (A) (A) (A) (A) (A) (A) (A) (A) (A) (A)
                 (A) (A) (A) (A) (A) (A) (A) (A) (A) (A) (A) (A)
                 (A) (A) (A) (A) (A) (A) (A) (A) (A) (A) (A) (A)
                 (A) (A) (A) (A) (A) (A) (A) (A) (A) (A) (A) (A)
                 (A) (A) (A) (A) (A) (A) (A) (A) (A) (A) (A) (A)
                 (A) (A) (A) (A) (A) (A) (A) (A) (A) (A) (A) (A)
                 (A) (A) (A) (A) (A) (A) (A) (A) (A) (A) (A) (A)
                 (A) (A) (A) (A) (A) (A) (A) (A) (A) (A) (A) (A)
                 (A) (A) (A) (A) (A) (A) (A) (A) (A) (A) (A) (A)
                 (A) (A) (A) (A) (A) (A) (A) (A) (A) (A) (A) (A)
                 (A) (A) (A) (A) (A) (A) (A) (A) (A) (A) (A) (A)
                 (A) (A) (A) (A) (A) (A) (A) (A) (A) (A) (A) (A)
                 (A) (A) (A) (A) (A) (A) (A) (A) (A) (A) (A) (A)
                 (A) (A) (A) (A) (A) (A) (A) (A) (A) (A) (A) (A)
                 (A) (A) (A) (A) (A) (A) (A) (A) (A) (A) (A) (A)
                 (A) (A) (A) (A) (A) (A) (A) (A) (A) (A) (A) (A)
                 (A) (A) (A) (A) (A) (A) (A) (A) (A) (A) (A) (A)
                 (A) (A) (A) (A) (A) (A) (A) (A) (A) (A) (A) (A)
                 (A) (A) (A) (A) (A) (A) (A) (A) (A) (A) (A) (A)
                 (A) (A) (A) (A) (A) (A) (A) (A) (A) (A) (A) (A)
                 (A) (A) (A) (A) (A) (A) (A) (A) (A) (A) (A) (A)
                 (A) (A) (A) (A) (A) (A) (A) (A) (A)
 The electronic state is 1-A.
 Alpha  occ. eigenvalues --  -10.78208 -10.73766 -10.73705 -10.72859 -10.72844
 Alpha  occ. eigenvalues --  -10.72059 -10.71671 -10.71313 -10.71161 -10.70950
 Alpha  occ. eigenvalues --  -10.70252 -10.70125 -10.70043 -10.70014  -1.15672
 Alpha  occ. eigenvalues --   -1.11667  -1.06365  -1.04818  -1.01247  -0.99249
 Alpha  occ. eigenvalues --   -0.95453  -0.90210  -0.86625  -0.85346  -0.84017
 Alpha  occ. eigenvalues --   -0.77962  -0.75244  -0.74489  -0.69844  -0.69414
 Alpha  occ. eigenvalues --   -0.68331  -0.68060  -0.66523  -0.65116  -0.64913
 Alpha  occ. eigenvalues --   -0.61968  -0.61612  -0.59079  -0.58925  -0.58461
 Alpha  occ. eigenvalues --   -0.57553  -0.56302  -0.53771  -0.52024  -0.46410
 Alpha  occ. eigenvalues --   -0.45602  -0.43931
 Alpha virt. eigenvalues --   -0.26258  -0.15292  -0.14059  -0.13227  -0.11195
 Alpha virt. eigenvalues --   -0.10210  -0.09184  -0.08150  -0.07885  -0.07506
 Alpha virt. eigenvalues --   -0.07258  -0.07211  -0.05665  -0.05638  -0.05446
 Alpha virt. eigenvalues --   -0.03751  -0.03576  -0.03405  -0.03230  -0.02197
 Alpha virt. eigenvalues --   -0.01308  -0.00991   0.00099   0.00238   0.00663
 Alpha virt. eigenvalues --    0.00908   0.01449   0.01555   0.01898   0.02150
 Alpha virt. eigenvalues --    0.02350   0.02566   0.02632   0.02729   0.03401
 Alpha virt. eigenvalues --    0.04206   0.04451   0.04531   0.04702   0.05281
 Alpha virt. eigenvalues --    0.05874   0.06139   0.06695   0.07039   0.07101
 Alpha virt. eigenvalues --    0.07852   0.07892   0.08353   0.08527   0.08882
 Alpha virt. eigenvalues --    0.09293   0.09484   0.10134   0.10528   0.10781
 Alpha virt. eigenvalues --    0.11283   0.11400   0.12184   0.12264   0.12880
 Alpha virt. eigenvalues --    0.13223   0.13562   0.13792   0.14172   0.14311
 Alpha virt. eigenvalues --    0.15338   0.15941   0.17127   0.17251   0.17437
 Alpha virt. eigenvalues --    0.17695   0.18075   0.18963   0.19026   0.19556
 Alpha virt. eigenvalues --    0.19656   0.21144   0.21631   0.22361   0.22471
 Alpha virt. eigenvalues --    0.23669   0.23962   0.24662   0.26582   0.26912
 Alpha virt. eigenvalues --    0.27947   0.28240   0.28907   0.29047   0.31897
 Alpha virt. eigenvalues --    0.34477   0.35263   0.37463   0.38869   0.40734
 Alpha virt. eigenvalues --    0.41368   0.41543   0.41766   0.43186   0.43590
 Alpha virt. eigenvalues --    0.43878   0.44303   0.45031   0.45282   0.45790
 Alpha virt. eigenvalues --    0.47313   0.48616   0.48835   0.49210   0.50507
 Alpha virt. eigenvalues --    0.50525   0.51095   0.51954   0.52564   0.52988
 Alpha virt. eigenvalues --    0.53200   0.53946   0.54819   0.55507   0.55667
 Alpha virt. eigenvalues --    0.56901   0.58141   0.58165   0.61291   0.61773
 Alpha virt. eigenvalues --    0.63065   0.63271   0.64047   0.64171   0.64634
 Alpha virt. eigenvalues --    0.66280   0.68846   0.69955   0.70620   0.71870
 Alpha virt. eigenvalues --    0.72333   0.75187   0.75721   0.75975   0.76249
 Alpha virt. eigenvalues --    0.76434   0.77081   0.77493   0.78356   0.79703
 Alpha virt. eigenvalues --    0.80061   0.80420   0.81707   0.82421   0.83129
 Alpha virt. eigenvalues --    0.84596   0.86596   0.87468   0.88062   0.88820
 Alpha virt. eigenvalues --    0.89741   0.90380   0.91431   0.93517   0.94784
 Alpha virt. eigenvalues --    0.95919   0.96089   0.99531   1.00690   1.01545
 Alpha virt. eigenvalues --    1.02006   1.02712   1.03272   1.04394   1.05102
 Alpha virt. eigenvalues --    1.09180   1.17362   1.21043   1.22716   1.24073
 Alpha virt. eigenvalues --    1.26118   1.29184   1.31937   1.35513   1.35914
 Alpha virt. eigenvalues --    1.36425   1.38801   1.39009   1.39931   1.41704
 Alpha virt. eigenvalues --    1.42119   1.42943   1.43698   1.43844   1.45464
 Alpha virt. eigenvalues --    1.45969   1.47201   1.48211   1.49390   1.52291
 Alpha virt. eigenvalues --    1.55074   1.55200   1.55537   1.56333   1.56659
 Alpha virt. eigenvalues --    1.60752   1.63954   1.64018   1.64856   1.65192
 Alpha virt. eigenvalues --    1.65682   1.68506   1.69042   1.69282   1.73694
 Alpha virt. eigenvalues --    1.75032   1.75622   1.77116   1.77900   1.79105
 Alpha virt. eigenvalues --    1.79518   1.81304   1.82045   1.82588   1.83254
 Alpha virt. eigenvalues --    1.83774   1.83918   1.85679   1.86588   1.87387
 Alpha virt. eigenvalues --    1.90270   1.92446   1.93578   1.94494   1.96453
 Alpha virt. eigenvalues --    1.97153   1.98602   2.00206   2.04503   2.05251
 Alpha virt. eigenvalues --    2.08717   2.10847   2.13592   2.13992   2.16980
 Alpha virt. eigenvalues --    2.18118   2.19812   2.24123   2.28701   2.31549
 Alpha virt. eigenvalues --    2.33678   2.34524   2.37994   2.38868   2.39260
 Alpha virt. eigenvalues --    2.41236   2.42434   2.43244   2.49358   2.49666
 Alpha virt. eigenvalues --    2.52336   2.55006   2.57266   2.57792   2.58823
 Alpha virt. eigenvalues --    2.59444   2.59841   2.60899   2.62363   2.62479
 Alpha virt. eigenvalues --    2.63176   2.63699   2.64242   2.64754   2.65349
 Alpha virt. eigenvalues --    2.66171   2.67946   2.68368   2.70976   2.72974
 Alpha virt. eigenvalues --    2.73814   2.75151   2.75997   2.79290   2.81964
 Alpha virt. eigenvalues --    2.82951   2.83917   2.85058   2.90705   2.94845
 Alpha virt. eigenvalues --    2.98208   2.98648   3.01815   3.06653   3.10101
 Alpha virt. eigenvalues --    3.11472   3.17064   3.19248   3.23570   3.25421
 Alpha virt. eigenvalues --    3.27282   3.28567   3.30334   3.41638   3.42940
 Alpha virt. eigenvalues --    3.45628   3.46883   3.47241   3.49012   3.52976
 Alpha virt. eigenvalues --    3.66037   3.67297   3.91830   3.93370   3.96204
 Alpha virt. eigenvalues --    3.97287   4.06549   4.08424   4.10244   4.12665
 Alpha virt. eigenvalues --    4.30833   4.55719   4.66727   4.68597  23.46624
 Alpha virt. eigenvalues --   23.60715  23.78219  23.79836  23.83522  23.85552
 Alpha virt. eigenvalues --   23.87903  23.89690  23.93608  23.94492  23.96281
 Alpha virt. eigenvalues --   23.97249  24.05739  24.08022
          Condensed to atoms (all electrons):
               1          2          3          4          5          6
     1  C   15.323408  -1.183837  -1.225106   4.302752  -0.573627   0.025019
     2  C   -1.183837   7.296021   0.362282  -1.792334   0.075738  -0.024755
     3  C   -1.225106   0.362282   6.677841   0.368848  -0.018588   0.007407
     4  C    4.302752  -1.792334   0.368848  12.954804  -0.897894  -0.020970
     5  C   -0.573627   0.075738  -0.018588  -0.897894  13.191643   0.033829
     6  C    0.025019  -0.024755   0.007407  -0.020970   0.033829   6.773656
     7  C    0.097517  -0.007352  -0.021315   0.063023  -1.677561   0.383765
     8  C   -0.934108   0.108766   0.004166  -0.450991   4.474692  -1.373835
     9  C   -0.294054  -0.887399   0.183394   0.357114  -0.186148   0.115804
    10  C    0.234125   0.074181  -0.607163  -1.455431  -0.874179  -0.617626
    11  C   -6.873895   0.510470   1.618939  -2.601844  -0.723117  -0.122171
    12  C   -4.181069   2.020849  -0.677019  -4.955852   1.003782  -0.488723
    13  C    0.933730  -0.265760  -0.132361  -0.962330  -2.712859   1.796126
    14  C    0.140927  -0.255787  -0.411652   0.829649  -5.376081  -0.367353
    15  H    0.505028  -0.145945  -0.004997   0.065981  -0.003458   0.002094
    16  H   -0.094490   0.408015  -0.014846  -0.013638  -0.000452  -0.000403
    17  H   -0.039495  -0.014251   0.393759  -0.095314   0.000527   0.000311
    18  H    0.099140  -0.008984  -0.131914   0.530093  -0.002887  -0.003405
    19  H   -0.033357  -0.008170   0.042514  -0.047239  -0.049051   0.046657
    20  H   -0.000567   0.003113  -0.003444  -0.002778   0.533478  -0.130021
    21  H   -0.000463  -0.000449   0.000352   0.000754  -0.095612   0.388472
    22  H    0.001905   0.000333  -0.000380  -0.000667  -0.015749  -0.014436
    23  H   -0.016673  -0.000546   0.002065  -0.002266   0.065061  -0.007845
    24  H   -0.019003   0.020716   0.000615  -0.012059  -0.006298  -0.007782
    25  H    0.043374  -0.000519  -0.003685  -0.007462  -0.006598   0.004972
               7          8          9         10         11         12
     1  C    0.097517  -0.934108  -0.294054   0.234125  -6.873895  -4.181069
     2  C   -0.007352   0.108766  -0.887399   0.074181   0.510470   2.020849
     3  C   -0.021315   0.004166   0.183394  -0.607163   1.618939  -0.677019
     4  C    0.063023  -0.450991   0.357114  -1.455431  -2.601844  -4.955852
     5  C   -1.677561   4.474692  -0.186148  -0.874179  -0.723117   1.003782
     6  C    0.383765  -1.373835   0.115804  -0.617626  -0.122171  -0.488723
     7  C    7.197985  -0.795973  -0.649674   0.057886  -0.314026  -0.200375
     8  C   -0.795973  14.186759  -0.637984   0.213411   1.063376  -0.047645
     9  C   -0.649674  -0.637984   9.101435   0.565022   0.497997  -2.063682
    10  C    0.057886   0.213411   0.565022   9.166806  -1.441182   0.941858
    11  C   -0.314026   1.063376   0.497997  -1.441182  21.039182  -2.391458
    12  C   -0.200375  -0.047645  -2.063682   0.941858  -2.391458  21.212036
    13  C    0.065396  -5.747334   0.943420  -1.324569   1.384850  -5.279550
    14  C    1.869259  -4.341980  -1.479997   0.572110  -5.477651   0.632645
    15  H   -0.000565  -0.018215   0.110555  -0.002057  -0.153561  -0.056526
    16  H    0.000314   0.002096  -0.000963  -0.011215   0.085010  -0.020233
    17  H   -0.000389  -0.000438  -0.004080   0.002843   0.009831   0.090077
    18  H    0.003034   0.000063  -0.019616   0.092018  -0.087989  -0.154220
    19  H   -0.009216  -0.035504   0.062313   0.411095   0.063273  -0.079456
    20  H   -0.005571   0.092144  -0.020677   0.096010  -0.008758   0.039937
    21  H   -0.012672  -0.036976  -0.005663   0.005324  -0.004708   0.001266
    22  H    0.407941  -0.085629   0.000025  -0.011395   0.003602  -0.008815
    23  H   -0.146791   0.489451   0.097598  -0.001836   0.025870   0.012447
    24  H    0.004641   0.056913   0.365169   0.006852   0.068063  -0.050904
    25  H    0.013426  -0.013196   0.353310   0.006816  -0.031330  -0.038478
              13         14         15         16         17         18
     1  C    0.933730   0.140927   0.505028  -0.094490  -0.039495   0.099140
     2  C   -0.265760  -0.255787  -0.145945   0.408015  -0.014251  -0.008984
     3  C   -0.132361  -0.411652  -0.004997  -0.014846   0.393759  -0.131914
     4  C   -0.962330   0.829649   0.065981  -0.013638  -0.095314   0.530093
     5  C   -2.712859  -5.376081  -0.003458  -0.000452   0.000527  -0.002887
     6  C    1.796126  -0.367353   0.002094  -0.000403   0.000311  -0.003405
     7  C    0.065396   1.869259  -0.000565   0.000314  -0.000389   0.003034
     8  C   -5.747334  -4.341980  -0.018215   0.002096  -0.000438   0.000063
     9  C    0.943420  -1.479997   0.110555  -0.000963  -0.004080  -0.019616
    10  C   -1.324569   0.572110  -0.002057  -0.011215   0.002843   0.092018
    11  C    1.384850  -5.477651  -0.153561   0.085010   0.009831  -0.087989
    12  C   -5.279550   0.632645  -0.056526  -0.020233   0.090077  -0.154220
    13  C   19.418470  -1.867614   0.020191   0.002812  -0.004173  -0.010518
    14  C   -1.867614  21.062367   0.016472  -0.009236   0.001052   0.038310
    15  H    0.020191   0.016472   0.447488  -0.012159   0.001111   0.000751
    16  H    0.002812  -0.009236  -0.012159   0.423506  -0.006548   0.001778
    17  H   -0.004173   0.001052   0.001111  -0.006548   0.426453  -0.012404
    18  H   -0.010518   0.038310   0.000751   0.001778  -0.012404   0.465469
    19  H    0.067357  -0.058594   0.000373  -0.000486   0.001265  -0.006952
    20  H   -0.077307  -0.177160  -0.000177   0.000031  -0.000150   0.001262
    21  H    0.002119   0.097759   0.000020  -0.000008   0.000012  -0.000157
    22  H    0.078874  -0.020662  -0.000133   0.000010  -0.000008   0.000031
    23  H   -0.115761  -0.065332   0.000637  -0.000137   0.000024  -0.000212
    24  H   -0.032165  -0.058087  -0.005376   0.000974  -0.000131   0.000342
    25  H    0.046992  -0.033719   0.002266   0.000367  -0.000109  -0.000130
              19         20         21         22         23         24
     1  C   -0.033357  -0.000567  -0.000463   0.001905  -0.016673  -0.019003
     2  C   -0.008170   0.003113  -0.000449   0.000333  -0.000546   0.020716
     3  C    0.042514  -0.003444   0.000352  -0.000380   0.002065   0.000615
     4  C   -0.047239  -0.002778   0.000754  -0.000667  -0.002266  -0.012059
     5  C   -0.049051   0.533478  -0.095612  -0.015749   0.065061  -0.006298
     6  C    0.046657  -0.130021   0.388472  -0.014436  -0.007845  -0.007782
     7  C   -0.009216  -0.005571  -0.012672   0.407941  -0.146791   0.004641
     8  C   -0.035504   0.092144  -0.036976  -0.085629   0.489451   0.056913
     9  C    0.062313  -0.020677  -0.005663   0.000025   0.097598   0.365169
    10  C    0.411095   0.096010   0.005324  -0.011395  -0.001836   0.006852
    11  C    0.063273  -0.008758  -0.004708   0.003602   0.025870   0.068063
    12  C   -0.079456   0.039937   0.001266  -0.008815   0.012447  -0.050904
    13  C    0.067357  -0.077307   0.002119   0.078874  -0.115761  -0.032165
    14  C   -0.058594  -0.177160   0.097759  -0.020662  -0.065332  -0.058087
    15  H    0.000373  -0.000177   0.000020  -0.000133   0.000637  -0.005376
    16  H   -0.000486   0.000031  -0.000008   0.000010  -0.000137   0.000974
    17  H    0.001265  -0.000150   0.000012  -0.000008   0.000024  -0.000131
    18  H   -0.006952   0.001262  -0.000157   0.000031  -0.000212   0.000342
    19  H    0.433669  -0.006857   0.001393  -0.000527   0.000453   0.000367
    20  H   -0.006857   0.458620  -0.011421   0.001725   0.000676   0.000082
    21  H    0.001393  -0.011421   0.426590  -0.006677   0.001144  -0.000297
    22  H   -0.000527   0.001725  -0.006677   0.424439  -0.011972   0.000885
    23  H    0.000453   0.000676   0.001144  -0.011972   0.447455   0.001095
    24  H    0.000367   0.000082  -0.000297   0.000885   0.001095   0.493552
    25  H    0.000589   0.000147   0.000081   0.000394  -0.003888  -0.087883
              25
     1  C    0.043374
     2  C   -0.000519
     3  C   -0.003685
     4  C   -0.007462
     5  C   -0.006598
     6  C    0.004972
     7  C    0.013426
     8  C   -0.013196
     9  C    0.353310
    10  C    0.006816
    11  C   -0.031330
    12  C   -0.038478
    13  C    0.046992
    14  C   -0.033719
    15  H    0.002266
    16  H    0.000367
    17  H   -0.000109
    18  H   -0.000130
    19  H    0.000589
    20  H    0.000147
    21  H    0.000081
    22  H    0.000394
    23  H   -0.003888
    24  H   -0.087883
    25  H    0.491530
 Mulliken charges:
               1
     1  C   -0.237178
     2  C   -0.284398
     3  C   -0.409714
     4  C   -0.153948
     5  C   -0.158589
     6  C   -0.398785
     7  C   -0.322710
     8  C   -0.172027
     9  C   -0.503220
    10  C   -0.099703
    11  C   -0.138773
    12  C    0.739109
    13  C   -0.228035
    14  C    0.740354
    15  H    0.230204
    16  H    0.259899
    17  H    0.250224
    18  H    0.207095
    19  H    0.204089
    20  H    0.217664
    21  H    0.249817
    22  H    0.256888
    23  H    0.229283
    24  H    0.259718
    25  H    0.262735
 Sum of Mulliken charges =   1.00000
 Mulliken charges with hydrogens summed into heavy atoms:
               1
     1  C   -0.006974
     2  C   -0.024499
     3  C   -0.159490
     4  C    0.053147
     5  C    0.059075
     6  C   -0.148968
     7  C   -0.065822
     8  C    0.057256
     9  C    0.019234
    10  C    0.104387
    11  C   -0.138773
    12  C    0.739109
    13  C   -0.228035
    14  C    0.740354
 Electronic spatial extent (au):  <R**2>=           2876.1050
 Charge=              1.0000 electrons
 Dipole moment (field-independent basis, Debye):
    X=             -0.0088    Y=              0.1234    Z=             -0.0035  Tot=              0.1238
 Quadrupole moment (field-independent basis, Debye-Ang):
   XX=            -32.6149   YY=            -54.4540   ZZ=            -84.7917
   XY=              0.0911   XZ=              0.2605   YZ=              0.1800
 Traceless Quadrupole moment (field-independent basis, Debye-Ang):
   XX=             24.6720   YY=              2.8329   ZZ=            -27.5048
   XY=              0.0911   XZ=              0.2605   YZ=              0.1800
 Octapole moment (field-independent basis, Debye-Ang**2):
  XXX=             -0.3601  YYY=              4.9591  ZZZ=              0.0175  XYY=              0.0002
  XXY=             -7.7449  XXZ=              0.0073  XZZ=              0.0131  YZZ=             -3.0578
  YYZ=              0.1410  XYZ=              0.2020
 Hexadecapole moment (field-independent basis, Debye-Ang**3):
 XXXX=          -2162.0468 YYYY=           -616.9528 ZZZZ=           -101.3667 XXXY=             -1.1805
 XXXZ=              6.2875 YYYX=              1.7492 YYYZ=              0.8016 ZZZX=              0.3193
 ZZZY=              0.1062 XXYY=           -506.9449 XXZZ=           -595.1596 YYZZ=           -150.3892
 XXYZ=              3.7702 YYXZ=              0.6285 ZZXY=             -0.4509
 N-N= 7.754757891051D+02 E-N=-2.786901315297D+03  KE= 5.369659302036D+02
 Unable to Open any file for archive entry.
 1\1\GINC-GADI-CPU-CLX-0572\SP\RM062X TD-FC\6-311++G(d,p)\C14H11(1+)\TS
 1578\27-Jul-2022\0\\#n M062X/6-311++G(d,p) TD(NStates=1) EmpiricalDisp
 ersion=GD3 SP\\SP_1\\1,1\C,0,2.4927,1.4091,0.017\C,0,3.7015,0.7167,0.0
 19\C,0,3.6839,-0.6901,0.032\C,0,2.4632,-1.4329,-0.004\C,0,-2.4632,-1.4
 449,-0.036\C,0,-3.6839,-0.6841,-0.032\C,0,-3.7015,0.7167,-0.013\C,0,-2
 .4927,1.3931,0.017\C,0,0.,1.4781,0.033\C,0,0.,-1.4785,-0.027\C,0,1.262
 1,0.6717,-0.014\C,0,1.2375,-0.7371,-0.011\C,0,-1.2621,0.6637,0.03\C,0,
 -1.2375,-0.7431,-0.015\H,0,2.4881,2.4763,0.018\H,0,4.6368,1.2654,0.002
 \H,0,4.6093,-1.2557,0.018\H,0,2.4675,-2.4814,-0.005\H,0,0.,-2.5516,-0.
 028\H,0,-2.4675,-2.5174,-0.037\H,0,-4.6093,-1.2677,0.01\H,0,-4.6368,1.
 2474,-0.026\H,0,-2.4881,2.4483,0.018\H,0,-0.002,2.2425,-0.8296\H,0,0.0
 02,2.2425,0.8896\\Version=ES64L-G16RevC.01\State=1-A\HF=-539.741976\RM
 SD=4.868e-09\PG=C01 [X(C14H11)]\\@
 The archive entry for this job was punched.


 TO BEHOLD HARMS OF OUR OWN HANDS DOING,
 WHERE NONE BESIDE US WROUGHT,
 CAUSES SHARP RUING...

                                         SOPHOCLES
 Job cpu time:       0 days  1 hours 17 minutes 39.8 seconds.
 Elapsed time:       0 days  0 hours  2 minutes 33.8 seconds.
 File lengths (MBytes):  RWF=    461 Int=      0 D2E=      0 Chk=     15 Scr=      1
 Normal termination of Gaussian 16 at Wed Jul 27 11:11:27 2022.
