 Entering Gaussian System, Link 0=g16
 Initial command:
 /apps/gaussian/g16c01/g16/l1.exe "/jobfs/52803152.gadi-pbs/Gau-2946677.inp" -scrdir="/jobfs/52803152.gadi-pbs/"
 Entering Link 1 = /apps/gaussian/g16c01/g16/l1.exe PID=   2946678.
  
 Copyright (c) 1988-2019, Gaussian, Inc.  All Rights Reserved.
  
 This is part of the Gaussian(R) 16 program.  It is based on
 the Gaussian(R) 09 system (copyright 2009, Gaussian, Inc.),
 the Gaussian(R) 03 system (copyright 2003, Gaussian, Inc.),
 the Gaussian(R) 98 system (copyright 1998, Gaussian, Inc.),
 the Gaussian(R) 94 system (copyright 1995, Gaussian, Inc.),
 the Gaussian 92(TM) system (copyright 1992, Gaussian, Inc.),
 the Gaussian 90(TM) system (copyright 1990, Gaussian, Inc.),
 the Gaussian 88(TM) system (copyright 1988, Gaussian, Inc.),
 the Gaussian 86(TM) system (copyright 1986, Carnegie Mellon
 University), and the Gaussian 82(TM) system (copyright 1983,
 Carnegie Mellon University). Gaussian is a federally registered
 trademark of Gaussian, Inc.
  
 This software contains proprietary and confidential information,
 including trade secrets, belonging to Gaussian, Inc.
  
 This software is provided under written license and may be
 used, copied, transmitted, or stored only in accord with that
 written license.
  
 The following legend is applicable only to US Government
 contracts under FAR:
  
                    RESTRICTED RIGHTS LEGEND
  
 Use, reproduction and disclosure by the US Government is
 subject to restrictions as set forth in subparagraphs (a)
 and (c) of the Commercial Computer Software - Restricted
 Rights clause in FAR 52.227-19.
  
 Gaussian, Inc.
 340 Quinnipiac St., Bldg. 40, Wallingford CT 06492
  
  
 ---------------------------------------------------------------
 Warning -- This program may not be used in any manner that
 competes with the business of Gaussian, Inc. or will provide
 assistance to any competitor of Gaussian, Inc.  The licensee
 of this program is prohibited from giving any competitor of
 Gaussian, Inc. access to this program.  By using this program,
 the user acknowledges that Gaussian, Inc. is engaged in the
 business of creating and licensing software in the field of
 computational chemistry and represents and warrants to the
 licensee that it is not a competitor of Gaussian, Inc. and that
 it will not use this program in any manner prohibited above.
 ---------------------------------------------------------------
  

 Cite this work as:
 Gaussian 16, Revision C.01,
 M. J. Frisch, G. W. Trucks, H. B. Schlegel, G. E. Scuseria, 
 M. A. Robb, J. R. Cheeseman, G. Scalmani, V. Barone, 
 G. A. Petersson, H. Nakatsuji, X. Li, M. Caricato, A. V. Marenich, 
 J. Bloino, B. G. Janesko, R. Gomperts, B. Mennucci, H. P. Hratchian, 
 J. V. Ortiz, A. F. Izmaylov, J. L. Sonnenberg, D. Williams-Young, 
 F. Ding, F. Lipparini, F. Egidi, J. Goings, B. Peng, A. Petrone, 
 T. Henderson, D. Ranasinghe, V. G. Zakrzewski, J. Gao, N. Rega, 
 G. Zheng, W. Liang, M. Hada, M. Ehara, K. Toyota, R. Fukuda, 
 J. Hasegawa, M. Ishida, T. Nakajima, Y. Honda, O. Kitao, H. Nakai, 
 T. Vreven, K. Throssell, J. A. Montgomery, Jr., J. E. Peralta, 
 F. Ogliaro, M. J. Bearpark, J. J. Heyd, E. N. Brothers, K. N. Kudin, 
 V. N. Staroverov, T. A. Keith, R. Kobayashi, J. Normand, 
 K. Raghavachari, A. P. Rendell, J. C. Burant, S. S. Iyengar, 
 J. Tomasi, M. Cossi, J. M. Millam, M. Klene, C. Adamo, R. Cammi, 
 J. W. Ochterski, R. L. Martin, K. Morokuma, O. Farkas, 
 J. B. Foresman, and D. J. Fox, Gaussian, Inc., Wallingford CT, 2019.
 
 ******************************************
 Gaussian 16:  ES64L-G16RevC.01  3-Jul-2019
                27-Jul-2022 
 ******************************************
 %NProcShared=32
 Will use up to   32 processors via shared memory.
 %mem = 128GB
 ---------------------------------------------------------------
 #n M062X/6-311++G(d,p) TD(NStates=1) EmpiricalDispersion=GD3 SP
 ---------------------------------------------------------------
 1/38=1,172=1/1;
 2/12=2,17=6,18=5,40=1/2;
 3/5=4,6=6,7=1111,11=9,25=1,30=1,74=-55,124=31/1,2,3,8;
 4//1;
 5/5=2,38=5/2;
 8/6=1,10=2,108=1/1;
 9/41=1,42=1,70=2/14;
 6/7=2,8=2,9=2,10=2/1;
 99/5=1,9=1/99;
 ----
 SP_3
 ----
 Symbolic Z-matrix:
 Charge =  1 Multiplicity = 1
 C                     2.4927    1.4411    0.051 
 C                     3.7015    0.7347    0.033 
 C                     3.6839   -0.6871    0.048 
 C                     2.4632   -1.4409   -0.036 
 C                    -2.4632   -1.4769   -0.084 
 C                    -3.6839   -0.6691   -0.048 
 C                    -3.7015    0.7347   -0.015 
 C                    -2.4927    1.3931    0.051 
 C                     0.        1.4861    0.099 
 C                     0.       -1.5075   -0.081 
 C                     1.2621    0.6707   -0.009 
 C                     1.2375   -0.7401   -0.036 
 C                    -1.2621    0.6467    0.057 
 C                    -1.2375   -0.7581   -0.042 
 H                     2.4881    2.5093    0.054 
 H                     4.6368    1.3014   -0.015 
 H                     4.6093   -1.2427    0.048 
 H                     2.4675   -2.4544   -0.039 
 H                     0.       -2.5766   -0.084 
 H                    -2.4675   -2.5624   -0.087 
 H                    -4.6093   -1.2787    0.036 
 H                    -4.6368    1.2474   -0.057 
 H                    -2.4881    2.4253    0.054 
 H                    -0.006     2.2865   -0.7696 
 H                     0.006     2.2865    0.9496 
 
                          Input orientation:                          
 ---------------------------------------------------------------------
 Center     Atomic      Atomic             Coordinates (Angstroms)
 Number     Number       Type             X           Y           Z
 ---------------------------------------------------------------------
      1          6           0        2.492700    1.441100    0.051000
      2          6           0        3.701500    0.734700    0.033000
      3          6           0        3.683900   -0.687100    0.048000
      4          6           0        2.463200   -1.440900   -0.036000
      5          6           0       -2.463200   -1.476900   -0.084000
      6          6           0       -3.683900   -0.669100   -0.048000
      7          6           0       -3.701500    0.734700   -0.015000
      8          6           0       -2.492700    1.393100    0.051000
      9          6           0        0.000000    1.486100    0.099000
     10          6           0        0.000000   -1.507500   -0.081000
     11          6           0        1.262100    0.670700   -0.009000
     12          6           0        1.237500   -0.740100   -0.036000
     13          6           0       -1.262100    0.646700    0.057000
     14          6           0       -1.237500   -0.758100   -0.042000
     15          1           0        2.488100    2.509300    0.054000
     16          1           0        4.636800    1.301400   -0.015000
     17          1           0        4.609300   -1.242700    0.048000
     18          1           0        2.467500   -2.454400   -0.039000
     19          1           0        0.000000   -2.576600   -0.084000
     20          1           0       -2.467500   -2.562400   -0.087000
     21          1           0       -4.609300   -1.278700    0.036000
     22          1           0       -4.636800    1.247400   -0.057000
     23          1           0       -2.488100    2.425300    0.054000
     24          1           0       -0.006000    2.286500   -0.769600
     25          1           0        0.006000    2.286500    0.949600
 ---------------------------------------------------------------------
                    Distance matrix (angstroms):
                    1          2          3          4          5
     1  C    0.000000
     2  C    1.400187   0.000000
     3  C    2.438894   1.421988   0.000000
     4  C    2.883464   2.504273   1.437143   0.000000
     5  C    5.752729   6.550450   6.199036   4.926765   0.000000
     6  C    6.527874   7.518068   7.368447   6.195374   1.464222
     7  C    6.234699   7.403156   7.521278   6.537370   2.535611
     8  C    4.985631   6.229119   6.517486   5.709647   2.873325
     9  C    2.493568   3.777573   4.277443   3.827912   3.857488
    10  C    3.863317   4.329152   3.776350   2.464511   2.463392
    11  C    1.453098   2.440601   2.777046   2.429449   4.300659
    12  C    2.518081   2.872471   2.448415   1.411900   3.773640
    13  C    3.837920   4.964438   5.122697   4.271368   2.443808
    14  C    4.331226   5.160213   4.922735   3.763168   1.421541
    15  H    1.068214   2.149880   3.412762   3.951304   6.358003
    16  H    2.149660   1.094641   2.205928   3.499312   7.624547
    17  H    3.418009   2.175876   1.079378   2.156869   7.077608
    18  H    3.896621   3.420278   2.147218   1.013514   5.026861
    19  H    4.730084   4.967847   4.142313   2.712835   2.697535
    20  H    6.375785   6.995844   6.432317   5.056893   1.085513
    21  H    7.604994   8.551210   8.314283   7.074726   2.158571
    22  H    7.132948   8.354532   8.543264   7.591930   3.485266
    23  H    5.077108   6.416363   6.912355   6.282593   3.904719
    24  H    2.762533   4.098513   4.808963   4.530853   4.546544
    25  H    2.775943   4.111564   4.814782   4.571953   4.618274
                    6          7          8          9         10
     6  C    0.000000
     7  C    1.404298   0.000000
     8  C    2.383574   1.378058   0.000000
     9  C    4.270552   3.778717   2.494896   0.000000
    10  C    3.778243   4.328154   3.826808   2.999007   0.000000
    11  C    5.124403   4.964016   3.824132   1.506465   2.518459
    12  C    4.921927   5.154532   4.297965   2.550607   1.456823
    13  C    2.758164   2.442048   1.439279   1.516329   2.500504
    14  C    2.448026   2.881055   2.492356   2.566656   1.447248
    15  H    6.943070   6.439341   5.104339   2.690651   4.726896
    16  H    8.550907   8.357535   7.130395   4.641877   5.421641
    17  H    8.313567   8.543037   7.575345   5.356734   4.618702
    18  H    6.405240   6.944602   6.278132   4.651359   2.643282
    19  H    4.148611   4.966948   4.689381   4.066819   1.069104
    20  H    2.250719   3.521194   3.957987   4.744840   2.683544
    21  H    1.111321   2.209181   3.408627   5.375289   4.616458
    22  H    2.140344   1.067432   2.151757   4.645560   5.393511
    23  H    3.318984   2.082121   1.032215   2.659843   4.655726
    24  H    4.773178   4.078508   2.766808   1.181161   3.855988
    25  H    4.831784   4.133291   2.801633   1.167988   3.931489
                   11         12         13         14         15
    11  C    0.000000
    12  C    1.411273   0.000000
    13  C    2.525177   2.860046   0.000000
    14  C    2.879333   2.475073   1.408499   0.000000
    15  H    2.210768   3.482916   4.187277   4.956331   0.000000
    16  H    3.433135   3.965275   5.935557   6.224923   2.465907
    17  H    3.855917   3.410088   6.167921   5.867538   4.310108
    18  H    3.349648   2.109913   4.851387   4.074858   4.964614
    19  H    3.484749   2.215049   3.464454   2.200026   5.663573
    20  H    4.936490   4.129213   3.431042   2.184130   7.092249
    21  H    6.186722   5.871997   3.861522   3.412645   8.045020
    22  H    5.927218   6.201451   3.429641   3.946834   7.236637
    23  H    4.140844   4.889576   2.160209   3.421586   4.976909
    24  H    2.190297   3.353322   2.224859   3.363864   2.635999
    25  H    2.259980   3.412962   2.256935   3.434989   2.648124
                   16         17         18         19         20
    16  H    0.000000
    17  H    2.545028   0.000000
    18  H    4.337335   2.462335   0.000000
    19  H    6.045127   4.800246   2.470934   0.000000
    20  H    8.087349   7.200065   4.936415   2.467543   0.000000
    21  H    9.599473   9.218678   7.174189   4.790051   2.500064
    22  H    9.273852   9.576116   8.010913   6.010293   4.384215
    23  H    7.213329   7.989202   6.955436   5.588264   4.989735
    24  H    4.805771   5.867258   5.397047   4.911194   5.480580
    25  H    4.831685   5.870137   5.432536   4.971731   5.541171
                   21         22         23         24         25
    21  H    0.000000
    22  H    2.527961   0.000000
    23  H    4.268422   2.452892   0.000000
    24  H    5.877926   4.799150   2.618855   0.000000
    25  H    5.903076   4.862979   2.653658   1.719242   0.000000
 Stoichiometry    C14H11(1+)
 Framework group  C1[X(C14H11)]
 Deg. of freedom    69
 Full point group                 C1      NOp   1
 Largest Abelian subgroup         C1      NOp   1
 Largest concise Abelian subgroup C1      NOp   1
                         Standard orientation:                         
 ---------------------------------------------------------------------
 Center     Atomic      Atomic             Coordinates (Angstroms)
 Number     Number       Type             X           Y           Z
 ---------------------------------------------------------------------
      1          6           0       -2.499266   -1.420906   -0.014352
      2          6           0       -3.704799   -0.708718   -0.014925
      3          6           0       -3.681013    0.711592    0.049913
      4          6           0       -2.456498    1.462207   -0.000294
      5          6           0        2.470216    1.477049   -0.017265
      6          6           0        3.687089    0.662839   -0.002178
      7          6           0        3.698284   -0.741323   -0.018204
      8          6           0        2.486202   -1.396022    0.017423
      9          6           0       -0.007134   -1.479099    0.047092
     10          6           0        0.007204    1.518932   -0.028066
     11          6           0       -1.264927   -0.654586   -0.039933
     12          6           0       -1.233929    0.756166   -0.017412
     13          6           0        1.258897   -0.644598    0.042103
     14          6           0        1.241116    0.762903   -0.007837
     15          1           0       -2.499403   -2.488567   -0.048696
     16          1           0       -4.642278   -1.269056   -0.088366
     17          1           0       -4.603932    1.271132    0.063764
     18          1           0       -2.456303    2.475201    0.032139
     19          1           0        0.011944    2.587472    0.006338
     20          1           0        2.479329    2.561958    0.017739
     21          1           0        4.614635    1.264839    0.108681
     22          1           0        4.631552   -1.256567   -0.072468
     23          1           0        2.477024   -2.427664   -0.015717
     24          1           0        0.000711   -2.248666   -0.848926
     25          1           0       -0.021939   -2.308708    0.869118
 ---------------------------------------------------------------------
 Rotational constants (GHZ):           2.0086305           0.4445338           0.3648458
 Standard basis: 6-311++G(d,p) (5D, 7F)
 There are   399 symmetry adapted cartesian basis functions of A   symmetry.
 There are   385 symmetry adapted basis functions of A   symmetry.
   385 basis functions,   603 primitive gaussians,   399 cartesian basis functions
    47 alpha electrons       47 beta electrons
       nuclear repulsion energy       772.3968480053 Hartrees.
 NAtoms=   25 NActive=   25 NUniq=   25 SFac= 1.00D+00 NAtFMM=   60 NAOKFM=F Big=F
 Integral buffers will be    131072 words long.
 Regular integral format.
 Two-electron integral symmetry is turned on.
 Nuclear repulsion after empirical dispersion term =      772.3958552766 Hartrees.
 One-electron integrals computed using PRISM.
 NBasis=   385 RedAO= T EigKep=  1.27D-06  NBF=   385
 NBsUse=   380 1.00D-06 EigRej=  7.13D-07 NBFU=   380
 ExpMin= 3.60D-02 ExpMax= 4.56D+03 ExpMxC= 6.82D+02 IAcc=3 IRadAn=         5 AccDes= 0.00D+00
 Harris functional with IExCor= 1009 and IRadAn=       5 diagonalized for initial guess.
 HarFok:  IExCor= 1009 AccDes= 0.00D+00 IRadAn=         5 IDoV= 1 UseB2=F ITyADJ=14
 ICtDFT=  3500011 ScaDFX=  1.000000  1.000000  1.000000  1.000000
 FoFCou: FMM=F IPFlag=           0 FMFlag=      100000 FMFlg1=           0
         NFxFlg=           0 DoJE=T BraDBF=F KetDBF=T FulRan=T
         wScrn=  0.000000 ICntrl=       500 IOpCl=  0 I1Cent=   200000004 NGrid=           0
         NMat0=    1 NMatS0=      1 NMatT0=    0 NMatD0=    1 NMtDS0=    0 NMtDT0=    0
 Petite list used in FoFCou.
 Requested convergence on RMS density matrix=1.00D-08 within 128 cycles.
 Requested convergence on MAX density matrix=1.00D-06.
 Requested convergence on             energy=1.00D-06.
 No special actions if energy rises.
 SCF Done:  E(RM062X) =  -539.717571261     A.U. after   16 cycles
            NFock= 16  Conv=0.76D-08     -V/T= 2.0056
 DoSCS=F DFT=T ScalE2(SS,OS)=  1.000000  1.000000
 ExpMin= 3.60D-02 ExpMax= 4.56D+03 ExpMxC= 6.82D+02 IAcc=3 IRadAn=         5 AccDes= 0.00D+00
 HarFok:  IExCor=  205 AccDes= 0.00D+00 IRadAn=         5 IDoV=-2 UseB2=F ITyADJ=14
 ICtDFT= 12500011 ScaDFX=  1.000000  1.000000  1.000000  1.000000
 Range of M.O.s used for correlation:    15   380
 NBasis=   385 NAE=    47 NBE=    47 NFC=    14 NFV=     0
 NROrb=    366 NOA=    33 NOB=    33 NVA=   333 NVB=   333

 **** Warning!!: The largest alpha MO coefficient is  0.13892717D+03

 Orbital symmetries:
       Occupied  (A) (A) (A) (A) (A) (A) (A) (A) (A) (A) (A) (A)
                 (A) (A) (A) (A) (A) (A) (A) (A) (A) (A) (A) (A)
                 (A) (A) (A) (A) (A) (A) (A) (A) (A) (A) (A) (A)
                 (A) (A) (A) (A) (A) (A) (A) (A) (A) (A) (A)
       Virtual   (A) (A) (A) (A) (A) (A) (A) (A) (A) (A) (A) (A)
                 (A) (A) (A) (A) (A) (A) (A) (A) (A) (A) (A) (A)
                 (A) (A) (A) (A) (A) (A) (A) (A) (A) (A) (A) (A)
                 (A) (A) (A) (A) (A) (A) (A) (A) (A) (A) (A) (A)
                 (A) (A) (A) (A) (A) (A) (A) (A) (A) (A) (A) (A)
                 (A) (A) (A) (A) (A) (A) (A) (A) (A) (A) (A) (A)
                 (A) (A) (A) (A) (A) (A) (A) (A) (A) (A) (A) (A)
                 (A) (A) (A) (A) (A) (A) (A) (A) (A) (A) (A) (A)
                 (A) (A) (A) (A) (A) (A) (A) (A) (A) (A) (A) (A)
                 (A) (A) (A) (A) (A) (A) (A) (A) (A) (A) (A) (A)
                 (A) (A) (A) (A) (A) (A) (A) (A) (A) (A) (A) (A)
                 (A) (A) (A) (A) (A) (A) (A) (A) (A) (A) (A) (A)
                 (A) (A) (A) (A) (A) (A) (A) (A) (A) (A) (A) (A)
                 (A) (A) (A) (A) (A) (A) (A) (A) (A) (A) (A) (A)
                 (A) (A) (A) (A) (A) (A) (A) (A) (A) (A) (A) (A)
                 (A) (A) (A) (A) (A) (A) (A) (A) (A) (A) (A) (A)
                 (A) (A) (A) (A) (A) (A) (A) (A) (A) (A) (A) (A)
                 (A) (A) (A) (A) (A) (A) (A) (A) (A) (A) (A) (A)
                 (A) (A) (A) (A) (A) (A) (A) (A) (A) (A) (A) (A)
                 (A) (A) (A) (A) (A) (A) (A) (A) (A) (A) (A) (A)
                 (A) (A) (A) (A) (A) (A) (A) (A) (A) (A) (A) (A)
                 (A) (A) (A) (A) (A) (A) (A) (A) (A) (A) (A) (A)
                 (A) (A) (A) (A) (A) (A) (A) (A) (A) (A) (A) (A)
                 (A) (A) (A) (A) (A) (A) (A) (A) (A) (A) (A) (A)
                 (A) (A) (A) (A) (A) (A) (A) (A) (A) (A) (A) (A)
                 (A) (A) (A) (A) (A) (A) (A) (A) (A) (A) (A) (A)
                 (A) (A) (A) (A) (A) (A) (A) (A) (A) (A) (A) (A)
                 (A) (A) (A) (A) (A) (A) (A) (A) (A)
     4 initial guesses have been made.
 Convergence on wavefunction:    0.001000000000000
 Iteration     1 Dimension     4 NMult     0 NNew      4
 CISAX will form     4 AO SS matrices at one time.
 Iteration     2 Dimension     6 NMult     4 NNew      2
 Iteration     3 Dimension     8 NMult     6 NNew      2
 Iteration     4 Dimension    10 NMult     8 NNew      2
 Iteration     5 Dimension    12 NMult    10 NNew      2
 Iteration     6 Dimension    14 NMult    12 NNew      2
 ***********************************************************************
 Excited states from <AA,BB:AA,BB> singles matrix:
 ***********************************************************************
 
 Ground to excited state transition densities written to RWF  633
 Ground to excited state transition electric dipole moments (Au):
       state          X           Y           Z        Dip. S.      Osc.
         1         0.0131      0.6723     -0.0014      0.4521      0.0282
 Ground to excited state transition velocity dipole moments (Au):
       state          X           Y           Z        Dip. S.      Osc.
         1        -0.0022     -0.0691      0.0003      0.0048      0.0341
 Ground to excited state transition magnetic dipole moments (Au):
       state          X           Y           Z
         1         0.0099     -0.0076     -0.0311
 Ground to excited state transition velocity quadrupole moments (Au):
       state          XX          YY          ZZ          XY          XZ          YZ
         1        -0.2759     -0.0179      0.0117     -0.0260      0.0042      0.0012
 <0|del|b> * <b|rxdel|0> + <0|del|b> * <b|delr+rdel|0>
 Rotatory Strengths (R) in cgs (10**-40 erg-esu-cm/Gauss)
       state          XX          YY          ZZ    R(velocity)    E-M Angle
         1         3.0169     -0.0974      0.8048      1.2414       77.74
 1/2[<0|r|b>*<b|rxdel|0> + (<0|rxdel|b>*<b|r|0>)*]
 Rotatory Strengths (R) in cgs (10**-40 erg-esu-cm/Gauss)
       state          XX          YY          ZZ     R(length)
         1        -0.0917      3.5927     -0.0297      1.1571
  1/2[<0|del|b>*<b|r|0> + (<0|r|b>*<b|del|0>)*] (Au)
       state          X           Y           Z        Dip. S.   Osc.(frdel)
         1        -0.0000     -0.0465     -0.0000      0.0465      0.0310

 Excitation energies and oscillator strengths:
 
 Excited State   1:      Singlet-A      2.5414 eV  487.85 nm  f=0.0282  <S**2>=0.000
      47 -> 48         0.70464
 This state for optimization and/or second-order correction.
 Total Energy, E(TD-HF/TD-DFT) =  -539.624174814    
 Copying the excited state density for this state as the 1-particle RhoCI density.
 SavETr:  write IOETrn=   770 NScale= 10 NData=  16 NLR=1 NState=    1 LETran=      28.

 **********************************************************************

            Population analysis using the SCF Density.

 **********************************************************************

 Orbital symmetries:
       Occupied  (A) (A) (A) (A) (A) (A) (A) (A) (A) (A) (A) (A)
                 (A) (A) (A) (A) (A) (A) (A) (A) (A) (A) (A) (A)
                 (A) (A) (A) (A) (A) (A) (A) (A) (A) (A) (A) (A)
                 (A) (A) (A) (A) (A) (A) (A) (A) (A) (A) (A)
       Virtual   (A) (A) (A) (A) (A) (A) (A) (A) (A) (A) (A) (A)
                 (A) (A) (A) (A) (A) (A) (A) (A) (A) (A) (A) (A)
                 (A) (A) (A) (A) (A) (A) (A) (A) (A) (A) (A) (A)
                 (A) (A) (A) (A) (A) (A) (A) (A) (A) (A) (A) (A)
                 (A) (A) (A) (A) (A) (A) (A) (A) (A) (A) (A) (A)
                 (A) (A) (A) (A) (A) (A) (A) (A) (A) (A) (A) (A)
                 (A) (A) (A) (A) (A) (A) (A) (A) (A) (A) (A) (A)
                 (A) (A) (A) (A) (A) (A) (A) (A) (A) (A) (A) (A)
                 (A) (A) (A) (A) (A) (A) (A) (A) (A) (A) (A) (A)
                 (A) (A) (A) (A) (A) (A) (A) (A) (A) (A) (A) (A)
                 (A) (A) (A) (A) (A) (A) (A) (A) (A) (A) (A) (A)
                 (A) (A) (A) (A) (A) (A) (A) (A) (A) (A) (A) (A)
                 (A) (A) (A) (A) (A) (A) (A) (A) (A) (A) (A) (A)
                 (A) (A) (A) (A) (A) (A) (A) (A) (A) (A) (A) (A)
                 (A) (A) (A) (A) (A) (A) (A) (A) (A) (A) (A) (A)
                 (A) (A) (A) (A) (A) (A) (A) (A) (A) (A) (A) (A)
                 (A) (A) (A) (A) (A) (A) (A) (A) (A) (A) (A) (A)
                 (A) (A) (A) (A) (A) (A) (A) (A) (A) (A) (A) (A)
                 (A) (A) (A) (A) (A) (A) (A) (A) (A) (A) (A) (A)
                 (A) (A) (A) (A) (A) (A) (A) (A) (A) (A) (A) (A)
                 (A) (A) (A) (A) (A) (A) (A) (A) (A) (A) (A) (A)
                 (A) (A) (A) (A) (A) (A) (A) (A) (A) (A) (A) (A)
                 (A) (A) (A) (A) (A) (A) (A) (A) (A) (A) (A) (A)
                 (A) (A) (A) (A) (A) (A) (A) (A) (A) (A) (A) (A)
                 (A) (A) (A) (A) (A) (A) (A) (A) (A) (A) (A) (A)
                 (A) (A) (A) (A) (A) (A) (A) (A) (A) (A) (A) (A)
                 (A) (A) (A) (A) (A) (A) (A) (A) (A) (A) (A) (A)
                 (A) (A) (A) (A) (A) (A) (A) (A) (A)
 The electronic state is 1-A.
 Alpha  occ. eigenvalues --  -10.78476 -10.74106 -10.73933 -10.73106 -10.73077
 Alpha  occ. eigenvalues --  -10.72634 -10.72115 -10.71409 -10.71034 -10.70802
 Alpha  occ. eigenvalues --  -10.70580 -10.70478 -10.70218 -10.69874  -1.15260
 Alpha  occ. eigenvalues --   -1.11267  -1.06122  -1.04327  -1.01184  -0.98772
 Alpha  occ. eigenvalues --   -0.95269  -0.89799  -0.86721  -0.85070  -0.84097
 Alpha  occ. eigenvalues --   -0.77758  -0.74825  -0.74488  -0.70216  -0.69583
 Alpha  occ. eigenvalues --   -0.68398  -0.67669  -0.65801  -0.65436  -0.64818
 Alpha  occ. eigenvalues --   -0.61990  -0.60916  -0.58792  -0.58487  -0.57915
 Alpha  occ. eigenvalues --   -0.57823  -0.56753  -0.53163  -0.51773  -0.46359
 Alpha  occ. eigenvalues --   -0.45269  -0.43615
 Alpha virt. eigenvalues --   -0.26358  -0.15607  -0.14141  -0.13437  -0.11218
 Alpha virt. eigenvalues --   -0.10282  -0.09162  -0.08323  -0.07854  -0.07522
 Alpha virt. eigenvalues --   -0.07343  -0.07187  -0.05697  -0.05671  -0.05517
 Alpha virt. eigenvalues --   -0.03734  -0.03661  -0.03497  -0.03193  -0.02201
 Alpha virt. eigenvalues --   -0.01391  -0.01050   0.00077   0.00194   0.00641
 Alpha virt. eigenvalues --    0.00819   0.01261   0.01411   0.01683   0.02044
 Alpha virt. eigenvalues --    0.02194   0.02573   0.02658   0.02921   0.03389
 Alpha virt. eigenvalues --    0.04127   0.04274   0.04434   0.04713   0.05243
 Alpha virt. eigenvalues --    0.05672   0.06033   0.06700   0.06919   0.07010
 Alpha virt. eigenvalues --    0.07722   0.07826   0.08293   0.08571   0.08831
 Alpha virt. eigenvalues --    0.09159   0.09430   0.10084   0.10208   0.10473
 Alpha virt. eigenvalues --    0.11155   0.11467   0.11915   0.12100   0.12754
 Alpha virt. eigenvalues --    0.13083   0.13184   0.13404   0.13823   0.14220
 Alpha virt. eigenvalues --    0.15175   0.15804   0.16817   0.16856   0.17160
 Alpha virt. eigenvalues --    0.17482   0.17759   0.18755   0.19049   0.19262
 Alpha virt. eigenvalues --    0.19606   0.20963   0.21562   0.21726   0.22080
 Alpha virt. eigenvalues --    0.23282   0.23728   0.24345   0.26358   0.26540
 Alpha virt. eigenvalues --    0.26873   0.27721   0.28403   0.28617   0.30967
 Alpha virt. eigenvalues --    0.33670   0.34488   0.37123   0.38495   0.39808
 Alpha virt. eigenvalues --    0.41235   0.41312   0.42069   0.42404   0.43009
 Alpha virt. eigenvalues --    0.43307   0.43967   0.44683   0.45122   0.45666
 Alpha virt. eigenvalues --    0.47253   0.48557   0.48805   0.49199   0.49891
 Alpha virt. eigenvalues --    0.50511   0.50698   0.51922   0.52451   0.52844
 Alpha virt. eigenvalues --    0.53226   0.53864   0.54818   0.55399   0.55724
 Alpha virt. eigenvalues --    0.57026   0.57826   0.58093   0.61040   0.61350
 Alpha virt. eigenvalues --    0.62317   0.63072   0.63375   0.63724   0.64170
 Alpha virt. eigenvalues --    0.65399   0.67905   0.68841   0.70189   0.71509
 Alpha virt. eigenvalues --    0.71916   0.73695   0.74328   0.75048   0.75600
 Alpha virt. eigenvalues --    0.76183   0.76485   0.76923   0.78191   0.79175
 Alpha virt. eigenvalues --    0.79772   0.80263   0.81161   0.82357   0.82864
 Alpha virt. eigenvalues --    0.83718   0.85941   0.86834   0.87290   0.88230
 Alpha virt. eigenvalues --    0.89376   0.90385   0.91502   0.93547   0.94854
 Alpha virt. eigenvalues --    0.95418   0.96232   0.99044   0.99458   1.00762
 Alpha virt. eigenvalues --    1.02003   1.02518   1.03307   1.04808   1.06555
 Alpha virt. eigenvalues --    1.09612   1.16019   1.18523   1.21923   1.23633
 Alpha virt. eigenvalues --    1.25658   1.29525   1.32073   1.34940   1.35690
 Alpha virt. eigenvalues --    1.36394   1.37843   1.38662   1.39459   1.40607
 Alpha virt. eigenvalues --    1.41714   1.42292   1.42944   1.43157   1.45116
 Alpha virt. eigenvalues --    1.45733   1.47122   1.48047   1.48723   1.51678
 Alpha virt. eigenvalues --    1.54097   1.54467   1.54970   1.56015   1.56939
 Alpha virt. eigenvalues --    1.60158   1.63653   1.64124   1.64321   1.64551
 Alpha virt. eigenvalues --    1.65848   1.68378   1.69028   1.69371   1.73032
 Alpha virt. eigenvalues --    1.73574   1.74990   1.75626   1.77105   1.78203
 Alpha virt. eigenvalues --    1.79722   1.80287   1.80917   1.82133   1.82675
 Alpha virt. eigenvalues --    1.83907   1.84072   1.85458   1.86386   1.86971
 Alpha virt. eigenvalues --    1.89500   1.92000   1.92907   1.94170   1.96057
 Alpha virt. eigenvalues --    1.96225   1.98663   1.99179   2.03162   2.05213
 Alpha virt. eigenvalues --    2.07153   2.09626   2.12849   2.13472   2.15872
 Alpha virt. eigenvalues --    2.16228   2.18433   2.21161   2.27221   2.29777
 Alpha virt. eigenvalues --    2.31811   2.32811   2.35695   2.37709   2.38485
 Alpha virt. eigenvalues --    2.39130   2.40392   2.42150   2.46395   2.47755
 Alpha virt. eigenvalues --    2.50879   2.54820   2.56979   2.57427   2.58365
 Alpha virt. eigenvalues --    2.59672   2.60568   2.61026   2.61695   2.62628
 Alpha virt. eigenvalues --    2.63007   2.63304   2.63858   2.64307   2.65485
 Alpha virt. eigenvalues --    2.65939   2.66802   2.67769   2.71135   2.72803
 Alpha virt. eigenvalues --    2.73103   2.74210   2.75968   2.79208   2.81426
 Alpha virt. eigenvalues --    2.82377   2.84611   2.85068   2.90004   2.93111
 Alpha virt. eigenvalues --    2.97545   2.97937   2.99892   3.04127   3.08375
 Alpha virt. eigenvalues --    3.09253   3.14623   3.16727   3.21648   3.23014
 Alpha virt. eigenvalues --    3.25319   3.26531   3.28775   3.39023   3.40711
 Alpha virt. eigenvalues --    3.41519   3.44491   3.45704   3.47523   3.51015
 Alpha virt. eigenvalues --    3.65566   3.67098   3.88098   3.92376   3.96999
 Alpha virt. eigenvalues --    3.98418   4.07377   4.08825   4.10937   4.13671
 Alpha virt. eigenvalues --    4.27644   4.52442   4.64049   4.65867  23.46975
 Alpha virt. eigenvalues --   23.60517  23.74080  23.77997  23.80481  23.82954
 Alpha virt. eigenvalues --   23.85718  23.89004  23.90942  23.92802  23.94146
 Alpha virt. eigenvalues --   23.96914  24.02488  24.09594
          Condensed to atoms (all electrons):
               1          2          3          4          5          6
     1  C   14.839142  -1.146987  -1.124149   3.148832  -0.479039   0.050185
     2  C   -1.146987   7.183452   0.237407  -1.561584   0.050187  -0.027522
     3  C   -1.124149   0.237407   6.628107   0.796514  -0.026498   0.004233
     4  C    3.148832  -1.561584   0.796514  11.869353  -0.668789  -0.036381
     5  C   -0.479039   0.050187  -0.026498  -0.668789  11.624555   0.029180
     6  C    0.050185  -0.027522   0.004233  -0.036381   0.029180   6.889592
     7  C    0.056713   0.002078  -0.016818   0.027796  -1.202884   0.270203
     8  C   -0.762394   0.087587   0.003804  -0.226741   3.345666  -1.363315
     9  C    0.450907  -0.968841   0.227180   0.844605  -0.823037   0.043592
    10  C    0.081845   0.107812  -0.590712  -2.105114  -0.502596  -0.602387
    11  C   -6.097332   0.479910   1.433890  -1.383024  -0.601564  -0.047439
    12  C   -4.111560   1.933505  -0.935692  -4.044282   0.830328  -0.650861
    13  C    0.262583  -0.094243  -0.056978  -1.288700  -1.162406   1.623110
    14  C    0.759200  -0.310441  -0.454207   0.411488  -4.598580  -0.094781
    15  H    0.490144  -0.134844   0.000706   0.051992  -0.002203   0.002040
    16  H   -0.093013   0.410168  -0.015878  -0.010904  -0.000415  -0.000424
    17  H   -0.041790  -0.031126   0.404797  -0.081767   0.000358   0.000184
    18  H    0.103384   0.000672  -0.144018   0.497143  -0.001866  -0.003048
    19  H   -0.028313  -0.008336   0.035800  -0.044864  -0.030539   0.047970
    20  H   -0.001289   0.002869  -0.003404  -0.000966   0.495373  -0.129640
    21  H    0.000344  -0.000529   0.000316   0.000899  -0.091854   0.386675
    22  H    0.001220   0.000456  -0.000349  -0.001045  -0.009458  -0.022780
    23  H   -0.010717  -0.001368   0.002014   0.000349   0.044377  -0.004227
    24  H   -0.065040   0.028324  -0.000195  -0.014794  -0.001618  -0.013973
    25  H    0.056302  -0.010332  -0.002166  -0.006352  -0.001921   0.011238
               7          8          9         10         11         12
     1  C    0.056713  -0.762394   0.450907   0.081845  -6.097332  -4.111560
     2  C    0.002078   0.087587  -0.968841   0.107812   0.479910   1.933505
     3  C   -0.016818   0.003804   0.227180  -0.590712   1.433890  -0.935692
     4  C    0.027796  -0.226741   0.844605  -2.105114  -1.383024  -4.044282
     5  C   -1.202884   3.345666  -0.823037  -0.502596  -0.601564   0.830328
     6  C    0.270203  -1.363315   0.043592  -0.602387  -0.047439  -0.650861
     7  C    6.839227  -0.103678  -0.224266   0.024181  -0.251849  -0.111416
     8  C   -0.103678  11.734855  -0.983216   0.184881   0.925947   0.070195
     9  C   -0.224266  -0.983216   9.069889   0.524667  -0.533249  -2.354847
    10  C    0.024181   0.184881   0.524667   8.574216  -0.872419   1.211787
    11  C   -0.251849   0.925947  -0.533249  -0.872419  19.447942  -3.292967
    12  C   -0.111416   0.070195  -2.354847   1.211787  -3.292967  20.967508
    13  C   -0.566026  -2.996937   0.842400  -0.577434   2.153572  -4.450768
    14  C    1.339759  -4.253747  -0.409376   0.093748  -5.307497   0.306185
    15  H   -0.001159  -0.015370   0.102695  -0.003834  -0.149468  -0.035514
    16  H    0.000348   0.001877  -0.005979  -0.007471   0.064683  -0.007124
    17  H   -0.000280   0.000357   0.001249  -0.003384   0.030874   0.065623
    18  H    0.002517  -0.000950  -0.018957   0.081475  -0.089558  -0.108508
    19  H   -0.011658  -0.027376   0.053732   0.406475   0.054308  -0.094120
    20  H    0.008350   0.074215  -0.022987   0.090244  -0.009944   0.043584
    21  H   -0.020269  -0.035312  -0.004520   0.004282  -0.002859  -0.002397
    22  H    0.411243  -0.064922   0.000748  -0.008755   0.004084  -0.007290
    23  H   -0.134722   0.446981   0.060940  -0.000435   0.020874   0.011101
    24  H    0.007080   0.088363   0.367251   0.009292   0.106479  -0.048089
    25  H    0.005586  -0.038860   0.345189   0.005125  -0.052680  -0.023012
              13         14         15         16         17         18
     1  C    0.262583   0.759200   0.490144  -0.093013  -0.041790   0.103384
     2  C   -0.094243  -0.310441  -0.134844   0.410168  -0.031126   0.000672
     3  C   -0.056978  -0.454207   0.000706  -0.015878   0.404797  -0.144018
     4  C   -1.288700   0.411488   0.051992  -0.010904  -0.081767   0.497143
     5  C   -1.162406  -4.598580  -0.002203  -0.000415   0.000358  -0.001866
     6  C    1.623110  -0.094781   0.002040  -0.000424   0.000184  -0.003048
     7  C   -0.566026   1.339759  -0.001159   0.000348  -0.000280   0.002517
     8  C   -2.996937  -4.253747  -0.015370   0.001877   0.000357  -0.000950
     9  C    0.842400  -0.409376   0.102695  -0.005979   0.001249  -0.018957
    10  C   -0.577434   0.093748  -0.003834  -0.007471  -0.003384   0.081475
    11  C    2.153572  -5.307497  -0.149468   0.064683   0.030874  -0.089558
    12  C   -4.450768   0.306185  -0.035514  -0.007124   0.065623  -0.108508
    13  C   15.158464  -2.519795   0.001398   0.002124  -0.001150  -0.018271
    14  C   -2.519795  20.467976   0.026628  -0.009035  -0.003953   0.046799
    15  H    0.001398   0.026628   0.453513  -0.012597   0.001105   0.000638
    16  H    0.002124  -0.009035  -0.012597   0.424265  -0.007015   0.002040
    17  H   -0.001150  -0.003953   0.001105  -0.007015   0.431119  -0.015360
    18  H   -0.018271   0.046799   0.000638   0.002040  -0.015360   0.481827
    19  H    0.061210  -0.043731   0.000361  -0.000463   0.001264  -0.008082
    20  H   -0.048799  -0.161320  -0.000135   0.000034  -0.000146   0.001227
    21  H    0.004230   0.098378   0.000024  -0.000009   0.000012  -0.000165
    22  H    0.051537  -0.018812  -0.000149   0.000012  -0.000007   0.000030
    23  H   -0.045990  -0.056947   0.000862  -0.000152   0.000029  -0.000219
    24  H   -0.034620  -0.089596  -0.008784   0.001414  -0.000225   0.000479
    25  H    0.040274   0.001865   0.004516  -0.000018   0.000053  -0.000428
              19         20         21         22         23         24
     1  C   -0.028313  -0.001289   0.000344   0.001220  -0.010717  -0.065040
     2  C   -0.008336   0.002869  -0.000529   0.000456  -0.001368   0.028324
     3  C    0.035800  -0.003404   0.000316  -0.000349   0.002014  -0.000195
     4  C   -0.044864  -0.000966   0.000899  -0.001045   0.000349  -0.014794
     5  C   -0.030539   0.495373  -0.091854  -0.009458   0.044377  -0.001618
     6  C    0.047970  -0.129640   0.386675  -0.022780  -0.004227  -0.013973
     7  C   -0.011658   0.008350  -0.020269   0.411243  -0.134722   0.007080
     8  C   -0.027376   0.074215  -0.035312  -0.064922   0.446981   0.088363
     9  C    0.053732  -0.022987  -0.004520   0.000748   0.060940   0.367251
    10  C    0.406475   0.090244   0.004282  -0.008755  -0.000435   0.009292
    11  C    0.054308  -0.009944  -0.002859   0.004084   0.020874   0.106479
    12  C   -0.094120   0.043584  -0.002397  -0.007290   0.011101  -0.048089
    13  C    0.061210  -0.048799   0.004230   0.051537  -0.045990  -0.034620
    14  C   -0.043731  -0.161320   0.098378  -0.018812  -0.056947  -0.089596
    15  H    0.000361  -0.000135   0.000024  -0.000149   0.000862  -0.008784
    16  H   -0.000463   0.000034  -0.000009   0.000012  -0.000152   0.001414
    17  H    0.001264  -0.000146   0.000012  -0.000007   0.000029  -0.000225
    18  H   -0.008082   0.001227  -0.000165   0.000030  -0.000219   0.000479
    19  H    0.431867  -0.006882   0.001600  -0.000608   0.000608   0.000176
    20  H   -0.006882   0.456317  -0.011393   0.001971   0.000360   0.000178
    21  H    0.001600  -0.011393   0.432852  -0.007652   0.001118  -0.000436
    22  H   -0.000608   0.001971  -0.007652   0.427054  -0.012179   0.001400
    23  H    0.000608   0.000360   0.001118  -0.012179   0.453383   0.000704
    24  H    0.000176   0.000178  -0.000436   0.001400   0.000704   0.492282
    25  H    0.000650   0.000003   0.000288  -0.000170  -0.003898  -0.086181
              25
     1  C    0.056302
     2  C   -0.010332
     3  C   -0.002166
     4  C   -0.006352
     5  C   -0.001921
     6  C    0.011238
     7  C    0.005586
     8  C   -0.038860
     9  C    0.345189
    10  C    0.005125
    11  C   -0.052680
    12  C   -0.023012
    13  C    0.040274
    14  C    0.001865
    15  H    0.004516
    16  H   -0.000018
    17  H    0.000053
    18  H   -0.000428
    19  H    0.000650
    20  H    0.000003
    21  H    0.000288
    22  H   -0.000170
    23  H   -0.003898
    24  H   -0.086181
    25  H    0.480187
 Mulliken charges:
               1
     1  C   -0.339180
     2  C   -0.228273
     3  C   -0.403703
     4  C   -0.173663
     5  C   -0.214756
     6  C   -0.361422
     7  C   -0.350055
     8  C   -0.091913
     9  C   -0.585770
    10  C   -0.125486
    11  C   -0.030715
    12  C    0.838632
    13  C   -0.338783
    14  C    0.779791
    15  H    0.227435
    16  H    0.263533
    17  H    0.249178
    18  H    0.191198
    19  H    0.208951
    20  H    0.222182
    21  H    0.246376
    22  H    0.254422
    23  H    0.227151
    24  H    0.260128
    25  H    0.274742
 Sum of Mulliken charges =   1.00000
 Mulliken charges with hydrogens summed into heavy atoms:
               1
     1  C   -0.111744
     2  C    0.035259
     3  C   -0.154524
     4  C    0.017535
     5  C    0.007425
     6  C   -0.115046
     7  C   -0.095632
     8  C    0.135238
     9  C   -0.050900
    10  C    0.083465
    11  C   -0.030715
    12  C    0.838632
    13  C   -0.338783
    14  C    0.779791
 Electronic spatial extent (au):  <R**2>=           2887.3107
 Charge=              1.0000 electrons
 Dipole moment (field-independent basis, Debye):
    X=             -0.0212    Y=              0.0892    Z=             -0.0101  Tot=              0.0922
 Quadrupole moment (field-independent basis, Debye-Ang):
   XX=            -33.3744   YY=            -53.5333   ZZ=            -85.1186
   XY=              0.2772   XZ=              0.3931   YZ=              0.5372
 Traceless Quadrupole moment (field-independent basis, Debye-Ang):
   XX=             23.9677   YY=              3.8088   ZZ=            -27.7765
   XY=              0.2772   XZ=              0.3931   YZ=              0.5372
 Octapole moment (field-independent basis, Debye-Ang**2):
  XXX=             -1.1390  YYY=              4.7711  ZZZ=              0.0396  XYY=              0.0214
  XXY=             -8.9383  XXZ=             -0.0077  XZZ=              0.0464  YZZ=             -3.0235
  YYZ=              0.4214  XYZ=              0.3052
 Hexadecapole moment (field-independent basis, Debye-Ang**3):
 XXXX=          -2183.4393 YYYY=           -621.1799 ZZZZ=           -102.7814 XXXY=             -3.8347
 XXXZ=              9.3790 YYYX=              5.3900 YYYZ=              2.3426 ZZZX=              0.4422
 ZZZY=              0.3552 XXYY=           -507.4018 XXZZ=           -596.9669 YYZZ=           -153.0281
 XXYZ=             11.3454 YYXZ=              1.0708 ZZXY=             -1.3225
 N-N= 7.723958552766D+02 E-N=-2.780520199364D+03  KE= 5.366939878057D+02
 Unable to Open any file for archive entry.
 1\1\GINC-GADI-CPU-CLX-0572\SP\RM062X TD-FC\6-311++G(d,p)\C14H11(1+)\TS
 1578\27-Jul-2022\0\\#n M062X/6-311++G(d,p) TD(NStates=1) EmpiricalDisp
 ersion=GD3 SP\\SP_3\\1,1\C,0,2.4927,1.4411,0.051\C,0,3.7015,0.7347,0.0
 33\C,0,3.6839,-0.6871,0.048\C,0,2.4632,-1.4409,-0.036\C,0,-2.4632,-1.4
 769,-0.084\C,0,-3.6839,-0.6691,-0.048\C,0,-3.7015,0.7347,-0.015\C,0,-2
 .4927,1.3931,0.051\C,0,0.,1.4861,0.099\C,0,0.,-1.5075,-0.081\C,0,1.262
 1,0.6707,-0.009\C,0,1.2375,-0.7401,-0.036\C,0,-1.2621,0.6467,0.057\C,0
 ,-1.2375,-0.7581,-0.042\H,0,2.4881,2.5093,0.054\H,0,4.6368,1.3014,-0.0
 15\H,0,4.6093,-1.2427,0.048\H,0,2.4675,-2.4544,-0.039\H,0,0.,-2.5766,-
 0.084\H,0,-2.4675,-2.5624,-0.087\H,0,-4.6093,-1.2787,0.036\H,0,-4.6368
 ,1.2474,-0.057\H,0,-2.4881,2.4253,0.054\H,0,-0.006,2.2865,-0.7696\H,0,
 0.006,2.2865,0.9496\\Version=ES64L-G16RevC.01\State=1-A\HF=-539.717571
 3\RMSD=7.557e-09\PG=C01 [X(C14H11)]\\@
 The archive entry for this job was punched.


 WOE UNTO THEM THAT CALL EVIL GOOD, AND GOOD EVIL      
 Job cpu time:       0 days  1 hours 12 minutes 10.1 seconds.
 Elapsed time:       0 days  0 hours  2 minutes 16.0 seconds.
 File lengths (MBytes):  RWF=    461 Int=      0 D2E=      0 Chk=     15 Scr=      1
 Normal termination of Gaussian 16 at Wed Jul 27 11:50:48 2022.
