 Entering Gaussian System, Link 0=g16
 Initial command:
 /apps/gaussian/g16c01/g16/l1.exe "/jobfs/52803152.gadi-pbs/Gau-2950184.inp" -scrdir="/jobfs/52803152.gadi-pbs/"
 Entering Link 1 = /apps/gaussian/g16c01/g16/l1.exe PID=   2950185.
  
 Copyright (c) 1988-2019, Gaussian, Inc.  All Rights Reserved.
  
 This is part of the Gaussian(R) 16 program.  It is based on
 the Gaussian(R) 09 system (copyright 2009, Gaussian, Inc.),
 the Gaussian(R) 03 system (copyright 2003, Gaussian, Inc.),
 the Gaussian(R) 98 system (copyright 1998, Gaussian, Inc.),
 the Gaussian(R) 94 system (copyright 1995, Gaussian, Inc.),
 the Gaussian 92(TM) system (copyright 1992, Gaussian, Inc.),
 the Gaussian 90(TM) system (copyright 1990, Gaussian, Inc.),
 the Gaussian 88(TM) system (copyright 1988, Gaussian, Inc.),
 the Gaussian 86(TM) system (copyright 1986, Carnegie Mellon
 University), and the Gaussian 82(TM) system (copyright 1983,
 Carnegie Mellon University). Gaussian is a federally registered
 trademark of Gaussian, Inc.
  
 This software contains proprietary and confidential information,
 including trade secrets, belonging to Gaussian, Inc.
  
 This software is provided under written license and may be
 used, copied, transmitted, or stored only in accord with that
 written license.
  
 The following legend is applicable only to US Government
 contracts under FAR:
  
                    RESTRICTED RIGHTS LEGEND
  
 Use, reproduction and disclosure by the US Government is
 subject to restrictions as set forth in subparagraphs (a)
 and (c) of the Commercial Computer Software - Restricted
 Rights clause in FAR 52.227-19.
  
 Gaussian, Inc.
 340 Quinnipiac St., Bldg. 40, Wallingford CT 06492
  
  
 ---------------------------------------------------------------
 Warning -- This program may not be used in any manner that
 competes with the business of Gaussian, Inc. or will provide
 assistance to any competitor of Gaussian, Inc.  The licensee
 of this program is prohibited from giving any competitor of
 Gaussian, Inc. access to this program.  By using this program,
 the user acknowledges that Gaussian, Inc. is engaged in the
 business of creating and licensing software in the field of
 computational chemistry and represents and warrants to the
 licensee that it is not a competitor of Gaussian, Inc. and that
 it will not use this program in any manner prohibited above.
 ---------------------------------------------------------------
  

 Cite this work as:
 Gaussian 16, Revision C.01,
 M. J. Frisch, G. W. Trucks, H. B. Schlegel, G. E. Scuseria, 
 M. A. Robb, J. R. Cheeseman, G. Scalmani, V. Barone, 
 G. A. Petersson, H. Nakatsuji, X. Li, M. Caricato, A. V. Marenich, 
 J. Bloino, B. G. Janesko, R. Gomperts, B. Mennucci, H. P. Hratchian, 
 J. V. Ortiz, A. F. Izmaylov, J. L. Sonnenberg, D. Williams-Young, 
 F. Ding, F. Lipparini, F. Egidi, J. Goings, B. Peng, A. Petrone, 
 T. Henderson, D. Ranasinghe, V. G. Zakrzewski, J. Gao, N. Rega, 
 G. Zheng, W. Liang, M. Hada, M. Ehara, K. Toyota, R. Fukuda, 
 J. Hasegawa, M. Ishida, T. Nakajima, Y. Honda, O. Kitao, H. Nakai, 
 T. Vreven, K. Throssell, J. A. Montgomery, Jr., J. E. Peralta, 
 F. Ogliaro, M. J. Bearpark, J. J. Heyd, E. N. Brothers, K. N. Kudin, 
 V. N. Staroverov, T. A. Keith, R. Kobayashi, J. Normand, 
 K. Raghavachari, A. P. Rendell, J. C. Burant, S. S. Iyengar, 
 J. Tomasi, M. Cossi, J. M. Millam, M. Klene, C. Adamo, R. Cammi, 
 J. W. Ochterski, R. L. Martin, K. Morokuma, O. Farkas, 
 J. B. Foresman, and D. J. Fox, Gaussian, Inc., Wallingford CT, 2019.
 
 ******************************************
 Gaussian 16:  ES64L-G16RevC.01  3-Jul-2019
                27-Jul-2022 
 ******************************************
 %NProcShared=32
 Will use up to   32 processors via shared memory.
 %mem = 128GB
 ---------------------------------------------------------------
 #n M062X/6-311++G(d,p) TD(NStates=1) EmpiricalDispersion=GD3 SP
 ---------------------------------------------------------------
 1/38=1,172=1/1;
 2/12=2,17=6,18=5,40=1/2;
 3/5=4,6=6,7=1111,11=9,25=1,30=1,74=-55,124=31/1,2,3,8;
 4//1;
 5/5=2,38=5/2;
 8/6=1,10=2,108=1/1;
 9/41=1,42=1,70=2/14;
 6/7=2,8=2,9=2,10=2/1;
 99/5=1,9=1/99;
 ----
 SP_3
 ----
 Symbolic Z-matrix:
 Charge =  1 Multiplicity = 1
 C                     2.4927    1.3771    0.051 
 C                     3.7015    0.6627    0.001 
 C                     3.6839   -0.7231   -0.016 
 C                     2.4632   -1.3609   -0.068 
 C                    -2.4632   -1.3969   -0.052 
 C                    -3.6839   -0.7051    0.016 
 C                    -3.7015    0.6627    0.017 
 C                    -2.4927    1.3291    0.051 
 C                     0.        1.4541    0.099 
 C                     0.       -1.3915   -0.081 
 C                     1.2621    0.7067    0.035 
 C                     1.2375   -0.7041   -0.04 
 C                    -1.2621    0.6827    0.013 
 C                    -1.2375   -0.7221   -0.038 
 H                     2.4881    2.4893    0.054 
 H                     4.6368    1.2294   -0.043 
 H                     4.6093   -1.2467    0.04 
 H                     2.4675   -2.4184   -0.071 
 H                     0.       -2.4766   -0.084 
 H                    -2.4675   -2.5264   -0.055 
 H                    -4.6093   -1.2827    0.044 
 H                    -4.6368    1.1754   -0.029 
 H                    -2.4881    2.4053    0.054 
 H                    -0.006     2.1105   -0.7696 
 H                     0.006     2.1105    0.9496 
 
                          Input orientation:                          
 ---------------------------------------------------------------------
 Center     Atomic      Atomic             Coordinates (Angstroms)
 Number     Number       Type             X           Y           Z
 ---------------------------------------------------------------------
      1          6           0        2.492700    1.377100    0.051000
      2          6           0        3.701500    0.662700    0.001000
      3          6           0        3.683900   -0.723100   -0.016000
      4          6           0        2.463200   -1.360900   -0.068000
      5          6           0       -2.463200   -1.396900   -0.052000
      6          6           0       -3.683900   -0.705100    0.016000
      7          6           0       -3.701500    0.662700    0.017000
      8          6           0       -2.492700    1.329100    0.051000
      9          6           0        0.000000    1.454100    0.099000
     10          6           0        0.000000   -1.391500   -0.081000
     11          6           0        1.262100    0.706700    0.035000
     12          6           0        1.237500   -0.704100   -0.040000
     13          6           0       -1.262100    0.682700    0.013000
     14          6           0       -1.237500   -0.722100   -0.038000
     15          1           0        2.488100    2.489300    0.054000
     16          1           0        4.636800    1.229400   -0.043000
     17          1           0        4.609300   -1.246700    0.040000
     18          1           0        2.467500   -2.418400   -0.071000
     19          1           0        0.000000   -2.476600   -0.084000
     20          1           0       -2.467500   -2.526400   -0.055000
     21          1           0       -4.609300   -1.282700    0.044000
     22          1           0       -4.636800    1.175400   -0.029000
     23          1           0       -2.488100    2.405300    0.054000
     24          1           0       -0.006000    2.110500   -0.769600
     25          1           0        0.006000    2.110500    0.949600
 ---------------------------------------------------------------------
                    Distance matrix (angstroms):
                    1          2          3          4          5
     1  C    0.000000
     2  C    1.405014   0.000000
     3  C    2.415427   1.386016   0.000000
     4  C    2.740744   2.373416   1.378260   0.000000
     5  C    5.680372   6.499868   6.184023   4.926558   0.000000
     6  C    6.518218   7.511008   7.367891   6.182554   1.404749
     7  C    6.235354   7.403017   7.514364   6.488891   2.404184
     8  C    4.985631   6.230145   6.508948   5.640142   2.728105
     9  C    2.494351   3.786426   4.280718   3.744258   3.770724
    10  C    3.727750   4.234095   3.744610   2.463424   2.463377
    11  C    1.401452   2.440034   2.812836   2.393370   4.279084
    12  C    2.432119   2.817999   2.446591   1.390867   3.765009
    13  C    3.818659   4.963655   5.141987   4.249791   2.402416
    14  C    4.281233   5.129611   4.921449   3.755549   1.399247
    15  H    1.112214   2.193540   3.428462   3.852213   6.295169
    16  H    2.151236   1.094473   2.172787   3.381540   7.570174
    17  H    3.371119   2.114576   1.064734   2.151848   7.074693
    18  H    3.797544   3.319807   2.087270   1.057513   5.035437
    19  H    4.591599   4.854228   4.080503   2.704144   2.689634
    20  H    6.312855   6.944786   6.410393   5.066593   1.129512
    21  H    7.583732   8.535562   8.312275   7.073819   2.151279
    22  H    7.132801   8.354101   8.534549   7.539518   3.367758
    23  H    5.085821   6.430444   6.919926   6.222099   3.803759
    24  H    2.730341   4.054073   4.713021   4.317385   4.342193
    25  H    2.743909   4.080770   4.742217   4.373095   4.404771
                    6          7          8          9         10
     6  C    0.000000
     7  C    1.367914   0.000000
     8  C    2.357573   1.380740   0.000000
     9  C    4.270849   3.786045   2.496294   0.000000
    10  C    3.748556   4.234435   3.692241   2.851287   0.000000
    11  C    5.143584   4.963828   3.806069   1.468196   2.451284
    12  C    4.921719   5.124950   4.249303   2.491697   1.416194
    13  C    2.791257   2.439485   1.390559   1.481671   2.429823
    14  C    2.447055   2.827011   2.406423   2.507194   1.407605
    15  H    6.949764   6.453602   5.114141   2.695238   4.611884
    16  H    8.542823   8.357751   7.130817   4.644413   5.326394
    17  H    8.310901   8.527352   7.554685   5.342607   4.613161
    18  H    6.386132   6.896193   6.217895   4.594966   2.672673
    19  H    4.088928   4.854535   4.551388   3.934958   1.085104
    20  H    2.191302   3.420278   3.857039   4.685793   2.716106
    21  H    1.091225   2.146954   3.361777   5.360853   4.612278
    22  H    2.108631   1.067597   2.151090   4.646931   5.300150
    23  H    3.332562   2.123762   1.076214   2.664104   4.541427
    24  H    4.698055   4.046181   2.732700   1.088744   3.569063
    25  H    4.734403   4.087961   2.767954   1.074438   3.650504
                   11         12         13         14         15
    11  C    0.000000
    12  C    1.413006   0.000000
    13  C    2.524410   2.859025   0.000000
    14  C    2.880069   2.475066   1.405941   0.000000
    15  H    2.163585   3.430837   4.162870   4.919517   0.000000
    16  H    3.415831   3.910712   5.924444   6.189974   2.492723
    17  H    3.875506   3.416116   6.180344   5.870806   4.296205
    18  H    3.351190   2.110139   4.851164   4.074991   4.909335
    19  H    3.426435   2.162198   3.403451   2.147508   5.556064
    20  H    4.936694   4.128926   3.428693   2.183732   7.051744
    21  H    6.199285   5.875960   3.881689   3.419069   8.037485
    22  H    5.917837   6.167661   3.410736   3.893049   7.245510
    23  H    4.116990   4.853586   2.114736   3.369435   4.976909
    24  H    2.055751   3.162370   2.056420   3.174185   2.653741
    25  H    2.094024   3.227673   2.126949   3.247348   2.665785
                   16         17         18         19         20
    16  H    0.000000
    17  H    2.477643   0.000000
    18  H    4.244183   2.443872   0.000000
    19  H    5.935995   4.772177   2.468221   0.000000
    20  H    8.035998   7.192201   4.936208   2.468173   0.000000
    21  H    9.581679   9.218671   7.168273   4.763132   2.478689
    22  H    9.273768   9.558331   7.961673   5.902545   4.290671
    23  H    7.221935   7.981879   6.916768   5.481116   4.932947
    24  H    4.781200   5.764307   5.207416   4.638057   5.298158
    25  H    4.817250   5.769622   5.254669   4.702111   5.350539
                   21         22         23         24         25
    21  H    0.000000
    22  H    2.459337   0.000000
    23  H    4.254519   2.477187   0.000000
    24  H    5.776342   4.781967   2.631738   0.000000
    25  H    5.799561   4.836079   2.666372   1.719242   0.000000
 Stoichiometry    C14H11(1+)
 Framework group  C1[X(C14H11)]
 Deg. of freedom    69
 Full point group                 C1      NOp   1
 Largest Abelian subgroup         C1      NOp   1
 Largest concise Abelian subgroup C1      NOp   1
                         Standard orientation:                         
 ---------------------------------------------------------------------
 Center     Atomic      Atomic             Coordinates (Angstroms)
 Number     Number       Type             X           Y           Z
 ---------------------------------------------------------------------
      1          6           0       -2.498361   -1.359273    0.006501
      2          6           0       -3.704226   -0.638513   -0.014962
      3          6           0       -3.680798    0.746906    0.018264
      4          6           0       -2.457517    1.381095   -0.013197
      5          6           0        2.469014    1.396021   -0.006489
      6          6           0        3.686910    0.697144    0.033757
      7          6           0        3.698725   -0.669854   -0.014882
      8          6           0        2.487187   -1.332020   -0.002472
      9          6           0       -0.005918   -1.448320    0.046321
     10          6           0        0.005760    1.401912   -0.030372
     11          6           0       -1.264971   -0.693853    0.012178
     12          6           0       -1.234553    0.718625   -0.011667
     13          6           0        1.259259   -0.679559   -0.014362
     14          6           0        1.240500    0.726256   -0.014334
     15          1           0       -2.498460   -2.470860   -0.030842
     16          1           0       -4.642001   -1.199353   -0.077473
     17          1           0       -4.603861    1.271971    0.095203
     18          1           0       -2.457349    2.438017    0.022162
     19          1           0        0.010344    2.486397    0.005978
     20          1           0        2.478086    2.524859    0.031462
     21          1           0        4.614799    1.269498    0.080695
     22          1           0        4.631754   -1.184430   -0.081453
     23          1           0        2.478041   -2.407592   -0.038489
     24          1           0       -0.004430   -2.072802   -0.845522
     25          1           0       -0.012997   -2.135110    0.872570
 ---------------------------------------------------------------------
 Rotational constants (GHZ):           2.1745576           0.4445724           0.3699697
 Standard basis: 6-311++G(d,p) (5D, 7F)
 There are   399 symmetry adapted cartesian basis functions of A   symmetry.
 There are   385 symmetry adapted basis functions of A   symmetry.
   385 basis functions,   603 primitive gaussians,   399 cartesian basis functions
    47 alpha electrons       47 beta electrons
       nuclear repulsion energy       783.7440099865 Hartrees.
 NAtoms=   25 NActive=   25 NUniq=   25 SFac= 1.00D+00 NAtFMM=   60 NAOKFM=F Big=F
 Integral buffers will be    131072 words long.
 Regular integral format.
 Two-electron integral symmetry is turned on.
 Nuclear repulsion after empirical dispersion term =      783.7430347859 Hartrees.
 One-electron integrals computed using PRISM.
 NBasis=   385 RedAO= T EigKep=  1.38D-06  NBF=   385
 NBsUse=   379 1.00D-06 EigRej=  7.93D-07 NBFU=   379
 ExpMin= 3.60D-02 ExpMax= 4.56D+03 ExpMxC= 6.82D+02 IAcc=3 IRadAn=         5 AccDes= 0.00D+00
 Harris functional with IExCor= 1009 and IRadAn=       5 diagonalized for initial guess.
 HarFok:  IExCor= 1009 AccDes= 0.00D+00 IRadAn=         5 IDoV= 1 UseB2=F ITyADJ=14
 ICtDFT=  3500011 ScaDFX=  1.000000  1.000000  1.000000  1.000000
 FoFCou: FMM=F IPFlag=           0 FMFlag=      100000 FMFlg1=           0
         NFxFlg=           0 DoJE=T BraDBF=F KetDBF=T FulRan=T
         wScrn=  0.000000 ICntrl=       500 IOpCl=  0 I1Cent=   200000004 NGrid=           0
         NMat0=    1 NMatS0=      1 NMatT0=    0 NMatD0=    1 NMtDS0=    0 NMtDT0=    0
 Petite list used in FoFCou.
 Requested convergence on RMS density matrix=1.00D-08 within 128 cycles.
 Requested convergence on MAX density matrix=1.00D-06.
 Requested convergence on             energy=1.00D-06.
 No special actions if energy rises.
 SCF Done:  E(RM062X) =  -539.753166720     A.U. after   15 cycles
            NFock= 15  Conv=0.61D-08     -V/T= 2.0037
 DoSCS=F DFT=T ScalE2(SS,OS)=  1.000000  1.000000
 ExpMin= 3.60D-02 ExpMax= 4.56D+03 ExpMxC= 6.82D+02 IAcc=3 IRadAn=         5 AccDes= 0.00D+00
 HarFok:  IExCor=  205 AccDes= 0.00D+00 IRadAn=         5 IDoV=-2 UseB2=F ITyADJ=14
 ICtDFT= 12500011 ScaDFX=  1.000000  1.000000  1.000000  1.000000
 Range of M.O.s used for correlation:    15   379
 NBasis=   385 NAE=    47 NBE=    47 NFC=    14 NFV=     0
 NROrb=    365 NOA=    33 NOB=    33 NVA=   332 NVB=   332

 **** Warning!!: The largest alpha MO coefficient is  0.13591312D+03

 Orbital symmetries:
       Occupied  (A) (A) (A) (A) (A) (A) (A) (A) (A) (A) (A) (A)
                 (A) (A) (A) (A) (A) (A) (A) (A) (A) (A) (A) (A)
                 (A) (A) (A) (A) (A) (A) (A) (A) (A) (A) (A) (A)
                 (A) (A) (A) (A) (A) (A) (A) (A) (A) (A) (A)
       Virtual   (A) (A) (A) (A) (A) (A) (A) (A) (A) (A) (A) (A)
                 (A) (A) (A) (A) (A) (A) (A) (A) (A) (A) (A) (A)
                 (A) (A) (A) (A) (A) (A) (A) (A) (A) (A) (A) (A)
                 (A) (A) (A) (A) (A) (A) (A) (A) (A) (A) (A) (A)
                 (A) (A) (A) (A) (A) (A) (A) (A) (A) (A) (A) (A)
                 (A) (A) (A) (A) (A) (A) (A) (A) (A) (A) (A) (A)
                 (A) (A) (A) (A) (A) (A) (A) (A) (A) (A) (A) (A)
                 (A) (A) (A) (A) (A) (A) (A) (A) (A) (A) (A) (A)
                 (A) (A) (A) (A) (A) (A) (A) (A) (A) (A) (A) (A)
                 (A) (A) (A) (A) (A) (A) (A) (A) (A) (A) (A) (A)
                 (A) (A) (A) (A) (A) (A) (A) (A) (A) (A) (A) (A)
                 (A) (A) (A) (A) (A) (A) (A) (A) (A) (A) (A) (A)
                 (A) (A) (A) (A) (A) (A) (A) (A) (A) (A) (A) (A)
                 (A) (A) (A) (A) (A) (A) (A) (A) (A) (A) (A) (A)
                 (A) (A) (A) (A) (A) (A) (A) (A) (A) (A) (A) (A)
                 (A) (A) (A) (A) (A) (A) (A) (A) (A) (A) (A) (A)
                 (A) (A) (A) (A) (A) (A) (A) (A) (A) (A) (A) (A)
                 (A) (A) (A) (A) (A) (A) (A) (A) (A) (A) (A) (A)
                 (A) (A) (A) (A) (A) (A) (A) (A) (A) (A) (A) (A)
                 (A) (A) (A) (A) (A) (A) (A) (A) (A) (A) (A) (A)
                 (A) (A) (A) (A) (A) (A) (A) (A) (A) (A) (A) (A)
                 (A) (A) (A) (A) (A) (A) (A) (A) (A) (A) (A) (A)
                 (A) (A) (A) (A) (A) (A) (A) (A) (A) (A) (A) (A)
                 (A) (A) (A) (A) (A) (A) (A) (A) (A) (A) (A) (A)
                 (A) (A) (A) (A) (A) (A) (A) (A) (A) (A) (A) (A)
                 (A) (A) (A) (A) (A) (A) (A) (A) (A) (A) (A) (A)
                 (A) (A) (A) (A) (A) (A) (A) (A) (A) (A) (A) (A)
                 (A) (A) (A) (A) (A) (A) (A) (A)
     4 initial guesses have been made.
 Convergence on wavefunction:    0.001000000000000
 Iteration     1 Dimension     4 NMult     0 NNew      4
 CISAX will form     4 AO SS matrices at one time.
 Iteration     2 Dimension     6 NMult     4 NNew      2
 Iteration     3 Dimension     8 NMult     6 NNew      2
 Iteration     4 Dimension    10 NMult     8 NNew      2
 Iteration     5 Dimension    12 NMult    10 NNew      2
 Iteration     6 Dimension    14 NMult    12 NNew      2
 ***********************************************************************
 Excited states from <AA,BB:AA,BB> singles matrix:
 ***********************************************************************
 
 Ground to excited state transition densities written to RWF  633
 Ground to excited state transition electric dipole moments (Au):
       state          X           Y           Z        Dip. S.      Osc.
         1        -0.0290     -0.6332      0.0000      0.4018      0.0285
 Ground to excited state transition velocity dipole moments (Au):
       state          X           Y           Z        Dip. S.      Osc.
         1         0.0036      0.0750     -0.0000      0.0056      0.0353
 Ground to excited state transition magnetic dipole moments (Au):
       state          X           Y           Z
         1        -0.0161     -0.0029      0.0121
 Ground to excited state transition velocity quadrupole moments (Au):
       state          XX          YY          ZZ          XY          XZ          YZ
         1         0.2978      0.0397     -0.0088      0.0253      0.0018     -0.0013
 <0|del|b> * <b|rxdel|0> + <0|del|b> * <b|delr+rdel|0>
 Rotatory Strengths (R) in cgs (10**-40 erg-esu-cm/Gauss)
       state          XX          YY          ZZ    R(velocity)    E-M Angle
         1        -1.1849     -0.2078     -0.4511     -0.6146      100.43
 1/2[<0|r|b>*<b|rxdel|0> + (<0|rxdel|b>*<b|r|0>)*]
 Rotatory Strengths (R) in cgs (10**-40 erg-esu-cm/Gauss)
       state          XX          YY          ZZ     R(length)
         1        -0.3316     -1.3051     -0.0000     -0.5456
  1/2[<0|del|b>*<b|r|0> + (<0|r|b>*<b|del|0>)*] (Au)
       state          X           Y           Z        Dip. S.   Osc.(frdel)
         1        -0.0001     -0.0475     -0.0000      0.0476      0.0317

 Excitation energies and oscillator strengths:
 
 Excited State   1:      Singlet-A      2.8947 eV  428.32 nm  f=0.0285  <S**2>=0.000
      47 -> 48         0.70405
 This state for optimization and/or second-order correction.
 Total Energy, E(TD-HF/TD-DFT) =  -539.646789324    
 Copying the excited state density for this state as the 1-particle RhoCI density.
 SavETr:  write IOETrn=   770 NScale= 10 NData=  16 NLR=1 NState=    1 LETran=      28.

 **********************************************************************

            Population analysis using the SCF Density.

 **********************************************************************

 Orbital symmetries:
       Occupied  (A) (A) (A) (A) (A) (A) (A) (A) (A) (A) (A) (A)
                 (A) (A) (A) (A) (A) (A) (A) (A) (A) (A) (A) (A)
                 (A) (A) (A) (A) (A) (A) (A) (A) (A) (A) (A) (A)
                 (A) (A) (A) (A) (A) (A) (A) (A) (A) (A) (A)
       Virtual   (A) (A) (A) (A) (A) (A) (A) (A) (A) (A) (A) (A)
                 (A) (A) (A) (A) (A) (A) (A) (A) (A) (A) (A) (A)
                 (A) (A) (A) (A) (A) (A) (A) (A) (A) (A) (A) (A)
                 (A) (A) (A) (A) (A) (A) (A) (A) (A) (A) (A) (A)
                 (A) (A) (A) (A) (A) (A) (A) (A) (A) (A) (A) (A)
                 (A) (A) (A) (A) (A) (A) (A) (A) (A) (A) (A) (A)
                 (A) (A) (A) (A) (A) (A) (A) (A) (A) (A) (A) (A)
                 (A) (A) (A) (A) (A) (A) (A) (A) (A) (A) (A) (A)
                 (A) (A) (A) (A) (A) (A) (A) (A) (A) (A) (A) (A)
                 (A) (A) (A) (A) (A) (A) (A) (A) (A) (A) (A) (A)
                 (A) (A) (A) (A) (A) (A) (A) (A) (A) (A) (A) (A)
                 (A) (A) (A) (A) (A) (A) (A) (A) (A) (A) (A) (A)
                 (A) (A) (A) (A) (A) (A) (A) (A) (A) (A) (A) (A)
                 (A) (A) (A) (A) (A) (A) (A) (A) (A) (A) (A) (A)
                 (A) (A) (A) (A) (A) (A) (A) (A) (A) (A) (A) (A)
                 (A) (A) (A) (A) (A) (A) (A) (A) (A) (A) (A) (A)
                 (A) (A) (A) (A) (A) (A) (A) (A) (A) (A) (A) (A)
                 (A) (A) (A) (A) (A) (A) (A) (A) (A) (A) (A) (A)
                 (A) (A) (A) (A) (A) (A) (A) (A) (A) (A) (A) (A)
                 (A) (A) (A) (A) (A) (A) (A) (A) (A) (A) (A) (A)
                 (A) (A) (A) (A) (A) (A) (A) (A) (A) (A) (A) (A)
                 (A) (A) (A) (A) (A) (A) (A) (A) (A) (A) (A) (A)
                 (A) (A) (A) (A) (A) (A) (A) (A) (A) (A) (A) (A)
                 (A) (A) (A) (A) (A) (A) (A) (A) (A) (A) (A) (A)
                 (A) (A) (A) (A) (A) (A) (A) (A) (A) (A) (A) (A)
                 (A) (A) (A) (A) (A) (A) (A) (A) (A) (A) (A) (A)
                 (A) (A) (A) (A) (A) (A) (A) (A) (A) (A) (A) (A)
                 (A) (A) (A) (A) (A) (A) (A) (A)
 The electronic state is 1-A.
 Alpha  occ. eigenvalues --  -10.77392 -10.73139 -10.72941 -10.72311 -10.72222
 Alpha  occ. eigenvalues --  -10.71842 -10.71354 -10.70819 -10.70653 -10.70494
 Alpha  occ. eigenvalues --  -10.70268 -10.69549 -10.69544 -10.69354  -1.16787
 Alpha  occ. eigenvalues --   -1.12855  -1.07308  -1.06110  -1.01344  -1.00604
 Alpha  occ. eigenvalues --   -0.95922  -0.91476  -0.86320  -0.86102  -0.83744
 Alpha  occ. eigenvalues --   -0.78612  -0.76359  -0.74364  -0.69991  -0.69207
 Alpha  occ. eigenvalues --   -0.68963  -0.68235  -0.68102  -0.64616  -0.63889
 Alpha  occ. eigenvalues --   -0.63567  -0.61809  -0.60521  -0.59987  -0.59207
 Alpha  occ. eigenvalues --   -0.56533  -0.55262  -0.54615  -0.52582  -0.46852
 Alpha  occ. eigenvalues --   -0.46094  -0.44735
 Alpha virt. eigenvalues --   -0.26016  -0.14370  -0.14189  -0.12579  -0.11182
 Alpha virt. eigenvalues --   -0.10038  -0.09258  -0.08096  -0.07927  -0.07468
 Alpha virt. eigenvalues --   -0.07189  -0.07104  -0.05643  -0.05573  -0.05295
 Alpha virt. eigenvalues --   -0.03897  -0.03834  -0.03243  -0.03025  -0.02119
 Alpha virt. eigenvalues --   -0.01501  -0.00966   0.00268   0.00532   0.00739
 Alpha virt. eigenvalues --    0.01119   0.01511   0.02030   0.02237   0.02334
 Alpha virt. eigenvalues --    0.02525   0.02652   0.02916   0.03326   0.03410
 Alpha virt. eigenvalues --    0.04235   0.04502   0.04711   0.05165   0.05399
 Alpha virt. eigenvalues --    0.05915   0.06321   0.06529   0.06958   0.07247
 Alpha virt. eigenvalues --    0.07925   0.08192   0.08344   0.08582   0.08899
 Alpha virt. eigenvalues --    0.09576   0.09680   0.09968   0.10577   0.11164
 Alpha virt. eigenvalues --    0.11237   0.12250   0.12282   0.12831   0.13128
 Alpha virt. eigenvalues --    0.13214   0.13586   0.14097   0.14490   0.15910
 Alpha virt. eigenvalues --    0.16148   0.16726   0.17232   0.17574   0.17777
 Alpha virt. eigenvalues --    0.18258   0.19113   0.19321   0.19493   0.19897
 Alpha virt. eigenvalues --    0.21501   0.21766   0.22652   0.23343   0.23431
 Alpha virt. eigenvalues --    0.23577   0.24689   0.24829   0.26981   0.27817
 Alpha virt. eigenvalues --    0.28772   0.28960   0.30192   0.31648   0.36253
 Alpha virt. eigenvalues --    0.36796   0.38336   0.39237   0.40755   0.41440
 Alpha virt. eigenvalues --    0.41869   0.42650   0.42939   0.43697   0.44206
 Alpha virt. eigenvalues --    0.44801   0.45319   0.45732   0.46430   0.48339
 Alpha virt. eigenvalues --    0.48608   0.48820   0.49047   0.50334   0.50623
 Alpha virt. eigenvalues --    0.51402   0.51583   0.52250   0.52586   0.54038
 Alpha virt. eigenvalues --    0.54157   0.54766   0.55753   0.56070   0.58245
 Alpha virt. eigenvalues --    0.58372   0.59108   0.61395   0.62140   0.62554
 Alpha virt. eigenvalues --    0.62952   0.63673   0.64015   0.65408   0.66792
 Alpha virt. eigenvalues --    0.70248   0.70845   0.71010   0.72048   0.72544
 Alpha virt. eigenvalues --    0.75185   0.75604   0.75878   0.76228   0.76527
 Alpha virt. eigenvalues --    0.76780   0.77375   0.78141   0.80003   0.80481
 Alpha virt. eigenvalues --    0.81164   0.81868   0.82412   0.83125   0.84547
 Alpha virt. eigenvalues --    0.86721   0.87172   0.88020   0.89104   0.90278
 Alpha virt. eigenvalues --    0.91233   0.92385   0.93403   0.95071   0.96419
 Alpha virt. eigenvalues --    0.97253   1.00022   1.00935   1.01538   1.02668
 Alpha virt. eigenvalues --    1.03119   1.05184   1.05819   1.07248   1.09681
 Alpha virt. eigenvalues --    1.19787   1.22497   1.23751   1.25905   1.29384
 Alpha virt. eigenvalues --    1.30868   1.32472   1.33961   1.35405   1.36026
 Alpha virt. eigenvalues --    1.39255   1.40759   1.41424   1.43514   1.43687
 Alpha virt. eigenvalues --    1.44139   1.45415   1.45958   1.46991   1.47762
 Alpha virt. eigenvalues --    1.48223   1.48530   1.52941   1.54097   1.55459
 Alpha virt. eigenvalues --    1.56021   1.56299   1.57070   1.58480   1.61534
 Alpha virt. eigenvalues --    1.62597   1.63437   1.63912   1.66462   1.67992
 Alpha virt. eigenvalues --    1.68428   1.69553   1.69973   1.74264   1.76328
 Alpha virt. eigenvalues --    1.77157   1.78048   1.79668   1.81287   1.81876
 Alpha virt. eigenvalues --    1.82769   1.83565   1.84117   1.84283   1.84747
 Alpha virt. eigenvalues --    1.85331   1.85998   1.86627   1.88544   1.91657
 Alpha virt. eigenvalues --    1.91797   1.94153   1.95481   1.98104   1.98549
 Alpha virt. eigenvalues --    2.01168   2.03126   2.03993   2.08501   2.12630
 Alpha virt. eigenvalues --    2.12884   2.13719   2.15891   2.20530   2.21976
 Alpha virt. eigenvalues --    2.23843   2.29055   2.30731   2.33407   2.35893
 Alpha virt. eigenvalues --    2.37366   2.38042   2.39856   2.42106   2.46543
 Alpha virt. eigenvalues --    2.47724   2.47869   2.48221   2.51868   2.54355
 Alpha virt. eigenvalues --    2.55310   2.56842   2.58074   2.58716   2.59816
 Alpha virt. eigenvalues --    2.60114   2.61063   2.61900   2.63327   2.63783
 Alpha virt. eigenvalues --    2.63997   2.64867   2.65555   2.66274   2.67996
 Alpha virt. eigenvalues --    2.68120   2.71304   2.73408   2.74365   2.75364
 Alpha virt. eigenvalues --    2.76852   2.80060   2.80334   2.82458   2.83621
 Alpha virt. eigenvalues --    2.86510   2.87436   2.92785   2.97027   3.00141
 Alpha virt. eigenvalues --    3.00841   3.06272   3.10946   3.12990   3.14528
 Alpha virt. eigenvalues --    3.22114   3.24925   3.27561   3.29532   3.31674
 Alpha virt. eigenvalues --    3.33158   3.35089   3.43535   3.46731   3.47039
 Alpha virt. eigenvalues --    3.48551   3.52010   3.57473   3.66781   3.67422
 Alpha virt. eigenvalues --    3.74668   3.91978   3.92150   3.96169   3.97795
 Alpha virt. eigenvalues --    4.02793   4.05617   4.06735   4.12363   4.37125
 Alpha virt. eigenvalues --    4.63539   4.69842   4.71566  23.44550  23.60287
 Alpha virt. eigenvalues --   23.82885  23.86957  23.87805  23.91017  23.91894
 Alpha virt. eigenvalues --   23.95525  23.98865  24.00899  24.01132  24.03494
 Alpha virt. eigenvalues --   24.13494  24.14874
          Condensed to atoms (all electrons):
               1          2          3          4          5          6
     1  C    8.937038   0.360296  -0.583623   2.173977  -0.060301  -0.099757
     2  C    0.360296   6.779436   0.349721  -0.773991  -0.046116  -0.011826
     3  C   -0.583623   0.349721   6.786570   0.487925  -0.126252   0.019722
     4  C    2.173977  -0.773991   0.487925  10.394962  -0.136731  -0.111513
     5  C   -0.060301  -0.046116  -0.126252  -0.136731  11.475257   0.469336
     6  C   -0.099757  -0.011826   0.019722  -0.111513   0.469336   6.609141
     7  C   -0.003249   0.007695  -0.018727  -0.052182  -0.876545   0.302969
     8  C    0.439349  -0.012487  -0.097933  -0.041441   2.081418  -0.623445
     9  C   -1.351885  -0.401739   0.281383  -0.821852  -0.144017   0.358257
    10  C   -1.465096   0.132071  -0.376503  -2.342783  -2.597026  -0.221546
    11  C    0.014737  -0.692868   0.998845  -0.934373  -1.813564  -0.141740
    12  C   -2.037588   0.830777  -1.311947  -0.636021  -0.474139  -0.215679
    13  C    0.184323  -0.201924  -0.161619  -1.533193  -0.506491   1.071073
    14  C   -0.972361  -0.228766  -0.132483  -0.069649  -1.646584  -1.280885
    15  H    0.340509  -0.070666   0.002839   0.016027   0.006107   0.000679
    16  H   -0.015397   0.376495  -0.017072   0.017173  -0.001993  -0.000311
    17  H   -0.034441  -0.018658   0.389889  -0.074510   0.000081   0.000415
    18  H    0.059937   0.003688  -0.106645   0.479961   0.009086  -0.005133
    19  H   -0.051190  -0.005572   0.055245  -0.064943  -0.094824   0.053022
    20  H    0.006782   0.000883  -0.004356   0.010794   0.435405  -0.080111
    21  H   -0.001296  -0.000291   0.000469   0.000113  -0.058820   0.381735
    22  H    0.000629   0.000304  -0.000357  -0.001523   0.012611  -0.020730
    23  H    0.005003  -0.002640   0.001504   0.005931   0.022800  -0.000451
    24  H    0.041389   0.022238  -0.008802  -0.019129  -0.019651  -0.005789
    25  H    0.036551   0.007366   0.005367  -0.006710  -0.008953   0.005143
               7          8          9         10         11         12
     1  C   -0.003249   0.439349  -1.351885  -1.465096   0.014737  -2.037588
     2  C    0.007695  -0.012487  -0.401739   0.132071  -0.692868   0.830777
     3  C   -0.018727  -0.097933   0.281383  -0.376503   0.998845  -1.311947
     4  C   -0.052182  -0.041441  -0.821852  -2.342783  -0.934373  -0.636021
     5  C   -0.876545   2.081418  -0.144017  -2.597026  -1.813564  -0.474139
     6  C    0.302969  -0.623445   0.358257  -0.221546  -0.141740  -0.215679
     7  C    7.156729   0.409899  -0.746520   0.115338  -0.091032  -0.211828
     8  C    0.409899   8.746653  -1.202524  -1.352093   0.179054  -1.105415
     9  C   -0.746520  -1.202524   9.228839   0.564758   1.467291  -1.168555
    10  C    0.115338  -1.352093   0.564758   9.230498  -0.261125   2.050363
    11  C   -0.091032   0.179054   1.467291  -0.261125  13.498830  -2.460033
    12  C   -0.211828  -1.105415  -1.168555   2.050363  -2.460033  14.111618
    13  C   -0.953340   0.270056   1.441124  -0.407966   0.929788  -4.257497
    14  C    1.042699  -2.198408  -2.007254   2.367848  -4.047093   2.397499
    15  H   -0.002460   0.004985   0.051463  -0.004253  -0.026536   0.008798
    16  H    0.000411   0.000788   0.001170  -0.013074   0.022565  -0.028418
    17  H   -0.000385  -0.001387  -0.002115   0.024491  -0.020681   0.083166
    18  H    0.002257   0.007977  -0.033339   0.011627  -0.016295  -0.046020
    19  H   -0.011498  -0.048092   0.079518   0.428783   0.085493  -0.056200
    20  H    0.007071   0.045875  -0.024811   0.016558  -0.012944  -0.015518
    21  H   -0.030442  -0.018812  -0.001312   0.015701  -0.004692   0.002830
    22  H    0.400048  -0.025918   0.002032  -0.010143   0.002316  -0.008028
    23  H   -0.094651   0.362978   0.054545  -0.005793  -0.015126   0.005634
    24  H    0.024646   0.043367   0.384772   0.002674   0.015057  -0.079122
    25  H    0.008702   0.045459   0.328679   0.001511   0.004560  -0.048510
              13         14         15         16         17         18
     1  C    0.184323  -0.972361   0.340509  -0.015397  -0.034441   0.059937
     2  C   -0.201924  -0.228766  -0.070666   0.376495  -0.018658   0.003688
     3  C   -0.161619  -0.132483   0.002839  -0.017072   0.389889  -0.106645
     4  C   -1.533193  -0.069649   0.016027   0.017173  -0.074510   0.479961
     5  C   -0.506491  -1.646584   0.006107  -0.001993   0.000081   0.009086
     6  C    1.071073  -1.280885   0.000679  -0.000311   0.000415  -0.005133
     7  C   -0.953340   1.042699  -0.002460   0.000411  -0.000385   0.002257
     8  C    0.270056  -2.198408   0.004985   0.000788  -0.001387   0.007977
     9  C    1.441124  -2.007254   0.051463   0.001170  -0.002115  -0.033339
    10  C   -0.407966   2.367848  -0.004253  -0.013074   0.024491   0.011627
    11  C    0.929788  -4.047093  -0.026536   0.022565  -0.020681  -0.016295
    12  C   -4.257497   2.397499   0.008798  -0.028418   0.083166  -0.046020
    13  C   13.926671  -3.151279  -0.006792   0.002286  -0.005007  -0.012180
    14  C   -3.151279  15.404493   0.006370  -0.009111   0.005892  -0.014661
    15  H   -0.006792   0.006370   0.436116  -0.008012   0.001503   0.000032
    16  H    0.002286  -0.009111  -0.008012   0.418123  -0.007349   0.002091
    17  H   -0.005007   0.005892   0.001503  -0.007349   0.425050  -0.011723
    18  H   -0.012180  -0.014661   0.000032   0.002091  -0.011723   0.465457
    19  H    0.070077  -0.063807   0.000221  -0.000559   0.001573  -0.006588
    20  H   -0.004982  -0.054961  -0.000082   0.000002  -0.000126   0.001083
    21  H   -0.010044   0.068195   0.000012  -0.000006   0.000011  -0.000157
    22  H    0.015220  -0.026272  -0.000100   0.000006  -0.000006   0.000022
    23  H   -0.022560   0.013187   0.000306  -0.000118   0.000017  -0.000140
    24  H    0.016092  -0.075594  -0.001421   0.001297  -0.000501   0.000521
    25  H    0.001628  -0.050701   0.000459  -0.000146   0.000243   0.000016
              19         20         21         22         23         24
     1  C   -0.051190   0.006782  -0.001296   0.000629   0.005003   0.041389
     2  C   -0.005572   0.000883  -0.000291   0.000304  -0.002640   0.022238
     3  C    0.055245  -0.004356   0.000469  -0.000357   0.001504  -0.008802
     4  C   -0.064943   0.010794   0.000113  -0.001523   0.005931  -0.019129
     5  C   -0.094824   0.435405  -0.058820   0.012611   0.022800  -0.019651
     6  C    0.053022  -0.080111   0.381735  -0.020730  -0.000451  -0.005789
     7  C   -0.011498   0.007071  -0.030442   0.400048  -0.094651   0.024646
     8  C   -0.048092   0.045875  -0.018812  -0.025918   0.362978   0.043367
     9  C    0.079518  -0.024811  -0.001312   0.002032   0.054545   0.384772
    10  C    0.428783   0.016558   0.015701  -0.010143  -0.005793   0.002674
    11  C    0.085493  -0.012944  -0.004692   0.002316  -0.015126   0.015057
    12  C   -0.056200  -0.015518   0.002830  -0.008028   0.005634  -0.079122
    13  C    0.070077  -0.004982  -0.010044   0.015220  -0.022560   0.016092
    14  C   -0.063807  -0.054961   0.068195  -0.026272   0.013187  -0.075594
    15  H    0.000221  -0.000082   0.000012  -0.000100   0.000306  -0.001421
    16  H   -0.000559   0.000002  -0.000006   0.000006  -0.000118   0.001297
    17  H    0.001573  -0.000126   0.000011  -0.000006   0.000017  -0.000501
    18  H   -0.006588   0.001083  -0.000157   0.000022  -0.000140   0.000521
    19  H    0.450929  -0.005163   0.001603  -0.000676   0.000374   0.000405
    20  H   -0.005163   0.445939  -0.008891   0.002071  -0.000002   0.000414
    21  H    0.001603  -0.008891   0.423135  -0.008005   0.001797  -0.000373
    22  H   -0.000676   0.002071  -0.008005   0.422277  -0.010028   0.001421
    23  H    0.000374  -0.000002   0.001797  -0.010028   0.449388  -0.002735
    24  H    0.000405   0.000414  -0.000373   0.001421  -0.002735   0.482154
    25  H    0.000744  -0.000078   0.000142  -0.000276   0.001382  -0.067654
              25
     1  C    0.036551
     2  C    0.007366
     3  C    0.005367
     4  C   -0.006710
     5  C   -0.008953
     6  C    0.005143
     7  C    0.008702
     8  C    0.045459
     9  C    0.328679
    10  C    0.001511
    11  C    0.004560
    12  C   -0.048510
    13  C    0.001628
    14  C   -0.050701
    15  H    0.000459
    16  H   -0.000146
    17  H    0.000243
    18  H    0.000016
    19  H    0.000744
    20  H   -0.000078
    21  H    0.000142
    22  H   -0.000276
    23  H    0.001382
    24  H   -0.067654
    25  H    0.487785
 Mulliken charges:
               1
     1  C    0.075664
     2  C   -0.403425
     3  C   -0.433160
     4  C    0.033680
     5  C    0.099904
     6  C   -0.452573
     7  C   -0.385606
     8  C    0.090097
     9  C   -0.337907
    10  C    0.095180
    11  C   -0.680435
    12  C    0.669832
    13  C   -0.693466
    14  C    0.723686
    15  H    0.243895
    16  H    0.259161
    17  H    0.244559
    18  H    0.209127
    19  H    0.181122
    20  H    0.239146
    21  H    0.247400
    22  H    0.253104
    23  H    0.229400
    24  H    0.244322
    25  H    0.247292
 Sum of Mulliken charges =   1.00000
 Mulliken charges with hydrogens summed into heavy atoms:
               1
     1  C    0.319559
     2  C   -0.144265
     3  C   -0.188601
     4  C    0.242808
     5  C    0.339051
     6  C   -0.205174
     7  C   -0.132501
     8  C    0.319497
     9  C    0.153707
    10  C    0.276302
    11  C   -0.680435
    12  C    0.669832
    13  C   -0.693466
    14  C    0.723686
 Electronic spatial extent (au):  <R**2>=           2847.2349
 Charge=              1.0000 electrons
 Dipole moment (field-independent basis, Debye):
    X=             -0.0376    Y=              0.2181    Z=             -0.0094  Tot=              0.2216
 Quadrupole moment (field-independent basis, Debye-Ang):
   XX=            -30.3818   YY=            -57.1438   ZZ=            -83.8176
   XY=              0.2648   XZ=             -0.1246   YZ=              0.5425
 Traceless Quadrupole moment (field-independent basis, Debye-Ang):
   XX=             26.7326   YY=             -0.0294   ZZ=            -26.7032
   XY=              0.2648   XZ=             -0.1246   YZ=              0.5425
 Octapole moment (field-independent basis, Debye-Ang**2):
  XXX=             -0.7911  YYY=              5.2867  ZZZ=              0.0980  XYY=             -0.0441
  XXY=             -3.7986  XXZ=              0.1425  XZZ=              0.0165  YZZ=             -3.0828
  YYZ=              0.4339  XYZ=             -0.0765
 Hexadecapole moment (field-independent basis, Debye-Ang**3):
 XXXX=          -2104.7757 YYYY=           -606.0053 ZZZZ=            -98.7810 XXXY=             -2.5639
 XXXZ=             -3.0132 YYYX=              4.8969 YYYZ=              2.5440 ZZZX=             -0.2245
 ZZZY=              0.2189 XXYY=           -509.0993 XXZZ=           -588.0388 YYZZ=           -143.6748
 XXYZ=             11.0582 YYXZ=             -0.1382 ZZXY=             -1.4106
 N-N= 7.837430347859D+02 E-N=-2.803990464704D+03  KE= 5.377623998423D+02
 Unable to Open any file for archive entry.
 1\1\GINC-GADI-CPU-CLX-0572\SP\RM062X TD-FC\6-311++G(d,p)\C14H11(1+)\TS
 1578\27-Jul-2022\0\\#n M062X/6-311++G(d,p) TD(NStates=1) EmpiricalDisp
 ersion=GD3 SP\\SP_3\\1,1\C,0,2.4927,1.3771,0.051\C,0,3.7015,0.6627,0.0
 01\C,0,3.6839,-0.7231,-0.016\C,0,2.4632,-1.3609,-0.068\C,0,-2.4632,-1.
 3969,-0.052\C,0,-3.6839,-0.7051,0.016\C,0,-3.7015,0.6627,0.017\C,0,-2.
 4927,1.3291,0.051\C,0,0.,1.4541,0.099\C,0,0.,-1.3915,-0.081\C,0,1.2621
 ,0.7067,0.035\C,0,1.2375,-0.7041,-0.04\C,0,-1.2621,0.6827,0.013\C,0,-1
 .2375,-0.7221,-0.038\H,0,2.4881,2.4893,0.054\H,0,4.6368,1.2294,-0.043\
 H,0,4.6093,-1.2467,0.04\H,0,2.4675,-2.4184,-0.071\H,0,0.,-2.4766,-0.08
 4\H,0,-2.4675,-2.5264,-0.055\H,0,-4.6093,-1.2827,0.044\H,0,-4.6368,1.1
 754,-0.029\H,0,-2.4881,2.4053,0.054\H,0,-0.006,2.1105,-0.7696\H,0,0.00
 6,2.1105,0.9496\\Version=ES64L-G16RevC.01\State=1-A\HF=-539.7531667\RM
 SD=6.056e-09\PG=C01 [X(C14H11)]\\@
 The archive entry for this job was punched.


 TO SEE A WORLD IN A GRAIN OF SAND
 AND A HEAVEN IN A WILD FLOWER
 HOLD INFINITY IN THE PALM OF YOUR HAND
 AND ETERNITY IN AN HOUR

                       -- WILLIAM BLAKE
 Job cpu time:       0 days  1 hours 11 minutes 29.8 seconds.
 Elapsed time:       0 days  0 hours  2 minutes 14.6 seconds.
 File lengths (MBytes):  RWF=    460 Int=      0 D2E=      0 Chk=     15 Scr=      1
 Normal termination of Gaussian 16 at Wed Jul 27 11:59:49 2022.
