 Entering Gaussian System, Link 0=g16
 Initial command:
 /apps/gaussian/g16c01/g16/l1.exe "/jobfs/52803152.gadi-pbs/Gau-2807957.inp" -scrdir="/jobfs/52803152.gadi-pbs/"
 Entering Link 1 = /apps/gaussian/g16c01/g16/l1.exe PID=   2807958.
  
 Copyright (c) 1988-2019, Gaussian, Inc.  All Rights Reserved.
  
 This is part of the Gaussian(R) 16 program.  It is based on
 the Gaussian(R) 09 system (copyright 2009, Gaussian, Inc.),
 the Gaussian(R) 03 system (copyright 2003, Gaussian, Inc.),
 the Gaussian(R) 98 system (copyright 1998, Gaussian, Inc.),
 the Gaussian(R) 94 system (copyright 1995, Gaussian, Inc.),
 the Gaussian 92(TM) system (copyright 1992, Gaussian, Inc.),
 the Gaussian 90(TM) system (copyright 1990, Gaussian, Inc.),
 the Gaussian 88(TM) system (copyright 1988, Gaussian, Inc.),
 the Gaussian 86(TM) system (copyright 1986, Carnegie Mellon
 University), and the Gaussian 82(TM) system (copyright 1983,
 Carnegie Mellon University). Gaussian is a federally registered
 trademark of Gaussian, Inc.
  
 This software contains proprietary and confidential information,
 including trade secrets, belonging to Gaussian, Inc.
  
 This software is provided under written license and may be
 used, copied, transmitted, or stored only in accord with that
 written license.
  
 The following legend is applicable only to US Government
 contracts under FAR:
  
                    RESTRICTED RIGHTS LEGEND
  
 Use, reproduction and disclosure by the US Government is
 subject to restrictions as set forth in subparagraphs (a)
 and (c) of the Commercial Computer Software - Restricted
 Rights clause in FAR 52.227-19.
  
 Gaussian, Inc.
 340 Quinnipiac St., Bldg. 40, Wallingford CT 06492
  
  
 ---------------------------------------------------------------
 Warning -- This program may not be used in any manner that
 competes with the business of Gaussian, Inc. or will provide
 assistance to any competitor of Gaussian, Inc.  The licensee
 of this program is prohibited from giving any competitor of
 Gaussian, Inc. access to this program.  By using this program,
 the user acknowledges that Gaussian, Inc. is engaged in the
 business of creating and licensing software in the field of
 computational chemistry and represents and warrants to the
 licensee that it is not a competitor of Gaussian, Inc. and that
 it will not use this program in any manner prohibited above.
 ---------------------------------------------------------------
  

 Cite this work as:
 Gaussian 16, Revision C.01,
 M. J. Frisch, G. W. Trucks, H. B. Schlegel, G. E. Scuseria, 
 M. A. Robb, J. R. Cheeseman, G. Scalmani, V. Barone, 
 G. A. Petersson, H. Nakatsuji, X. Li, M. Caricato, A. V. Marenich, 
 J. Bloino, B. G. Janesko, R. Gomperts, B. Mennucci, H. P. Hratchian, 
 J. V. Ortiz, A. F. Izmaylov, J. L. Sonnenberg, D. Williams-Young, 
 F. Ding, F. Lipparini, F. Egidi, J. Goings, B. Peng, A. Petrone, 
 T. Henderson, D. Ranasinghe, V. G. Zakrzewski, J. Gao, N. Rega, 
 G. Zheng, W. Liang, M. Hada, M. Ehara, K. Toyota, R. Fukuda, 
 J. Hasegawa, M. Ishida, T. Nakajima, Y. Honda, O. Kitao, H. Nakai, 
 T. Vreven, K. Throssell, J. A. Montgomery, Jr., J. E. Peralta, 
 F. Ogliaro, M. J. Bearpark, J. J. Heyd, E. N. Brothers, K. N. Kudin, 
 V. N. Staroverov, T. A. Keith, R. Kobayashi, J. Normand, 
 K. Raghavachari, A. P. Rendell, J. C. Burant, S. S. Iyengar, 
 J. Tomasi, M. Cossi, J. M. Millam, M. Klene, C. Adamo, R. Cammi, 
 J. W. Ochterski, R. L. Martin, K. Morokuma, O. Farkas, 
 J. B. Foresman, and D. J. Fox, Gaussian, Inc., Wallingford CT, 2019.
 
 ******************************************
 Gaussian 16:  ES64L-G16RevC.01  3-Jul-2019
                27-Jul-2022 
 ******************************************
 %NProcShared=32
 Will use up to   32 processors via shared memory.
 %mem = 128GB
 ---------------------------------------------------------------
 #n M062X/6-311++G(d,p) TD(NStates=1) EmpiricalDispersion=GD3 SP
 ---------------------------------------------------------------
 1/38=1,172=1/1;
 2/12=2,17=6,18=5,40=1/2;
 3/5=4,6=6,7=1111,11=9,25=1,30=1,74=-55,124=31/1,2,3,8;
 4//1;
 5/5=2,38=5/2;
 8/6=1,10=2,108=1/1;
 9/41=1,42=1,70=2/14;
 6/7=2,8=2,9=2,10=2/1;
 99/5=1,9=1/99;
 -----
 SP_-2
 -----
 Symbolic Z-matrix:
 Charge =  1 Multiplicity = 1
 C                     2.4927    1.2891   -0.034 
 C                     3.7015    0.6087   -0.038 
 C                     3.6839   -0.7351   -0.064 
 C                     2.4632   -1.3309    0.008 
 C                    -2.4632   -1.3069    0.072 
 C                    -3.6839   -0.7471    0.064 
 C                    -3.7015    0.6087    0.026 
 C                    -2.4927    1.3211   -0.034 
 C                     0.        1.4301   -0.066 
 C                     0.       -1.3045    0.054 
 C                     1.2621    0.7137    0.028 
 C                     1.2375   -0.6921    0.022 
 C                    -1.2621    0.7297   -0.06 
 C                    -1.2375   -0.6801    0.03 
 H                     2.4881    2.4043   -0.036 
 H                     4.6368    1.1304   -0.004 
 H                     4.6093   -1.2797   -0.036 
 H                     2.4675   -2.4814    0.01 
 H                     0.       -2.4016    0.056 
 H                    -2.4675   -2.4094    0.074 
 H                    -4.6093   -1.2557   -0.02 
 H                    -4.6368    1.1664    0.052 
 H                    -2.4881    2.4603   -0.036 
 H                     0.004     1.9785   -0.9196 
 H                    -0.004     1.9785    0.7996 
 
                          Input orientation:                          
 ---------------------------------------------------------------------
 Center     Atomic      Atomic             Coordinates (Angstroms)
 Number     Number       Type             X           Y           Z
 ---------------------------------------------------------------------
      1          6           0        2.492700    1.289100   -0.034000
      2          6           0        3.701500    0.608700   -0.038000
      3          6           0        3.683900   -0.735100   -0.064000
      4          6           0        2.463200   -1.330900    0.008000
      5          6           0       -2.463200   -1.306900    0.072000
      6          6           0       -3.683900   -0.747100    0.064000
      7          6           0       -3.701500    0.608700    0.026000
      8          6           0       -2.492700    1.321100   -0.034000
      9          6           0        0.000000    1.430100   -0.066000
     10          6           0        0.000000   -1.304500    0.054000
     11          6           0        1.262100    0.713700    0.028000
     12          6           0        1.237500   -0.692100    0.022000
     13          6           0       -1.262100    0.729700   -0.060000
     14          6           0       -1.237500   -0.680100    0.030000
     15          1           0        2.488100    2.404300   -0.036000
     16          1           0        4.636800    1.130400   -0.004000
     17          1           0        4.609300   -1.279700   -0.036000
     18          1           0        2.467500   -2.481400    0.010000
     19          1           0        0.000000   -2.401600    0.056000
     20          1           0       -2.467500   -2.409400    0.074000
     21          1           0       -4.609300   -1.255700   -0.020000
     22          1           0       -4.636800    1.166400    0.052000
     23          1           0       -2.488100    2.460300   -0.036000
     24          1           0        0.004000    1.978500   -0.919600
     25          1           0       -0.004000    1.978500    0.799600
 ---------------------------------------------------------------------
                    Distance matrix (angstroms):
                    1          2          3          4          5
     1  C    0.000000
     2  C    1.387140   0.000000
     3  C    2.348881   1.344167   0.000000
     4  C    2.620503   2.301641   1.360246   0.000000
     5  C    5.595659   6.456404   6.175135   4.926874   0.000000
     6  C    6.504314   7.509509   7.368922   6.175014   1.342963
     7  C    6.231746   7.403277   7.507199   6.462654   2.281453
     8  C    4.985503   6.235034   6.509934   5.621015   2.630302
     9  C    2.496890   3.791647   4.273080   3.700804   3.684775
    10  C    3.598341   4.167721   3.729512   2.463771   2.463267
    11  C    1.359892   2.442551   2.823579   2.371377   4.238233
    12  C    2.346021   2.786930   2.448289   1.382245   3.751754
    13  C    3.796331   4.965123   5.158350   4.257764   2.368080
    14  C    4.218559   5.104836   4.922605   3.757553   1.377310
    15  H    1.115211   2.167146   3.359547   3.735542   6.188703
    16  H    2.150175   1.071500   2.095640   3.283699   7.507077
    17  H    3.328473   2.095271   1.074122   2.147162   7.073377
    18  H    3.770841   3.327729   2.129476   1.150510   5.069033
    19  H    4.454539   4.771985   4.045089   2.686272   2.695548
    20  H    6.188227   6.868627   6.376680   5.047705   1.102510
    21  H    7.544177   8.517377   8.309641   7.072955   2.148681
    22  H    7.131074   8.357414   8.535995   7.526516   3.292742
    23  H    5.116648   6.460617   6.950176   6.236225   3.768830
    24  H    2.730053   4.040430   4.651595   4.226137   4.226606
    25  H    2.720969   4.038398   4.659403   4.203074   4.167844
                    6          7          8          9         10
     6  C    0.000000
     7  C    1.356447   0.000000
     8  C    2.388726   1.404390   0.000000
     9  C    4.281147   3.792659   2.495287   0.000000
    10  C    3.725844   4.166800   3.621474   2.737232   0.000000
    11  C    5.157339   4.964711   3.804116   1.454291   2.380484
    12  C    4.921887   5.107428   4.239163   2.458228   1.381110
    13  C    2.839266   2.443913   1.365579   1.443431   2.396636
    14  C    2.447553   2.780704   2.363139   2.448176   1.386311
    15  H    6.930722   6.445089   5.097224   2.672191   4.466983
    16  H    8.530163   8.354658   7.132113   4.646889   5.237558
    17  H    8.310886   8.522869   7.563238   5.346921   4.610245
    18  H    6.391434   6.899676   6.250162   4.625383   2.734152
    19  H    4.038385   4.771154   4.481088   3.833642   1.097102
    20  H    2.059847   3.260980   3.732148   4.566171   2.703657
    21  H    1.059290   2.074176   3.334680   5.334912   4.610152
    22  H    2.137673   1.089262   2.151393   4.645791   5.254071
    23  H    3.424522   2.214635   1.139211   2.693112   4.513586
    24  H    4.690093   4.062172   2.729464   1.014589   3.424325
    25  H    4.638067   4.018248   2.705678   1.024706   3.366604
                   11         12         13         14         15
    11  C    0.000000
    12  C    1.406028   0.000000
    13  C    2.525784   2.876845   0.000000
    14  C    2.861937   2.475042   1.412884   0.000000
    15  H    2.089330   3.339919   4.107172   4.837145   0.000000
    16  H    3.400480   3.857126   5.912759   6.147070   2.498151
    17  H    3.896343   3.423109   6.205772   5.877835   4.251041
    18  H    3.414964   2.171322   4.921989   4.119722   4.885960
    19  H    3.361365   2.110676   3.378075   2.120293   5.412558
    20  H    4.864749   4.083975   3.365248   2.122573   6.909543
    21  H    6.193075   5.874051   3.891935   3.420943   7.985546
    22  H    5.916294   6.161357   3.404681   3.868499   7.232174
    23  H    4.137476   4.880685   2.120997   3.380898   4.976515
    24  H    2.020020   3.088727   1.975202   3.084026   2.670732
    25  H    1.948870   3.045995   1.970084   3.030175   2.662723
                   16         17         18         19         20
    16  H    0.000000
    17  H    2.410469   0.000000
    18  H    4.213212   2.456320   0.000000
    19  H    5.829111   4.744762   2.469219   0.000000
    20  H    7.937717   7.167246   4.935940   2.467578   0.000000
    21  H    9.549036   9.218645   7.182224   4.750212   2.434577
    22  H    9.273839   9.564597   7.986194   5.850688   4.182427
    23  H    7.248024   8.022511   6.998606   5.462342   4.870986
    24  H    4.797961   5.710114   5.179160   4.487437   5.133149
    25  H    4.785611   5.709346   5.159698   4.442773   5.084191
                   21         22         23         24         25
    21  H    0.000000
    22  H    2.423326   0.000000
    23  H    4.278832   2.509748   0.000000
    24  H    5.705424   4.810461   2.687646   0.000000
    25  H    5.686878   4.762483   2.664791   1.719219   0.000000
 Stoichiometry    C14H11(1+)
 Framework group  C1[X(C14H11)]
 Deg. of freedom    69
 Full point group                 C1      NOp   1
 Largest Abelian subgroup         C1      NOp   1
 Largest concise Abelian subgroup C1      NOp   1
                         Standard orientation:                         
 ---------------------------------------------------------------------
 Center     Atomic      Atomic             Coordinates (Angstroms)
 Number     Number       Type             X           Y           Z
 ---------------------------------------------------------------------
      1          6           0        2.489378   -1.288306   -0.018518
      2          6           0        3.700027   -0.611278   -0.007600
      3          6           0        3.686318    0.731501    0.051896
      4          6           0        2.466704    1.331995    0.004783
      5          6           0       -2.460102    1.322066   -0.019148
      6          6           0       -3.682223    0.765333   -0.014978
      7          6           0       -3.703221   -0.590944   -0.010504
      8          6           0       -2.495924   -1.307673    0.021817
      9          6           0       -0.003353   -1.423746    0.030535
     10          6           0        0.003147    1.312983   -0.021535
     11          6           0        1.259891   -0.708429   -0.056060
     12          6           0        1.239187    0.696846   -0.014959
     13          6           0       -1.263539   -0.720220    0.052338
     14          6           0       -1.235819    0.691315   -0.002835
     15          1           0        2.481743   -2.403196   -0.044166
     16          1           0        4.633587   -1.134339   -0.062257
     17          1           0        4.612944    1.274284    0.029791
     18          1           0        2.474135    2.482175    0.031310
     19          1           0        0.006132    2.409790    0.003701
     20          1           0       -2.461402    2.424283    0.006258
     21          1           0       -4.605509    1.274030    0.089254
     22          1           0       -4.640225   -1.145456   -0.042624
     23          1           0       -2.494425   -2.446579   -0.004503
     24          1           0        0.006133   -1.993194    0.870196
     25          1           0       -0.015938   -1.950457   -0.848350
 ---------------------------------------------------------------------
 Rotational constants (GHZ):           2.3092041           0.4445223           0.3736728
 Standard basis: 6-311++G(d,p) (5D, 7F)
 There are   399 symmetry adapted cartesian basis functions of A   symmetry.
 There are   385 symmetry adapted basis functions of A   symmetry.
   385 basis functions,   603 primitive gaussians,   399 cartesian basis functions
    47 alpha electrons       47 beta electrons
       nuclear repulsion energy       792.3819276567 Hartrees.
 NAtoms=   25 NActive=   25 NUniq=   25 SFac= 1.00D+00 NAtFMM=   60 NAOKFM=F Big=F
 Integral buffers will be    131072 words long.
 Regular integral format.
 Two-electron integral symmetry is turned on.
 Nuclear repulsion after empirical dispersion term =      792.3809681673 Hartrees.
 One-electron integrals computed using PRISM.
 NBasis=   385 RedAO= T EigKep=  1.31D-06  NBF=   385
 NBsUse=   379 1.00D-06 EigRej=  9.09D-07 NBFU=   379
 ExpMin= 3.60D-02 ExpMax= 4.56D+03 ExpMxC= 6.82D+02 IAcc=3 IRadAn=         5 AccDes= 0.00D+00
 Harris functional with IExCor= 1009 and IRadAn=       5 diagonalized for initial guess.
 HarFok:  IExCor= 1009 AccDes= 0.00D+00 IRadAn=         5 IDoV= 1 UseB2=F ITyADJ=14
 ICtDFT=  3500011 ScaDFX=  1.000000  1.000000  1.000000  1.000000
 FoFCou: FMM=F IPFlag=           0 FMFlag=      100000 FMFlg1=           0
         NFxFlg=           0 DoJE=T BraDBF=F KetDBF=T FulRan=T
         wScrn=  0.000000 ICntrl=       500 IOpCl=  0 I1Cent=   200000004 NGrid=           0
         NMat0=    1 NMatS0=      1 NMatT0=    0 NMatD0=    1 NMtDS0=    0 NMtDT0=    0
 Petite list used in FoFCou.
 Requested convergence on RMS density matrix=1.00D-08 within 128 cycles.
 Requested convergence on MAX density matrix=1.00D-06.
 Requested convergence on             energy=1.00D-06.
 No special actions if energy rises.
 SCF Done:  E(RM062X) =  -539.714635022     A.U. after   14 cycles
            NFock= 14  Conv=0.75D-08     -V/T= 2.0020
 DoSCS=F DFT=T ScalE2(SS,OS)=  1.000000  1.000000
 ExpMin= 3.60D-02 ExpMax= 4.56D+03 ExpMxC= 6.82D+02 IAcc=3 IRadAn=         5 AccDes= 0.00D+00
 HarFok:  IExCor=  205 AccDes= 0.00D+00 IRadAn=         5 IDoV=-2 UseB2=F ITyADJ=14
 ICtDFT= 12500011 ScaDFX=  1.000000  1.000000  1.000000  1.000000
 Range of M.O.s used for correlation:    15   379
 NBasis=   385 NAE=    47 NBE=    47 NFC=    14 NFV=     0
 NROrb=    365 NOA=    33 NOB=    33 NVA=   332 NVB=   332

 **** Warning!!: The largest alpha MO coefficient is  0.13652093D+03

 Orbital symmetries:
       Occupied  (A) (A) (A) (A) (A) (A) (A) (A) (A) (A) (A) (A)
                 (A) (A) (A) (A) (A) (A) (A) (A) (A) (A) (A) (A)
                 (A) (A) (A) (A) (A) (A) (A) (A) (A) (A) (A) (A)
                 (A) (A) (A) (A) (A) (A) (A) (A) (A) (A) (A)
       Virtual   (A) (A) (A) (A) (A) (A) (A) (A) (A) (A) (A) (A)
                 (A) (A) (A) (A) (A) (A) (A) (A) (A) (A) (A) (A)
                 (A) (A) (A) (A) (A) (A) (A) (A) (A) (A) (A) (A)
                 (A) (A) (A) (A) (A) (A) (A) (A) (A) (A) (A) (A)
                 (A) (A) (A) (A) (A) (A) (A) (A) (A) (A) (A) (A)
                 (A) (A) (A) (A) (A) (A) (A) (A) (A) (A) (A) (A)
                 (A) (A) (A) (A) (A) (A) (A) (A) (A) (A) (A) (A)
                 (A) (A) (A) (A) (A) (A) (A) (A) (A) (A) (A) (A)
                 (A) (A) (A) (A) (A) (A) (A) (A) (A) (A) (A) (A)
                 (A) (A) (A) (A) (A) (A) (A) (A) (A) (A) (A) (A)
                 (A) (A) (A) (A) (A) (A) (A) (A) (A) (A) (A) (A)
                 (A) (A) (A) (A) (A) (A) (A) (A) (A) (A) (A) (A)
                 (A) (A) (A) (A) (A) (A) (A) (A) (A) (A) (A) (A)
                 (A) (A) (A) (A) (A) (A) (A) (A) (A) (A) (A) (A)
                 (A) (A) (A) (A) (A) (A) (A) (A) (A) (A) (A) (A)
                 (A) (A) (A) (A) (A) (A) (A) (A) (A) (A) (A) (A)
                 (A) (A) (A) (A) (A) (A) (A) (A) (A) (A) (A) (A)
                 (A) (A) (A) (A) (A) (A) (A) (A) (A) (A) (A) (A)
                 (A) (A) (A) (A) (A) (A) (A) (A) (A) (A) (A) (A)
                 (A) (A) (A) (A) (A) (A) (A) (A) (A) (A) (A) (A)
                 (A) (A) (A) (A) (A) (A) (A) (A) (A) (A) (A) (A)
                 (A) (A) (A) (A) (A) (A) (A) (A) (A) (A) (A) (A)
                 (A) (A) (A) (A) (A) (A) (A) (A) (A) (A) (A) (A)
                 (A) (A) (A) (A) (A) (A) (A) (A) (A) (A) (A) (A)
                 (A) (A) (A) (A) (A) (A) (A) (A) (A) (A) (A) (A)
                 (A) (A) (A) (A) (A) (A) (A) (A) (A) (A) (A) (A)
                 (A) (A) (A) (A) (A) (A) (A) (A) (A) (A) (A) (A)
                 (A) (A) (A) (A) (A) (A) (A) (A)
     4 initial guesses have been made.
 Convergence on wavefunction:    0.001000000000000
 Iteration     1 Dimension     4 NMult     0 NNew      4
 CISAX will form     4 AO SS matrices at one time.
 Iteration     2 Dimension     6 NMult     4 NNew      2
 Iteration     3 Dimension     8 NMult     6 NNew      2
 Iteration     4 Dimension    10 NMult     8 NNew      2
 Iteration     5 Dimension    12 NMult    10 NNew      2
 Iteration     6 Dimension    14 NMult    12 NNew      2
 ***********************************************************************
 Excited states from <AA,BB:AA,BB> singles matrix:
 ***********************************************************************
 
 Ground to excited state transition densities written to RWF  633
 Ground to excited state transition electric dipole moments (Au):
       state          X           Y           Z        Dip. S.      Osc.
         1        -0.0232     -0.5972     -0.0011      0.3571      0.0273
 Ground to excited state transition velocity dipole moments (Au):
       state          X           Y           Z        Dip. S.      Osc.
         1         0.0028      0.0763      0.0002      0.0058      0.0338
 Ground to excited state transition magnetic dipole moments (Au):
       state          X           Y           Z
         1        -0.0179     -0.0200     -0.0030
 Ground to excited state transition velocity quadrupole moments (Au):
       state          XX          YY          ZZ          XY          XZ          YZ
         1         0.3207      0.0479     -0.0072      0.0147      0.0070     -0.0016
 <0|del|b> * <b|rxdel|0> + <0|del|b> * <b|delr+rdel|0>
 Rotatory Strengths (R) in cgs (10**-40 erg-esu-cm/Gauss)
       state          XX          YY          ZZ    R(velocity)    E-M Angle
         1        -6.3318     -0.1772     -3.2099     -3.2397      139.89
 1/2[<0|r|b>*<b|rxdel|0> + (<0|rxdel|b>*<b|r|0>)*]
 Rotatory Strengths (R) in cgs (10**-40 erg-esu-cm/Gauss)
       state          XX          YY          ZZ     R(length)
         1        -0.2938     -8.4508     -0.0024     -2.9157
  1/2[<0|del|b>*<b|r|0> + (<0|r|b>*<b|del|0>)*] (Au)
       state          X           Y           Z        Dip. S.   Osc.(frdel)
         1        -0.0001     -0.0456     -0.0000      0.0456      0.0304

 Excitation energies and oscillator strengths:
 
 Excited State   1:      Singlet-A      3.1226 eV  397.05 nm  f=0.0273  <S**2>=0.000
      47 -> 48         0.70340
 This state for optimization and/or second-order correction.
 Total Energy, E(TD-HF/TD-DFT) =  -539.599881504    
 Copying the excited state density for this state as the 1-particle RhoCI density.
 SavETr:  write IOETrn=   770 NScale= 10 NData=  16 NLR=1 NState=    1 LETran=      28.

 **********************************************************************

            Population analysis using the SCF Density.

 **********************************************************************

 Orbital symmetries:
       Occupied  (A) (A) (A) (A) (A) (A) (A) (A) (A) (A) (A) (A)
                 (A) (A) (A) (A) (A) (A) (A) (A) (A) (A) (A) (A)
                 (A) (A) (A) (A) (A) (A) (A) (A) (A) (A) (A) (A)
                 (A) (A) (A) (A) (A) (A) (A) (A) (A) (A) (A)
       Virtual   (A) (A) (A) (A) (A) (A) (A) (A) (A) (A) (A) (A)
                 (A) (A) (A) (A) (A) (A) (A) (A) (A) (A) (A) (A)
                 (A) (A) (A) (A) (A) (A) (A) (A) (A) (A) (A) (A)
                 (A) (A) (A) (A) (A) (A) (A) (A) (A) (A) (A) (A)
                 (A) (A) (A) (A) (A) (A) (A) (A) (A) (A) (A) (A)
                 (A) (A) (A) (A) (A) (A) (A) (A) (A) (A) (A) (A)
                 (A) (A) (A) (A) (A) (A) (A) (A) (A) (A) (A) (A)
                 (A) (A) (A) (A) (A) (A) (A) (A) (A) (A) (A) (A)
                 (A) (A) (A) (A) (A) (A) (A) (A) (A) (A) (A) (A)
                 (A) (A) (A) (A) (A) (A) (A) (A) (A) (A) (A) (A)
                 (A) (A) (A) (A) (A) (A) (A) (A) (A) (A) (A) (A)
                 (A) (A) (A) (A) (A) (A) (A) (A) (A) (A) (A) (A)
                 (A) (A) (A) (A) (A) (A) (A) (A) (A) (A) (A) (A)
                 (A) (A) (A) (A) (A) (A) (A) (A) (A) (A) (A) (A)
                 (A) (A) (A) (A) (A) (A) (A) (A) (A) (A) (A) (A)
                 (A) (A) (A) (A) (A) (A) (A) (A) (A) (A) (A) (A)
                 (A) (A) (A) (A) (A) (A) (A) (A) (A) (A) (A) (A)
                 (A) (A) (A) (A) (A) (A) (A) (A) (A) (A) (A) (A)
                 (A) (A) (A) (A) (A) (A) (A) (A) (A) (A) (A) (A)
                 (A) (A) (A) (A) (A) (A) (A) (A) (A) (A) (A) (A)
                 (A) (A) (A) (A) (A) (A) (A) (A) (A) (A) (A) (A)
                 (A) (A) (A) (A) (A) (A) (A) (A) (A) (A) (A) (A)
                 (A) (A) (A) (A) (A) (A) (A) (A) (A) (A) (A) (A)
                 (A) (A) (A) (A) (A) (A) (A) (A) (A) (A) (A) (A)
                 (A) (A) (A) (A) (A) (A) (A) (A) (A) (A) (A) (A)
                 (A) (A) (A) (A) (A) (A) (A) (A) (A) (A) (A) (A)
                 (A) (A) (A) (A) (A) (A) (A) (A) (A) (A) (A) (A)
                 (A) (A) (A) (A) (A) (A) (A) (A)
 The electronic state is 1-A.
 Alpha  occ. eigenvalues --  -10.76615 -10.72429 -10.72294 -10.71761 -10.71689
 Alpha  occ. eigenvalues --  -10.71567 -10.71248 -10.70929 -10.70739 -10.69965
 Alpha  occ. eigenvalues --  -10.69487 -10.68994 -10.68948 -10.68855  -1.18047
 Alpha  occ. eigenvalues --   -1.14167  -1.08819  -1.07009  -1.02343  -1.01187
 Alpha  occ. eigenvalues --   -0.96530  -0.92729  -0.86981  -0.85914  -0.83696
 Alpha  occ. eigenvalues --   -0.79409  -0.77339  -0.74242  -0.71966  -0.71441
 Alpha  occ. eigenvalues --   -0.69360  -0.68450  -0.66835  -0.66318  -0.63040
 Alpha  occ. eigenvalues --   -0.62259  -0.61854  -0.61600  -0.60802  -0.59877
 Alpha  occ. eigenvalues --   -0.56909  -0.55283  -0.53239  -0.52622  -0.47847
 Alpha  occ. eigenvalues --   -0.46166  -0.45532
 Alpha virt. eigenvalues --   -0.25851  -0.14395  -0.13411  -0.12016  -0.11178
 Alpha virt. eigenvalues --   -0.09887  -0.09369  -0.08246  -0.08009  -0.07435
 Alpha virt. eigenvalues --   -0.07172  -0.06862  -0.05640  -0.05511  -0.05169
 Alpha virt. eigenvalues --   -0.04063  -0.04035  -0.03139  -0.02950  -0.02021
 Alpha virt. eigenvalues --   -0.01755  -0.00888   0.00348   0.00439   0.00802
 Alpha virt. eigenvalues --    0.01306   0.01392   0.02085   0.02236   0.02413
 Alpha virt. eigenvalues --    0.02695   0.02891   0.03099   0.03191   0.03420
 Alpha virt. eigenvalues --    0.04249   0.04536   0.04611   0.05302   0.05358
 Alpha virt. eigenvalues --    0.06075   0.06347   0.06461   0.06923   0.07523
 Alpha virt. eigenvalues --    0.07706   0.08261   0.08556   0.08892   0.09170
 Alpha virt. eigenvalues --    0.09395   0.09727   0.09971   0.10186   0.11427
 Alpha virt. eigenvalues --    0.11634   0.11917   0.12441   0.12485   0.12771
 Alpha virt. eigenvalues --    0.13527   0.13846   0.14320   0.14762   0.15434
 Alpha virt. eigenvalues --    0.16177   0.16670   0.17962   0.18149   0.18542
 Alpha virt. eigenvalues --    0.18922   0.19217   0.19795   0.20107   0.20416
 Alpha virt. eigenvalues --    0.21197   0.22018   0.23047   0.23178   0.23795
 Alpha virt. eigenvalues --    0.24271   0.24979   0.25367   0.27507   0.28490
 Alpha virt. eigenvalues --    0.29135   0.29502   0.32111   0.32576   0.37771
 Alpha virt. eigenvalues --    0.38279   0.38967   0.39254   0.40412   0.41364
 Alpha virt. eigenvalues --    0.41680   0.42538   0.43390   0.43733   0.44651
 Alpha virt. eigenvalues --    0.45140   0.46039   0.46698   0.47530   0.47695
 Alpha virt. eigenvalues --    0.48920   0.49292   0.49597   0.50453   0.50715
 Alpha virt. eigenvalues --    0.51071   0.51843   0.52388   0.52735   0.53714
 Alpha virt. eigenvalues --    0.54086   0.55705   0.55947   0.56388   0.58379
 Alpha virt. eigenvalues --    0.59733   0.60361   0.61654   0.62416   0.63124
 Alpha virt. eigenvalues --    0.63515   0.64023   0.64422   0.66115   0.67189
 Alpha virt. eigenvalues --    0.68445   0.70319   0.71522   0.72147   0.73309
 Alpha virt. eigenvalues --    0.74356   0.75596   0.75947   0.76467   0.76533
 Alpha virt. eigenvalues --    0.77162   0.77959   0.78307   0.79380   0.80946
 Alpha virt. eigenvalues --    0.81719   0.82200   0.82791   0.83597   0.84866
 Alpha virt. eigenvalues --    0.85409   0.86834   0.87824   0.88611   0.89651
 Alpha virt. eigenvalues --    0.91986   0.93246   0.94757   0.96357   0.97582
 Alpha virt. eigenvalues --    0.98156   0.99887   1.00229   1.02860   1.03044
 Alpha virt. eigenvalues --    1.04703   1.06426   1.06613   1.08569   1.11700
 Alpha virt. eigenvalues --    1.21941   1.23099   1.25328   1.29277   1.29831
 Alpha virt. eigenvalues --    1.31875   1.33256   1.33345   1.35296   1.35639
 Alpha virt. eigenvalues --    1.38296   1.42665   1.43035   1.44162   1.44882
 Alpha virt. eigenvalues --    1.45493   1.47345   1.48133   1.48360   1.49169
 Alpha virt. eigenvalues --    1.49782   1.51455   1.52282   1.55763   1.56782
 Alpha virt. eigenvalues --    1.57009   1.58086   1.58698   1.59592   1.61476
 Alpha virt. eigenvalues --    1.62494   1.62991   1.63389   1.66337   1.67409
 Alpha virt. eigenvalues --    1.68008   1.70922   1.72909   1.73536   1.76838
 Alpha virt. eigenvalues --    1.78206   1.79270   1.80249   1.82979   1.83494
 Alpha virt. eigenvalues --    1.84320   1.85101   1.85412   1.85537   1.85838
 Alpha virt. eigenvalues --    1.86520   1.87243   1.88371   1.90085   1.92828
 Alpha virt. eigenvalues --    1.93430   1.95178   1.96619   1.99000   2.01806
 Alpha virt. eigenvalues --    2.03052   2.05239   2.07595   2.11300   2.13012
 Alpha virt. eigenvalues --    2.14940   2.16890   2.17368   2.24532   2.25647
 Alpha virt. eigenvalues --    2.25915   2.30739   2.31772   2.33210   2.36768
 Alpha virt. eigenvalues --    2.37653   2.39198   2.41418   2.42488   2.45319
 Alpha virt. eigenvalues --    2.47897   2.51396   2.52479   2.56564   2.56872
 Alpha virt. eigenvalues --    2.58646   2.59370   2.59732   2.60419   2.61131
 Alpha virt. eigenvalues --    2.61318   2.62574   2.62644   2.63906   2.64317
 Alpha virt. eigenvalues --    2.65701   2.66806   2.66991   2.67604   2.68615
 Alpha virt. eigenvalues --    2.71675   2.72773   2.75448   2.76950   2.77728
 Alpha virt. eigenvalues --    2.79972   2.81172   2.81959   2.82630   2.85202
 Alpha virt. eigenvalues --    2.89476   2.92940   2.94682   2.96027   3.02058
 Alpha virt. eigenvalues --    3.02933   3.09328   3.10709   3.17883   3.19327
 Alpha virt. eigenvalues --    3.27473   3.29835   3.31840   3.33579   3.34850
 Alpha virt. eigenvalues --    3.36677   3.40469   3.45776   3.48182   3.49683
 Alpha virt. eigenvalues --    3.50081   3.56783   3.58271   3.66675   3.67237
 Alpha virt. eigenvalues --    3.89255   3.91346   3.94599   3.96598   3.97737
 Alpha virt. eigenvalues --    4.01628   4.02822   4.03424   4.11711   4.39175
 Alpha virt. eigenvalues --    4.69353   4.71840   4.73309  23.42024  23.59732
 Alpha virt. eigenvalues --   23.84494  23.87238  23.88763  23.98820  24.01768
 Alpha virt. eigenvalues --   24.05916  24.06418  24.08910  24.09400  24.13007
 Alpha virt. eigenvalues --   24.22739  24.24625
          Condensed to atoms (all electrons):
               1          2          3          4          5          6
     1  C    9.807839   0.527158  -0.974743   2.445076   0.123977  -0.089075
     2  C    0.527158   7.082618   0.390969  -0.621531  -0.099370  -0.019993
     3  C   -0.974743   0.390969   6.893437   0.018292  -0.087874   0.023325
     4  C    2.445076  -0.621531   0.018292  13.441005   0.146989  -0.159664
     5  C    0.123977  -0.099370  -0.087874   0.146989   9.985862  -0.308256
     6  C   -0.089075  -0.019993   0.023325  -0.159664  -0.308256   7.125064
     7  C   -0.019593   0.014746  -0.010940  -0.094876  -0.585617   0.606776
     8  C    0.679676  -0.027451  -0.095490   0.098201   2.818344  -0.950932
     9  C   -1.646292  -0.479822   0.593563  -0.267614  -1.960751   0.345357
    10  C   -1.672064   0.013053  -0.297304  -3.531755  -1.880257  -0.431777
    11  C   -0.542513  -0.820338   1.102541  -1.140927  -1.067304  -0.068168
    12  C   -1.894917   0.391224  -1.161798  -1.084664  -0.164544  -0.142039
    13  C   -0.144352  -0.084194  -0.162667  -2.316403  -1.244361   1.341109
    14  C   -1.028920  -0.238792  -0.127600  -1.410560  -0.151269  -1.188907
    15  H    0.338213  -0.063050  -0.015076   0.029144   0.005153   0.001212
    16  H   -0.029988   0.403597  -0.015208   0.019387  -0.001122  -0.000281
    17  H   -0.026416  -0.039523   0.410604  -0.078589  -0.001135   0.000363
    18  H    0.056819  -0.005543  -0.092650   0.451141   0.020424  -0.003219
    19  H   -0.070281  -0.007159   0.050505  -0.145832  -0.071522   0.064697
    20  H    0.010266   0.001208  -0.002939   0.019742   0.465101  -0.104094
    21  H   -0.001088  -0.000193   0.000321  -0.001431  -0.086682   0.407210
    22  H    0.000480   0.000259  -0.000243  -0.002470   0.022263  -0.012312
    23  H    0.009337  -0.001839   0.000899   0.008412   0.015392  -0.015262
    24  H    0.093921   0.020214   0.001603  -0.023838  -0.002292   0.006704
    25  H    0.074723   0.032751  -0.004503  -0.017353  -0.014961  -0.009312
               7          8          9         10         11         12
     1  C   -0.019593   0.679676  -1.646292  -1.672064  -0.542513  -1.894917
     2  C    0.014746  -0.027451  -0.479822   0.013053  -0.820338   0.391224
     3  C   -0.010940  -0.095490   0.593563  -0.297304   1.102541  -1.161798
     4  C   -0.094876   0.098201  -0.267614  -3.531755  -1.140927  -1.084664
     5  C   -0.585617   2.818344  -1.960751  -1.880257  -1.067304  -0.164544
     6  C    0.606776  -0.950932   0.345357  -0.431777  -0.068168  -0.142039
     7  C    6.484382   0.423776  -0.014108  -0.069869  -0.090616  -0.265438
     8  C    0.423776  10.227847  -2.359441  -1.865723  -0.037943  -0.830755
     9  C   -0.014108  -2.359441  10.802164   0.899848   1.849151  -2.248340
    10  C   -0.069869  -1.865723   0.899848  10.721620  -0.597143   2.814618
    11  C   -0.090616  -0.037943   1.849151  -0.597143  12.418499  -1.649090
    12  C   -0.265438  -0.830755  -2.248340   2.814618  -1.649090  14.369975
    13  C   -0.452379  -0.986772   1.359243  -0.736468   0.222889  -3.516259
    14  C    0.166894  -1.526232  -1.284504   2.063345  -2.904998   0.663550
    15  H   -0.000960   0.011830   0.035359  -0.006849  -0.047672   0.038989
    16  H    0.000124  -0.000254   0.000389  -0.013075   0.004534  -0.019219
    17  H   -0.000044  -0.000768   0.010394   0.014026   0.014978   0.048039
    18  H   -0.000098   0.008705  -0.040802   0.045646  -0.039833  -0.043756
    19  H   -0.001349  -0.075686   0.108609   0.434948   0.049651  -0.070494
    20  H   -0.015668   0.069331  -0.048379   0.057816  -0.008559  -0.006811
    21  H   -0.009255  -0.043569   0.006070   0.025266  -0.002016   0.005854
    22  H    0.374559  -0.008550  -0.004637  -0.018408   0.002824  -0.010863
    23  H   -0.037338   0.316543   0.034411   0.001052  -0.011540   0.010288
    24  H    0.017532   0.078195   0.322904  -0.017071   0.003837  -0.077778
    25  H    0.027746   0.067135   0.378609  -0.014215  -0.024474  -0.070374
              13         14         15         16         17         18
     1  C   -0.144352  -1.028920   0.338213  -0.029988  -0.026416   0.056819
     2  C   -0.084194  -0.238792  -0.063050   0.403597  -0.039523  -0.005543
     3  C   -0.162667  -0.127600  -0.015076  -0.015208   0.410604  -0.092650
     4  C   -2.316403  -1.410560   0.029144   0.019387  -0.078589   0.451141
     5  C   -1.244361  -0.151269   0.005153  -0.001122  -0.001135   0.020424
     6  C    1.341109  -1.188907   0.001212  -0.000281   0.000363  -0.003219
     7  C   -0.452379   0.166894  -0.000960   0.000124  -0.000044  -0.000098
     8  C   -0.986772  -1.526232   0.011830  -0.000254  -0.000768   0.008705
     9  C    1.359243  -1.284504   0.035359   0.000389   0.010394  -0.040802
    10  C   -0.736468   2.063345  -0.006849  -0.013075   0.014026   0.045646
    11  C    0.222889  -2.904998  -0.047672   0.004534   0.014978  -0.039833
    12  C   -3.516259   0.663550   0.038989  -0.019219   0.048039  -0.043756
    13  C   13.572875  -0.098564  -0.011090  -0.002048  -0.000284  -0.019210
    14  C   -0.098564  12.704438   0.003467  -0.006565   0.002004  -0.021064
    15  H   -0.011090   0.003467   0.445660  -0.008660   0.001226   0.000408
    16  H   -0.002048  -0.006565  -0.008660   0.419788  -0.008314   0.001798
    17  H   -0.000284   0.002004   0.001226  -0.008314   0.432442  -0.008943
    18  H   -0.019210  -0.021064   0.000408   0.001798  -0.008943   0.445075
    19  H    0.102211  -0.000846   0.000041  -0.000647   0.001715  -0.004056
    20  H   -0.040526  -0.066719  -0.000133   0.000009  -0.000121   0.000922
    21  H   -0.007903   0.062078   0.000011  -0.000004   0.000010  -0.000115
    22  H    0.018719  -0.024223  -0.000094   0.000002  -0.000003  -0.000010
    23  H   -0.055738   0.048107   0.000442  -0.000073   0.000013  -0.000080
    24  H   -0.015283  -0.078904   0.001394   0.000086   0.000069  -0.000203
    25  H   -0.028851  -0.062395  -0.000692   0.000857  -0.000341   0.000896
              19         20         21         22         23         24
     1  C   -0.070281   0.010266  -0.001088   0.000480   0.009337   0.093921
     2  C   -0.007159   0.001208  -0.000193   0.000259  -0.001839   0.020214
     3  C    0.050505  -0.002939   0.000321  -0.000243   0.000899   0.001603
     4  C   -0.145832   0.019742  -0.001431  -0.002470   0.008412  -0.023838
     5  C   -0.071522   0.465101  -0.086682   0.022263   0.015392  -0.002292
     6  C    0.064697  -0.104094   0.407210  -0.012312  -0.015262   0.006704
     7  C   -0.001349  -0.015668  -0.009255   0.374559  -0.037338   0.017532
     8  C   -0.075686   0.069331  -0.043569  -0.008550   0.316543   0.078195
     9  C    0.108609  -0.048379   0.006070  -0.004637   0.034411   0.322904
    10  C    0.434948   0.057816   0.025266  -0.018408   0.001052  -0.017071
    11  C    0.049651  -0.008559  -0.002016   0.002824  -0.011540   0.003837
    12  C   -0.070494  -0.006811   0.005854  -0.010863   0.010288  -0.077778
    13  C    0.102211  -0.040526  -0.007903   0.018719  -0.055738  -0.015283
    14  C   -0.000846  -0.066719   0.062078  -0.024223   0.048107  -0.078904
    15  H    0.000041  -0.000133   0.000011  -0.000094   0.000442   0.001394
    16  H   -0.000647   0.000009  -0.000004   0.000002  -0.000073   0.000086
    17  H    0.001715  -0.000121   0.000010  -0.000003   0.000013   0.000069
    18  H   -0.004056   0.000922  -0.000115  -0.000010  -0.000080  -0.000203
    19  H    0.462034  -0.004049   0.001672  -0.000496  -0.000101   0.000418
    20  H   -0.004049   0.451931  -0.008057   0.001295   0.000444   0.000607
    21  H    0.001672  -0.008057   0.430876  -0.007093   0.000915   0.000086
    22  H   -0.000496   0.001295  -0.007093   0.415179  -0.006456   0.000160
    23  H   -0.000101   0.000444   0.000915  -0.006456   0.432758  -0.000687
    24  H    0.000418   0.000607   0.000086   0.000160  -0.000687   0.482284
    25  H   -0.000182   0.000493  -0.000386   0.000935   0.001076  -0.039207
              25
     1  C    0.074723
     2  C    0.032751
     3  C   -0.004503
     4  C   -0.017353
     5  C   -0.014961
     6  C   -0.009312
     7  C    0.027746
     8  C    0.067135
     9  C    0.378609
    10  C   -0.014215
    11  C   -0.024474
    12  C   -0.070374
    13  C   -0.028851
    14  C   -0.062395
    15  H   -0.000692
    16  H    0.000857
    17  H   -0.000341
    18  H    0.000896
    19  H   -0.000182
    20  H    0.000493
    21  H   -0.000386
    22  H    0.000935
    23  H    0.001076
    24  H   -0.039207
    25  H    0.474354
 Mulliken charges:
               1
     1  C   -0.027243
     2  C   -0.369000
     3  C   -0.437022
     4  C    0.220121
     5  C    0.123811
     6  C   -0.418525
     7  C   -0.448386
     8  C    0.009981
     9  C   -0.391383
    10  C    0.060741
    11  C   -0.615771
    12  C    0.914601
    13  C   -0.693695
    14  C    0.507177
    15  H    0.241725
    16  H    0.254885
    17  H    0.228596
    18  H    0.247749
    19  H    0.176200
    20  H    0.226889
    21  H    0.227425
    22  H    0.259182
    23  H    0.249025
    24  H    0.225247
    25  H    0.227670
 Sum of Mulliken charges =   1.00000
 Mulliken charges with hydrogens summed into heavy atoms:
               1
     1  C    0.214481
     2  C   -0.114115
     3  C   -0.208426
     4  C    0.467870
     5  C    0.350700
     6  C   -0.191100
     7  C   -0.189205
     8  C    0.259006
     9  C    0.061534
    10  C    0.236941
    11  C   -0.615771
    12  C    0.914601
    13  C   -0.693695
    14  C    0.507177
 Electronic spatial extent (au):  <R**2>=           2819.0277
 Charge=              1.0000 electrons
 Dipole moment (field-independent basis, Debye):
    X=             -0.0284    Y=              0.3250    Z=             -0.0047  Tot=              0.3263
 Quadrupole moment (field-independent basis, Debye-Ang):
   XX=            -28.0268   YY=            -59.9086   ZZ=            -82.8944
   XY=              0.1615   XZ=             -0.4586   YZ=              0.3639
 Traceless Quadrupole moment (field-independent basis, Debye-Ang):
   XX=             28.9164   YY=             -2.9653   ZZ=            -25.9511
   XY=              0.1615   XZ=             -0.4586   YZ=              0.3639
 Octapole moment (field-independent basis, Debye-Ang**2):
  XXX=             -0.2632  YYY=              5.4427  ZZZ=              0.1000  XYY=             -0.0471
  XXY=              0.5073  XXZ=              0.1944  XZZ=              0.0019  YZZ=             -3.0123
  YYZ=              0.2964  XYZ=             -0.4278
 Hexadecapole moment (field-independent basis, Debye-Ang**3):
 XXXX=          -2044.6494 YYYY=           -595.7040 ZZZZ=            -96.3035 XXXY=             -1.1787
 XXXZ=            -11.6403 YYYX=              2.9529 YYYZ=              1.7758 ZZZX=             -0.4653
 ZZZY=              0.0810 XXYY=           -511.4764 XXZZ=           -581.6719 YYZZ=           -137.5575
 XXYZ=              7.2101 YYXZ=             -0.9613 ZZXY=             -0.9862
 N-N= 7.923809681673D+02 E-N=-2.821782431265D+03  KE= 5.386526151466D+02
 Unable to Open any file for archive entry.
 1\1\GINC-GADI-CPU-CLX-0572\SP\RM062X TD-FC\6-311++G(d,p)\C14H11(1+)\TS
 1578\27-Jul-2022\0\\#n M062X/6-311++G(d,p) TD(NStates=1) EmpiricalDisp
 ersion=GD3 SP\\SP_-2\\1,1\C,0,2.4927,1.2891,-0.034\C,0,3.7015,0.6087,-
 0.038\C,0,3.6839,-0.7351,-0.064\C,0,2.4632,-1.3309,0.008\C,0,-2.4632,-
 1.3069,0.072\C,0,-3.6839,-0.7471,0.064\C,0,-3.7015,0.6087,0.026\C,0,-2
 .4927,1.3211,-0.034\C,0,0.,1.4301,-0.066\C,0,0.,-1.3045,0.054\C,0,1.26
 21,0.7137,0.028\C,0,1.2375,-0.6921,0.022\C,0,-1.2621,0.7297,-0.06\C,0,
 -1.2375,-0.6801,0.03\H,0,2.4881,2.4043,-0.036\H,0,4.6368,1.1304,-0.004
 \H,0,4.6093,-1.2797,-0.036\H,0,2.4675,-2.4814,0.01\H,0,0.,-2.4016,0.05
 6\H,0,-2.4675,-2.4094,0.074\H,0,-4.6093,-1.2557,-0.02\H,0,-4.6368,1.16
 64,0.052\H,0,-2.4881,2.4603,-0.036\H,0,0.004,1.9785,-0.9196\H,0,-0.004
 ,1.9785,0.7996\\Version=ES64L-G16RevC.01\State=1-A\HF=-539.714635\RMSD
 =7.482e-09\PG=C01 [X(C14H11)]\\@
 The archive entry for this job was punched.


 THESE ARE THE TIMES THAT TRY MENS SOULS.
 THE SUMMER SOLDIER AND THE SUNSHINE PATRIOT WILL IN THIS CRISIS,
 SHRINK FROM THE SERVICE OF HIS COUNTRY.  BUT HE THAT STANDS NOW,
 DESERVES THE LOVE AND THANKS OF MAN AND WOMAN.
 TYRANNY, LIKE HELL, IS NOT EASILY CONQUERED,
 YET WE HAVE THIS CONSOLATION WITH US,
 THAT THE HARDER THE CONFLICT, THE MORE GLORIOUS THE TRIUMPH.
 WHAT WE OBTAIN TOO CHEAP, WE ESTEEM TOO LIGHTLY, 
 'TIS DEARNESS ONLY THAT GIVES EVERYTHING ITS VALUE.

                                              -- TOM PAINE
 Job cpu time:       0 days  1 hours 13 minutes 15.9 seconds.
 Elapsed time:       0 days  0 hours  2 minutes 20.4 seconds.
 File lengths (MBytes):  RWF=    460 Int=      0 D2E=      0 Chk=     15 Scr=      1
 Normal termination of Gaussian 16 at Wed Jul 27 10:31:59 2022.
