 Entering Gaussian System, Link 0=g16
 Initial command:
 /apps/gaussian/g16c01/g16/l1.exe "/jobfs/52803152.gadi-pbs/Gau-2881012.inp" -scrdir="/jobfs/52803152.gadi-pbs/"
 Entering Link 1 = /apps/gaussian/g16c01/g16/l1.exe PID=   2881013.
  
 Copyright (c) 1988-2019, Gaussian, Inc.  All Rights Reserved.
  
 This is part of the Gaussian(R) 16 program.  It is based on
 the Gaussian(R) 09 system (copyright 2009, Gaussian, Inc.),
 the Gaussian(R) 03 system (copyright 2003, Gaussian, Inc.),
 the Gaussian(R) 98 system (copyright 1998, Gaussian, Inc.),
 the Gaussian(R) 94 system (copyright 1995, Gaussian, Inc.),
 the Gaussian 92(TM) system (copyright 1992, Gaussian, Inc.),
 the Gaussian 90(TM) system (copyright 1990, Gaussian, Inc.),
 the Gaussian 88(TM) system (copyright 1988, Gaussian, Inc.),
 the Gaussian 86(TM) system (copyright 1986, Carnegie Mellon
 University), and the Gaussian 82(TM) system (copyright 1983,
 Carnegie Mellon University). Gaussian is a federally registered
 trademark of Gaussian, Inc.
  
 This software contains proprietary and confidential information,
 including trade secrets, belonging to Gaussian, Inc.
  
 This software is provided under written license and may be
 used, copied, transmitted, or stored only in accord with that
 written license.
  
 The following legend is applicable only to US Government
 contracts under FAR:
  
                    RESTRICTED RIGHTS LEGEND
  
 Use, reproduction and disclosure by the US Government is
 subject to restrictions as set forth in subparagraphs (a)
 and (c) of the Commercial Computer Software - Restricted
 Rights clause in FAR 52.227-19.
  
 Gaussian, Inc.
 340 Quinnipiac St., Bldg. 40, Wallingford CT 06492
  
  
 ---------------------------------------------------------------
 Warning -- This program may not be used in any manner that
 competes with the business of Gaussian, Inc. or will provide
 assistance to any competitor of Gaussian, Inc.  The licensee
 of this program is prohibited from giving any competitor of
 Gaussian, Inc. access to this program.  By using this program,
 the user acknowledges that Gaussian, Inc. is engaged in the
 business of creating and licensing software in the field of
 computational chemistry and represents and warrants to the
 licensee that it is not a competitor of Gaussian, Inc. and that
 it will not use this program in any manner prohibited above.
 ---------------------------------------------------------------
  

 Cite this work as:
 Gaussian 16, Revision C.01,
 M. J. Frisch, G. W. Trucks, H. B. Schlegel, G. E. Scuseria, 
 M. A. Robb, J. R. Cheeseman, G. Scalmani, V. Barone, 
 G. A. Petersson, H. Nakatsuji, X. Li, M. Caricato, A. V. Marenich, 
 J. Bloino, B. G. Janesko, R. Gomperts, B. Mennucci, H. P. Hratchian, 
 J. V. Ortiz, A. F. Izmaylov, J. L. Sonnenberg, D. Williams-Young, 
 F. Ding, F. Lipparini, F. Egidi, J. Goings, B. Peng, A. Petrone, 
 T. Henderson, D. Ranasinghe, V. G. Zakrzewski, J. Gao, N. Rega, 
 G. Zheng, W. Liang, M. Hada, M. Ehara, K. Toyota, R. Fukuda, 
 J. Hasegawa, M. Ishida, T. Nakajima, Y. Honda, O. Kitao, H. Nakai, 
 T. Vreven, K. Throssell, J. A. Montgomery, Jr., J. E. Peralta, 
 F. Ogliaro, M. J. Bearpark, J. J. Heyd, E. N. Brothers, K. N. Kudin, 
 V. N. Staroverov, T. A. Keith, R. Kobayashi, J. Normand, 
 K. Raghavachari, A. P. Rendell, J. C. Burant, S. S. Iyengar, 
 J. Tomasi, M. Cossi, J. M. Millam, M. Klene, C. Adamo, R. Cammi, 
 J. W. Ochterski, R. L. Martin, K. Morokuma, O. Farkas, 
 J. B. Foresman, and D. J. Fox, Gaussian, Inc., Wallingford CT, 2019.
 
 ******************************************
 Gaussian 16:  ES64L-G16RevC.01  3-Jul-2019
                27-Jul-2022 
 ******************************************
 %NProcShared=32
 Will use up to   32 processors via shared memory.
 %mem = 128GB
 ---------------------------------------------------------------
 #n M062X/6-311++G(d,p) TD(NStates=1) EmpiricalDispersion=GD3 SP
 ---------------------------------------------------------------
 1/38=1,172=1/1;
 2/12=2,17=6,18=5,40=1/2;
 3/5=4,6=6,7=1111,11=9,25=1,30=1,74=-55,124=31/1,2,3,8;
 4//1;
 5/5=2,38=5/2;
 8/6=1,10=2,108=1/1;
 9/41=1,42=1,70=2/14;
 6/7=2,8=2,9=2,10=2/1;
 99/5=1,9=1/99;
 ----
 SP_1
 ----
 Symbolic Z-matrix:
 Charge =  1 Multiplicity = 1
 C                     2.4927    1.4411    0.017 
 C                     3.7015    0.7527    0.035 
 C                     3.6839   -0.6721    0.064 
 C                     2.4632   -1.4729    0.012 
 C                    -2.4632   -1.4849   -0.052 
 C                    -3.6839   -0.6661   -0.064 
 C                    -3.7015    0.7527   -0.029 
 C                    -2.4927    1.4251    0.017 
 C                     0.        1.4941    0.033 
 C                     0.       -1.5365   -0.027 
 C                     1.2621    0.6537   -0.036 
 C                     1.2375   -0.7551   -0.009 
 C                    -1.2621    0.6457    0.052 
 C                    -1.2375   -0.7611   -0.017 
 H                     2.4881    2.4863    0.018 
 H                     4.6368    1.3014    0.016 
 H                     4.6093   -1.2537    0.022 
 H                     2.4675   -2.4994    0.011 
 H                     0.       -2.6016   -0.028 
 H                    -2.4675   -2.5354   -0.053 
 H                    -4.6093   -1.2657    0.006 
 H                    -4.6368    1.2834   -0.04 
 H                    -2.4881    2.4583    0.018 
 H                    -0.002     2.3305   -0.8296 
 H                     0.002     2.3305    0.8896 
 
                          Input orientation:                          
 ---------------------------------------------------------------------
 Center     Atomic      Atomic             Coordinates (Angstroms)
 Number     Number       Type             X           Y           Z
 ---------------------------------------------------------------------
      1          6           0        2.492700    1.441100    0.017000
      2          6           0        3.701500    0.752700    0.035000
      3          6           0        3.683900   -0.672100    0.064000
      4          6           0        2.463200   -1.472900    0.012000
      5          6           0       -2.463200   -1.484900   -0.052000
      6          6           0       -3.683900   -0.666100   -0.064000
      7          6           0       -3.701500    0.752700   -0.029000
      8          6           0       -2.492700    1.425100    0.017000
      9          6           0        0.000000    1.494100    0.033000
     10          6           0        0.000000   -1.536500   -0.027000
     11          6           0        1.262100    0.653700   -0.036000
     12          6           0        1.237500   -0.755100   -0.009000
     13          6           0       -1.262100    0.645700    0.052000
     14          6           0       -1.237500   -0.761100   -0.017000
     15          1           0        2.488100    2.486300    0.018000
     16          1           0        4.636800    1.301400    0.016000
     17          1           0        4.609300   -1.253700    0.022000
     18          1           0        2.467500   -2.499400    0.011000
     19          1           0        0.000000   -2.601600   -0.028000
     20          1           0       -2.467500   -2.535400   -0.053000
     21          1           0       -4.609300   -1.265700    0.006000
     22          1           0       -4.636800    1.283400   -0.040000
     23          1           0       -2.488100    2.458300    0.018000
     24          1           0       -0.002000    2.330500   -0.829600
     25          1           0        0.002000    2.330500    0.889600
 ---------------------------------------------------------------------
                    Distance matrix (angstroms):
                    1          2          3          4          5
     1  C    0.000000
     2  C    1.391192   0.000000
     3  C    2.426269   1.425204   0.000000
     4  C    2.914154   2.547000   1.460854   0.000000
     5  C    5.755622   6.558807   6.201688   4.926830   0.000000
     6  C    6.526656   7.521099   7.368914   6.200286   1.469927
     7  C    6.232505   7.403277   7.522156   6.554274   2.557493
     8  C    4.985426   6.230615   6.523101   5.741026   2.910967
     9  C    2.493315   3.775021   4.273699   3.856279   3.866396
    10  C    3.883502   4.352629   3.785048   2.464330   2.463867
    11  C    1.461911   2.442440   2.762763   2.442821   4.295547
    12  C    2.529723   2.889064   2.448896   1.420570   3.772219
    13  C    3.838282   4.964782   5.118560   4.285782   2.448043
    14  C    4.331886   5.166044   4.922871   3.768644   1.423886
    15  H    1.045211   2.116128   3.377506   3.959283   6.347496
    16  H    2.148647   1.084536   2.192037   3.524386   7.627456
    17  H    3.426655   2.202251   1.093795   2.157289   7.076665
    18  H    3.940585   3.478432   2.195783   1.026509   5.034380
    19  H    4.749632   4.995638   4.159634   2.709782   2.704616
    20  H    6.357754   6.991131   6.428476   5.044297   1.050509
    21  H    7.600348   8.552437   8.314619   7.075537   2.158045
    22  H    7.131472   8.355508   8.548032   7.616423   3.519683
    23  H    5.083608   6.420320   6.920629   6.322163   3.943900
    24  H    2.780520   4.117390   4.837353   4.609919   4.606457
    25  H    2.784969   4.111702   4.822200   4.614492   4.639084
                    6          7          8          9         10
     6  C    0.000000
     7  C    1.419341   0.000000
     8  C    2.408036   1.383992   0.000000
     9  C    4.271650   3.775529   2.493706   0.000000
    10  C    3.785510   4.352188   3.871248   3.031194   0.000000
    11  C    5.119138   4.964592   3.833587   1.517870   2.527836
    12  C    4.922512   5.164066   4.320687   2.567503   1.463665
    13  C    2.756699   2.443089   1.457074   1.520868   2.522129
    14  C    2.448695   2.891890   2.521141   2.572904   1.460394
    15  H    6.930940   6.427964   5.092594   2.678680   4.730284
    16  H    8.550527   8.356455   7.130573   4.640834   5.436491
    17  H    8.314435   8.549716   7.590415   5.366207   4.618227
    18  H    6.419216   6.973831   6.324976   4.694367   2.648995
    19  H    4.161559   4.995241   4.736021   4.096154   1.065100
    20  H    2.230254   3.512112   3.961199   4.725762   2.662148
    21  H    1.104892   2.213428   3.423525   5.372418   4.617366
    22  H    2.170056   1.075430   2.149533   4.642159   5.426962
    23  H    3.346422   2.093710   1.033211   2.668436   4.706495
    24  H    4.808549   4.100819   2.782098   1.201519   3.949413
    25  H    4.845082   4.129067   2.793691   1.197219   3.974148
                   11         12         13         14         15
    11  C    0.000000
    12  C    1.409273   0.000000
    13  C    2.525746   2.866001   0.000000
    14  C    2.872285   2.475020   1.408706   0.000000
    15  H    2.205542   3.474393   4.177675   4.942360   0.000000
    16  H    3.436687   3.973041   5.935340   6.225945   2.453753
    17  H    3.852958   3.408606   6.171058   5.867644   4.299663
    18  H    3.375980   2.134451   4.878858   4.092615   4.985747
    19  H    3.491409   2.222910   3.484861   2.217875   5.663875
    20  H    4.907195   4.110770   3.403441   2.159244   7.055529
    21  H    6.177313   5.869072   3.854778   3.409426   8.028121
    22  H    5.932416   6.218026   3.435655   3.966831   7.225962
    23  H    4.162151   4.920037   2.188550   3.453949   4.976279
    24  H    2.244863   3.425007   2.281145   3.427064   2.635014
    25  H    2.292650   3.443090   2.266732   3.451996   2.639063
                   16         17         18         19         20
    16  H    0.000000
    17  H    2.555255   0.000000
    18  H    4.376296   2.477740   0.000000
    19  H    6.060962   4.802601   2.469923   0.000000
    20  H    8.074458   7.192321   4.935546   2.468514   0.000000
    21  H    9.595857   9.218622   7.183532   4.799107   2.490567
    22  H    9.273787   9.588070   8.048805   6.049238   4.391955
    23  H    7.218215   8.009497   7.009765   5.638736   4.994247
    24  H    4.826236   5.902186   5.489351   4.996817   5.509880
    25  H    4.827380   5.901392   5.493502   5.016732   5.537500
                   21         22         23         24         25
    21  H    0.000000
    22  H    2.549663   0.000000
    23  H    4.285768   2.449626   0.000000
    24  H    5.904074   4.816768   2.629725   0.000000
    25  H    5.914177   4.845518   2.641329   1.719205   0.000000
 Stoichiometry    C14H11(1+)
 Framework group  C1[X(C14H11)]
 Deg. of freedom    69
 Full point group                 C1      NOp   1
 Largest Abelian subgroup         C1      NOp   1
 Largest concise Abelian subgroup C1      NOp   1
                         Standard orientation:                         
 ---------------------------------------------------------------------
 Center     Atomic      Atomic             Coordinates (Angstroms)
 Number     Number       Type             X           Y           Z
 ---------------------------------------------------------------------
      1          6           0       -2.494883   -1.427430   -0.019996
      2          6           0       -3.702764   -0.737371   -0.003926
      3          6           0       -3.683281    0.686970    0.041685
      4          6           0       -2.461005    1.486383    0.008930
      5          6           0        2.465767    1.491320   -0.014635
      6          6           0        3.685304    0.670781   -0.026115
      7          6           0        3.700504   -0.748354   -0.007375
      8          6           0        2.490367   -1.419326    0.020962
      9          6           0       -0.002480   -1.484558    0.015776
     10          6           0        0.002524    1.546529   -0.009186
     11          6           0       -1.262719   -0.641420   -0.053824
     12          6           0       -1.236244    0.766933   -0.010341
     13          6           0        1.260684   -0.638434    0.054903
     14          6           0        1.238745    0.769106    0.001971
     15          1           0       -2.491848   -2.472578   -0.031041
     16          1           0       -4.638693   -1.284333   -0.036917
     17          1           0       -4.607439    1.270481   -0.001156
     18          1           0       -2.463768    2.512832    0.019761
     19          1           0        0.004118    2.611568    0.002126
     20          1           0        2.471639    2.541754   -0.003456
     21          1           0        4.610991    1.268067    0.058377
     22          1           0        4.635071   -1.280372   -0.016859
     23          1           0        2.484221   -2.452460    0.009980
     24          1           0        0.005345   -2.310944   -0.856390
     25          1           0       -0.012746   -2.330790    0.862605
 ---------------------------------------------------------------------
 Rotational constants (GHZ):           1.9722049           0.4445362           0.3636111
 Standard basis: 6-311++G(d,p) (5D, 7F)
 There are   399 symmetry adapted cartesian basis functions of A   symmetry.
 There are   385 symmetry adapted basis functions of A   symmetry.
   385 basis functions,   603 primitive gaussians,   399 cartesian basis functions
    47 alpha electrons       47 beta electrons
       nuclear repulsion energy       769.7971132656 Hartrees.
 NAtoms=   25 NActive=   25 NUniq=   25 SFac= 1.00D+00 NAtFMM=   60 NAOKFM=F Big=F
 Integral buffers will be    131072 words long.
 Regular integral format.
 Two-electron integral symmetry is turned on.
 Nuclear repulsion after empirical dispersion term =      769.7961166234 Hartrees.
 One-electron integrals computed using PRISM.
 NBasis=   385 RedAO= T EigKep=  1.29D-06  NBF=   385
 NBsUse=   380 1.00D-06 EigRej=  8.67D-07 NBFU=   380
 ExpMin= 3.60D-02 ExpMax= 4.56D+03 ExpMxC= 6.82D+02 IAcc=3 IRadAn=         5 AccDes= 0.00D+00
 Harris functional with IExCor= 1009 and IRadAn=       5 diagonalized for initial guess.
 HarFok:  IExCor= 1009 AccDes= 0.00D+00 IRadAn=         5 IDoV= 1 UseB2=F ITyADJ=14
 ICtDFT=  3500011 ScaDFX=  1.000000  1.000000  1.000000  1.000000
 FoFCou: FMM=F IPFlag=           0 FMFlag=      100000 FMFlg1=           0
         NFxFlg=           0 DoJE=T BraDBF=F KetDBF=T FulRan=T
         wScrn=  0.000000 ICntrl=       500 IOpCl=  0 I1Cent=   200000004 NGrid=           0
         NMat0=    1 NMatS0=      1 NMatT0=    0 NMatD0=    1 NMtDS0=    0 NMtDT0=    0
 Petite list used in FoFCou.
 Requested convergence on RMS density matrix=1.00D-08 within 128 cycles.
 Requested convergence on MAX density matrix=1.00D-06.
 Requested convergence on             energy=1.00D-06.
 No special actions if energy rises.
 SCF Done:  E(RM062X) =  -539.700173354     A.U. after   16 cycles
            NFock= 16  Conv=0.65D-08     -V/T= 2.0060
 DoSCS=F DFT=T ScalE2(SS,OS)=  1.000000  1.000000
 ExpMin= 3.60D-02 ExpMax= 4.56D+03 ExpMxC= 6.82D+02 IAcc=3 IRadAn=         5 AccDes= 0.00D+00
 HarFok:  IExCor=  205 AccDes= 0.00D+00 IRadAn=         5 IDoV=-2 UseB2=F ITyADJ=14
 ICtDFT= 12500011 ScaDFX=  1.000000  1.000000  1.000000  1.000000
 Range of M.O.s used for correlation:    15   380
 NBasis=   385 NAE=    47 NBE=    47 NFC=    14 NFV=     0
 NROrb=    366 NOA=    33 NOB=    33 NVA=   333 NVB=   333

 **** Warning!!: The largest alpha MO coefficient is  0.15222655D+03

 Orbital symmetries:
       Occupied  (A) (A) (A) (A) (A) (A) (A) (A) (A) (A) (A) (A)
                 (A) (A) (A) (A) (A) (A) (A) (A) (A) (A) (A) (A)
                 (A) (A) (A) (A) (A) (A) (A) (A) (A) (A) (A) (A)
                 (A) (A) (A) (A) (A) (A) (A) (A) (A) (A) (A)
       Virtual   (A) (A) (A) (A) (A) (A) (A) (A) (A) (A) (A) (A)
                 (A) (A) (A) (A) (A) (A) (A) (A) (A) (A) (A) (A)
                 (A) (A) (A) (A) (A) (A) (A) (A) (A) (A) (A) (A)
                 (A) (A) (A) (A) (A) (A) (A) (A) (A) (A) (A) (A)
                 (A) (A) (A) (A) (A) (A) (A) (A) (A) (A) (A) (A)
                 (A) (A) (A) (A) (A) (A) (A) (A) (A) (A) (A) (A)
                 (A) (A) (A) (A) (A) (A) (A) (A) (A) (A) (A) (A)
                 (A) (A) (A) (A) (A) (A) (A) (A) (A) (A) (A) (A)
                 (A) (A) (A) (A) (A) (A) (A) (A) (A) (A) (A) (A)
                 (A) (A) (A) (A) (A) (A) (A) (A) (A) (A) (A) (A)
                 (A) (A) (A) (A) (A) (A) (A) (A) (A) (A) (A) (A)
                 (A) (A) (A) (A) (A) (A) (A) (A) (A) (A) (A) (A)
                 (A) (A) (A) (A) (A) (A) (A) (A) (A) (A) (A) (A)
                 (A) (A) (A) (A) (A) (A) (A) (A) (A) (A) (A) (A)
                 (A) (A) (A) (A) (A) (A) (A) (A) (A) (A) (A) (A)
                 (A) (A) (A) (A) (A) (A) (A) (A) (A) (A) (A) (A)
                 (A) (A) (A) (A) (A) (A) (A) (A) (A) (A) (A) (A)
                 (A) (A) (A) (A) (A) (A) (A) (A) (A) (A) (A) (A)
                 (A) (A) (A) (A) (A) (A) (A) (A) (A) (A) (A) (A)
                 (A) (A) (A) (A) (A) (A) (A) (A) (A) (A) (A) (A)
                 (A) (A) (A) (A) (A) (A) (A) (A) (A) (A) (A) (A)
                 (A) (A) (A) (A) (A) (A) (A) (A) (A) (A) (A) (A)
                 (A) (A) (A) (A) (A) (A) (A) (A) (A) (A) (A) (A)
                 (A) (A) (A) (A) (A) (A) (A) (A) (A) (A) (A) (A)
                 (A) (A) (A) (A) (A) (A) (A) (A) (A) (A) (A) (A)
                 (A) (A) (A) (A) (A) (A) (A) (A) (A) (A) (A) (A)
                 (A) (A) (A) (A) (A) (A) (A) (A) (A) (A) (A) (A)
                 (A) (A) (A) (A) (A) (A) (A) (A) (A)
     4 initial guesses have been made.
 Convergence on wavefunction:    0.001000000000000
 Iteration     1 Dimension     4 NMult     0 NNew      4
 CISAX will form     4 AO SS matrices at one time.
 Iteration     2 Dimension     6 NMult     4 NNew      2
 Iteration     3 Dimension     8 NMult     6 NNew      2
 Iteration     4 Dimension    10 NMult     8 NNew      2
 Iteration     5 Dimension    12 NMult    10 NNew      2
 Iteration     6 Dimension    14 NMult    12 NNew      2
 ***********************************************************************
 Excited states from <AA,BB:AA,BB> singles matrix:
 ***********************************************************************
 
 Ground to excited state transition densities written to RWF  633
 Ground to excited state transition electric dipole moments (Au):
       state          X           Y           Z        Dip. S.      Osc.
         1         0.0041      0.6815     -0.0005      0.4644      0.0279
 Ground to excited state transition velocity dipole moments (Au):
       state          X           Y           Z        Dip. S.      Osc.
         1        -0.0007     -0.0675      0.0001      0.0046      0.0337
 Ground to excited state transition magnetic dipole moments (Au):
       state          X           Y           Z
         1         0.0030     -0.0082     -0.0112
 Ground to excited state transition velocity quadrupole moments (Au):
       state          XX          YY          ZZ          XY          XZ          YZ
         1        -0.2736     -0.0105      0.0127     -0.0084      0.0058      0.0004
 <0|del|b> * <b|rxdel|0> + <0|del|b> * <b|delr+rdel|0>
 Rotatory Strengths (R) in cgs (10**-40 erg-esu-cm/Gauss)
       state          XX          YY          ZZ    R(velocity)    E-M Angle
         1         3.6957     -0.0107      0.6289      1.4380       54.99
 1/2[<0|r|b>*<b|rxdel|0> + (<0|rxdel|b>*<b|r|0>)*]
 Rotatory Strengths (R) in cgs (10**-40 erg-esu-cm/Gauss)
       state          XX          YY          ZZ     R(length)
         1        -0.0087      3.9501     -0.0038      1.3125
  1/2[<0|del|b>*<b|r|0> + (<0|r|b>*<b|del|0>)*] (Au)
       state          X           Y           Z        Dip. S.   Osc.(frdel)
         1        -0.0000     -0.0460     -0.0000      0.0460      0.0307

 Excitation energies and oscillator strengths:
 
 Excited State   1:      Singlet-A      2.4533 eV  505.38 nm  f=0.0279  <S**2>=0.000
      47 -> 48         0.70479
 This state for optimization and/or second-order correction.
 Total Energy, E(TD-HF/TD-DFT) =  -539.610016556    
 Copying the excited state density for this state as the 1-particle RhoCI density.
 SavETr:  write IOETrn=   770 NScale= 10 NData=  16 NLR=1 NState=    1 LETran=      28.

 **********************************************************************

            Population analysis using the SCF Density.

 **********************************************************************

 Orbital symmetries:
       Occupied  (A) (A) (A) (A) (A) (A) (A) (A) (A) (A) (A) (A)
                 (A) (A) (A) (A) (A) (A) (A) (A) (A) (A) (A) (A)
                 (A) (A) (A) (A) (A) (A) (A) (A) (A) (A) (A) (A)
                 (A) (A) (A) (A) (A) (A) (A) (A) (A) (A) (A)
       Virtual   (A) (A) (A) (A) (A) (A) (A) (A) (A) (A) (A) (A)
                 (A) (A) (A) (A) (A) (A) (A) (A) (A) (A) (A) (A)
                 (A) (A) (A) (A) (A) (A) (A) (A) (A) (A) (A) (A)
                 (A) (A) (A) (A) (A) (A) (A) (A) (A) (A) (A) (A)
                 (A) (A) (A) (A) (A) (A) (A) (A) (A) (A) (A) (A)
                 (A) (A) (A) (A) (A) (A) (A) (A) (A) (A) (A) (A)
                 (A) (A) (A) (A) (A) (A) (A) (A) (A) (A) (A) (A)
                 (A) (A) (A) (A) (A) (A) (A) (A) (A) (A) (A) (A)
                 (A) (A) (A) (A) (A) (A) (A) (A) (A) (A) (A) (A)
                 (A) (A) (A) (A) (A) (A) (A) (A) (A) (A) (A) (A)
                 (A) (A) (A) (A) (A) (A) (A) (A) (A) (A) (A) (A)
                 (A) (A) (A) (A) (A) (A) (A) (A) (A) (A) (A) (A)
                 (A) (A) (A) (A) (A) (A) (A) (A) (A) (A) (A) (A)
                 (A) (A) (A) (A) (A) (A) (A) (A) (A) (A) (A) (A)
                 (A) (A) (A) (A) (A) (A) (A) (A) (A) (A) (A) (A)
                 (A) (A) (A) (A) (A) (A) (A) (A) (A) (A) (A) (A)
                 (A) (A) (A) (A) (A) (A) (A) (A) (A) (A) (A) (A)
                 (A) (A) (A) (A) (A) (A) (A) (A) (A) (A) (A) (A)
                 (A) (A) (A) (A) (A) (A) (A) (A) (A) (A) (A) (A)
                 (A) (A) (A) (A) (A) (A) (A) (A) (A) (A) (A) (A)
                 (A) (A) (A) (A) (A) (A) (A) (A) (A) (A) (A) (A)
                 (A) (A) (A) (A) (A) (A) (A) (A) (A) (A) (A) (A)
                 (A) (A) (A) (A) (A) (A) (A) (A) (A) (A) (A) (A)
                 (A) (A) (A) (A) (A) (A) (A) (A) (A) (A) (A) (A)
                 (A) (A) (A) (A) (A) (A) (A) (A) (A) (A) (A) (A)
                 (A) (A) (A) (A) (A) (A) (A) (A) (A) (A) (A) (A)
                 (A) (A) (A) (A) (A) (A) (A) (A) (A) (A) (A) (A)
                 (A) (A) (A) (A) (A) (A) (A) (A) (A)
 The electronic state is 1-A.
 Alpha  occ. eigenvalues --  -10.78751 -10.74270 -10.74216 -10.73293 -10.73289
 Alpha  occ. eigenvalues --  -10.73148 -10.71828 -10.71463 -10.71227 -10.71033
 Alpha  occ. eigenvalues --  -10.70625 -10.70533 -10.70425 -10.70192  -1.14931
 Alpha  occ. eigenvalues --   -1.10904  -1.05908  -1.03855  -1.01194  -0.98335
 Alpha  occ. eigenvalues --   -0.95158  -0.89399  -0.86812  -0.84973  -0.84095
 Alpha  occ. eigenvalues --   -0.77621  -0.74517  -0.74426  -0.70484  -0.69832
 Alpha  occ. eigenvalues --   -0.68510  -0.67396  -0.65630  -0.65193  -0.64818
 Alpha  occ. eigenvalues --   -0.61994  -0.60184  -0.58486  -0.58139  -0.57960
 Alpha  occ. eigenvalues --   -0.57681  -0.57087  -0.52691  -0.51630  -0.46370
 Alpha  occ. eigenvalues --   -0.45006  -0.43353
 Alpha virt. eigenvalues --   -0.26459  -0.15891  -0.14240  -0.13536  -0.11238
 Alpha virt. eigenvalues --   -0.10347  -0.09143  -0.08446  -0.07818  -0.07534
 Alpha virt. eigenvalues --   -0.07348  -0.07220  -0.05711  -0.05697  -0.05563
 Alpha virt. eigenvalues --   -0.03661  -0.03597  -0.03503  -0.03341  -0.02185
 Alpha virt. eigenvalues --   -0.01333  -0.01056  -0.00011   0.00115   0.00708
 Alpha virt. eigenvalues --    0.00746   0.00977   0.01250   0.01483   0.01982
 Alpha virt. eigenvalues --    0.02122   0.02500   0.02631   0.02957   0.03362
 Alpha virt. eigenvalues --    0.03986   0.04223   0.04437   0.04651   0.05185
 Alpha virt. eigenvalues --    0.05663   0.05982   0.06688   0.06934   0.07026
 Alpha virt. eigenvalues --    0.07621   0.07768   0.08303   0.08583   0.08746
 Alpha virt. eigenvalues --    0.09085   0.09338   0.09921   0.10182   0.10237
 Alpha virt. eigenvalues --    0.10927   0.11433   0.11723   0.11853   0.12638
 Alpha virt. eigenvalues --    0.12768   0.12979   0.13246   0.13792   0.14256
 Alpha virt. eigenvalues --    0.15006   0.15833   0.16669   0.16759   0.16901
 Alpha virt. eigenvalues --    0.17479   0.18001   0.18622   0.19018   0.19423
 Alpha virt. eigenvalues --    0.19598   0.20723   0.21460   0.21540   0.21837
 Alpha virt. eigenvalues --    0.22685   0.24077   0.24356   0.26211   0.26428
 Alpha virt. eigenvalues --    0.26773   0.27361   0.28449   0.28547   0.30317
 Alpha virt. eigenvalues --    0.32970   0.34158   0.37074   0.38434   0.39689
 Alpha virt. eigenvalues --    0.40591   0.41322   0.41741   0.41894   0.42709
 Alpha virt. eigenvalues --    0.43441   0.43645   0.44304   0.45235   0.45421
 Alpha virt. eigenvalues --    0.47549   0.48355   0.48922   0.49333   0.49933
 Alpha virt. eigenvalues --    0.50413   0.50572   0.51953   0.52224   0.53014
 Alpha virt. eigenvalues --    0.53158   0.53686   0.54885   0.55382   0.55630
 Alpha virt. eigenvalues --    0.56912   0.57435   0.58060   0.60767   0.61297
 Alpha virt. eigenvalues --    0.61976   0.62446   0.63221   0.63729   0.64078
 Alpha virt. eigenvalues --    0.65246   0.66841   0.68409   0.70104   0.71480
 Alpha virt. eigenvalues --    0.71540   0.73453   0.74448   0.75307   0.75709
 Alpha virt. eigenvalues --    0.75892   0.76144   0.77031   0.78135   0.78726
 Alpha virt. eigenvalues --    0.79741   0.79937   0.81104   0.82301   0.82484
 Alpha virt. eigenvalues --    0.84042   0.85009   0.86825   0.87018   0.88284
 Alpha virt. eigenvalues --    0.89031   0.90185   0.91071   0.93239   0.94839
 Alpha virt. eigenvalues --    0.95907   0.96309   0.98459   0.99513   1.00428
 Alpha virt. eigenvalues --    1.01078   1.02028   1.03574   1.04111   1.05993
 Alpha virt. eigenvalues --    1.09701   1.15231   1.17083   1.21576   1.23611
 Alpha virt. eigenvalues --    1.24930   1.29412   1.31344   1.34379   1.35382
 Alpha virt. eigenvalues --    1.36232   1.37656   1.38394   1.39424   1.39933
 Alpha virt. eigenvalues --    1.41395   1.41784   1.42162   1.42692   1.44877
 Alpha virt. eigenvalues --    1.45463   1.46637   1.47106   1.48550   1.51246
 Alpha virt. eigenvalues --    1.53747   1.53931   1.54535   1.55447   1.56854
 Alpha virt. eigenvalues --    1.59862   1.63069   1.63270   1.64368   1.64487
 Alpha virt. eigenvalues --    1.65876   1.68270   1.68730   1.69841   1.72370
 Alpha virt. eigenvalues --    1.72403   1.74581   1.75131   1.75661   1.77485
 Alpha virt. eigenvalues --    1.79472   1.80139   1.80627   1.81264   1.82729
 Alpha virt. eigenvalues --    1.83303   1.83563   1.85615   1.86364   1.86611
 Alpha virt. eigenvalues --    1.89114   1.91734   1.92022   1.94018   1.95645
 Alpha virt. eigenvalues --    1.95726   1.98623   1.99214   2.01607   2.05327
 Alpha virt. eigenvalues --    2.05684   2.08781   2.12355   2.13032   2.14594
 Alpha virt. eigenvalues --    2.15473   2.17042   2.18213   2.26676   2.28311
 Alpha virt. eigenvalues --    2.31284   2.31710   2.34259   2.37477   2.38040
 Alpha virt. eigenvalues --    2.38291   2.39671   2.40370   2.44817   2.49525
 Alpha virt. eigenvalues --    2.50917   2.54772   2.56780   2.57113   2.57900
 Alpha virt. eigenvalues --    2.59836   2.60363   2.60982   2.61036   2.62471
 Alpha virt. eigenvalues --    2.62849   2.63044   2.63488   2.64170   2.64862
 Alpha virt. eigenvalues --    2.65388   2.66522   2.67789   2.70875   2.71056
 Alpha virt. eigenvalues --    2.72883   2.73081   2.75599   2.79063   2.80768
 Alpha virt. eigenvalues --    2.82593   2.84060   2.85059   2.89356   2.91461
 Alpha virt. eigenvalues --    2.96915   2.97166   2.98479   3.01813   3.06951
 Alpha virt. eigenvalues --    3.07575   3.13024   3.15087   3.20440   3.21440
 Alpha virt. eigenvalues --    3.23636   3.25214   3.27651   3.34009   3.37084
 Alpha virt. eigenvalues --    3.40306   3.43532   3.45594   3.46915   3.48494
 Alpha virt. eigenvalues --    3.65554   3.67028   3.89040   3.91076   3.97278
 Alpha virt. eigenvalues --    3.98208   4.07509   4.09003   4.11927   4.12991
 Alpha virt. eigenvalues --    4.24624   4.49893   4.62487   4.64243  23.47177
 Alpha virt. eigenvalues --   23.60452  23.70424  23.76608  23.78523  23.80786
 Alpha virt. eigenvalues --   23.86764  23.88945  23.89076  23.89857  23.93543
 Alpha virt. eigenvalues --   23.94917  24.03607  24.06443
          Condensed to atoms (all electrons):
               1          2          3          4          5          6
     1  C   12.415104  -0.542474  -1.280332   2.818619  -0.242101   0.037720
     2  C   -0.542474   6.980702   0.299802  -1.518988   0.038113  -0.022968
     3  C   -1.280332   0.299802   6.630785   0.652608  -0.031427   0.000803
     4  C    2.818619  -1.518988   0.652608  12.281373  -0.854311  -0.031886
     5  C   -0.242101   0.038113  -0.031427  -0.854311  11.033697   0.552118
     6  C    0.037720  -0.022968   0.000803  -0.031886   0.552118   6.692705
     7  C    0.051703   0.003767  -0.019519   0.045236  -1.262095   0.282776
     8  C   -0.577444   0.058285   0.031271  -0.220453   2.570946  -1.266796
     9  C    0.475185  -0.778147   0.069594   0.691101  -0.555556   0.075769
    10  C   -0.029305   0.139322  -0.541235  -1.840643  -1.072753  -0.556877
    11  C   -3.797100  -0.114882   1.420599  -0.383396  -0.408683  -0.011111
    12  C   -4.341816   1.845193  -0.567098  -5.048439   0.168772  -0.641514
    13  C    0.208841  -0.144129   0.021203  -0.977306   0.142891   1.383422
    14  C    0.628028  -0.210636  -0.600975   0.251961  -4.205237  -0.420014
    15  H    0.470277  -0.144543  -0.010342   0.054686  -0.000547   0.002023
    16  H   -0.077370   0.404777  -0.015735  -0.008452  -0.000381  -0.000390
    17  H   -0.039435  -0.031781   0.400174  -0.089481   0.000028   0.000088
    18  H    0.089983   0.005164  -0.134938   0.500096  -0.003841  -0.002839
    19  H   -0.027891  -0.007955   0.035731  -0.039944  -0.015541   0.039316
    20  H   -0.001322   0.002821  -0.002974  -0.005096   0.481363  -0.127721
    21  H    0.001161  -0.000445   0.000116   0.000476  -0.096706   0.394527
    22  H    0.000981   0.000419  -0.000350  -0.000733  -0.003450  -0.019318
    23  H   -0.007984  -0.001249   0.002085   0.000172   0.044400  -0.011267
    24  H   -0.091054   0.020586   0.005854  -0.010585  -0.001137  -0.011668
    25  H    0.093958  -0.006549  -0.007907  -0.003700  -0.003705   0.009082
               7          8          9         10         11         12
     1  C    0.051703  -0.577444   0.475185  -0.029305  -3.797100  -4.341816
     2  C    0.003767   0.058285  -0.778147   0.139322  -0.114882   1.845193
     3  C   -0.019519   0.031271   0.069594  -0.541235   1.420599  -0.567098
     4  C    0.045236  -0.220453   0.691101  -1.840643  -0.383396  -5.048439
     5  C   -1.262095   2.570946  -0.555556  -1.072753  -0.408683   0.168772
     6  C    0.282776  -1.266796   0.075769  -0.556877  -0.011111  -0.641514
     7  C    6.807959  -0.233869  -0.294067   0.056418  -0.284943  -0.105476
     8  C   -0.233869  11.566107  -0.604384   0.133898   0.709047   0.351143
     9  C   -0.294067  -0.604384   8.865089   0.683495   0.124473  -2.893357
    10  C    0.056418   0.133898   0.683495   8.004739  -0.666902   1.247381
    11  C   -0.284943   0.709047   0.124473  -0.666902  16.264651  -3.528031
    12  C   -0.105476   0.351143  -2.893357   1.247381  -3.528031  22.299692
    13  C   -0.525540  -2.619872   1.156622  -0.590873   1.741150  -4.097294
    14  C    1.550862  -4.178658  -1.365036   0.600248  -4.898904   0.601707
    15  H   -0.001026  -0.009635   0.116210  -0.004973  -0.121377  -0.058723
    16  H    0.000352   0.001322  -0.003852  -0.005448   0.046769  -0.004918
    17  H   -0.000324   0.001169  -0.001780  -0.001595   0.026419   0.081273
    18  H    0.002702  -0.002026  -0.013807   0.072307  -0.065352  -0.128092
    19  H   -0.010888  -0.022077   0.056041   0.395716   0.051081  -0.072675
    20  H    0.008272   0.077210  -0.023912   0.080167  -0.013798   0.045262
    21  H   -0.023704  -0.041522  -0.003019   0.000272   0.000636  -0.006879
    22  H    0.405391  -0.067233   0.000591  -0.006624   0.001651  -0.006473
    23  H   -0.141464   0.453519   0.076333  -0.000848   0.025807   0.017961
    24  H   -0.000918   0.105603   0.352099   0.007555   0.100086  -0.001209
    25  H    0.010978  -0.079256   0.372268   0.003773  -0.068963  -0.057113
              13         14         15         16         17         18
     1  C    0.208841   0.628028   0.470277  -0.077370  -0.039435   0.089983
     2  C   -0.144129  -0.210636  -0.144543   0.404777  -0.031781   0.005164
     3  C    0.021203  -0.600975  -0.010342  -0.015735   0.400174  -0.134938
     4  C   -0.977306   0.251961   0.054686  -0.008452  -0.089481   0.500096
     5  C    0.142891  -4.205237  -0.000547  -0.000381   0.000028  -0.003841
     6  C    1.383422  -0.420014   0.002023  -0.000390   0.000088  -0.002839
     7  C   -0.525540   1.550862  -0.001026   0.000352  -0.000324   0.002702
     8  C   -2.619872  -4.178658  -0.009635   0.001322   0.001169  -0.002026
     9  C    1.156622  -1.365036   0.116210  -0.003852  -0.001780  -0.013807
    10  C   -0.590873   0.600248  -0.004973  -0.005448  -0.001595   0.072307
    11  C    1.741150  -4.898904  -0.121377   0.046769   0.026419  -0.065352
    12  C   -4.097294   0.601707  -0.058723  -0.004918   0.081273  -0.128092
    13  C   14.517985  -3.898059   0.011462   0.001154   0.002150  -0.023381
    14  C   -3.898059  21.511970   0.024897  -0.007345  -0.008178   0.050801
    15  H    0.011462   0.024897   0.457821  -0.012891   0.000662   0.000710
    16  H    0.001154  -0.007345  -0.012891   0.424824  -0.006506   0.001880
    17  H    0.002150  -0.008178   0.000662  -0.006506   0.434865  -0.014709
    18  H   -0.023381   0.050801   0.000710   0.001880  -0.014709   0.475086
    19  H    0.056360  -0.073905   0.000336  -0.000442   0.001341  -0.008148
    20  H   -0.045880  -0.130533  -0.000142   0.000034  -0.000142   0.001155
    21  H    0.015562   0.097472   0.000028  -0.000008   0.000011  -0.000137
    22  H    0.042492  -0.014435  -0.000165   0.000012  -0.000007   0.000028
    23  H   -0.070364  -0.058776   0.001272  -0.000160   0.000026  -0.000166
    24  H   -0.051561  -0.086302  -0.009891   0.001032   0.000015   0.000248
    25  H    0.057937   0.014431   0.004991   0.000350  -0.000140  -0.000202
              19         20         21         22         23         24
     1  C   -0.027891  -0.001322   0.001161   0.000981  -0.007984  -0.091054
     2  C   -0.007955   0.002821  -0.000445   0.000419  -0.001249   0.020586
     3  C    0.035731  -0.002974   0.000116  -0.000350   0.002085   0.005854
     4  C   -0.039944  -0.005096   0.000476  -0.000733   0.000172  -0.010585
     5  C   -0.015541   0.481363  -0.096706  -0.003450   0.044400  -0.001137
     6  C    0.039316  -0.127721   0.394527  -0.019318  -0.011267  -0.011668
     7  C   -0.010888   0.008272  -0.023704   0.405391  -0.141464  -0.000918
     8  C   -0.022077   0.077210  -0.041522  -0.067233   0.453519   0.105603
     9  C    0.056041  -0.023912  -0.003019   0.000591   0.076333   0.352099
    10  C    0.395716   0.080167   0.000272  -0.006624  -0.000848   0.007555
    11  C    0.051081  -0.013798   0.000636   0.001651   0.025807   0.100086
    12  C   -0.072675   0.045262  -0.006879  -0.006473   0.017961  -0.001209
    13  C    0.056360  -0.045880   0.015562   0.042492  -0.070364  -0.051561
    14  C   -0.073905  -0.130533   0.097472  -0.014435  -0.058776  -0.086302
    15  H    0.000336  -0.000142   0.000028  -0.000165   0.001272  -0.009891
    16  H   -0.000442   0.000034  -0.000008   0.000012  -0.000160   0.001032
    17  H    0.001341  -0.000142   0.000011  -0.000007   0.000026   0.000015
    18  H   -0.008148   0.001155  -0.000137   0.000028  -0.000166   0.000248
    19  H    0.426024  -0.007249   0.001409  -0.000504   0.000455   0.000314
    20  H   -0.007249   0.465530  -0.013378   0.001915   0.000578  -0.000002
    21  H    0.001409  -0.013378   0.436154  -0.006876   0.000645  -0.000301
    22  H   -0.000504   0.001915  -0.006876   0.425827  -0.012421   0.000842
    23  H    0.000455   0.000578   0.000645  -0.012421   0.455600   0.003695
    24  H    0.000314  -0.000002  -0.000301   0.000842   0.003695   0.489110
    25  H    0.000391   0.000126   0.000164   0.000487  -0.007788  -0.088289
              25
     1  C    0.093958
     2  C   -0.006549
     3  C   -0.007907
     4  C   -0.003700
     5  C   -0.003705
     6  C    0.009082
     7  C    0.010978
     8  C   -0.079256
     9  C    0.372268
    10  C    0.003773
    11  C   -0.068963
    12  C   -0.057113
    13  C    0.057937
    14  C    0.014431
    15  H    0.004991
    16  H    0.000350
    17  H   -0.000140
    18  H   -0.000202
    19  H    0.000391
    20  H    0.000126
    21  H    0.000164
    22  H    0.000487
    23  H   -0.007788
    24  H   -0.088289
    25  H    0.482537
 Mulliken charges:
               1
     1  C   -0.235930
     2  C   -0.274205
     3  C   -0.357793
     4  C   -0.262915
     5  C   -0.274855
     6  C   -0.345981
     7  C   -0.322583
     8  C   -0.136296
     9  C   -0.577955
    10  C   -0.107214
    11  C   -0.148925
    12  C    0.900725
    13  C   -0.314971
    14  C    0.824615
    15  H    0.228881
    16  H    0.261393
    17  H    0.245857
    18  H    0.197480
    19  H    0.222705
    20  H    0.207716
    21  H    0.244344
    22  H    0.257952
    23  H    0.229938
    24  H    0.265878
    25  H    0.272141
 Sum of Mulliken charges =   1.00000
 Mulliken charges with hydrogens summed into heavy atoms:
               1
     1  C   -0.007049
     2  C   -0.012812
     3  C   -0.111936
     4  C   -0.065435
     5  C   -0.067139
     6  C   -0.101637
     7  C   -0.064632
     8  C    0.093641
     9  C   -0.039936
    10  C    0.115490
    11  C   -0.148925
    12  C    0.900725
    13  C   -0.314971
    14  C    0.824615
 Electronic spatial extent (au):  <R**2>=           2897.0276
 Charge=              1.0000 electrons
 Dipole moment (field-independent basis, Debye):
    X=             -0.0049    Y=              0.0586    Z=             -0.0036  Tot=              0.0589
 Quadrupole moment (field-independent basis, Debye-Ang):
   XX=            -34.0599   YY=            -52.6522   ZZ=            -85.4594
   XY=              0.0926   XZ=              0.5295   YZ=              0.1787
 Traceless Quadrupole moment (field-independent basis, Debye-Ang):
   XX=             23.3306   YY=              4.7383   ZZ=            -28.0689
   XY=              0.0926   XZ=              0.5295   YZ=              0.1787
 Octapole moment (field-independent basis, Debye-Ang**2):
  XXX=             -0.3927  YYY=              4.5544  ZZZ=              0.0085  XYY=              0.0157
  XXY=            -10.1439  XXZ=             -0.0161  XZZ=              0.0188  YZZ=             -2.9874
  YYZ=              0.1392  XYZ=              0.3754
 Hexadecapole moment (field-independent basis, Debye-Ang**3):
 XXXX=          -2200.8700 YYYY=           -624.7740 ZZZZ=           -103.6440 XXXY=             -1.3885
 XXXZ=             12.6433 YYYX=              1.8294 YYYZ=              0.7612 ZZZX=              0.7065
 ZZZY=              0.1291 XXYY=           -506.6786 XXZZ=           -599.6283 YYZZ=           -155.4460
 XXYZ=              3.8117 YYXZ=              1.2738 ZZXY=             -0.4357
 N-N= 7.697961166234D+02 E-N=-2.775134443570D+03  KE= 5.364650864711D+02
 Unable to Open any file for archive entry.
 1\1\GINC-GADI-CPU-CLX-0572\SP\RM062X TD-FC\6-311++G(d,p)\C14H11(1+)\TS
 1578\27-Jul-2022\0\\#n M062X/6-311++G(d,p) TD(NStates=1) EmpiricalDisp
 ersion=GD3 SP\\SP_1\\1,1\C,0,2.4927,1.4411,0.017\C,0,3.7015,0.7527,0.0
 35\C,0,3.6839,-0.6721,0.064\C,0,2.4632,-1.4729,0.012\C,0,-2.4632,-1.48
 49,-0.052\C,0,-3.6839,-0.6661,-0.064\C,0,-3.7015,0.7527,-0.029\C,0,-2.
 4927,1.4251,0.017\C,0,0.,1.4941,0.033\C,0,0.,-1.5365,-0.027\C,0,1.2621
 ,0.6537,-0.036\C,0,1.2375,-0.7551,-0.009\C,0,-1.2621,0.6457,0.052\C,0,
 -1.2375,-0.7611,-0.017\H,0,2.4881,2.4863,0.018\H,0,4.6368,1.3014,0.016
 \H,0,4.6093,-1.2537,0.022\H,0,2.4675,-2.4994,0.011\H,0,0.,-2.6016,-0.0
 28\H,0,-2.4675,-2.5354,-0.053\H,0,-4.6093,-1.2657,0.006\H,0,-4.6368,1.
 2834,-0.04\H,0,-2.4881,2.4583,0.018\H,0,-0.002,2.3305,-0.8296\H,0,0.00
 2,2.3305,0.8896\\Version=ES64L-G16RevC.01\State=1-A\HF=-539.7001734\RM
 SD=6.481e-09\PG=C01 [X(C14H11)]\\@
 The archive entry for this job was punched.


 If fifty million people say a stupid thing,
 it is still a stupid thing.
                   -- Anatole France
 Job cpu time:       0 days  1 hours 13 minutes  4.6 seconds.
 Elapsed time:       0 days  0 hours  2 minutes 19.1 seconds.
 File lengths (MBytes):  RWF=    461 Int=      0 D2E=      0 Chk=     15 Scr=      1
 Normal termination of Gaussian 16 at Wed Jul 27 11:06:26 2022.
