 Entering Gaussian System, Link 0=g16
 Initial command:
 /apps/gaussian/g16c01/g16/l1.exe "/jobfs/52803152.gadi-pbs/Gau-2955501.inp" -scrdir="/jobfs/52803152.gadi-pbs/"
 Entering Link 1 = /apps/gaussian/g16c01/g16/l1.exe PID=   2955502.
  
 Copyright (c) 1988-2019, Gaussian, Inc.  All Rights Reserved.
  
 This is part of the Gaussian(R) 16 program.  It is based on
 the Gaussian(R) 09 system (copyright 2009, Gaussian, Inc.),
 the Gaussian(R) 03 system (copyright 2003, Gaussian, Inc.),
 the Gaussian(R) 98 system (copyright 1998, Gaussian, Inc.),
 the Gaussian(R) 94 system (copyright 1995, Gaussian, Inc.),
 the Gaussian 92(TM) system (copyright 1992, Gaussian, Inc.),
 the Gaussian 90(TM) system (copyright 1990, Gaussian, Inc.),
 the Gaussian 88(TM) system (copyright 1988, Gaussian, Inc.),
 the Gaussian 86(TM) system (copyright 1986, Carnegie Mellon
 University), and the Gaussian 82(TM) system (copyright 1983,
 Carnegie Mellon University). Gaussian is a federally registered
 trademark of Gaussian, Inc.
  
 This software contains proprietary and confidential information,
 including trade secrets, belonging to Gaussian, Inc.
  
 This software is provided under written license and may be
 used, copied, transmitted, or stored only in accord with that
 written license.
  
 The following legend is applicable only to US Government
 contracts under FAR:
  
                    RESTRICTED RIGHTS LEGEND
  
 Use, reproduction and disclosure by the US Government is
 subject to restrictions as set forth in subparagraphs (a)
 and (c) of the Commercial Computer Software - Restricted
 Rights clause in FAR 52.227-19.
  
 Gaussian, Inc.
 340 Quinnipiac St., Bldg. 40, Wallingford CT 06492
  
  
 ---------------------------------------------------------------
 Warning -- This program may not be used in any manner that
 competes with the business of Gaussian, Inc. or will provide
 assistance to any competitor of Gaussian, Inc.  The licensee
 of this program is prohibited from giving any competitor of
 Gaussian, Inc. access to this program.  By using this program,
 the user acknowledges that Gaussian, Inc. is engaged in the
 business of creating and licensing software in the field of
 computational chemistry and represents and warrants to the
 licensee that it is not a competitor of Gaussian, Inc. and that
 it will not use this program in any manner prohibited above.
 ---------------------------------------------------------------
  

 Cite this work as:
 Gaussian 16, Revision C.01,
 M. J. Frisch, G. W. Trucks, H. B. Schlegel, G. E. Scuseria, 
 M. A. Robb, J. R. Cheeseman, G. Scalmani, V. Barone, 
 G. A. Petersson, H. Nakatsuji, X. Li, M. Caricato, A. V. Marenich, 
 J. Bloino, B. G. Janesko, R. Gomperts, B. Mennucci, H. P. Hratchian, 
 J. V. Ortiz, A. F. Izmaylov, J. L. Sonnenberg, D. Williams-Young, 
 F. Ding, F. Lipparini, F. Egidi, J. Goings, B. Peng, A. Petrone, 
 T. Henderson, D. Ranasinghe, V. G. Zakrzewski, J. Gao, N. Rega, 
 G. Zheng, W. Liang, M. Hada, M. Ehara, K. Toyota, R. Fukuda, 
 J. Hasegawa, M. Ishida, T. Nakajima, Y. Honda, O. Kitao, H. Nakai, 
 T. Vreven, K. Throssell, J. A. Montgomery, Jr., J. E. Peralta, 
 F. Ogliaro, M. J. Bearpark, J. J. Heyd, E. N. Brothers, K. N. Kudin, 
 V. N. Staroverov, T. A. Keith, R. Kobayashi, J. Normand, 
 K. Raghavachari, A. P. Rendell, J. C. Burant, S. S. Iyengar, 
 J. Tomasi, M. Cossi, J. M. Millam, M. Klene, C. Adamo, R. Cammi, 
 J. W. Ochterski, R. L. Martin, K. Morokuma, O. Farkas, 
 J. B. Foresman, and D. J. Fox, Gaussian, Inc., Wallingford CT, 2019.
 
 ******************************************
 Gaussian 16:  ES64L-G16RevC.01  3-Jul-2019
                27-Jul-2022 
 ******************************************
 %NProcShared=32
 Will use up to   32 processors via shared memory.
 %mem = 128GB
 ---------------------------------------------------------------
 #n M062X/6-311++G(d,p) TD(NStates=1) EmpiricalDispersion=GD3 SP
 ---------------------------------------------------------------
 1/38=1,172=1/1;
 2/12=2,17=6,18=5,40=1/2;
 3/5=4,6=6,7=1111,11=9,25=1,30=1,74=-55,124=31/1,2,3,8;
 4//1;
 5/5=2,38=5/2;
 8/6=1,10=2,108=1/1;
 9/41=1,42=1,70=2/14;
 6/7=2,8=2,9=2,10=2/1;
 99/5=1,9=1/99;
 ----
 SP_4
 ----
 Symbolic Z-matrix:
 Charge =  1 Multiplicity = 1
 C                     2.4927    1.4011    0.068 
 C                     3.7015    0.6807    0.012 
 C                     3.6839   -0.7171    0. 
 C                     2.4632   -1.3749   -0.08 
 C                    -2.4632   -1.4229   -0.08 
 C                    -3.6839   -0.6931    0. 
 C                    -3.7015    0.6807    0.012 
 C                    -2.4927    1.3371    0.068 
 C                     0.        1.4621    0.132 
 C                     0.       -1.4205   -0.108 
 C                     1.2621    0.7017    0.032 
 C                     1.2375   -0.7101   -0.052 
 C                    -1.2621    0.6697    0.032 
 C                    -1.2375   -0.7341   -0.052 
 H                     2.4881    2.5083    0.072 
 H                     4.6368    1.2564   -0.048 
 H                     4.6093   -1.2397    0.056 
 H                     2.4675   -2.4094   -0.084 
 H                     0.       -2.5016   -0.112 
 H                    -2.4675   -2.5534   -0.084 
 H                    -4.6093   -1.2877    0.056 
 H                    -4.6368    1.1844   -0.048 
 H                    -2.4881    2.3963    0.072 
 H                    -0.008     2.1545   -0.7396 
 H                     0.008     2.1545    0.9796 
 
                          Input orientation:                          
 ---------------------------------------------------------------------
 Center     Atomic      Atomic             Coordinates (Angstroms)
 Number     Number       Type             X           Y           Z
 ---------------------------------------------------------------------
      1          6           0        2.492700    1.401100    0.068000
      2          6           0        3.701500    0.680700    0.012000
      3          6           0        3.683900   -0.717100    0.000000
      4          6           0        2.463200   -1.374900   -0.080000
      5          6           0       -2.463200   -1.422900   -0.080000
      6          6           0       -3.683900   -0.693100    0.000000
      7          6           0       -3.701500    0.680700    0.012000
      8          6           0       -2.492700    1.337100    0.068000
      9          6           0        0.000000    1.462100    0.132000
     10          6           0        0.000000   -1.420500   -0.108000
     11          6           0        1.262100    0.701700    0.032000
     12          6           0        1.237500   -0.710100   -0.052000
     13          6           0       -1.262100    0.669700    0.032000
     14          6           0       -1.237500   -0.734100   -0.052000
     15          1           0        2.488100    2.508300    0.072000
     16          1           0        4.636800    1.256400   -0.048000
     17          1           0        4.609300   -1.239700    0.056000
     18          1           0        2.467500   -2.409400   -0.084000
     19          1           0        0.000000   -2.501600   -0.112000
     20          1           0       -2.467500   -2.553400   -0.084000
     21          1           0       -4.609300   -1.287700    0.056000
     22          1           0       -4.636800    1.184400   -0.048000
     23          1           0       -2.488100    2.396300    0.072000
     24          1           0       -0.008000    2.154500   -0.739600
     25          1           0        0.008000    2.154500    0.979600
 ---------------------------------------------------------------------
                    Distance matrix (angstroms):
                    1          2          3          4          5
     1  C    0.000000
     2  C    1.408300   0.000000
     3  C    2.431122   1.397962   0.000000
     4  C    2.780099   2.401529   1.388960   0.000000
     5  C    5.705946   6.514378   6.188004   4.926634   0.000000
     6  C    6.522322   7.512097   7.367839   6.185312   1.424471
     7  C    6.236203   7.403000   7.516523   6.499037   2.442741
     8  C    4.985811   6.229134   6.509589   5.651353   2.764123
     9  C    2.494267   3.784982   4.282226   3.763093   3.799411
    10  C    3.769079   4.257998   3.752007   2.463781   2.463360
    11  C    1.415921   2.439572   2.806979   2.401552   4.290027
    12  C    2.459084   2.830144   2.446963   1.394663   3.768826
    13  C    3.825541   4.963652   5.136843   4.250976   2.415401
    14  C    4.299752   5.138042   4.921704   3.755874   1.406261
    15  H    1.107217   2.194553   3.440687   3.886253   6.323987
    16  H    2.152106   1.099917   2.192037   3.413107   7.588786
    17  H    3.384371   2.124611   1.064242   2.154651   7.076179
    18  H    3.813614   3.328767   2.085801   1.034517   5.028419
    19  H    4.634331   4.882982   4.094887   2.708843   2.689233
    20  H    6.345452   6.966002   6.420185   5.069584   1.130515
    21  H    7.593958   8.540839   8.312995   7.074345   2.154651
    22  H    7.133736   8.353715   8.535342   7.547254   3.394639
    23  H    5.079253   6.423242   6.913178   6.225787   3.822305
    24  H    2.733739   4.061697   4.735316   4.358734   4.388721
    25  H    2.751792   4.092710   4.766334   4.428027   4.475195
                    6          7          8          9         10
     6  C    0.000000
     7  C    1.373965   0.000000
     8  C    2.354845   1.376661   0.000000
     9  C    4.270062   3.784982   2.496653   0.000000
    10  C    3.756580   4.257998   3.721409   2.892574   0.000000
    11  C    5.139008   4.963685   3.808353   1.476856   2.473101
    12  C    4.921704   5.131485   4.256738   2.506734   1.428009
    13  C    2.779094   2.439507   1.400391   1.493584   2.445697
    14  C    2.447296   2.842015   2.424829   2.527559   1.416223
    15  H    6.953253   6.454058   5.116649   2.699773   4.653871
    16  H    8.546163   8.358366   7.130900   4.644849   5.354373
    17  H    8.311382   8.529904   7.555028   5.343327   4.615759
    18  H    6.386898   6.900326   6.217954   4.596055   2.658393
    19  H    4.105403   4.882982   4.580564   3.971203   1.081107
    20  H    2.224275   3.462856   3.893550   4.717992   2.715252
    21  H    1.101386   2.168095   3.371901   5.367758   4.614128
    22  H    2.106022   1.064002   2.152658   4.648595   5.318742
    23  H    3.313535   2.102195   1.059218   2.658378   4.559715
    24  H    4.708298   4.047089   2.737534   1.113179   3.630373
    25  H    4.764301   4.107156   2.784359   1.094490   3.736785
                   11         12         13         14         15
    11  C    0.000000
    12  C    1.414511   0.000000
    13  C    2.524403   2.856380   0.000000
    14  C    2.883848   2.475116   1.406526   0.000000
    15  H    2.183685   3.455065   4.176847   4.940509   0.000000
    16  H    3.420920   3.927134   5.928544   6.202379   2.489692
    17  H    3.869542   3.414846   6.174117   5.869614   4.306652
    18  H    3.338471   2.097986   4.837792   4.066286   4.920217
    19  H    3.445978   2.178182   3.416252   2.158486   5.596749
    20  H    4.951671   4.138333   3.443083   2.196310   7.085416
    21  H    6.199325   5.876254   3.877594   3.418651   8.048786
    22  H    5.919157   6.172240   3.414662   3.903319   7.247849
    23  H    4.115491   4.852339   2.117976   3.373245   4.977460
    24  H    2.078256   3.198437   2.091116   3.213794   2.648468
    25  H    2.140407   3.283565   2.171573   3.310510   2.664547
                   16         17         18         19         20
    16  H    0.000000
    17  H    2.498417   0.000000
    18  H    4.259724   2.444403   0.000000
    19  H    5.968800   4.781868   2.469381   0.000000
    20  H    8.061448   7.199063   4.937100   2.468202   0.000000
    21  H    9.590288   9.218725   7.166513   4.769426   2.491767
    22  H    9.273879   9.559155   7.961644   5.923732   4.321841
    23  H    7.216507   7.974575   6.904858   5.496719   4.952201
    24  H    4.781115   5.785588   5.233268   4.698214   5.351941
    25  H    4.825799   5.791856   5.292407   4.782355   5.424359
                   21         22         23         24         25
    21  H    0.000000
    22  H    2.474439   0.000000
    23  H    4.251071   2.469820   0.000000
    24  H    5.801179   4.779665   2.620698   0.000000
    25  H    5.832773   4.855020   2.666968   1.719274   0.000000
 Stoichiometry    C14H11(1+)
 Framework group  C1[X(C14H11)]
 Deg. of freedom    69
 Full point group                 C1      NOp   1
 Largest Abelian subgroup         C1      NOp   1
 Largest concise Abelian subgroup C1      NOp   1
                         Standard orientation:                         
 ---------------------------------------------------------------------
 Center     Atomic      Atomic             Coordinates (Angstroms)
 Number     Number       Type             X           Y           Z
 ---------------------------------------------------------------------
      1          6           0       -2.500602   -1.379837    0.001434
      2          6           0       -3.705272   -0.650706   -0.019759
      3          6           0       -3.679703    0.745941    0.035218
      4          6           0       -2.455266    1.399853   -0.013407
      5          6           0        2.471327    1.419727   -0.012043
      6          6           0        3.687841    0.679989    0.032670
      7          6           0        3.697608   -0.692886   -0.021164
      8          6           0        2.485081   -1.344317    0.003554
      9          6           0       -0.008296   -1.458035    0.061965
     10          6           0        0.008156    1.432706   -0.039658
     11          6           0       -1.266033   -0.686539   -0.001251
     12          6           0       -1.233378    0.727502   -0.017522
     13          6           0        1.258309   -0.668958   -0.000197
     14          6           0        1.241718    0.737372   -0.016842
     15          1           0       -2.502314   -2.485965   -0.047616
     16          1           0       -4.643833   -1.217531   -0.107093
     17          1           0       -4.602113    1.270523    0.116367
     18          1           0       -2.453669    2.433364    0.032160
     19          1           0        0.014319    2.512739    0.008141
     20          1           0        2.482072    2.549078    0.038122
     21          1           0        4.616610    1.265941    0.116916
     22          1           0        4.630027   -1.198455   -0.105404
     23          1           0        2.474443   -2.402449   -0.043195
     24          1           0       -0.004170   -2.107917   -0.841808
     25          1           0       -0.020313   -2.190191    0.875421
 ---------------------------------------------------------------------
 Rotational constants (GHZ):           2.1287008           0.4445455           0.3686349
 Standard basis: 6-311++G(d,p) (5D, 7F)
 There are   399 symmetry adapted cartesian basis functions of A   symmetry.
 There are   385 symmetry adapted basis functions of A   symmetry.
   385 basis functions,   603 primitive gaussians,   399 cartesian basis functions
    47 alpha electrons       47 beta electrons
       nuclear repulsion energy       780.6890821326 Hartrees.
 NAtoms=   25 NActive=   25 NUniq=   25 SFac= 1.00D+00 NAtFMM=   60 NAOKFM=F Big=F
 Integral buffers will be    131072 words long.
 Regular integral format.
 Two-electron integral symmetry is turned on.
 Nuclear repulsion after empirical dispersion term =      780.6881020624 Hartrees.
 One-electron integrals computed using PRISM.
 NBasis=   385 RedAO= T EigKep=  1.53D-06  NBF=   385
 NBsUse=   379 1.00D-06 EigRej=  8.66D-07 NBFU=   379
 ExpMin= 3.60D-02 ExpMax= 4.56D+03 ExpMxC= 6.82D+02 IAcc=3 IRadAn=         5 AccDes= 0.00D+00
 Harris functional with IExCor= 1009 and IRadAn=       5 diagonalized for initial guess.
 HarFok:  IExCor= 1009 AccDes= 0.00D+00 IRadAn=         5 IDoV= 1 UseB2=F ITyADJ=14
 ICtDFT=  3500011 ScaDFX=  1.000000  1.000000  1.000000  1.000000
 FoFCou: FMM=F IPFlag=           0 FMFlag=      100000 FMFlg1=           0
         NFxFlg=           0 DoJE=T BraDBF=F KetDBF=T FulRan=T
         wScrn=  0.000000 ICntrl=       500 IOpCl=  0 I1Cent=   200000004 NGrid=           0
         NMat0=    1 NMatS0=      1 NMatT0=    0 NMatD0=    1 NMtDS0=    0 NMtDT0=    0
 Petite list used in FoFCou.
 Requested convergence on RMS density matrix=1.00D-08 within 128 cycles.
 Requested convergence on MAX density matrix=1.00D-06.
 Requested convergence on             energy=1.00D-06.
 No special actions if energy rises.
 SCF Done:  E(RM062X) =  -539.748633839     A.U. after   15 cycles
            NFock= 15  Conv=0.71D-08     -V/T= 2.0042
 DoSCS=F DFT=T ScalE2(SS,OS)=  1.000000  1.000000
 ExpMin= 3.60D-02 ExpMax= 4.56D+03 ExpMxC= 6.82D+02 IAcc=3 IRadAn=         5 AccDes= 0.00D+00
 HarFok:  IExCor=  205 AccDes= 0.00D+00 IRadAn=         5 IDoV=-2 UseB2=F ITyADJ=14
 ICtDFT= 12500011 ScaDFX=  1.000000  1.000000  1.000000  1.000000
 Range of M.O.s used for correlation:    15   379
 NBasis=   385 NAE=    47 NBE=    47 NFC=    14 NFV=     0
 NROrb=    365 NOA=    33 NOB=    33 NVA=   332 NVB=   332

 **** Warning!!: The largest alpha MO coefficient is  0.13257645D+03

 Orbital symmetries:
       Occupied  (A) (A) (A) (A) (A) (A) (A) (A) (A) (A) (A) (A)
                 (A) (A) (A) (A) (A) (A) (A) (A) (A) (A) (A) (A)
                 (A) (A) (A) (A) (A) (A) (A) (A) (A) (A) (A) (A)
                 (A) (A) (A) (A) (A) (A) (A) (A) (A) (A) (A)
       Virtual   (A) (A) (A) (A) (A) (A) (A) (A) (A) (A) (A) (A)
                 (A) (A) (A) (A) (A) (A) (A) (A) (A) (A) (A) (A)
                 (A) (A) (A) (A) (A) (A) (A) (A) (A) (A) (A) (A)
                 (A) (A) (A) (A) (A) (A) (A) (A) (A) (A) (A) (A)
                 (A) (A) (A) (A) (A) (A) (A) (A) (A) (A) (A) (A)
                 (A) (A) (A) (A) (A) (A) (A) (A) (A) (A) (A) (A)
                 (A) (A) (A) (A) (A) (A) (A) (A) (A) (A) (A) (A)
                 (A) (A) (A) (A) (A) (A) (A) (A) (A) (A) (A) (A)
                 (A) (A) (A) (A) (A) (A) (A) (A) (A) (A) (A) (A)
                 (A) (A) (A) (A) (A) (A) (A) (A) (A) (A) (A) (A)
                 (A) (A) (A) (A) (A) (A) (A) (A) (A) (A) (A) (A)
                 (A) (A) (A) (A) (A) (A) (A) (A) (A) (A) (A) (A)
                 (A) (A) (A) (A) (A) (A) (A) (A) (A) (A) (A) (A)
                 (A) (A) (A) (A) (A) (A) (A) (A) (A) (A) (A) (A)
                 (A) (A) (A) (A) (A) (A) (A) (A) (A) (A) (A) (A)
                 (A) (A) (A) (A) (A) (A) (A) (A) (A) (A) (A) (A)
                 (A) (A) (A) (A) (A) (A) (A) (A) (A) (A) (A) (A)
                 (A) (A) (A) (A) (A) (A) (A) (A) (A) (A) (A) (A)
                 (A) (A) (A) (A) (A) (A) (A) (A) (A) (A) (A) (A)
                 (A) (A) (A) (A) (A) (A) (A) (A) (A) (A) (A) (A)
                 (A) (A) (A) (A) (A) (A) (A) (A) (A) (A) (A) (A)
                 (A) (A) (A) (A) (A) (A) (A) (A) (A) (A) (A) (A)
                 (A) (A) (A) (A) (A) (A) (A) (A) (A) (A) (A) (A)
                 (A) (A) (A) (A) (A) (A) (A) (A) (A) (A) (A) (A)
                 (A) (A) (A) (A) (A) (A) (A) (A) (A) (A) (A) (A)
                 (A) (A) (A) (A) (A) (A) (A) (A) (A) (A) (A) (A)
                 (A) (A) (A) (A) (A) (A) (A) (A) (A) (A) (A) (A)
                 (A) (A) (A) (A) (A) (A) (A) (A)
     4 initial guesses have been made.
 Convergence on wavefunction:    0.001000000000000
 Iteration     1 Dimension     4 NMult     0 NNew      4
 CISAX will form     4 AO SS matrices at one time.
 Iteration     2 Dimension     6 NMult     4 NNew      2
 Iteration     3 Dimension     8 NMult     6 NNew      2
 Iteration     4 Dimension    10 NMult     8 NNew      2
 Iteration     5 Dimension    12 NMult    10 NNew      2
 Iteration     6 Dimension    14 NMult    12 NNew      2
 ***********************************************************************
 Excited states from <AA,BB:AA,BB> singles matrix:
 ***********************************************************************
 
 Ground to excited state transition densities written to RWF  633
 Ground to excited state transition electric dipole moments (Au):
       state          X           Y           Z        Dip. S.      Osc.
         1        -0.0307     -0.6438      0.0007      0.4155      0.0285
 Ground to excited state transition velocity dipole moments (Au):
       state          X           Y           Z        Dip. S.      Osc.
         1         0.0040      0.0736     -0.0002      0.0054      0.0351
 Ground to excited state transition magnetic dipole moments (Au):
       state          X           Y           Z
         1        -0.0186      0.0010      0.0239
 Ground to excited state transition velocity quadrupole moments (Au):
       state          XX          YY          ZZ          XY          XZ          YZ
         1         0.2884      0.0355     -0.0092      0.0344      0.0003     -0.0016
 <0|del|b> * <b|rxdel|0> + <0|del|b> * <b|delr+rdel|0>
 Rotatory Strengths (R) in cgs (10**-40 erg-esu-cm/Gauss)
       state          XX          YY          ZZ    R(velocity)    E-M Angle
         1         0.1386     -0.2715      0.0966     -0.0121       90.00
 1/2[<0|r|b>*<b|rxdel|0> + (<0|rxdel|b>*<b|r|0>)*]
 Rotatory Strengths (R) in cgs (10**-40 erg-esu-cm/Gauss)
       state          XX          YY          ZZ     R(length)
         1        -0.4037      0.4559     -0.0112      0.0137
  1/2[<0|del|b>*<b|r|0> + (<0|r|b>*<b|del|0>)*] (Au)
       state          X           Y           Z        Dip. S.   Osc.(frdel)
         1        -0.0001     -0.0474     -0.0000      0.0475      0.0317

 Excitation energies and oscillator strengths:
 
 Excited State   1:      Singlet-A      2.8038 eV  442.21 nm  f=0.0285  <S**2>=0.000
      47 -> 48         0.70420
 This state for optimization and/or second-order correction.
 Total Energy, E(TD-HF/TD-DFT) =  -539.645597142    
 Copying the excited state density for this state as the 1-particle RhoCI density.
 SavETr:  write IOETrn=   770 NScale= 10 NData=  16 NLR=1 NState=    1 LETran=      28.

 **********************************************************************

            Population analysis using the SCF Density.

 **********************************************************************

 Orbital symmetries:
       Occupied  (A) (A) (A) (A) (A) (A) (A) (A) (A) (A) (A) (A)
                 (A) (A) (A) (A) (A) (A) (A) (A) (A) (A) (A) (A)
                 (A) (A) (A) (A) (A) (A) (A) (A) (A) (A) (A) (A)
                 (A) (A) (A) (A) (A) (A) (A) (A) (A) (A) (A)
       Virtual   (A) (A) (A) (A) (A) (A) (A) (A) (A) (A) (A) (A)
                 (A) (A) (A) (A) (A) (A) (A) (A) (A) (A) (A) (A)
                 (A) (A) (A) (A) (A) (A) (A) (A) (A) (A) (A) (A)
                 (A) (A) (A) (A) (A) (A) (A) (A) (A) (A) (A) (A)
                 (A) (A) (A) (A) (A) (A) (A) (A) (A) (A) (A) (A)
                 (A) (A) (A) (A) (A) (A) (A) (A) (A) (A) (A) (A)
                 (A) (A) (A) (A) (A) (A) (A) (A) (A) (A) (A) (A)
                 (A) (A) (A) (A) (A) (A) (A) (A) (A) (A) (A) (A)
                 (A) (A) (A) (A) (A) (A) (A) (A) (A) (A) (A) (A)
                 (A) (A) (A) (A) (A) (A) (A) (A) (A) (A) (A) (A)
                 (A) (A) (A) (A) (A) (A) (A) (A) (A) (A) (A) (A)
                 (A) (A) (A) (A) (A) (A) (A) (A) (A) (A) (A) (A)
                 (A) (A) (A) (A) (A) (A) (A) (A) (A) (A) (A) (A)
                 (A) (A) (A) (A) (A) (A) (A) (A) (A) (A) (A) (A)
                 (A) (A) (A) (A) (A) (A) (A) (A) (A) (A) (A) (A)
                 (A) (A) (A) (A) (A) (A) (A) (A) (A) (A) (A) (A)
                 (A) (A) (A) (A) (A) (A) (A) (A) (A) (A) (A) (A)
                 (A) (A) (A) (A) (A) (A) (A) (A) (A) (A) (A) (A)
                 (A) (A) (A) (A) (A) (A) (A) (A) (A) (A) (A) (A)
                 (A) (A) (A) (A) (A) (A) (A) (A) (A) (A) (A) (A)
                 (A) (A) (A) (A) (A) (A) (A) (A) (A) (A) (A) (A)
                 (A) (A) (A) (A) (A) (A) (A) (A) (A) (A) (A) (A)
                 (A) (A) (A) (A) (A) (A) (A) (A) (A) (A) (A) (A)
                 (A) (A) (A) (A) (A) (A) (A) (A) (A) (A) (A) (A)
                 (A) (A) (A) (A) (A) (A) (A) (A) (A) (A) (A) (A)
                 (A) (A) (A) (A) (A) (A) (A) (A) (A) (A) (A) (A)
                 (A) (A) (A) (A) (A) (A) (A) (A) (A) (A) (A) (A)
                 (A) (A) (A) (A) (A) (A) (A) (A)
 The electronic state is 1-A.
 Alpha  occ. eigenvalues --  -10.77656 -10.73434 -10.73176 -10.72532 -10.72432
 Alpha  occ. eigenvalues --  -10.72077 -10.71484 -10.71047 -10.70694 -10.70580
 Alpha  occ. eigenvalues --  -10.70466 -10.69817 -10.69539 -10.69506  -1.16359
 Alpha  occ. eigenvalues --   -1.12428  -1.06930  -1.05704  -1.01259  -1.00139
 Alpha  occ. eigenvalues --   -0.95721  -0.91048  -0.86419  -0.85786  -0.83830
 Alpha  occ. eigenvalues --   -0.78352  -0.75966  -0.74404  -0.69710  -0.69325
 Alpha  occ. eigenvalues --   -0.68363  -0.68107  -0.68023  -0.64720  -0.64226
 Alpha  occ. eigenvalues --   -0.63068  -0.61870  -0.60066  -0.59677  -0.58810
 Alpha  occ. eigenvalues --   -0.56863  -0.55262  -0.54654  -0.52326  -0.46598
 Alpha  occ. eigenvalues --   -0.45956  -0.44433
 Alpha virt. eigenvalues --   -0.26090  -0.14698  -0.14167  -0.12819  -0.11188
 Alpha virt. eigenvalues --   -0.10099  -0.09227  -0.08114  -0.07926  -0.07482
 Alpha virt. eigenvalues --   -0.07217  -0.07154  -0.05652  -0.05606  -0.05355
 Alpha virt. eigenvalues --   -0.03855  -0.03844  -0.03298  -0.03024  -0.02134
 Alpha virt. eigenvalues --   -0.01485  -0.01021   0.00251   0.00553   0.00716
 Alpha virt. eigenvalues --    0.01040   0.01521   0.01927   0.02091   0.02294
 Alpha virt. eigenvalues --    0.02503   0.02541   0.02909   0.03348   0.03453
 Alpha virt. eigenvalues --    0.04214   0.04483   0.04717   0.04991   0.05395
 Alpha virt. eigenvalues --    0.05763   0.06239   0.06577   0.06909   0.07119
 Alpha virt. eigenvalues --    0.07942   0.08045   0.08292   0.08524   0.08875
 Alpha virt. eigenvalues --    0.09517   0.09624   0.10010   0.10626   0.10953
 Alpha virt. eigenvalues --    0.11219   0.12163   0.12336   0.12754   0.12969
 Alpha virt. eigenvalues --    0.13338   0.13445   0.13957   0.14355   0.15437
 Alpha virt. eigenvalues --    0.16038   0.16646   0.16707   0.17434   0.17474
 Alpha virt. eigenvalues --    0.17927   0.18961   0.19030   0.19378   0.19829
 Alpha virt. eigenvalues --    0.21524   0.21618   0.22184   0.22852   0.23375
 Alpha virt. eigenvalues --    0.23577   0.24402   0.24541   0.26830   0.27468
 Alpha virt. eigenvalues --    0.28472   0.28540   0.29523   0.31236   0.35569
 Alpha virt. eigenvalues --    0.36124   0.37861   0.39071   0.40616   0.41407
 Alpha virt. eigenvalues --    0.41545   0.42619   0.43074   0.43356   0.44052
 Alpha virt. eigenvalues --    0.44155   0.44710   0.45391   0.46218   0.48029
 Alpha virt. eigenvalues --    0.48401   0.48778   0.48940   0.50395   0.50455
 Alpha virt. eigenvalues --    0.51143   0.51492   0.52173   0.52527   0.53950
 Alpha virt. eigenvalues --    0.54029   0.54716   0.55706   0.56015   0.57377
 Alpha virt. eigenvalues --    0.58225   0.58781   0.61257   0.61958   0.62241
 Alpha virt. eigenvalues --    0.62900   0.63295   0.63662   0.64971   0.66286
 Alpha virt. eigenvalues --    0.69959   0.70233   0.70416   0.71975   0.72293
 Alpha virt. eigenvalues --    0.74595   0.74904   0.75495   0.76051   0.76283
 Alpha virt. eigenvalues --    0.76373   0.77053   0.78083   0.79764   0.80245
 Alpha virt. eigenvalues --    0.80857   0.81942   0.82251   0.82861   0.83737
 Alpha virt. eigenvalues --    0.86552   0.87198   0.87444   0.88581   0.90396
 Alpha virt. eigenvalues --    0.91131   0.91981   0.93772   0.94673   0.95723
 Alpha virt. eigenvalues --    0.97046   0.99717   1.00409   1.00943   1.02873
 Alpha virt. eigenvalues --    1.03463   1.04678   1.06262   1.07263   1.09648
 Alpha virt. eigenvalues --    1.18668   1.21890   1.22593   1.24742   1.28545
 Alpha virt. eigenvalues --    1.30665   1.32852   1.34207   1.35495   1.36054
 Alpha virt. eigenvalues --    1.39209   1.39731   1.40679   1.42779   1.43066
 Alpha virt. eigenvalues --    1.43583   1.44859   1.45201   1.46403   1.47028
 Alpha virt. eigenvalues --    1.48015   1.48586   1.51920   1.53411   1.55465
 Alpha virt. eigenvalues --    1.55653   1.55983   1.56557   1.57953   1.61080
 Alpha virt. eigenvalues --    1.63078   1.63656   1.64406   1.66177   1.68014
 Alpha virt. eigenvalues --    1.68366   1.68665   1.69630   1.74120   1.75666
 Alpha virt. eigenvalues --    1.76707   1.77515   1.78864   1.80652   1.80832
 Alpha virt. eigenvalues --    1.82134   1.82907   1.83200   1.84076   1.84644
 Alpha virt. eigenvalues --    1.84970   1.86019   1.86415   1.88093   1.90946
 Alpha virt. eigenvalues --    1.91452   1.93836   1.95022   1.97745   1.98088
 Alpha virt. eigenvalues --    1.99957   2.01641   2.04235   2.07335   2.11338
 Alpha virt. eigenvalues --    2.11768   2.13370   2.15397   2.19280   2.20122
 Alpha virt. eigenvalues --    2.22400   2.27639   2.29647   2.32510   2.34400
 Alpha virt. eigenvalues --    2.36488   2.37813   2.39669   2.41042   2.44075
 Alpha virt. eigenvalues --    2.45538   2.46173   2.46983   2.51216   2.52777
 Alpha virt. eigenvalues --    2.54598   2.56409   2.57686   2.58774   2.59815
 Alpha virt. eigenvalues --    2.60153   2.61024   2.61899   2.62617   2.63010
 Alpha virt. eigenvalues --    2.63640   2.64444   2.65231   2.66129   2.66718
 Alpha virt. eigenvalues --    2.67765   2.71320   2.72204   2.73917   2.74832
 Alpha virt. eigenvalues --    2.76714   2.79359   2.79844   2.82762   2.83301
 Alpha virt. eigenvalues --    2.85071   2.86833   2.92084   2.96389   2.99474
 Alpha virt. eigenvalues --    3.00156   3.04474   3.10670   3.10723   3.12576
 Alpha virt. eigenvalues --    3.19949   3.22402   3.25816   3.27886   3.30334
 Alpha virt. eigenvalues --    3.31565   3.32477   3.42053   3.45826   3.46572
 Alpha virt. eigenvalues --    3.47892   3.49647   3.56232   3.65765   3.66592
 Alpha virt. eigenvalues --    3.67336   3.90452   3.91497   3.96613   3.98434
 Alpha virt. eigenvalues --    4.04029   4.06838   4.08440   4.12767   4.35234
 Alpha virt. eigenvalues --    4.60419   4.68172   4.70063  23.45322  23.60371
 Alpha virt. eigenvalues --   23.81693  23.85061  23.86919  23.87803  23.89393
 Alpha virt. eigenvalues --   23.91799  23.96317  23.98451  23.99212  24.01040
 Alpha virt. eigenvalues --   24.10467  24.13978
          Condensed to atoms (all electrons):
               1          2          3          4          5          6
     1  C    8.547082   0.328259  -0.461790   1.906697  -0.084271  -0.094866
     2  C    0.328259   6.832597   0.217648  -0.814953  -0.039515  -0.012275
     3  C   -0.461790   0.217648   6.733217   0.702259  -0.114212   0.018600
     4  C    1.906697  -0.814953   0.702259  10.349813  -0.197066  -0.114280
     5  C   -0.084271  -0.039515  -0.114212  -0.197066  10.851455   0.572087
     6  C   -0.094866  -0.012275   0.018600  -0.114280   0.572087   6.579005
     7  C   -0.001325   0.006561  -0.017817  -0.034936  -0.892843   0.227999
     8  C    0.363023  -0.017302  -0.091151  -0.046785   1.862651  -0.523466
     9  C   -1.116325  -0.492144   0.290768  -0.399192  -0.331211   0.245679
    10  C   -1.266032   0.160063  -0.382613  -2.440753  -2.230239  -0.185893
    11  C    0.304037  -0.753310   0.900929  -0.679252  -1.567399  -0.108160
    12  C   -2.151180   1.034768  -1.378777  -0.942285  -0.325752  -0.257829
    13  C    0.253045  -0.198645  -0.165992  -1.517883  -0.301060   1.044622
    14  C   -0.973221  -0.184589  -0.126922  -0.128282  -1.571865  -1.270563
    15  H    0.340143  -0.075156   0.010179   0.013329   0.005643   0.000552
    16  H   -0.022941   0.382537  -0.019892   0.013359  -0.001798  -0.000328
    17  H   -0.027554  -0.031230   0.393710  -0.070763   0.000330   0.000437
    18  H    0.055383   0.013850  -0.115457   0.481710   0.006280  -0.005599
    19  H   -0.042275  -0.006844   0.050450  -0.053697  -0.075548   0.051826
    20  H    0.006024   0.001084  -0.004468   0.008217   0.420029  -0.077463
    21  H   -0.001328  -0.000350   0.000514   0.000452  -0.054518   0.377942
    22  H    0.000887   0.000355  -0.000379  -0.001489   0.008388  -0.026381
    23  H    0.002616  -0.002871   0.001639   0.005060   0.019509   0.007777
    24  H    0.038303   0.022689  -0.008297  -0.020100  -0.018280  -0.007380
    25  H    0.020286   0.000471   0.004660  -0.002278  -0.004717   0.007506
               7          8          9         10         11         12
     1  C   -0.001325   0.363023  -1.116325  -1.266032   0.304037  -2.151180
     2  C    0.006561  -0.017302  -0.492144   0.160063  -0.753310   1.034768
     3  C   -0.017817  -0.091151   0.290768  -0.382613   0.900929  -1.378777
     4  C   -0.034936  -0.046785  -0.399192  -2.440753  -0.679252  -0.942285
     5  C   -0.892843   1.862651  -0.331211  -2.230239  -1.567399  -0.325752
     6  C    0.227999  -0.523466   0.245679  -0.185893  -0.108160  -0.257829
     7  C    7.154470   0.371254  -0.627950   0.093271  -0.119184  -0.163136
     8  C    0.371254   8.315227  -1.173719  -1.169989   0.274154  -1.071702
     9  C   -0.627950  -1.173719   8.758016   0.516498   1.176399  -1.173639
    10  C    0.093271  -1.169989   0.516498   8.718270  -0.159602   1.951152
    11  C   -0.119184   0.274154   1.176399  -0.159602  13.229732  -3.053155
    12  C   -0.163136  -1.071702  -1.173639   1.951152  -3.053155  14.586934
    13  C   -1.015987   0.519939   1.202329  -0.193274   1.171802  -4.305772
    14  C    1.108574  -2.098749  -1.292086   2.035596  -4.040077   2.670872
    15  H   -0.002632   0.003384   0.045664  -0.002915  -0.017813   0.008443
    16  H    0.000442   0.000946   0.001357  -0.010934   0.021198  -0.023446
    17  H   -0.000379  -0.001347  -0.001469   0.021324  -0.015420   0.076539
    18  H    0.002405   0.007300  -0.029377   0.002968  -0.014239  -0.034580
    19  H   -0.013364  -0.039401   0.066631   0.426612   0.071473  -0.064224
    20  H    0.012689   0.040259  -0.022047   0.015867  -0.009858  -0.011724
    21  H   -0.031136  -0.015915  -0.002988   0.014430  -0.005193   0.002427
    22  H    0.406266  -0.028431   0.001526  -0.008772   0.003222  -0.007510
    23  H   -0.103194   0.371478   0.049182  -0.004409  -0.014582   0.003008
    24  H    0.019075   0.032014   0.389752   0.005795   0.031166  -0.076907
    25  H    0.007527   0.033511   0.324205   0.002832  -0.007870  -0.033993
              13         14         15         16         17         18
     1  C    0.253045  -0.973221   0.340143  -0.022941  -0.027554   0.055383
     2  C   -0.198645  -0.184589  -0.075156   0.382537  -0.031230   0.013850
     3  C   -0.165992  -0.126922   0.010179  -0.019892   0.393710  -0.115457
     4  C   -1.517883  -0.128282   0.013329   0.013359  -0.070763   0.481710
     5  C   -0.301060  -1.571865   0.005643  -0.001798   0.000330   0.006280
     6  C    1.044622  -1.270563   0.000552  -0.000328   0.000437  -0.005599
     7  C   -1.015987   1.108574  -0.002632   0.000442  -0.000379   0.002405
     8  C    0.519939  -2.098749   0.003384   0.000946  -0.001347   0.007300
     9  C    1.202329  -1.292086   0.045664   0.001357  -0.001469  -0.029377
    10  C   -0.193274   2.035596  -0.002915  -0.010934   0.021324   0.002968
    11  C    1.171802  -4.040077  -0.017813   0.021198  -0.015420  -0.014239
    12  C   -4.305772   2.670872   0.008443  -0.023446   0.076539  -0.034580
    13  C   13.348342  -3.238807  -0.008775   0.001586  -0.004913  -0.010579
    14  C   -3.238807  14.606378   0.005170  -0.008271   0.005132  -0.016060
    15  H   -0.008775   0.005170   0.440162  -0.008938   0.001797  -0.000207
    16  H    0.001586  -0.008271  -0.008938   0.419910  -0.008038   0.002448
    17  H   -0.004913   0.005132   0.001797  -0.008038   0.426545  -0.013915
    18  H   -0.010579  -0.016060  -0.000207   0.002448  -0.013915   0.475896
    19  H    0.062925  -0.057446   0.000339  -0.000569   0.001552  -0.007322
    20  H    0.000022  -0.052182  -0.000070   0.000008  -0.000131   0.001104
    21  H   -0.011839   0.067743   0.000009  -0.000006   0.000011  -0.000171
    22  H    0.014721  -0.022302  -0.000104   0.000007  -0.000007   0.000028
    23  H   -0.006188   0.002888   0.000261  -0.000129   0.000021  -0.000170
    24  H    0.016852  -0.080963  -0.002253   0.001408  -0.000501   0.000555
    25  H    0.000789  -0.023890   0.000806  -0.000246   0.000256  -0.000089
              19         20         21         22         23         24
     1  C   -0.042275   0.006024  -0.001328   0.000887   0.002616   0.038303
     2  C   -0.006844   0.001084  -0.000350   0.000355  -0.002871   0.022689
     3  C    0.050450  -0.004468   0.000514  -0.000379   0.001639  -0.008297
     4  C   -0.053697   0.008217   0.000452  -0.001489   0.005060  -0.020100
     5  C   -0.075548   0.420029  -0.054518   0.008388   0.019509  -0.018280
     6  C    0.051826  -0.077463   0.377942  -0.026381   0.007777  -0.007380
     7  C   -0.013364   0.012689  -0.031136   0.406266  -0.103194   0.019075
     8  C   -0.039401   0.040259  -0.015915  -0.028431   0.371478   0.032014
     9  C    0.066631  -0.022047  -0.002988   0.001526   0.049182   0.389752
    10  C    0.426612   0.015867   0.014430  -0.008772  -0.004409   0.005795
    11  C    0.071473  -0.009858  -0.005193   0.003222  -0.014582   0.031166
    12  C   -0.064224  -0.011724   0.002427  -0.007510   0.003008  -0.076907
    13  C    0.062925   0.000022  -0.011839   0.014721  -0.006188   0.016852
    14  C   -0.057446  -0.052182   0.067743  -0.022302   0.002888  -0.080963
    15  H    0.000339  -0.000070   0.000009  -0.000104   0.000261  -0.002253
    16  H   -0.000569   0.000008  -0.000006   0.000007  -0.000129   0.001408
    17  H    0.001552  -0.000131   0.000011  -0.000007   0.000021  -0.000501
    18  H   -0.007322   0.001104  -0.000171   0.000028  -0.000170   0.000555
    19  H    0.447768  -0.005137   0.001638  -0.000728   0.000615   0.000374
    20  H   -0.005137   0.445950  -0.008864   0.002175  -0.000177   0.000339
    21  H    0.001638  -0.008864   0.423574  -0.008516   0.002002  -0.000431
    22  H   -0.000728   0.002175  -0.008516   0.424866  -0.010980   0.001692
    23  H    0.000615  -0.000177   0.002002  -0.010980   0.453675  -0.003530
    24  H    0.000374   0.000339  -0.000431   0.001692  -0.003530   0.481611
    25  H    0.000682  -0.000101   0.000248  -0.000555   0.001871  -0.072188
              25
     1  C    0.020286
     2  C    0.000471
     3  C    0.004660
     4  C   -0.002278
     5  C   -0.004717
     6  C    0.007506
     7  C    0.007527
     8  C    0.033511
     9  C    0.324205
    10  C    0.002832
    11  C   -0.007870
    12  C   -0.033993
    13  C    0.000789
    14  C   -0.023890
    15  H    0.000806
    16  H   -0.000246
    17  H    0.000256
    18  H   -0.000089
    19  H    0.000682
    20  H   -0.000101
    21  H    0.000248
    22  H   -0.000555
    23  H    0.001871
    24  H   -0.072188
    25  H    0.484159
 Mulliken charges:
               1
     1  C    0.077323
     2  C   -0.371700
     3  C   -0.436806
     4  C   -0.016904
     5  C    0.063922
     6  C   -0.449548
     7  C   -0.386651
     8  C    0.082818
     9  C   -0.405858
    10  C    0.090747
    11  C   -0.618999
    12  C    0.741468
    13  C   -0.657259
    14  C    0.683922
    15  H    0.242981
    16  H    0.260330
    17  H    0.248010
    18  H    0.197836
    19  H    0.183671
    20  H    0.238458
    21  H    0.250266
    22  H    0.252021
    23  H    0.224626
    24  H    0.249205
    25  H    0.256118
 Sum of Mulliken charges =   1.00000
 Mulliken charges with hydrogens summed into heavy atoms:
               1
     1  C    0.320304
     2  C   -0.111370
     3  C   -0.188796
     4  C    0.180933
     5  C    0.302380
     6  C   -0.199282
     7  C   -0.134630
     8  C    0.307445
     9  C    0.099464
    10  C    0.274418
    11  C   -0.618999
    12  C    0.741468
    13  C   -0.657259
    14  C    0.683922
 Electronic spatial extent (au):  <R**2>=           2857.6657
 Charge=              1.0000 electrons
 Dipole moment (field-independent basis, Debye):
    X=             -0.0466    Y=              0.1833    Z=             -0.0125  Tot=              0.1896
 Quadrupole moment (field-independent basis, Debye-Ang):
   XX=            -31.1722   YY=            -56.2197   ZZ=            -84.1331
   XY=              0.3598   XZ=              0.0029   YZ=              0.7209
 Traceless Quadrupole moment (field-independent basis, Debye-Ang):
   XX=             26.0028   YY=              0.9553   ZZ=            -26.9581
   XY=              0.3598   XZ=              0.0029   YZ=              0.7209
 Octapole moment (field-independent basis, Debye-Ang**2):
  XXX=             -1.2146  YYY=              5.1955  ZZZ=              0.1105  XYY=             -0.0418
  XXY=             -5.1311  XXZ=              0.1399  XZZ=              0.0304  YZZ=             -3.0821
  YYZ=              0.5755  XYZ=              0.0300
 Hexadecapole moment (field-independent basis, Debye-Ang**3):
 XXXX=          -2126.1869 YYYY=           -609.9912 ZZZZ=            -99.9511 XXXY=             -3.8129
 XXXZ=             -0.0236 YYYX=              6.7183 YYYZ=              3.3271 ZZZX=             -0.1404
 ZZZY=              0.3398 XXYY=           -509.0467 XXZZ=           -589.8990 YYZZ=           -146.0046
 XXYZ=             14.8175 YYXZ=              0.2865 ZZXY=             -1.8432
 N-N= 7.806881020624D+02 E-N=-2.797678068910D+03  KE= 5.374661776933D+02
 Unable to Open any file for archive entry.
 1\1\GINC-GADI-CPU-CLX-0572\SP\RM062X TD-FC\6-311++G(d,p)\C14H11(1+)\TS
 1578\27-Jul-2022\0\\#n M062X/6-311++G(d,p) TD(NStates=1) EmpiricalDisp
 ersion=GD3 SP\\SP_4\\1,1\C,0,2.4927,1.4011,0.068\C,0,3.7015,0.6807,0.0
 12\C,0,3.6839,-0.7171,0.\C,0,2.4632,-1.3749,-0.08\C,0,-2.4632,-1.4229,
 -0.08\C,0,-3.6839,-0.6931,0.\C,0,-3.7015,0.6807,0.012\C,0,-2.4927,1.33
 71,0.068\C,0,0.,1.4621,0.132\C,0,0.,-1.4205,-0.108\C,0,1.2621,0.7017,0
 .032\C,0,1.2375,-0.7101,-0.052\C,0,-1.2621,0.6697,0.032\C,0,-1.2375,-0
 .7341,-0.052\H,0,2.4881,2.5083,0.072\H,0,4.6368,1.2564,-0.048\H,0,4.60
 93,-1.2397,0.056\H,0,2.4675,-2.4094,-0.084\H,0,0.,-2.5016,-0.112\H,0,-
 2.4675,-2.5534,-0.084\H,0,-4.6093,-1.2877,0.056\H,0,-4.6368,1.1844,-0.
 048\H,0,-2.4881,2.3963,0.072\H,0,-0.008,2.1545,-0.7396\H,0,0.008,2.154
 5,0.9796\\Version=ES64L-G16RevC.01\State=1-A\HF=-539.7486338\RMSD=7.13
 4e-09\PG=C01 [X(C14H11)]\\@
 The archive entry for this job was punched.


 ABALONE: AN EXPRESSION OF DISBELIEF.
 Job cpu time:       0 days  1 hours 11 minutes 35.1 seconds.
 Elapsed time:       0 days  0 hours  2 minutes 15.0 seconds.
 File lengths (MBytes):  RWF=    460 Int=      0 D2E=      0 Chk=     15 Scr=      1
 Normal termination of Gaussian 16 at Wed Jul 27 12:18:03 2022.
