 Entering Gaussian System, Link 0=g16
 Initial command:
 /apps/gaussian/g16c01/g16/l1.exe "/jobfs/52803152.gadi-pbs/Gau-2955926.inp" -scrdir="/jobfs/52803152.gadi-pbs/"
 Entering Link 1 = /apps/gaussian/g16c01/g16/l1.exe PID=   2955927.
  
 Copyright (c) 1988-2019, Gaussian, Inc.  All Rights Reserved.
  
 This is part of the Gaussian(R) 16 program.  It is based on
 the Gaussian(R) 09 system (copyright 2009, Gaussian, Inc.),
 the Gaussian(R) 03 system (copyright 2003, Gaussian, Inc.),
 the Gaussian(R) 98 system (copyright 1998, Gaussian, Inc.),
 the Gaussian(R) 94 system (copyright 1995, Gaussian, Inc.),
 the Gaussian 92(TM) system (copyright 1992, Gaussian, Inc.),
 the Gaussian 90(TM) system (copyright 1990, Gaussian, Inc.),
 the Gaussian 88(TM) system (copyright 1988, Gaussian, Inc.),
 the Gaussian 86(TM) system (copyright 1986, Carnegie Mellon
 University), and the Gaussian 82(TM) system (copyright 1983,
 Carnegie Mellon University). Gaussian is a federally registered
 trademark of Gaussian, Inc.
  
 This software contains proprietary and confidential information,
 including trade secrets, belonging to Gaussian, Inc.
  
 This software is provided under written license and may be
 used, copied, transmitted, or stored only in accord with that
 written license.
  
 The following legend is applicable only to US Government
 contracts under FAR:
  
                    RESTRICTED RIGHTS LEGEND
  
 Use, reproduction and disclosure by the US Government is
 subject to restrictions as set forth in subparagraphs (a)
 and (c) of the Commercial Computer Software - Restricted
 Rights clause in FAR 52.227-19.
  
 Gaussian, Inc.
 340 Quinnipiac St., Bldg. 40, Wallingford CT 06492
  
  
 ---------------------------------------------------------------
 Warning -- This program may not be used in any manner that
 competes with the business of Gaussian, Inc. or will provide
 assistance to any competitor of Gaussian, Inc.  The licensee
 of this program is prohibited from giving any competitor of
 Gaussian, Inc. access to this program.  By using this program,
 the user acknowledges that Gaussian, Inc. is engaged in the
 business of creating and licensing software in the field of
 computational chemistry and represents and warrants to the
 licensee that it is not a competitor of Gaussian, Inc. and that
 it will not use this program in any manner prohibited above.
 ---------------------------------------------------------------
  

 Cite this work as:
 Gaussian 16, Revision C.01,
 M. J. Frisch, G. W. Trucks, H. B. Schlegel, G. E. Scuseria, 
 M. A. Robb, J. R. Cheeseman, G. Scalmani, V. Barone, 
 G. A. Petersson, H. Nakatsuji, X. Li, M. Caricato, A. V. Marenich, 
 J. Bloino, B. G. Janesko, R. Gomperts, B. Mennucci, H. P. Hratchian, 
 J. V. Ortiz, A. F. Izmaylov, J. L. Sonnenberg, D. Williams-Young, 
 F. Ding, F. Lipparini, F. Egidi, J. Goings, B. Peng, A. Petrone, 
 T. Henderson, D. Ranasinghe, V. G. Zakrzewski, J. Gao, N. Rega, 
 G. Zheng, W. Liang, M. Hada, M. Ehara, K. Toyota, R. Fukuda, 
 J. Hasegawa, M. Ishida, T. Nakajima, Y. Honda, O. Kitao, H. Nakai, 
 T. Vreven, K. Throssell, J. A. Montgomery, Jr., J. E. Peralta, 
 F. Ogliaro, M. J. Bearpark, J. J. Heyd, E. N. Brothers, K. N. Kudin, 
 V. N. Staroverov, T. A. Keith, R. Kobayashi, J. Normand, 
 K. Raghavachari, A. P. Rendell, J. C. Burant, S. S. Iyengar, 
 J. Tomasi, M. Cossi, J. M. Millam, M. Klene, C. Adamo, R. Cammi, 
 J. W. Ochterski, R. L. Martin, K. Morokuma, O. Farkas, 
 J. B. Foresman, and D. J. Fox, Gaussian, Inc., Wallingford CT, 2019.
 
 ******************************************
 Gaussian 16:  ES64L-G16RevC.01  3-Jul-2019
                27-Jul-2022 
 ******************************************
 %NProcShared=32
 Will use up to   32 processors via shared memory.
 %mem = 128GB
 ---------------------------------------------------------------
 #n M062X/6-311++G(d,p) TD(NStates=1) EmpiricalDispersion=GD3 SP
 ---------------------------------------------------------------
 1/38=1,172=1/1;
 2/12=2,17=6,18=5,40=1/2;
 3/5=4,6=6,7=1111,11=9,25=1,30=1,74=-55,124=31/1,2,3,8;
 4//1;
 5/5=2,38=5/2;
 8/6=1,10=2,108=1/1;
 9/41=1,42=1,70=2/14;
 6/7=2,8=2,9=2,10=2/1;
 99/5=1,9=1/99;
 ----
 SP_4
 ----
 Symbolic Z-matrix:
 Charge =  1 Multiplicity = 1
 C                     2.4927    1.3851    0.068 
 C                     3.7015    0.6627    0.004 
 C                     3.6839   -0.7261   -0.016 
 C                     2.4632   -1.3549   -0.088 
 C                    -2.4632   -1.4029   -0.072 
 C                    -3.6839   -0.7021    0.016 
 C                    -3.7015    0.6627    0.02 
 C                    -2.4927    1.3211    0.068 
 C                     0.        1.4541    0.132 
 C                     0.       -1.3915   -0.108 
 C                     1.2621    0.7107    0.043 
 C                     1.2375   -0.7011   -0.053 
 C                    -1.2621    0.6787    0.021 
 C                    -1.2375   -0.7251   -0.051 
 H                     2.4881    2.5033    0.072 
 H                     4.6368    1.2384   -0.055 
 H                     4.6093   -1.2407    0.054 
 H                     2.4675   -2.4004   -0.092 
 H                     0.       -2.4766   -0.112 
 H                    -2.4675   -2.5444   -0.076 
 H                    -4.6093   -1.2887    0.058 
 H                    -4.6368    1.1664   -0.041 
 H                    -2.4881    2.3913    0.072 
 H                    -0.008     2.1105   -0.7396 
 H                     0.008     2.1105    0.9796 
 
                          Input orientation:                          
 ---------------------------------------------------------------------
 Center     Atomic      Atomic             Coordinates (Angstroms)
 Number     Number       Type             X           Y           Z
 ---------------------------------------------------------------------
      1          6           0        2.492700    1.385100    0.068000
      2          6           0        3.701500    0.662700    0.004000
      3          6           0        3.683900   -0.726100   -0.016000
      4          6           0        2.463200   -1.354900   -0.088000
      5          6           0       -2.463200   -1.402900   -0.072000
      6          6           0       -3.683900   -0.702100    0.016000
      7          6           0       -3.701500    0.662700    0.020000
      8          6           0       -2.492700    1.321100    0.068000
      9          6           0        0.000000    1.454100    0.132000
     10          6           0        0.000000   -1.391500   -0.108000
     11          6           0        1.262100    0.710700    0.043000
     12          6           0        1.237500   -0.701100   -0.053000
     13          6           0       -1.262100    0.678700    0.021000
     14          6           0       -1.237500   -0.725100   -0.051000
     15          1           0        2.488100    2.503300    0.072000
     16          1           0        4.636800    1.238400   -0.055000
     17          1           0        4.609300   -1.240700    0.054000
     18          1           0        2.467500   -2.400400   -0.092000
     19          1           0        0.000000   -2.476600   -0.112000
     20          1           0       -2.467500   -2.544400   -0.076000
     21          1           0       -4.609300   -1.288700    0.058000
     22          1           0       -4.636800    1.166400   -0.041000
     23          1           0       -2.488100    2.391300    0.072000
     24          1           0       -0.008000    2.110500   -0.739600
     25          1           0        0.008000    2.110500    0.979600
 ---------------------------------------------------------------------
                    Distance matrix (angstroms):
                    1          2          3          4          5
     1  C    0.000000
     2  C    1.409665   0.000000
     3  C    2.425527   1.389056   0.000000
     4  C    2.744596   2.369084   1.375021   0.000000
     5  C    5.688013   6.502000   6.184499   4.926660   0.000000
     6  C    6.519931   7.510456   7.367909   6.182540   1.410310
     7  C    6.236367   7.403017   7.514931   6.487365   2.410094
     8  C    4.985811   6.229422   6.507570   5.634382   2.727755
     9  C    2.494476   3.787321   4.283258   3.742491   3.777753
    10  C    3.735510   4.234783   3.744642   2.463553   2.463489
    11  C    1.403502   2.440184   2.816556   2.393012   4.284669
    12  C    2.437704   2.816824   2.446808   1.389611   3.766705
    13  C    3.820960   4.963655   5.141765   4.245618   2.405067
    14  C    4.287365   5.130569   4.921525   3.754091   1.400783
    15  H    1.118217   2.205623   3.444809   3.861596   6.308289
    16  H    2.152630   1.099863   2.183758   3.383908   7.575405
    17  H    3.372687   2.109391   1.061168   2.153822   7.075482
    18  H    3.788964   3.303718   2.070914   1.045516   5.030627
    19  H    4.599857   4.854870   4.079778   2.706685   2.687338
    20  H    6.329715   6.953305   6.414790   5.072165   1.141515
    21  H    7.588657   8.536994   8.312591   7.074317   2.153065
    22  H    7.133686   8.353621   8.533243   7.534531   3.365531
    23  H    5.081419   6.426806   6.915165   6.210876   3.797013
    24  H    2.726155   4.050859   4.711690   4.305858   4.337935
    25  H    2.744258   4.085323   4.748659   4.379129   4.422293
                    6          7          8          9         10
     6  C    0.000000
     7  C    1.364919   0.000000
     8  C    2.348404   1.377313   0.000000
     9  C    4.270102   3.786814   2.497066   0.000000
    10  C    3.749902   4.235236   3.688188   2.855703   0.000000
    11  C    5.143894   4.963885   3.804174   1.467468   2.456612
    12  C    4.921884   5.124354   4.244800   2.492091   1.418127
    13  C    2.787786   2.439453   1.388979   1.485417   2.428017
    14  C    2.447425   2.828838   2.403461   2.512729   1.406678
    15  H    6.954949   6.457682   5.119178   2.700937   4.625204
    16  H    8.544275   8.358487   7.131040   4.645580   5.330957
    17  H    8.310758   8.526047   7.549928   5.339820   4.614611
    18  H    6.382445   6.888518   6.203124   4.582129   2.665838
    19  H    4.091009   4.855279   4.546260   3.938266   1.085107
    20  H    2.209562   3.437654   3.868263   4.703172   2.723740
    21  H    1.096462   2.152558   3.360231   5.364147   4.613434
    22  H    2.098228   1.064059   2.152435   4.648937   5.295966
    23  H    3.316956   2.112605   1.070217   2.659433   4.531293
    24  H    4.689764   4.039190   2.729305   1.091151   3.558509
    25  H    4.740187   4.096016   2.776269   1.072078   3.667007
                   11         12         13         14         15
    11  C    0.000000
    12  C    1.415274   0.000000
    13  C    2.524499   2.856103   0.000000
    14  C    2.884156   2.475117   1.405860   0.000000
    15  H    2.171942   3.442064   4.170823   4.931307   0.000000
    16  H    3.417114   3.913682   5.925881   6.193767   2.496600
    17  H    3.874510   3.416380   6.177259   5.870429   4.303179
    18  H    3.339185   2.098104   4.837721   4.066366   4.906485
    19  H    3.431589   2.165014   3.400956   2.145432   5.569910
    20  H    4.951742   4.138274   3.442495   2.196219   7.075249
    21  H    6.202513   5.877301   3.882754   3.420316   8.046897
    22  H    5.917072   6.164017   3.410322   3.890130   7.250122
    23  H    4.109654   4.843414   2.106816   3.360220   4.977460
    24  H    2.045741   3.150839   2.049715   3.166460   2.653960
    25  H    2.099863   3.237750   2.140589   3.264052   2.670005
                   16         17         18         19         20
    16  H    0.000000
    17  H    2.481647   0.000000
    18  H    4.236519   2.439985   0.000000
    19  H    5.941750   4.775003   2.468757   0.000000
    20  H    8.048670   7.197057   4.937126   2.468694   0.000000
    21  H    9.585894   9.218726   7.165157   4.762946   2.486372
    22  H    9.273890   9.554764   7.949575   5.897152   4.298503
    23  H    7.218692   7.972756   6.895307   5.470004   4.937961
    24  H    4.775291   5.760191   5.186107   4.629841   5.306373
    25  H    4.822525   5.767082   5.248398   4.715203   5.376847
                   21         22         23         24         25
    21  H    0.000000
    22  H    2.457249   0.000000
    23  H    4.247598   2.475896   0.000000
    24  H    5.776044   4.775474   2.624584   0.000000
    25  H    5.807182   4.848414   2.670787   1.719274   0.000000
 Stoichiometry    C14H11(1+)
 Framework group  C1[X(C14H11)]
 Deg. of freedom    69
 Full point group                 C1      NOp   1
 Largest Abelian subgroup         C1      NOp   1
 Largest concise Abelian subgroup C1      NOp   1
                         Standard orientation:                         
 ---------------------------------------------------------------------
 Center     Atomic      Atomic             Coordinates (Angstroms)
 Number     Number       Type             X           Y           Z
 ---------------------------------------------------------------------
      1          6           0       -2.500288   -1.364536    0.006696
      2          6           0       -3.705117   -0.633202   -0.019607
      3          6           0       -3.679723    0.754822    0.027508
      4          6           0       -2.455639    1.379596   -0.016743
      5          6           0        2.470975    1.399477   -0.009458
      6          6           0        3.687873    0.688491    0.041835
      7          6           0        3.697782   -0.674983   -0.020180
      8          6           0        2.485384   -1.328228   -0.001358
      9          6           0       -0.007896   -1.450357    0.061712
     10          6           0        0.007684    1.403475   -0.040459
     11          6           0       -1.265955   -0.696544    0.011572
     12          6           0       -1.233580    0.718089   -0.016128
     13          6           0        1.258337   -0.677500   -0.014499
     14          6           0        1.241515    0.728254   -0.018505
     15          1           0       -2.501988   -2.481630   -0.043369
     16          1           0       -4.643764   -1.200187   -0.104274
     17          1           0       -4.602066    1.270554    0.124369
     18          1           0       -2.454049    2.424074    0.029807
     19          1           0        0.013797    2.487483    0.007996
     20          1           0        2.481706    2.539794    0.041714
     21          1           0        4.616648    1.267239    0.110071
     22          1           0        4.630104   -1.180318   -0.107547
     23          1           0        2.474755   -2.397328   -0.049083
     24          1           0       -0.005312   -2.063883   -0.840613
     25          1           0       -0.017933   -2.146915    0.876609
 ---------------------------------------------------------------------
 Rotational constants (GHZ):           2.1711426           0.4445405           0.3698879
 Standard basis: 6-311++G(d,p) (5D, 7F)
 There are   399 symmetry adapted cartesian basis functions of A   symmetry.
 There are   385 symmetry adapted basis functions of A   symmetry.
   385 basis functions,   603 primitive gaussians,   399 cartesian basis functions
    47 alpha electrons       47 beta electrons
       nuclear repulsion energy       783.5200841527 Hartrees.
 NAtoms=   25 NActive=   25 NUniq=   25 SFac= 1.00D+00 NAtFMM=   60 NAOKFM=F Big=F
 Integral buffers will be    131072 words long.
 Regular integral format.
 Two-electron integral symmetry is turned on.
 Nuclear repulsion after empirical dispersion term =      783.5191086823 Hartrees.
 One-electron integrals computed using PRISM.
 NBasis=   385 RedAO= T EigKep=  1.56D-06  NBF=   385
 NBsUse=   379 1.00D-06 EigRej=  8.03D-07 NBFU=   379
 ExpMin= 3.60D-02 ExpMax= 4.56D+03 ExpMxC= 6.82D+02 IAcc=3 IRadAn=         5 AccDes= 0.00D+00
 Harris functional with IExCor= 1009 and IRadAn=       5 diagonalized for initial guess.
 HarFok:  IExCor= 1009 AccDes= 0.00D+00 IRadAn=         5 IDoV= 1 UseB2=F ITyADJ=14
 ICtDFT=  3500011 ScaDFX=  1.000000  1.000000  1.000000  1.000000
 FoFCou: FMM=F IPFlag=           0 FMFlag=      100000 FMFlg1=           0
         NFxFlg=           0 DoJE=T BraDBF=F KetDBF=T FulRan=T
         wScrn=  0.000000 ICntrl=       500 IOpCl=  0 I1Cent=   200000004 NGrid=           0
         NMat0=    1 NMatS0=      1 NMatT0=    0 NMatD0=    1 NMtDS0=    0 NMtDT0=    0
 Petite list used in FoFCou.
 Requested convergence on RMS density matrix=1.00D-08 within 128 cycles.
 Requested convergence on MAX density matrix=1.00D-06.
 Requested convergence on             energy=1.00D-06.
 No special actions if energy rises.
 SCF Done:  E(RM062X) =  -539.748280684     A.U. after   15 cycles
            NFock= 15  Conv=0.76D-08     -V/T= 2.0037
 DoSCS=F DFT=T ScalE2(SS,OS)=  1.000000  1.000000
 ExpMin= 3.60D-02 ExpMax= 4.56D+03 ExpMxC= 6.82D+02 IAcc=3 IRadAn=         5 AccDes= 0.00D+00
 HarFok:  IExCor=  205 AccDes= 0.00D+00 IRadAn=         5 IDoV=-2 UseB2=F ITyADJ=14
 ICtDFT= 12500011 ScaDFX=  1.000000  1.000000  1.000000  1.000000
 Range of M.O.s used for correlation:    15   379
 NBasis=   385 NAE=    47 NBE=    47 NFC=    14 NFV=     0
 NROrb=    365 NOA=    33 NOB=    33 NVA=   332 NVB=   332

 **** Warning!!: The largest alpha MO coefficient is  0.13166905D+03

 Orbital symmetries:
       Occupied  (A) (A) (A) (A) (A) (A) (A) (A) (A) (A) (A) (A)
                 (A) (A) (A) (A) (A) (A) (A) (A) (A) (A) (A) (A)
                 (A) (A) (A) (A) (A) (A) (A) (A) (A) (A) (A) (A)
                 (A) (A) (A) (A) (A) (A) (A) (A) (A) (A) (A)
       Virtual   (A) (A) (A) (A) (A) (A) (A) (A) (A) (A) (A) (A)
                 (A) (A) (A) (A) (A) (A) (A) (A) (A) (A) (A) (A)
                 (A) (A) (A) (A) (A) (A) (A) (A) (A) (A) (A) (A)
                 (A) (A) (A) (A) (A) (A) (A) (A) (A) (A) (A) (A)
                 (A) (A) (A) (A) (A) (A) (A) (A) (A) (A) (A) (A)
                 (A) (A) (A) (A) (A) (A) (A) (A) (A) (A) (A) (A)
                 (A) (A) (A) (A) (A) (A) (A) (A) (A) (A) (A) (A)
                 (A) (A) (A) (A) (A) (A) (A) (A) (A) (A) (A) (A)
                 (A) (A) (A) (A) (A) (A) (A) (A) (A) (A) (A) (A)
                 (A) (A) (A) (A) (A) (A) (A) (A) (A) (A) (A) (A)
                 (A) (A) (A) (A) (A) (A) (A) (A) (A) (A) (A) (A)
                 (A) (A) (A) (A) (A) (A) (A) (A) (A) (A) (A) (A)
                 (A) (A) (A) (A) (A) (A) (A) (A) (A) (A) (A) (A)
                 (A) (A) (A) (A) (A) (A) (A) (A) (A) (A) (A) (A)
                 (A) (A) (A) (A) (A) (A) (A) (A) (A) (A) (A) (A)
                 (A) (A) (A) (A) (A) (A) (A) (A) (A) (A) (A) (A)
                 (A) (A) (A) (A) (A) (A) (A) (A) (A) (A) (A) (A)
                 (A) (A) (A) (A) (A) (A) (A) (A) (A) (A) (A) (A)
                 (A) (A) (A) (A) (A) (A) (A) (A) (A) (A) (A) (A)
                 (A) (A) (A) (A) (A) (A) (A) (A) (A) (A) (A) (A)
                 (A) (A) (A) (A) (A) (A) (A) (A) (A) (A) (A) (A)
                 (A) (A) (A) (A) (A) (A) (A) (A) (A) (A) (A) (A)
                 (A) (A) (A) (A) (A) (A) (A) (A) (A) (A) (A) (A)
                 (A) (A) (A) (A) (A) (A) (A) (A) (A) (A) (A) (A)
                 (A) (A) (A) (A) (A) (A) (A) (A) (A) (A) (A) (A)
                 (A) (A) (A) (A) (A) (A) (A) (A) (A) (A) (A) (A)
                 (A) (A) (A) (A) (A) (A) (A) (A) (A) (A) (A) (A)
                 (A) (A) (A) (A) (A) (A) (A) (A)
     4 initial guesses have been made.
 Convergence on wavefunction:    0.001000000000000
 Iteration     1 Dimension     4 NMult     0 NNew      4
 CISAX will form     4 AO SS matrices at one time.
 Iteration     2 Dimension     6 NMult     4 NNew      2
 Iteration     3 Dimension     8 NMult     6 NNew      2
 Iteration     4 Dimension    10 NMult     8 NNew      2
 Iteration     5 Dimension    12 NMult    10 NNew      2
 Iteration     6 Dimension    14 NMult    12 NNew      2
 ***********************************************************************
 Excited states from <AA,BB:AA,BB> singles matrix:
 ***********************************************************************
 
 Ground to excited state transition densities written to RWF  633
 Ground to excited state transition electric dipole moments (Au):
       state          X           Y           Z        Dip. S.      Osc.
         1        -0.0372     -0.6333      0.0002      0.4024      0.0285
 Ground to excited state transition velocity dipole moments (Au):
       state          X           Y           Z        Dip. S.      Osc.
         1         0.0046      0.0746     -0.0001      0.0056      0.0351
 Ground to excited state transition magnetic dipole moments (Au):
       state          X           Y           Z
         1        -0.0213     -0.0026      0.0162
 Ground to excited state transition velocity quadrupole moments (Au):
       state          XX          YY          ZZ          XY          XZ          YZ
         1         0.2937      0.0398     -0.0085      0.0336      0.0018     -0.0018
 <0|del|b> * <b|rxdel|0> + <0|del|b> * <b|delr+rdel|0>
 Rotatory Strengths (R) in cgs (10**-40 erg-esu-cm/Gauss)
       state          XX          YY          ZZ    R(velocity)    E-M Angle
         1        -1.1249     -0.3513     -0.4986     -0.6583       98.49
 1/2[<0|r|b>*<b|rxdel|0> + (<0|rxdel|b>*<b|r|0>)*]
 Rotatory Strengths (R) in cgs (10**-40 erg-esu-cm/Gauss)
       state          XX          YY          ZZ     R(length)
         1        -0.5610     -1.1784     -0.0017     -0.5804
  1/2[<0|del|b>*<b|r|0> + (<0|r|b>*<b|del|0>)*] (Au)
       state          X           Y           Z        Dip. S.   Osc.(frdel)
         1        -0.0002     -0.0472     -0.0000      0.0474      0.0316

 Excitation energies and oscillator strengths:
 
 Excited State   1:      Singlet-A      2.8860 eV  429.61 nm  f=0.0285  <S**2>=0.000
      47 -> 48         0.70402
 This state for optimization and/or second-order correction.
 Total Energy, E(TD-HF/TD-DFT) =  -539.642222660    
 Copying the excited state density for this state as the 1-particle RhoCI density.
 SavETr:  write IOETrn=   770 NScale= 10 NData=  16 NLR=1 NState=    1 LETran=      28.

 **********************************************************************

            Population analysis using the SCF Density.

 **********************************************************************

 Orbital symmetries:
       Occupied  (A) (A) (A) (A) (A) (A) (A) (A) (A) (A) (A) (A)
                 (A) (A) (A) (A) (A) (A) (A) (A) (A) (A) (A) (A)
                 (A) (A) (A) (A) (A) (A) (A) (A) (A) (A) (A) (A)
                 (A) (A) (A) (A) (A) (A) (A) (A) (A) (A) (A)
       Virtual   (A) (A) (A) (A) (A) (A) (A) (A) (A) (A) (A) (A)
                 (A) (A) (A) (A) (A) (A) (A) (A) (A) (A) (A) (A)
                 (A) (A) (A) (A) (A) (A) (A) (A) (A) (A) (A) (A)
                 (A) (A) (A) (A) (A) (A) (A) (A) (A) (A) (A) (A)
                 (A) (A) (A) (A) (A) (A) (A) (A) (A) (A) (A) (A)
                 (A) (A) (A) (A) (A) (A) (A) (A) (A) (A) (A) (A)
                 (A) (A) (A) (A) (A) (A) (A) (A) (A) (A) (A) (A)
                 (A) (A) (A) (A) (A) (A) (A) (A) (A) (A) (A) (A)
                 (A) (A) (A) (A) (A) (A) (A) (A) (A) (A) (A) (A)
                 (A) (A) (A) (A) (A) (A) (A) (A) (A) (A) (A) (A)
                 (A) (A) (A) (A) (A) (A) (A) (A) (A) (A) (A) (A)
                 (A) (A) (A) (A) (A) (A) (A) (A) (A) (A) (A) (A)
                 (A) (A) (A) (A) (A) (A) (A) (A) (A) (A) (A) (A)
                 (A) (A) (A) (A) (A) (A) (A) (A) (A) (A) (A) (A)
                 (A) (A) (A) (A) (A) (A) (A) (A) (A) (A) (A) (A)
                 (A) (A) (A) (A) (A) (A) (A) (A) (A) (A) (A) (A)
                 (A) (A) (A) (A) (A) (A) (A) (A) (A) (A) (A) (A)
                 (A) (A) (A) (A) (A) (A) (A) (A) (A) (A) (A) (A)
                 (A) (A) (A) (A) (A) (A) (A) (A) (A) (A) (A) (A)
                 (A) (A) (A) (A) (A) (A) (A) (A) (A) (A) (A) (A)
                 (A) (A) (A) (A) (A) (A) (A) (A) (A) (A) (A) (A)
                 (A) (A) (A) (A) (A) (A) (A) (A) (A) (A) (A) (A)
                 (A) (A) (A) (A) (A) (A) (A) (A) (A) (A) (A) (A)
                 (A) (A) (A) (A) (A) (A) (A) (A) (A) (A) (A) (A)
                 (A) (A) (A) (A) (A) (A) (A) (A) (A) (A) (A) (A)
                 (A) (A) (A) (A) (A) (A) (A) (A) (A) (A) (A) (A)
                 (A) (A) (A) (A) (A) (A) (A) (A) (A) (A) (A) (A)
                 (A) (A) (A) (A) (A) (A) (A) (A)
 The electronic state is 1-A.
 Alpha  occ. eigenvalues --  -10.77387 -10.73200 -10.72938 -10.72345 -10.72229
 Alpha  occ. eigenvalues --  -10.72016 -10.71483 -10.70657 -10.70548 -10.70524
 Alpha  occ. eigenvalues --  -10.70394 -10.69600 -10.69432 -10.69345  -1.16750
 Alpha  occ. eigenvalues --   -1.12837  -1.07299  -1.06101  -1.01322  -1.00582
 Alpha  occ. eigenvalues --   -0.95897  -0.91471  -0.86324  -0.86046  -0.83747
 Alpha  occ. eigenvalues --   -0.78592  -0.76331  -0.74358  -0.70051  -0.69203
 Alpha  occ. eigenvalues --   -0.68949  -0.68208  -0.68053  -0.64609  -0.63920
 Alpha  occ. eigenvalues --   -0.63512  -0.61821  -0.60521  -0.59989  -0.59100
 Alpha  occ. eigenvalues --   -0.56516  -0.55204  -0.54614  -0.52531  -0.46837
 Alpha  occ. eigenvalues --   -0.46053  -0.44703
 Alpha virt. eigenvalues --   -0.26016  -0.14383  -0.14220  -0.12599  -0.11185
 Alpha virt. eigenvalues --   -0.10044  -0.09257  -0.08133  -0.07924  -0.07470
 Alpha virt. eigenvalues --   -0.07185  -0.07120  -0.05647  -0.05584  -0.05305
 Alpha virt. eigenvalues --   -0.03910  -0.03905  -0.03250  -0.02992  -0.02104
 Alpha virt. eigenvalues --   -0.01547  -0.01003   0.00290   0.00521   0.00757
 Alpha virt. eigenvalues --    0.01113   0.01516   0.02021   0.02176   0.02342
 Alpha virt. eigenvalues --    0.02559   0.02610   0.02959   0.03323   0.03457
 Alpha virt. eigenvalues --    0.04231   0.04493   0.04728   0.05141   0.05401
 Alpha virt. eigenvalues --    0.05806   0.06292   0.06521   0.06891   0.07203
 Alpha virt. eigenvalues --    0.07947   0.08136   0.08319   0.08556   0.08873
 Alpha virt. eigenvalues --    0.09580   0.09691   0.09964   0.10530   0.11109
 Alpha virt. eigenvalues --    0.11239   0.12268   0.12294   0.12770   0.13097
 Alpha virt. eigenvalues --    0.13197   0.13550   0.14065   0.14463   0.15558
 Alpha virt. eigenvalues --    0.15945   0.16671   0.16995   0.17571   0.17744
 Alpha virt. eigenvalues --    0.18199   0.18976   0.19269   0.19516   0.19945
 Alpha virt. eigenvalues --    0.21472   0.21780   0.22398   0.23288   0.23390
 Alpha virt. eigenvalues --    0.23497   0.24387   0.24804   0.26918   0.27751
 Alpha virt. eigenvalues --    0.28545   0.28732   0.30054   0.31594   0.36140
 Alpha virt. eigenvalues --    0.36677   0.38162   0.39175   0.40613   0.41453
 Alpha virt. eigenvalues --    0.41702   0.42691   0.42990   0.43477   0.44047
 Alpha virt. eigenvalues --    0.44386   0.45061   0.45660   0.46458   0.48308
 Alpha virt. eigenvalues --    0.48614   0.48708   0.49079   0.50317   0.50450
 Alpha virt. eigenvalues --    0.51336   0.51438   0.52267   0.52458   0.54001
 Alpha virt. eigenvalues --    0.54131   0.54770   0.55735   0.56129   0.58193
 Alpha virt. eigenvalues --    0.58302   0.59093   0.61303   0.62086   0.62535
 Alpha virt. eigenvalues --    0.62718   0.63488   0.63765   0.65317   0.66547
 Alpha virt. eigenvalues --    0.69963   0.70633   0.70822   0.71838   0.72309
 Alpha virt. eigenvalues --    0.74721   0.75171   0.75572   0.75766   0.76178
 Alpha virt. eigenvalues --    0.76475   0.77141   0.78116   0.79867   0.80373
 Alpha virt. eigenvalues --    0.80934   0.81839   0.82452   0.83111   0.84045
 Alpha virt. eigenvalues --    0.86458   0.86850   0.87620   0.88700   0.90332
 Alpha virt. eigenvalues --    0.91443   0.92335   0.93631   0.94961   0.96181
 Alpha virt. eigenvalues --    0.97434   0.99590   1.00848   1.01226   1.03140
 Alpha virt. eigenvalues --    1.03339   1.05192   1.06470   1.07876   1.10018
 Alpha virt. eigenvalues --    1.19328   1.21946   1.23415   1.25552   1.29529
 Alpha virt. eigenvalues --    1.31143   1.32955   1.33904   1.35272   1.36089
 Alpha virt. eigenvalues --    1.39196   1.40583   1.41326   1.43435   1.43638
 Alpha virt. eigenvalues --    1.43990   1.45308   1.45827   1.46933   1.47900
 Alpha virt. eigenvalues --    1.48430   1.48870   1.52939   1.54100   1.55460
 Alpha virt. eigenvalues --    1.55933   1.56019   1.57097   1.58491   1.61395
 Alpha virt. eigenvalues --    1.62556   1.63521   1.64199   1.66495   1.67912
 Alpha virt. eigenvalues --    1.68519   1.69392   1.69912   1.74170   1.76217
 Alpha virt. eigenvalues --    1.77034   1.77847   1.79243   1.81314   1.81624
 Alpha virt. eigenvalues --    1.82358   1.83590   1.84153   1.84344   1.84863
 Alpha virt. eigenvalues --    1.85498   1.86139   1.86877   1.88486   1.91401
 Alpha virt. eigenvalues --    1.91610   1.94030   1.95397   1.98091   1.98555
 Alpha virt. eigenvalues --    2.01191   2.02820   2.03944   2.08475   2.12339
 Alpha virt. eigenvalues --    2.12718   2.13560   2.15964   2.20585   2.21491
 Alpha virt. eigenvalues --    2.23541   2.28617   2.30484   2.32729   2.35621
 Alpha virt. eigenvalues --    2.37460   2.37837   2.39781   2.41652   2.46262
 Alpha virt. eigenvalues --    2.46944   2.47513   2.48125   2.51211   2.54369
 Alpha virt. eigenvalues --    2.54956   2.56714   2.57981   2.58757   2.59910
 Alpha virt. eigenvalues --    2.60130   2.60819   2.61815   2.62933   2.63346
 Alpha virt. eigenvalues --    2.63732   2.64620   2.65518   2.66486   2.67563
 Alpha virt. eigenvalues --    2.67827   2.71445   2.73552   2.74737   2.75378
 Alpha virt. eigenvalues --    2.77035   2.80091   2.80495   2.82523   2.83666
 Alpha virt. eigenvalues --    2.86545   2.87694   2.92771   2.96807   3.00110
 Alpha virt. eigenvalues --    3.00888   3.05978   3.10744   3.12658   3.14330
 Alpha virt. eigenvalues --    3.21649   3.24405   3.27183   3.29420   3.31482
 Alpha virt. eigenvalues --    3.32701   3.34549   3.43105   3.46601   3.47094
 Alpha virt. eigenvalues --    3.48176   3.51864   3.57394   3.66529   3.67400
 Alpha virt. eigenvalues --    3.74455   3.90991   3.91132   3.96321   3.98384
 Alpha virt. eigenvalues --    4.02760   4.05724   4.07146   4.12387   4.37016
 Alpha virt. eigenvalues --    4.63081   4.69100   4.70891  23.44552  23.60238
 Alpha virt. eigenvalues --   23.82634  23.86532  23.87423  23.90533  23.91446
 Alpha virt. eigenvalues --   23.95359  23.98281  24.00438  24.00751  24.03909
 Alpha virt. eigenvalues --   24.14043  24.15717
          Condensed to atoms (all electrons):
               1          2          3          4          5          6
     1  C    8.873074   0.379202  -0.559838   2.125975  -0.073022  -0.098001
     2  C    0.379202   6.684574   0.315154  -0.689365  -0.054014  -0.010815
     3  C   -0.559838   0.315154   6.822598   0.449213  -0.120960   0.020148
     4  C    2.125975  -0.689365   0.449213  10.221536  -0.074968  -0.109603
     5  C   -0.073022  -0.054014  -0.120960  -0.074968  11.338727   0.417887
     6  C   -0.098001  -0.010815   0.020148  -0.109603   0.417887   6.612387
     7  C   -0.002199   0.008835  -0.020083  -0.057636  -0.792043   0.236999
     8  C    0.417489  -0.013387  -0.095838  -0.049776   1.995969  -0.595803
     9  C   -1.358309  -0.313000   0.257453  -0.842584  -0.211476   0.355497
    10  C   -1.437850   0.086598  -0.357669  -2.265900  -2.492954  -0.185392
    11  C    0.034549  -0.639123   0.943946  -1.055464  -1.804786  -0.117218
    12  C   -2.004797   0.713918  -1.264343  -0.490363  -0.460911  -0.227769
    13  C    0.193052  -0.179355  -0.156433  -1.538334  -0.527807   1.079837
    14  C   -0.935236  -0.219103  -0.116738  -0.020947  -1.544389  -1.256492
    15  H    0.331735  -0.062655   0.006564   0.011601   0.005842   0.000580
    16  H   -0.017128   0.378687  -0.018359   0.016739  -0.002016  -0.000313
    17  H   -0.034545  -0.024191   0.395870  -0.074894   0.000116   0.000440
    18  H    0.061038   0.008229  -0.116357   0.487037   0.008988  -0.005290
    19  H   -0.048766  -0.005524   0.054503  -0.061379  -0.092917   0.052541
    20  H    0.006384   0.000586  -0.004074   0.011074   0.421475  -0.078306
    21  H   -0.001276  -0.000261   0.000496   0.000199  -0.052415   0.383287
    22  H    0.000637   0.000294  -0.000376  -0.001535   0.009979  -0.023998
    23  H    0.004138  -0.002637   0.001610   0.005738   0.019449   0.003823
    24  H    0.040799   0.024036  -0.009719  -0.021537  -0.020771  -0.006715
    25  H    0.033896   0.003316   0.006452  -0.003761  -0.006643   0.006981
               7          8          9         10         11         12
     1  C   -0.002199   0.417489  -1.358309  -1.437850   0.034549  -2.004797
     2  C    0.008835  -0.013387  -0.313000   0.086598  -0.639123   0.713918
     3  C   -0.020083  -0.095838   0.257453  -0.357669   0.943946  -1.264343
     4  C   -0.057636  -0.049776  -0.842584  -2.265900  -1.055464  -0.490363
     5  C   -0.792043   1.995969  -0.211476  -2.492954  -1.804786  -0.460911
     6  C    0.236999  -0.595803   0.355497  -0.185392  -0.117218  -0.227769
     7  C    7.173589   0.427094  -0.677002   0.066149  -0.067238  -0.198698
     8  C    0.427094   8.644091  -1.210138  -1.301214   0.204023  -1.102629
     9  C   -0.677002  -1.210138   8.903557   0.668450   1.257053  -0.878115
    10  C    0.066149  -1.301214   0.668450   9.031697  -0.117992   1.868538
    11  C   -0.067238   0.204023   1.257053  -0.117992  12.975147  -2.146587
    12  C   -0.198698  -1.102629  -0.878115   1.868538  -2.146587  13.463010
    13  C   -0.995439   0.385808   1.305825  -0.319534   0.965452  -4.018687
    14  C    0.962630  -2.206253  -1.694050   2.196885  -3.802283   2.239886
    15  H   -0.002452   0.004141   0.040020  -0.001917  -0.020333   0.016825
    16  H    0.000426   0.000854   0.000228  -0.013343   0.020469  -0.024642
    17  H   -0.000385  -0.001408  -0.000866   0.024422  -0.015737   0.076809
    18  H    0.002334   0.007963  -0.033742   0.007317  -0.017849  -0.041108
    19  H   -0.013292  -0.044580   0.075048   0.430736   0.080307  -0.055530
    20  H    0.010727   0.042460  -0.024922   0.017777  -0.011191  -0.014534
    21  H   -0.036850  -0.015472   0.000457   0.013185  -0.004395   0.001861
    22  H    0.409981  -0.030308   0.000681  -0.009698   0.002053  -0.007475
    23  H   -0.094806   0.362479   0.037574  -0.003808  -0.019669   0.004613
    24  H    0.023817   0.040889   0.395028   0.003381   0.020174  -0.078395
    25  H    0.007982   0.047932   0.317782   0.000000  -0.001114  -0.043427
              13         14         15         16         17         18
     1  C    0.193052  -0.935236   0.331735  -0.017128  -0.034545   0.061038
     2  C   -0.179355  -0.219103  -0.062655   0.378687  -0.024191   0.008229
     3  C   -0.156433  -0.116738   0.006564  -0.018359   0.395870  -0.116357
     4  C   -1.538334  -0.020947   0.011601   0.016739  -0.074894   0.487037
     5  C   -0.527807  -1.544389   0.005842  -0.002016   0.000116   0.008988
     6  C    1.079837  -1.256492   0.000580  -0.000313   0.000440  -0.005290
     7  C   -0.995439   0.962630  -0.002452   0.000426  -0.000385   0.002334
     8  C    0.385808  -2.206253   0.004141   0.000854  -0.001408   0.007963
     9  C    1.305825  -1.694050   0.040020   0.000228  -0.000866  -0.033742
    10  C   -0.319534   2.196885  -0.001917  -0.013343   0.024422   0.007317
    11  C    0.965452  -3.802283  -0.020333   0.020469  -0.015737  -0.017849
    12  C   -4.018687   2.239886   0.016825  -0.024642   0.076809  -0.041108
    13  C   13.449353  -2.991506  -0.010126   0.001784  -0.004487  -0.011928
    14  C   -2.991506  14.846658   0.005194  -0.008624   0.005616  -0.015282
    15  H   -0.010126   0.005194   0.437036  -0.008071   0.001613  -0.000109
    16  H    0.001784  -0.008624  -0.008071   0.418585  -0.007884   0.002276
    17  H   -0.004487   0.005616   0.001613  -0.007884   0.426361  -0.012859
    18  H   -0.011928  -0.015282  -0.000109   0.002276  -0.012859   0.472799
    19  H    0.066228  -0.060979   0.000275  -0.000584   0.001646  -0.007075
    20  H   -0.003736  -0.050654  -0.000078   0.000001  -0.000123   0.000997
    21  H   -0.004022   0.057586   0.000012  -0.000005   0.000011  -0.000160
    22  H    0.011001  -0.020626  -0.000094   0.000006  -0.000006   0.000025
    23  H   -0.013440   0.024692   0.000188  -0.000115   0.000019  -0.000151
    24  H    0.013421  -0.080356  -0.001631   0.001398  -0.000555   0.000592
    25  H    0.000267  -0.041153   0.000806  -0.000296   0.000329  -0.000039
              19         20         21         22         23         24
     1  C   -0.048766   0.006384  -0.001276   0.000637   0.004138   0.040799
     2  C   -0.005524   0.000586  -0.000261   0.000294  -0.002637   0.024036
     3  C    0.054503  -0.004074   0.000496  -0.000376   0.001610  -0.009719
     4  C   -0.061379   0.011074   0.000199  -0.001535   0.005738  -0.021537
     5  C   -0.092917   0.421475  -0.052415   0.009979   0.019449  -0.020771
     6  C    0.052541  -0.078306   0.383287  -0.023998   0.003823  -0.006715
     7  C   -0.013292   0.010727  -0.036850   0.409981  -0.094806   0.023817
     8  C   -0.044580   0.042460  -0.015472  -0.030308   0.362479   0.040889
     9  C    0.075048  -0.024922   0.000457   0.000681   0.037574   0.395028
    10  C    0.430736   0.017777   0.013185  -0.009698  -0.003808   0.003381
    11  C    0.080307  -0.011191  -0.004395   0.002053  -0.019669   0.020174
    12  C   -0.055530  -0.014534   0.001861  -0.007475   0.004613  -0.078395
    13  C    0.066228  -0.003736  -0.004022   0.011001  -0.013440   0.013421
    14  C   -0.060979  -0.050654   0.057586  -0.020626   0.024692  -0.080356
    15  H    0.000275  -0.000078   0.000012  -0.000094   0.000188  -0.001631
    16  H   -0.000584   0.000001  -0.000005   0.000006  -0.000115   0.001398
    17  H    0.001646  -0.000123   0.000011  -0.000006   0.000019  -0.000555
    18  H   -0.007075   0.000997  -0.000160   0.000025  -0.000151   0.000592
    19  H    0.453074  -0.004535   0.001606  -0.000722   0.000455   0.000406
    20  H   -0.004535   0.445014  -0.008531   0.002136  -0.000118   0.000420
    21  H    0.001606  -0.008531   0.423308  -0.008689   0.002018  -0.000414
    22  H   -0.000722   0.002136  -0.008689   0.424161  -0.010829   0.001618
    23  H    0.000455  -0.000118   0.002018  -0.010829   0.454829  -0.003173
    24  H    0.000406   0.000420  -0.000414   0.001618  -0.003173   0.476667
    25  H    0.000671  -0.000101   0.000209  -0.000512   0.001911  -0.064158
              25
     1  C    0.033896
     2  C    0.003316
     3  C    0.006452
     4  C   -0.003761
     5  C   -0.006643
     6  C    0.006981
     7  C    0.007982
     8  C    0.047932
     9  C    0.317782
    10  C    0.000000
    11  C   -0.001114
    12  C   -0.043427
    13  C    0.000267
    14  C   -0.041153
    15  H    0.000806
    16  H   -0.000296
    17  H    0.000329
    18  H   -0.000039
    19  H    0.000671
    20  H   -0.000101
    21  H    0.000209
    22  H   -0.000512
    23  H    0.001911
    24  H   -0.064158
    25  H    0.482710
 Mulliken charges:
               1
     1  C    0.069001
     2  C   -0.389999
     3  C   -0.433218
     4  C    0.028935
     5  C    0.113659
     6  C   -0.454692
     7  C   -0.372439
     8  C    0.085615
     9  C   -0.370449
    10  C    0.092140
    11  C   -0.662195
    12  C    0.672552
    13  C   -0.697190
    14  C    0.725524
    15  H    0.245035
    16  H    0.259930
    17  H    0.244690
    18  H    0.202355
    19  H    0.178389
    20  H    0.241853
    21  H    0.248257
    22  H    0.252298
    23  H    0.225210
    24  H    0.244780
    25  H    0.249959
 Sum of Mulliken charges =   1.00000
 Mulliken charges with hydrogens summed into heavy atoms:
               1
     1  C    0.314036
     2  C   -0.130069
     3  C   -0.188528
     4  C    0.231290
     5  C    0.355512
     6  C   -0.206435
     7  C   -0.120141
     8  C    0.310826
     9  C    0.124290
    10  C    0.270528
    11  C   -0.662195
    12  C    0.672552
    13  C   -0.697190
    14  C    0.725524
 Electronic spatial extent (au):  <R**2>=           2847.9806
 Charge=              1.0000 electrons
 Dipole moment (field-independent basis, Debye):
    X=             -0.0509    Y=              0.2158    Z=             -0.0119  Tot=              0.2220
 Quadrupole moment (field-independent basis, Debye-Ang):
   XX=            -30.4072   YY=            -57.1246   ZZ=            -83.8137
   XY=              0.3536   XZ=             -0.1201   YZ=              0.7220
 Traceless Quadrupole moment (field-independent basis, Debye-Ang):
   XX=             26.7080   YY=             -0.0094   ZZ=            -26.6986
   XY=              0.3536   XZ=             -0.1201   YZ=              0.7220
 Octapole moment (field-independent basis, Debye-Ang**2):
  XXX=             -1.0754  YYY=              5.2763  ZZZ=              0.1315  XYY=             -0.0594
  XXY=             -3.7814  XXZ=              0.1953  XZZ=              0.0213  YZZ=             -3.0806
  YYZ=              0.5799  XYZ=             -0.0701
 Hexadecapole moment (field-independent basis, Debye-Ang**3):
 XXXX=          -2106.4199 YYYY=           -606.3422 ZZZZ=            -99.0517 XXXY=             -3.4103
 XXXZ=             -3.0149 YYYX=              6.5399 YYYZ=              3.3851 ZZZX=             -0.2827
 ZZZY=              0.2950 XXYY=           -509.6768 XXZZ=           -587.6648 YYZZ=           -143.8022
 XXYZ=             14.7115 YYXZ=              0.0072 ZZXY=             -1.8713
 N-N= 7.835191086823D+02 E-N=-2.803525016897D+03  KE= 5.377444769922D+02
 Unable to Open any file for archive entry.
 1\1\GINC-GADI-CPU-CLX-0572\SP\RM062X TD-FC\6-311++G(d,p)\C14H11(1+)\TS
 1578\27-Jul-2022\0\\#n M062X/6-311++G(d,p) TD(NStates=1) EmpiricalDisp
 ersion=GD3 SP\\SP_4\\1,1\C,0,2.4927,1.3851,0.068\C,0,3.7015,0.6627,0.0
 04\C,0,3.6839,-0.7261,-0.016\C,0,2.4632,-1.3549,-0.088\C,0,-2.4632,-1.
 4029,-0.072\C,0,-3.6839,-0.7021,0.016\C,0,-3.7015,0.6627,0.02\C,0,-2.4
 927,1.3211,0.068\C,0,0.,1.4541,0.132\C,0,0.,-1.3915,-0.108\C,0,1.2621,
 0.7107,0.043\C,0,1.2375,-0.7011,-0.053\C,0,-1.2621,0.6787,0.021\C,0,-1
 .2375,-0.7251,-0.051\H,0,2.4881,2.5033,0.072\H,0,4.6368,1.2384,-0.055\
 H,0,4.6093,-1.2407,0.054\H,0,2.4675,-2.4004,-0.092\H,0,0.,-2.4766,-0.1
 12\H,0,-2.4675,-2.5444,-0.076\H,0,-4.6093,-1.2887,0.058\H,0,-4.6368,1.
 1664,-0.041\H,0,-2.4881,2.3913,0.072\H,0,-0.008,2.1105,-0.7396\H,0,0.0
 08,2.1105,0.9796\\Version=ES64L-G16RevC.01\State=1-A\HF=-539.7482807\R
 MSD=7.556e-09\PG=C01 [X(C14H11)]\\@
 The archive entry for this job was punched.


 HE THAT IS UNAWARE OF HIS IGNORANCE WILL BE MISLED BY HIS KNOWLEDGE.

                                        -- WHATLEY
 Job cpu time:       0 days  1 hours 11 minutes 33.7 seconds.
 Elapsed time:       0 days  0 hours  2 minutes 14.8 seconds.
 File lengths (MBytes):  RWF=    460 Int=      0 D2E=      0 Chk=     15 Scr=      1
 Normal termination of Gaussian 16 at Wed Jul 27 12:20:18 2022.
