 Entering Gaussian System, Link 0=g16
 Initial command:
 /apps/gaussian/g16c01/g16/l1.exe "/jobfs/52803152.gadi-pbs/Gau-2946134.inp" -scrdir="/jobfs/52803152.gadi-pbs/"
 Entering Link 1 = /apps/gaussian/g16c01/g16/l1.exe PID=   2946135.
  
 Copyright (c) 1988-2019, Gaussian, Inc.  All Rights Reserved.
  
 This is part of the Gaussian(R) 16 program.  It is based on
 the Gaussian(R) 09 system (copyright 2009, Gaussian, Inc.),
 the Gaussian(R) 03 system (copyright 2003, Gaussian, Inc.),
 the Gaussian(R) 98 system (copyright 1998, Gaussian, Inc.),
 the Gaussian(R) 94 system (copyright 1995, Gaussian, Inc.),
 the Gaussian 92(TM) system (copyright 1992, Gaussian, Inc.),
 the Gaussian 90(TM) system (copyright 1990, Gaussian, Inc.),
 the Gaussian 88(TM) system (copyright 1988, Gaussian, Inc.),
 the Gaussian 86(TM) system (copyright 1986, Carnegie Mellon
 University), and the Gaussian 82(TM) system (copyright 1983,
 Carnegie Mellon University). Gaussian is a federally registered
 trademark of Gaussian, Inc.
  
 This software contains proprietary and confidential information,
 including trade secrets, belonging to Gaussian, Inc.
  
 This software is provided under written license and may be
 used, copied, transmitted, or stored only in accord with that
 written license.
  
 The following legend is applicable only to US Government
 contracts under FAR:
  
                    RESTRICTED RIGHTS LEGEND
  
 Use, reproduction and disclosure by the US Government is
 subject to restrictions as set forth in subparagraphs (a)
 and (c) of the Commercial Computer Software - Restricted
 Rights clause in FAR 52.227-19.
  
 Gaussian, Inc.
 340 Quinnipiac St., Bldg. 40, Wallingford CT 06492
  
  
 ---------------------------------------------------------------
 Warning -- This program may not be used in any manner that
 competes with the business of Gaussian, Inc. or will provide
 assistance to any competitor of Gaussian, Inc.  The licensee
 of this program is prohibited from giving any competitor of
 Gaussian, Inc. access to this program.  By using this program,
 the user acknowledges that Gaussian, Inc. is engaged in the
 business of creating and licensing software in the field of
 computational chemistry and represents and warrants to the
 licensee that it is not a competitor of Gaussian, Inc. and that
 it will not use this program in any manner prohibited above.
 ---------------------------------------------------------------
  

 Cite this work as:
 Gaussian 16, Revision C.01,
 M. J. Frisch, G. W. Trucks, H. B. Schlegel, G. E. Scuseria, 
 M. A. Robb, J. R. Cheeseman, G. Scalmani, V. Barone, 
 G. A. Petersson, H. Nakatsuji, X. Li, M. Caricato, A. V. Marenich, 
 J. Bloino, B. G. Janesko, R. Gomperts, B. Mennucci, H. P. Hratchian, 
 J. V. Ortiz, A. F. Izmaylov, J. L. Sonnenberg, D. Williams-Young, 
 F. Ding, F. Lipparini, F. Egidi, J. Goings, B. Peng, A. Petrone, 
 T. Henderson, D. Ranasinghe, V. G. Zakrzewski, J. Gao, N. Rega, 
 G. Zheng, W. Liang, M. Hada, M. Ehara, K. Toyota, R. Fukuda, 
 J. Hasegawa, M. Ishida, T. Nakajima, Y. Honda, O. Kitao, H. Nakai, 
 T. Vreven, K. Throssell, J. A. Montgomery, Jr., J. E. Peralta, 
 F. Ogliaro, M. J. Bearpark, J. J. Heyd, E. N. Brothers, K. N. Kudin, 
 V. N. Staroverov, T. A. Keith, R. Kobayashi, J. Normand, 
 K. Raghavachari, A. P. Rendell, J. C. Burant, S. S. Iyengar, 
 J. Tomasi, M. Cossi, J. M. Millam, M. Klene, C. Adamo, R. Cammi, 
 J. W. Ochterski, R. L. Martin, K. Morokuma, O. Farkas, 
 J. B. Foresman, and D. J. Fox, Gaussian, Inc., Wallingford CT, 2019.
 
 ******************************************
 Gaussian 16:  ES64L-G16RevC.01  3-Jul-2019
                27-Jul-2022 
 ******************************************
 %NProcShared=32
 Will use up to   32 processors via shared memory.
 %mem = 128GB
 ---------------------------------------------------------------
 #n M062X/6-311++G(d,p) TD(NStates=1) EmpiricalDispersion=GD3 SP
 ---------------------------------------------------------------
 1/38=1,172=1/1;
 2/12=2,17=6,18=5,40=1/2;
 3/5=4,6=6,7=1111,11=9,25=1,30=1,74=-55,124=31/1,2,3,8;
 4//1;
 5/5=2,38=5/2;
 8/6=1,10=2,108=1/1;
 9/41=1,42=1,70=2/14;
 6/7=2,8=2,9=2,10=2/1;
 99/5=1,9=1/99;
 ----
 SP_3
 ----
 Symbolic Z-matrix:
 Charge =  1 Multiplicity = 1
 C                     2.4927    1.4571    0.051 
 C                     3.7015    0.7527    0.041 
 C                     3.6839   -0.6781    0.064 
 C                     2.4632   -1.4609   -0.028 
 C                    -2.4632   -1.4969   -0.092 
 C                    -3.6839   -0.6601   -0.064 
 C                    -3.7015    0.7527   -0.023 
 C                    -2.4927    1.4091    0.051 
 C                     0.        1.4941    0.099 
 C                     0.       -1.5365   -0.081 
 C                     1.2621    0.6617   -0.02 
 C                     1.2375   -0.7491   -0.035 
 C                    -1.2621    0.6377    0.068 
 C                    -1.2375   -0.7671   -0.043 
 H                     2.4881    2.5143    0.054 
 H                     4.6368    1.3194   -0.008 
 H                     4.6093   -1.2417    0.05 
 H                     2.4675   -2.4634   -0.031 
 H                     0.       -2.6016   -0.084 
 H                    -2.4675   -2.5714   -0.095 
 H                    -4.6093   -1.2777    0.034 
 H                    -4.6368    1.2654   -0.064 
 H                    -2.4881    2.4303    0.054 
 H                    -0.006     2.3305   -0.7696 
 H                     0.006     2.3305    0.9496 
 
                          Input orientation:                          
 ---------------------------------------------------------------------
 Center     Atomic      Atomic             Coordinates (Angstroms)
 Number     Number       Type             X           Y           Z
 ---------------------------------------------------------------------
      1          6           0        2.492700    1.457100    0.051000
      2          6           0        3.701500    0.752700    0.041000
      3          6           0        3.683900   -0.678100    0.064000
      4          6           0        2.463200   -1.460900   -0.028000
      5          6           0       -2.463200   -1.496900   -0.092000
      6          6           0       -3.683900   -0.660100   -0.064000
      7          6           0       -3.701500    0.752700   -0.023000
      8          6           0       -2.492700    1.409100    0.051000
      9          6           0        0.000000    1.494100    0.099000
     10          6           0        0.000000   -1.536500   -0.081000
     11          6           0        1.262100    0.661700   -0.020000
     12          6           0        1.237500   -0.749100   -0.035000
     13          6           0       -1.262100    0.637700    0.068000
     14          6           0       -1.237500   -0.767100   -0.043000
     15          1           0        2.488100    2.514300    0.054000
     16          1           0        4.636800    1.319400   -0.008000
     17          1           0        4.609300   -1.241700    0.050000
     18          1           0        2.467500   -2.463400   -0.031000
     19          1           0        0.000000   -2.601600   -0.084000
     20          1           0       -2.467500   -2.571400   -0.095000
     21          1           0       -4.609300   -1.277700    0.034000
     22          1           0       -4.636800    1.265400   -0.064000
     23          1           0       -2.488100    2.430300    0.054000
     24          1           0       -0.006000    2.330500   -0.769600
     25          1           0        0.006000    2.330500    0.949600
 ---------------------------------------------------------------------
                    Distance matrix (angstroms):
                    1          2          3          4          5
     1  C    0.000000
     2  C    1.399099   0.000000
     3  C    2.445037   1.431093   0.000000
     4  C    2.919218   2.537355   1.453048   0.000000
     5  C    5.771266   6.563682   6.203355   4.926947   0.000000
     6  C    6.530402   7.520051   7.368934   6.199146   1.480245
     7  C    6.234562   7.403277   7.523223   6.550082   2.568822
     8  C    4.985631   6.228890   6.519736   5.727485   2.909666
     9  C    2.493437   3.775466   4.276774   3.849092   3.879422
    10  C    3.897771   4.353897   3.785366   2.464930   2.463543
    11  C    1.466996   2.441859   2.768977   2.438880   4.306112
    12  C    2.539733   2.886603   2.449432   1.417409   3.775928
    13  C    3.843205   4.965005   5.118033   4.276821   2.454538
    14  C    4.343995   5.168227   4.923368   3.765204   1.427358
    15  H    1.057214   2.139099   3.409026   3.976124   6.373885
    16  H    2.149327   1.094685   2.214319   3.529165   7.638626
    17  H    3.429799   2.191304   1.083608   2.158675   7.078527
    18  H    3.921438   3.445466   2.162395   1.002514   5.024903
    19  H    4.764958   4.996805   4.158470   2.715085   2.699589
    20  H    6.391691   7.008901   6.438135   5.054651   1.074513
    21  H    7.610376   8.555231   8.314901   7.075144   2.160942
    22  H    7.133004   8.354707   8.545620   7.605525   3.515057
    23  H    5.074987   6.412929   6.910560   6.297899   3.929992
    24  H    2.771230   4.109998   4.833418   4.584935   4.598474
    25  H    2.784598   4.119676   4.833519   4.622580   4.672352
                    6          7          8          9         10
     6  C    0.000000
     7  C    1.413504   0.000000
     8  C    2.390350   1.377510   0.000000
     9  C    4.270628   3.776991   2.494611   0.000000
    10  C    3.786751   4.352574   3.861028   3.035941   0.000000
    11  C    5.119766   4.964435   3.829121   1.516558   2.535488
    12  C    4.922290   5.162293   4.310408   2.565406   1.467488
    13  C    2.750786   2.443804   1.452489   1.525542   2.518381
    14  C    2.448829   2.895080   2.514003   2.581588   1.457679
    15  H    6.941493   6.435861   5.101945   2.689512   4.755822
    16  H    8.553105   8.357549   7.130308   4.641323   5.446229
    17  H    8.314350   8.547067   7.580577   5.360284   4.620575
    18  H    6.410359   6.957005   6.293375   4.665540   2.636323
    19  H    4.164246   4.995613   4.724139   4.099786   1.065104
    20  H    2.265758   3.546489   3.983256   4.759673   2.675775
    21  H    1.116870   2.224831   3.420406   5.378917   4.617992
    22  H    2.148387   1.067393   2.151985   4.645297   5.417642
    23  H    3.315786   2.071862   1.021215   2.658785   4.684482
    24  H    4.792547   4.087002   2.775975   1.205847   3.927836
    25  H    4.856587   4.144992   2.810687   1.192946   4.001982
                   11         12         13         14         15
    11  C    0.000000
    12  C    1.411094   0.000000
    13  C    2.525848   2.860389   0.000000
    14  C    2.879236   2.475078   1.409393   0.000000
    15  H    2.222764   3.495955   4.193545   4.965591   0.000000
    16  H    3.438214   3.979279   5.938646   6.233948   2.459378
    17  H    3.851179   3.408653   6.164885   5.866768   4.313588
    18  H    3.349531   2.109915   4.851447   4.074875   4.978468
    19  H    3.499446   2.228354   3.479808   2.213250   5.690529
    20  H    4.936444   4.129334   3.431892   2.184285   7.102430
    21  H    6.183650   5.871052   3.856639   3.411111   8.046909
    22  H    5.929874   6.210189   3.435117   3.960649   7.234492
    23  H    4.146977   4.898633   2.171793   3.434644   4.976909
    24  H    2.225954   3.401451   2.268244   3.411695   2.632990
    25  H    2.302782   3.459764   2.291477   3.482337   2.645128
                   16         17         18         19         20
    16  H    0.000000
    17  H    2.561904   0.000000
    18  H    4.360730   2.467067   0.000000
    19  H    6.072885   4.807591   2.471935   0.000000
    20  H    8.100430   7.202099   4.936596   2.467709   0.000000
    21  H    9.604013   9.218684   7.175737   4.797112   2.505516
    22  H    9.273926   9.580653   8.023473   6.037715   4.407704
    23  H    7.211251   7.991038   6.965163   5.615132   5.003961
    24  H    4.812271   5.893501   5.444741   4.979527   5.526544
    25  H    4.835662   5.895784   5.477411   5.039244   5.589098
                   21         22         23         24         25
    21  H    0.000000
    22  H    2.545136   0.000000
    23  H    4.271903   2.447004   0.000000
    24  H    5.903834   4.803813   2.617078   0.000000
    25  H    5.929454   4.870053   2.651904   1.719242   0.000000
 Stoichiometry    C14H11(1+)
 Framework group  C1[X(C14H11)]
 Deg. of freedom    69
 Full point group                 C1      NOp   1
 Largest Abelian subgroup         C1      NOp   1
 Largest concise Abelian subgroup C1      NOp   1
                         Standard orientation:                         
 ---------------------------------------------------------------------
 Center     Atomic      Atomic             Coordinates (Angstroms)
 Number     Number       Type             X           Y           Z
 ---------------------------------------------------------------------
      1          6           0       -2.499475   -1.436313   -0.019547
      2          6           0       -3.704992   -0.726255   -0.014891
      3          6           0       -3.681191    0.702790    0.057840
      4          6           0       -2.456289    1.482499    0.002905
      5          6           0        2.470583    1.497292   -0.019984
      6          6           0        3.687260    0.654235   -0.011144
      7          6           0        3.698210   -0.759205   -0.019008
      8          6           0        2.485921   -1.412024    0.022417
      9          6           0       -0.007445   -1.486794    0.047290
     10          6           0        0.007577    1.548188   -0.027529
     11          6           0       -1.264790   -0.644786   -0.052979
     12          6           0       -1.233765    0.765554   -0.018860
     13          6           0        1.258681   -0.635839    0.056202
     14          6           0        1.241272    0.772064   -0.006224
     15          1           0       -2.499622   -2.492993   -0.053163
     16          1           0       -4.642379   -1.286469   -0.091068
     17          1           0       -4.603917    1.270927    0.055908
     18          1           0       -2.456086    2.484511    0.034627
     19          1           0        0.012360    2.612741    0.006398
     20          1           0        2.479707    2.571219    0.014304
     21          1           0        4.614570    1.263668    0.115685
     22          1           0        4.631516   -1.274615   -0.070196
     23          1           0        2.476734   -2.432682   -0.010025
     24          1           0        0.001978   -2.292631   -0.849708
     25          1           0       -0.024193   -2.352111    0.868306
 ---------------------------------------------------------------------
 Rotational constants (GHZ):           1.9690031           0.4444999           0.3635205
 Standard basis: 6-311++G(d,p) (5D, 7F)
 There are   399 symmetry adapted cartesian basis functions of A   symmetry.
 There are   385 symmetry adapted basis functions of A   symmetry.
   385 basis functions,   603 primitive gaussians,   399 cartesian basis functions
    47 alpha electrons       47 beta electrons
       nuclear repulsion energy       769.5627281669 Hartrees.
 NAtoms=   25 NActive=   25 NUniq=   25 SFac= 1.00D+00 NAtFMM=   60 NAOKFM=F Big=F
 Integral buffers will be    131072 words long.
 Regular integral format.
 Two-electron integral symmetry is turned on.
 Nuclear repulsion after empirical dispersion term =      769.5617312905 Hartrees.
 One-electron integrals computed using PRISM.
 NBasis=   385 RedAO= T EigKep=  1.40D-06  NBF=   385
 NBsUse=   380 1.00D-06 EigRej=  8.47D-07 NBFU=   380
 ExpMin= 3.60D-02 ExpMax= 4.56D+03 ExpMxC= 6.82D+02 IAcc=3 IRadAn=         5 AccDes= 0.00D+00
 Harris functional with IExCor= 1009 and IRadAn=       5 diagonalized for initial guess.
 HarFok:  IExCor= 1009 AccDes= 0.00D+00 IRadAn=         5 IDoV= 1 UseB2=F ITyADJ=14
 ICtDFT=  3500011 ScaDFX=  1.000000  1.000000  1.000000  1.000000
 FoFCou: FMM=F IPFlag=           0 FMFlag=      100000 FMFlg1=           0
         NFxFlg=           0 DoJE=T BraDBF=F KetDBF=T FulRan=T
         wScrn=  0.000000 ICntrl=       500 IOpCl=  0 I1Cent=   200000004 NGrid=           0
         NMat0=    1 NMatS0=      1 NMatT0=    0 NMatD0=    1 NMtDS0=    0 NMtDT0=    0
 Petite list used in FoFCou.
 Requested convergence on RMS density matrix=1.00D-08 within 128 cycles.
 Requested convergence on MAX density matrix=1.00D-06.
 Requested convergence on             energy=1.00D-06.
 No special actions if energy rises.
 SCF Done:  E(RM062X) =  -539.693539734     A.U. after   17 cycles
            NFock= 17  Conv=0.41D-08     -V/T= 2.0060
 DoSCS=F DFT=T ScalE2(SS,OS)=  1.000000  1.000000
 ExpMin= 3.60D-02 ExpMax= 4.56D+03 ExpMxC= 6.82D+02 IAcc=3 IRadAn=         5 AccDes= 0.00D+00
 HarFok:  IExCor=  205 AccDes= 0.00D+00 IRadAn=         5 IDoV=-2 UseB2=F ITyADJ=14
 ICtDFT= 12500011 ScaDFX=  1.000000  1.000000  1.000000  1.000000
 Range of M.O.s used for correlation:    15   380
 NBasis=   385 NAE=    47 NBE=    47 NFC=    14 NFV=     0
 NROrb=    366 NOA=    33 NOB=    33 NVA=   333 NVB=   333

 **** Warning!!: The largest alpha MO coefficient is  0.16233996D+03

 Orbital symmetries:
       Occupied  (A) (A) (A) (A) (A) (A) (A) (A) (A) (A) (A) (A)
                 (A) (A) (A) (A) (A) (A) (A) (A) (A) (A) (A) (A)
                 (A) (A) (A) (A) (A) (A) (A) (A) (A) (A) (A) (A)
                 (A) (A) (A) (A) (A) (A) (A) (A) (A) (A) (A)
       Virtual   (A) (A) (A) (A) (A) (A) (A) (A) (A) (A) (A) (A)
                 (A) (A) (A) (A) (A) (A) (A) (A) (A) (A) (A) (A)
                 (A) (A) (A) (A) (A) (A) (A) (A) (A) (A) (A) (A)
                 (A) (A) (A) (A) (A) (A) (A) (A) (A) (A) (A) (A)
                 (A) (A) (A) (A) (A) (A) (A) (A) (A) (A) (A) (A)
                 (A) (A) (A) (A) (A) (A) (A) (A) (A) (A) (A) (A)
                 (A) (A) (A) (A) (A) (A) (A) (A) (A) (A) (A) (A)
                 (A) (A) (A) (A) (A) (A) (A) (A) (A) (A) (A) (A)
                 (A) (A) (A) (A) (A) (A) (A) (A) (A) (A) (A) (A)
                 (A) (A) (A) (A) (A) (A) (A) (A) (A) (A) (A) (A)
                 (A) (A) (A) (A) (A) (A) (A) (A) (A) (A) (A) (A)
                 (A) (A) (A) (A) (A) (A) (A) (A) (A) (A) (A) (A)
                 (A) (A) (A) (A) (A) (A) (A) (A) (A) (A) (A) (A)
                 (A) (A) (A) (A) (A) (A) (A) (A) (A) (A) (A) (A)
                 (A) (A) (A) (A) (A) (A) (A) (A) (A) (A) (A) (A)
                 (A) (A) (A) (A) (A) (A) (A) (A) (A) (A) (A) (A)
                 (A) (A) (A) (A) (A) (A) (A) (A) (A) (A) (A) (A)
                 (A) (A) (A) (A) (A) (A) (A) (A) (A) (A) (A) (A)
                 (A) (A) (A) (A) (A) (A) (A) (A) (A) (A) (A) (A)
                 (A) (A) (A) (A) (A) (A) (A) (A) (A) (A) (A) (A)
                 (A) (A) (A) (A) (A) (A) (A) (A) (A) (A) (A) (A)
                 (A) (A) (A) (A) (A) (A) (A) (A) (A) (A) (A) (A)
                 (A) (A) (A) (A) (A) (A) (A) (A) (A) (A) (A) (A)
                 (A) (A) (A) (A) (A) (A) (A) (A) (A) (A) (A) (A)
                 (A) (A) (A) (A) (A) (A) (A) (A) (A) (A) (A) (A)
                 (A) (A) (A) (A) (A) (A) (A) (A) (A) (A) (A) (A)
                 (A) (A) (A) (A) (A) (A) (A) (A) (A) (A) (A) (A)
                 (A) (A) (A) (A) (A) (A) (A) (A) (A)
     4 initial guesses have been made.
 Convergence on wavefunction:    0.001000000000000
 Iteration     1 Dimension     4 NMult     0 NNew      4
 CISAX will form     4 AO SS matrices at one time.
 Iteration     2 Dimension     6 NMult     4 NNew      2
 Iteration     3 Dimension     8 NMult     6 NNew      2
 Iteration     4 Dimension    10 NMult     8 NNew      2
 Iteration     5 Dimension    12 NMult    10 NNew      2
 Iteration     6 Dimension    14 NMult    12 NNew      2
 ***********************************************************************
 Excited states from <AA,BB:AA,BB> singles matrix:
 ***********************************************************************
 
 Ground to excited state transition densities written to RWF  633
 Ground to excited state transition electric dipole moments (Au):
       state          X           Y           Z        Dip. S.      Osc.
         1         0.0112      0.6808     -0.0016      0.4636      0.0278
 Ground to excited state transition velocity dipole moments (Au):
       state          X           Y           Z        Dip. S.      Osc.
         1        -0.0020     -0.0671      0.0003      0.0045      0.0334
 Ground to excited state transition magnetic dipole moments (Au):
       state          X           Y           Z
         1         0.0089     -0.0084     -0.0336
 Ground to excited state transition velocity quadrupole moments (Au):
       state          XX          YY          ZZ          XY          XZ          YZ
         1        -0.2702     -0.0109      0.0124     -0.0253      0.0054      0.0013
 <0|del|b> * <b|rxdel|0> + <0|del|b> * <b|delr+rdel|0>
 Rotatory Strengths (R) in cgs (10**-40 erg-esu-cm/Gauss)
       state          XX          YY          ZZ    R(velocity)    E-M Angle
         1         3.5820     -0.0904      0.7217      1.4044       77.10
 1/2[<0|r|b>*<b|rxdel|0> + (<0|rxdel|b>*<b|r|0>)*]
 Rotatory Strengths (R) in cgs (10**-40 erg-esu-cm/Gauss)
       state          XX          YY          ZZ     R(length)
         1        -0.0704      4.0476     -0.0381      1.3130
  1/2[<0|del|b>*<b|r|0> + (<0|r|b>*<b|del|0>)*] (Au)
       state          X           Y           Z        Dip. S.   Osc.(frdel)
         1        -0.0000     -0.0457     -0.0000      0.0457      0.0305

 Excitation energies and oscillator strengths:
 
 Excited State   1:      Singlet-A      2.4454 eV  507.02 nm  f=0.0278  <S**2>=0.000
      47 -> 48         0.70473
 This state for optimization and/or second-order correction.
 Total Energy, E(TD-HF/TD-DFT) =  -539.603674490    
 Copying the excited state density for this state as the 1-particle RhoCI density.
 SavETr:  write IOETrn=   770 NScale= 10 NData=  16 NLR=1 NState=    1 LETran=      28.

 **********************************************************************

            Population analysis using the SCF Density.

 **********************************************************************

 Orbital symmetries:
       Occupied  (A) (A) (A) (A) (A) (A) (A) (A) (A) (A) (A) (A)
                 (A) (A) (A) (A) (A) (A) (A) (A) (A) (A) (A) (A)
                 (A) (A) (A) (A) (A) (A) (A) (A) (A) (A) (A) (A)
                 (A) (A) (A) (A) (A) (A) (A) (A) (A) (A) (A)
       Virtual   (A) (A) (A) (A) (A) (A) (A) (A) (A) (A) (A) (A)
                 (A) (A) (A) (A) (A) (A) (A) (A) (A) (A) (A) (A)
                 (A) (A) (A) (A) (A) (A) (A) (A) (A) (A) (A) (A)
                 (A) (A) (A) (A) (A) (A) (A) (A) (A) (A) (A) (A)
                 (A) (A) (A) (A) (A) (A) (A) (A) (A) (A) (A) (A)
                 (A) (A) (A) (A) (A) (A) (A) (A) (A) (A) (A) (A)
                 (A) (A) (A) (A) (A) (A) (A) (A) (A) (A) (A) (A)
                 (A) (A) (A) (A) (A) (A) (A) (A) (A) (A) (A) (A)
                 (A) (A) (A) (A) (A) (A) (A) (A) (A) (A) (A) (A)
                 (A) (A) (A) (A) (A) (A) (A) (A) (A) (A) (A) (A)
                 (A) (A) (A) (A) (A) (A) (A) (A) (A) (A) (A) (A)
                 (A) (A) (A) (A) (A) (A) (A) (A) (A) (A) (A) (A)
                 (A) (A) (A) (A) (A) (A) (A) (A) (A) (A) (A) (A)
                 (A) (A) (A) (A) (A) (A) (A) (A) (A) (A) (A) (A)
                 (A) (A) (A) (A) (A) (A) (A) (A) (A) (A) (A) (A)
                 (A) (A) (A) (A) (A) (A) (A) (A) (A) (A) (A) (A)
                 (A) (A) (A) (A) (A) (A) (A) (A) (A) (A) (A) (A)
                 (A) (A) (A) (A) (A) (A) (A) (A) (A) (A) (A) (A)
                 (A) (A) (A) (A) (A) (A) (A) (A) (A) (A) (A) (A)
                 (A) (A) (A) (A) (A) (A) (A) (A) (A) (A) (A) (A)
                 (A) (A) (A) (A) (A) (A) (A) (A) (A) (A) (A) (A)
                 (A) (A) (A) (A) (A) (A) (A) (A) (A) (A) (A) (A)
                 (A) (A) (A) (A) (A) (A) (A) (A) (A) (A) (A) (A)
                 (A) (A) (A) (A) (A) (A) (A) (A) (A) (A) (A) (A)
                 (A) (A) (A) (A) (A) (A) (A) (A) (A) (A) (A) (A)
                 (A) (A) (A) (A) (A) (A) (A) (A) (A) (A) (A) (A)
                 (A) (A) (A) (A) (A) (A) (A) (A) (A) (A) (A) (A)
                 (A) (A) (A) (A) (A) (A) (A) (A) (A)
 The electronic state is 1-A.
 Alpha  occ. eigenvalues --  -10.78748 -10.74356 -10.74193 -10.73320 -10.73309
 Alpha  occ. eigenvalues --  -10.73179 -10.72200 -10.71437 -10.71109 -10.70860
 Alpha  occ. eigenvalues --  -10.70731 -10.70665 -10.70462 -10.69968  -1.14893
 Alpha  occ. eigenvalues --   -1.10891  -1.05903  -1.03848  -1.01154  -0.98322
 Alpha  occ. eigenvalues --   -0.95123  -0.89400  -0.86814  -0.84945  -0.84082
 Alpha  occ. eigenvalues --   -0.77602  -0.74540  -0.74368  -0.70537  -0.69807
 Alpha  occ. eigenvalues --   -0.68483  -0.67383  -0.65646  -0.65162  -0.64731
 Alpha  occ. eigenvalues --   -0.61991  -0.60221  -0.58491  -0.58170  -0.57963
 Alpha  occ. eigenvalues --   -0.57593  -0.57016  -0.52625  -0.51578  -0.46344
 Alpha  occ. eigenvalues --   -0.44970  -0.43327
 Alpha virt. eigenvalues --   -0.26462  -0.15903  -0.14270  -0.13560  -0.11245
 Alpha virt. eigenvalues --   -0.10353  -0.09143  -0.08481  -0.07827  -0.07537
 Alpha virt. eigenvalues --   -0.07388  -0.07187  -0.05734  -0.05693  -0.05574
 Alpha virt. eigenvalues --   -0.03734  -0.03616  -0.03582  -0.03242  -0.02204
 Alpha virt. eigenvalues --   -0.01415  -0.01076   0.00015   0.00130   0.00605
 Alpha virt. eigenvalues --    0.00736   0.01017   0.01263   0.01476   0.01936
 Alpha virt. eigenvalues --    0.02098   0.02571   0.02638   0.03023   0.03357
 Alpha virt. eigenvalues --    0.03950   0.04213   0.04426   0.04666   0.05195
 Alpha virt. eigenvalues --    0.05569   0.05948   0.06655   0.06875   0.06995
 Alpha virt. eigenvalues --    0.07599   0.07767   0.08266   0.08585   0.08741
 Alpha virt. eigenvalues --    0.09069   0.09339   0.09835   0.10095   0.10243
 Alpha virt. eigenvalues --    0.10883   0.11461   0.11677   0.11895   0.12598
 Alpha virt. eigenvalues --    0.12702   0.12953   0.13227   0.13731   0.14262
 Alpha virt. eigenvalues --    0.14976   0.15780   0.16577   0.16632   0.16926
 Alpha virt. eigenvalues --    0.17358   0.17595   0.18585   0.18936   0.19222
 Alpha virt. eigenvalues --    0.19680   0.20733   0.21237   0.21535   0.21807
 Alpha virt. eigenvalues --    0.22713   0.23757   0.24301   0.25764   0.26279
 Alpha virt. eigenvalues --    0.26581   0.27305   0.28204   0.28410   0.30214
 Alpha virt. eigenvalues --    0.32941   0.33923   0.36965   0.38314   0.39300
 Alpha virt. eigenvalues --    0.40867   0.41196   0.41522   0.41954   0.42613
 Alpha virt. eigenvalues --    0.43241   0.43770   0.44351   0.45166   0.45476
 Alpha virt. eigenvalues --    0.47234   0.48416   0.48800   0.49237   0.49711
 Alpha virt. eigenvalues --    0.50463   0.50607   0.51865   0.52308   0.52906
 Alpha virt. eigenvalues --    0.53191   0.53749   0.54730   0.55391   0.55727
 Alpha virt. eigenvalues --    0.56952   0.57494   0.58042   0.60645   0.61228
 Alpha virt. eigenvalues --    0.61754   0.62540   0.63200   0.63561   0.63922
 Alpha virt. eigenvalues --    0.65059   0.66978   0.68080   0.69885   0.71339
 Alpha virt. eigenvalues --    0.71519   0.72742   0.73676   0.74812   0.75440
 Alpha virt. eigenvalues --    0.75925   0.76141   0.76777   0.78078   0.78570
 Alpha virt. eigenvalues --    0.79600   0.80101   0.80946   0.82242   0.82537
 Alpha virt. eigenvalues --    0.83473   0.85183   0.86560   0.86871   0.87916
 Alpha virt. eigenvalues --    0.88969   0.90274   0.91300   0.93315   0.94675
 Alpha virt. eigenvalues --    0.95472   0.96469   0.98529   0.99030   1.00289
 Alpha virt. eigenvalues --    1.01632   1.02314   1.03283   1.04591   1.06903
 Alpha virt. eigenvalues --    1.09762   1.14901   1.16915   1.21422   1.23431
 Alpha virt. eigenvalues --    1.25066   1.29580   1.31654   1.34297   1.35321
 Alpha virt. eigenvalues --    1.36152   1.37477   1.38334   1.39234   1.39867
 Alpha virt. eigenvalues --    1.41276   1.41647   1.42384   1.42504   1.44797
 Alpha virt. eigenvalues --    1.45480   1.46678   1.47315   1.48587   1.51184
 Alpha virt. eigenvalues --    1.53416   1.53808   1.54560   1.55589   1.56950
 Alpha virt. eigenvalues --    1.59683   1.62748   1.63295   1.64202   1.64617
 Alpha virt. eigenvalues --    1.65993   1.68163   1.68971   1.69638   1.72187
 Alpha virt. eigenvalues --    1.72388   1.74151   1.74915   1.76092   1.77405
 Alpha virt. eigenvalues --    1.79439   1.79672   1.80425   1.81622   1.82352
 Alpha virt. eigenvalues --    1.83614   1.83863   1.85300   1.86258   1.86556
 Alpha virt. eigenvalues --    1.88970   1.91727   1.91947   1.93862   1.95621
 Alpha virt. eigenvalues --    1.95767   1.98283   1.99166   2.01733   2.04876
 Alpha virt. eigenvalues --    2.05892   2.08634   2.12243   2.12919   2.14220
 Alpha virt. eigenvalues --    2.15367   2.17105   2.18267   2.26186   2.28139
 Alpha virt. eigenvalues --    2.30640   2.31246   2.34021   2.36724   2.37326
 Alpha virt. eigenvalues --    2.37997   2.39102   2.40800   2.44157   2.47570
 Alpha virt. eigenvalues --    2.50167   2.54577   2.56672   2.56883   2.58204
 Alpha virt. eigenvalues --    2.59538   2.60609   2.60978   2.61276   2.62518
 Alpha virt. eigenvalues --    2.62896   2.63126   2.63482   2.63879   2.65048
 Alpha virt. eigenvalues --    2.65526   2.66872   2.67574   2.71026   2.71664
 Alpha virt. eigenvalues --    2.72818   2.73412   2.75769   2.79110   2.80828
 Alpha virt. eigenvalues --    2.82317   2.84252   2.85650   2.89335   2.91425
 Alpha virt. eigenvalues --    2.96883   2.97162   2.98265   3.01702   3.06531
 Alpha virt. eigenvalues --    3.07270   3.12661   3.14842   3.20068   3.20964
 Alpha virt. eigenvalues --    3.23491   3.25152   3.27460   3.34324   3.36523
 Alpha virt. eigenvalues --    3.39954   3.43244   3.45026   3.47251   3.49009
 Alpha virt. eigenvalues --    3.65365   3.66978   3.86507   3.91769   3.97055
 Alpha virt. eigenvalues --    3.98896   4.07544   4.08943   4.11417   4.14154
 Alpha virt. eigenvalues --    4.24509   4.49489   4.61837   4.63587  23.47141
 Alpha virt. eigenvalues --   23.60292  23.70248  23.76285  23.78071  23.80765
 Alpha virt. eigenvalues --   23.84853  23.88373  23.89053  23.90745  23.92765
 Alpha virt. eigenvalues --   23.96245  24.01239  24.09102
          Condensed to atoms (all electrons):
               1          2          3          4          5          6
     1  C   13.080082  -0.723784  -1.183867   2.578311  -0.273306   0.045196
     2  C   -0.723784   7.017422   0.220437  -1.449910   0.021188  -0.025486
     3  C   -1.183867   0.220437   6.611596   0.897621  -0.037766   0.000899
     4  C    2.578311  -1.449910   0.897621  11.847975  -0.645699  -0.042431
     5  C   -0.273306   0.021188  -0.037766  -0.645699  10.169326   0.432029
     6  C    0.045196  -0.025486   0.000899  -0.042431   0.432029   6.807428
     7  C    0.035247   0.008026  -0.015466   0.020520  -0.978903   0.225145
     8  C   -0.577741   0.059162   0.019559  -0.151829   2.317035  -1.239760
     9  C    0.884599  -0.946854   0.166512   1.108156  -1.074236   0.063939
    10  C   -0.092912   0.155766  -0.564609  -2.278899  -0.609974  -0.581776
    11  C   -4.582373   0.145997   1.415956  -0.757671  -0.386491  -0.015452
    12  C   -3.998266   1.798312  -0.892071  -4.166095   0.289658  -0.697522
    13  C   -0.133402  -0.017504   0.026837  -1.334411  -0.011551   1.372630
    14  C    0.885964  -0.285841  -0.561133   0.203826  -3.337748  -0.280345
    15  H    0.468747  -0.133087  -0.002502   0.049171  -0.000378   0.001956
    16  H   -0.083347   0.407162  -0.014609  -0.011163  -0.000413  -0.000414
    17  H   -0.038085  -0.042044   0.406607  -0.073406  -0.000054   0.000086
    18  H    0.096344   0.008992  -0.144948   0.482866  -0.000398  -0.002943
    19  H   -0.028407  -0.007606   0.032690  -0.048640  -0.010315   0.044160
    20  H   -0.000544   0.002579  -0.003300  -0.001525   0.459135  -0.123149
    21  H    0.001053  -0.000533   0.000192   0.000751  -0.091080   0.387671
    22  H    0.000779   0.000508  -0.000323  -0.001107  -0.002376  -0.026295
    23  H   -0.007629  -0.001756   0.002019   0.001384   0.034301  -0.006394
    24  H   -0.096210   0.028085   0.002764  -0.014311  -0.001040  -0.015201
    25  H    0.081300  -0.012317  -0.004378  -0.005329  -0.000726   0.012409
               7          8          9         10         11         12
     1  C    0.035247  -0.577741   0.884599  -0.092912  -4.582373  -3.998266
     2  C    0.008026   0.059162  -0.946854   0.155766   0.145997   1.798312
     3  C   -0.015466   0.019559   0.166512  -0.564609   1.415956  -0.892071
     4  C    0.020520  -0.151829   1.108156  -2.278899  -0.757671  -4.166095
     5  C   -0.978903   2.317035  -1.074236  -0.609974  -0.386491   0.289658
     6  C    0.225145  -1.239760   0.063939  -0.581776  -0.015452  -0.697522
     7  C    6.616142   0.144850  -0.050077   0.013245  -0.234040  -0.056381
     8  C    0.144850  10.599732  -1.156457   0.212176   0.851469   0.167947
     9  C   -0.050077  -1.156457   9.335276   0.424141  -0.960888  -2.761378
    10  C    0.013245   0.212176   0.424141   8.173920  -0.469075   1.389080
    11  C   -0.234040   0.851469  -0.960888  -0.469075  17.419388  -3.651106
    12  C   -0.056381   0.167947  -2.761378   1.389080  -3.651106  21.259598
    13  C   -0.733707  -1.793572   0.747860  -0.204900   2.483051  -3.820225
    14  C    1.087282  -3.797120  -0.003786   0.016021  -5.228088   0.385351
    15  H   -0.001403  -0.011338   0.109325  -0.006635  -0.133900  -0.034158
    16  H    0.000361   0.001488  -0.008468  -0.004497   0.046384   0.001561
    17  H   -0.000230   0.001050   0.002716  -0.004449   0.037068   0.056712
    18  H    0.002220  -0.001704  -0.014787   0.070213  -0.082185  -0.093202
    19  H   -0.012219  -0.019948   0.048045   0.400554   0.052823  -0.086076
    20  H    0.014401   0.063786  -0.026115   0.082681  -0.010059   0.042090
    21  H   -0.024030  -0.037002  -0.002172   0.001844  -0.000698  -0.005888
    22  H    0.410417  -0.057102   0.001094  -0.006654   0.003399  -0.006020
    23  H   -0.129708   0.432843   0.047469   0.000828   0.021250   0.013080
    24  H    0.006400   0.108078   0.342819   0.012348   0.123818  -0.024113
    25  H    0.003425  -0.067043   0.361989   0.002320  -0.070460  -0.033426
              13         14         15         16         17         18
     1  C   -0.133402   0.885964   0.468747  -0.083347  -0.038085   0.096344
     2  C   -0.017504  -0.285841  -0.133087   0.407162  -0.042044   0.008992
     3  C    0.026837  -0.561133  -0.002502  -0.014609   0.406607  -0.144948
     4  C   -1.334411   0.203826   0.049171  -0.011163  -0.073406   0.482866
     5  C   -0.011551  -3.337748  -0.000378  -0.000413  -0.000054  -0.000398
     6  C    1.372630  -0.280345   0.001956  -0.000414   0.000086  -0.002943
     7  C   -0.733707   1.087282  -0.001403   0.000361  -0.000230   0.002220
     8  C   -1.793572  -3.797120  -0.011338   0.001488   0.001050  -0.001704
     9  C    0.747860  -0.003786   0.109325  -0.008468   0.002716  -0.014787
    10  C   -0.204900   0.016021  -0.006635  -0.004497  -0.004449   0.070213
    11  C    2.483051  -5.228088  -0.133900   0.046384   0.037068  -0.082185
    12  C   -3.820225   0.385351  -0.034158   0.001561   0.056712  -0.093202
    13  C   13.642628  -3.882992  -0.005109   0.001731   0.002021  -0.026249
    14  C   -3.882992  20.199578   0.030327  -0.008160  -0.008654   0.053588
    15  H   -0.005109   0.030327   0.458448  -0.012843   0.000924   0.000604
    16  H    0.001731  -0.008160  -0.012843   0.424761  -0.006874   0.002049
    17  H    0.002021  -0.008654   0.000924  -0.006874   0.434846  -0.016488
    18  H   -0.026249   0.053588   0.000604   0.002049  -0.016488   0.487325
    19  H    0.061143  -0.060131   0.000327  -0.000426   0.001311  -0.008941
    20  H   -0.037117  -0.123347  -0.000116   0.000035  -0.000146   0.001251
    21  H    0.008509   0.097899   0.000031  -0.000009   0.000011  -0.000149
    22  H    0.037625  -0.019231  -0.000166   0.000013  -0.000007   0.000026
    23  H   -0.030096  -0.048040   0.001133  -0.000160   0.000026  -0.000184
    24  H   -0.024854  -0.110832  -0.010963   0.001426  -0.000127   0.000371
    25  H    0.035435   0.026660   0.005779  -0.000013   0.000010  -0.000409
              19         20         21         22         23         24
     1  C   -0.028407  -0.000544   0.001053   0.000779  -0.007629  -0.096210
     2  C   -0.007606   0.002579  -0.000533   0.000508  -0.001756   0.028085
     3  C    0.032690  -0.003300   0.000192  -0.000323   0.002019   0.002764
     4  C   -0.048640  -0.001525   0.000751  -0.001107   0.001384  -0.014311
     5  C   -0.010315   0.459135  -0.091080  -0.002376   0.034301  -0.001040
     6  C    0.044160  -0.123149   0.387671  -0.026295  -0.006394  -0.015201
     7  C   -0.012219   0.014401  -0.024030   0.410417  -0.129708   0.006400
     8  C   -0.019948   0.063786  -0.037002  -0.057102   0.432843   0.108078
     9  C    0.048045  -0.026115  -0.002172   0.001094   0.047469   0.342819
    10  C    0.400554   0.082681   0.001844  -0.006654   0.000828   0.012348
    11  C    0.052823  -0.010059  -0.000698   0.003399   0.021250   0.123818
    12  C   -0.086076   0.042090  -0.005888  -0.006020   0.013080  -0.024113
    13  C    0.061143  -0.037117   0.008509   0.037625  -0.030096  -0.024854
    14  C   -0.060131  -0.123347   0.097899  -0.019231  -0.048040  -0.110832
    15  H    0.000327  -0.000116   0.000031  -0.000166   0.001133  -0.010963
    16  H   -0.000426   0.000035  -0.000009   0.000013  -0.000160   0.001426
    17  H    0.001311  -0.000146   0.000011  -0.000007   0.000026  -0.000127
    18  H   -0.008941   0.001251  -0.000149   0.000026  -0.000184   0.000371
    19  H    0.428117  -0.006960   0.001566  -0.000586   0.000576   0.000254
    20  H   -0.006960   0.458126  -0.012046   0.002055   0.000334   0.000127
    21  H    0.001566  -0.012046   0.438604  -0.007833   0.000817  -0.000431
    22  H   -0.000586   0.002055  -0.007833   0.427693  -0.012210   0.001377
    23  H    0.000576   0.000334   0.000817  -0.012210   0.456731   0.001659
    24  H    0.000254   0.000127  -0.000431   0.001377   0.001659   0.493031
    25  H    0.000476   0.000007   0.000299  -0.000098  -0.005463  -0.086479
              25
     1  C    0.081300
     2  C   -0.012317
     3  C   -0.004378
     4  C   -0.005329
     5  C   -0.000726
     6  C    0.012409
     7  C    0.003425
     8  C   -0.067043
     9  C    0.361989
    10  C    0.002320
    11  C   -0.070460
    12  C   -0.033426
    13  C    0.035435
    14  C    0.026660
    15  H    0.005779
    16  H   -0.000013
    17  H    0.000010
    18  H   -0.000409
    19  H    0.000476
    20  H    0.000007
    21  H    0.000299
    22  H   -0.000098
    23  H   -0.005463
    24  H   -0.086479
    25  H    0.474974
 Mulliken charges:
               1
     1  C   -0.337749
     2  C   -0.226913
     3  C   -0.378717
     4  C   -0.208158
     5  C   -0.260216
     6  C   -0.336380
     7  C   -0.351518
     8  C   -0.068558
     9  C   -0.638722
    10  C   -0.130758
    11  C   -0.018115
    12  C    0.922538
    13  C   -0.363783
    14  C    0.768951
    15  H    0.225828
    16  H    0.264425
    17  H    0.247176
    18  H    0.186739
    19  H    0.218214
    20  H    0.217819
    21  H    0.242624
    22  H    0.255023
    23  H    0.227189
    24  H    0.262002
    25  H    0.281059
 Sum of Mulliken charges =   1.00000
 Mulliken charges with hydrogens summed into heavy atoms:
               1
     1  C   -0.111921
     2  C    0.037512
     3  C   -0.131540
     4  C   -0.021419
     5  C   -0.042397
     6  C   -0.093756
     7  C   -0.096495
     8  C    0.158631
     9  C   -0.095661
    10  C    0.087456
    11  C   -0.018115
    12  C    0.922538
    13  C   -0.363783
    14  C    0.768951
 Electronic spatial extent (au):  <R**2>=           2897.8828
 Charge=              1.0000 electrons
 Dipole moment (field-independent basis, Debye):
    X=             -0.0151    Y=              0.0566    Z=             -0.0100  Tot=              0.0595
 Quadrupole moment (field-independent basis, Debye-Ang):
   XX=            -34.0921   YY=            -52.6326   ZZ=            -85.4533
   XY=              0.2792   XZ=              0.5271   YZ=              0.5349
 Traceless Quadrupole moment (field-independent basis, Debye-Ang):
   XX=             23.3006   YY=              4.7601   ZZ=            -28.0606
   XY=              0.2792   XZ=              0.5271   YZ=              0.5349
 Octapole moment (field-independent basis, Debye-Ang**2):
  XXX=             -1.1759  YYY=              4.5479  ZZZ=              0.0266  XYY=              0.0447
  XXY=            -10.1162  XXZ=             -0.0423  XZZ=              0.0549  YZZ=             -2.9833
  YYZ=              0.4191  XYZ=              0.3887
 Hexadecapole moment (field-independent basis, Debye-Ang**3):
 XXXX=          -2202.8385 YYYY=           -625.0862 ZZZZ=           -103.9504 XXXY=             -4.1410
 XXXZ=             12.5361 YYYX=              5.5071 YYYZ=              2.2798 ZZZX=              0.6441
 ZZZY=              0.3883 XXYY=           -507.3354 XXZZ=           -599.2028 YYZZ=           -155.6048
 XXYZ=             11.4041 YYXZ=              1.3882 ZZXY=             -1.3002
 N-N= 7.695617312905D+02 E-N=-2.774646645127D+03  KE= 5.364492352786D+02
 Unable to Open any file for archive entry.
 1\1\GINC-GADI-CPU-CLX-0572\SP\RM062X TD-FC\6-311++G(d,p)\C14H11(1+)\TS
 1578\27-Jul-2022\0\\#n M062X/6-311++G(d,p) TD(NStates=1) EmpiricalDisp
 ersion=GD3 SP\\SP_3\\1,1\C,0,2.4927,1.4571,0.051\C,0,3.7015,0.7527,0.0
 41\C,0,3.6839,-0.6781,0.064\C,0,2.4632,-1.4609,-0.028\C,0,-2.4632,-1.4
 969,-0.092\C,0,-3.6839,-0.6601,-0.064\C,0,-3.7015,0.7527,-0.023\C,0,-2
 .4927,1.4091,0.051\C,0,0.,1.4941,0.099\C,0,0.,-1.5365,-0.081\C,0,1.262
 1,0.6617,-0.02\C,0,1.2375,-0.7491,-0.035\C,0,-1.2621,0.6377,0.068\C,0,
 -1.2375,-0.7671,-0.043\H,0,2.4881,2.5143,0.054\H,0,4.6368,1.3194,-0.00
 8\H,0,4.6093,-1.2417,0.05\H,0,2.4675,-2.4634,-0.031\H,0,0.,-2.6016,-0.
 084\H,0,-2.4675,-2.5714,-0.095\H,0,-4.6093,-1.2777,0.034\H,0,-4.6368,1
 .2654,-0.064\H,0,-2.4881,2.4303,0.054\H,0,-0.006,2.3305,-0.7696\H,0,0.
 006,2.3305,0.9496\\Version=ES64L-G16RevC.01\State=1-A\HF=-539.6935397\
 RMSD=4.084e-09\PG=C01 [X(C14H11)]\\@
 The archive entry for this job was punched.


 THE GREAT THING ABOUT BEING IMPERFECT IS THE JOY IT BRINGS OTHERS.
   -- SIGN OUTSIDE LAKE AGASSIZ JR. HIGH SCHOOL, FARGO, N.D.
 Job cpu time:       0 days  1 hours 13 minutes 41.7 seconds.
 Elapsed time:       0 days  0 hours  2 minutes 19.1 seconds.
 File lengths (MBytes):  RWF=    461 Int=      0 D2E=      0 Chk=     15 Scr=      1
 Normal termination of Gaussian 16 at Wed Jul 27 11:48:31 2022.
