 Entering Gaussian System, Link 0=g16
 Initial command:
 /apps/gaussian/g16c01/g16/l1.exe "/jobfs/52803152.gadi-pbs/Gau-2806656.inp" -scrdir="/jobfs/52803152.gadi-pbs/"
 Entering Link 1 = /apps/gaussian/g16c01/g16/l1.exe PID=   2806657.
  
 Copyright (c) 1988-2019, Gaussian, Inc.  All Rights Reserved.
  
 This is part of the Gaussian(R) 16 program.  It is based on
 the Gaussian(R) 09 system (copyright 2009, Gaussian, Inc.),
 the Gaussian(R) 03 system (copyright 2003, Gaussian, Inc.),
 the Gaussian(R) 98 system (copyright 1998, Gaussian, Inc.),
 the Gaussian(R) 94 system (copyright 1995, Gaussian, Inc.),
 the Gaussian 92(TM) system (copyright 1992, Gaussian, Inc.),
 the Gaussian 90(TM) system (copyright 1990, Gaussian, Inc.),
 the Gaussian 88(TM) system (copyright 1988, Gaussian, Inc.),
 the Gaussian 86(TM) system (copyright 1986, Carnegie Mellon
 University), and the Gaussian 82(TM) system (copyright 1983,
 Carnegie Mellon University). Gaussian is a federally registered
 trademark of Gaussian, Inc.
  
 This software contains proprietary and confidential information,
 including trade secrets, belonging to Gaussian, Inc.
  
 This software is provided under written license and may be
 used, copied, transmitted, or stored only in accord with that
 written license.
  
 The following legend is applicable only to US Government
 contracts under FAR:
  
                    RESTRICTED RIGHTS LEGEND
  
 Use, reproduction and disclosure by the US Government is
 subject to restrictions as set forth in subparagraphs (a)
 and (c) of the Commercial Computer Software - Restricted
 Rights clause in FAR 52.227-19.
  
 Gaussian, Inc.
 340 Quinnipiac St., Bldg. 40, Wallingford CT 06492
  
  
 ---------------------------------------------------------------
 Warning -- This program may not be used in any manner that
 competes with the business of Gaussian, Inc. or will provide
 assistance to any competitor of Gaussian, Inc.  The licensee
 of this program is prohibited from giving any competitor of
 Gaussian, Inc. access to this program.  By using this program,
 the user acknowledges that Gaussian, Inc. is engaged in the
 business of creating and licensing software in the field of
 computational chemistry and represents and warrants to the
 licensee that it is not a competitor of Gaussian, Inc. and that
 it will not use this program in any manner prohibited above.
 ---------------------------------------------------------------
  

 Cite this work as:
 Gaussian 16, Revision C.01,
 M. J. Frisch, G. W. Trucks, H. B. Schlegel, G. E. Scuseria, 
 M. A. Robb, J. R. Cheeseman, G. Scalmani, V. Barone, 
 G. A. Petersson, H. Nakatsuji, X. Li, M. Caricato, A. V. Marenich, 
 J. Bloino, B. G. Janesko, R. Gomperts, B. Mennucci, H. P. Hratchian, 
 J. V. Ortiz, A. F. Izmaylov, J. L. Sonnenberg, D. Williams-Young, 
 F. Ding, F. Lipparini, F. Egidi, J. Goings, B. Peng, A. Petrone, 
 T. Henderson, D. Ranasinghe, V. G. Zakrzewski, J. Gao, N. Rega, 
 G. Zheng, W. Liang, M. Hada, M. Ehara, K. Toyota, R. Fukuda, 
 J. Hasegawa, M. Ishida, T. Nakajima, Y. Honda, O. Kitao, H. Nakai, 
 T. Vreven, K. Throssell, J. A. Montgomery, Jr., J. E. Peralta, 
 F. Ogliaro, M. J. Bearpark, J. J. Heyd, E. N. Brothers, K. N. Kudin, 
 V. N. Staroverov, T. A. Keith, R. Kobayashi, J. Normand, 
 K. Raghavachari, A. P. Rendell, J. C. Burant, S. S. Iyengar, 
 J. Tomasi, M. Cossi, J. M. Millam, M. Klene, C. Adamo, R. Cammi, 
 J. W. Ochterski, R. L. Martin, K. Morokuma, O. Farkas, 
 J. B. Foresman, and D. J. Fox, Gaussian, Inc., Wallingford CT, 2019.
 
 ******************************************
 Gaussian 16:  ES64L-G16RevC.01  3-Jul-2019
                27-Jul-2022 
 ******************************************
 %NProcShared=32
 Will use up to   32 processors via shared memory.
 %mem = 128GB
 ---------------------------------------------------------------
 #n M062X/6-311++G(d,p) TD(NStates=1) EmpiricalDispersion=GD3 SP
 ---------------------------------------------------------------
 1/38=1,172=1/1;
 2/12=2,17=6,18=5,40=1/2;
 3/5=4,6=6,7=1111,11=9,25=1,30=1,74=-55,124=31/1,2,3,8;
 4//1;
 5/5=2,38=5/2;
 8/6=1,10=2,108=1/1;
 9/41=1,42=1,70=2/14;
 6/7=2,8=2,9=2,10=2/1;
 99/5=1,9=1/99;
 -----
 SP_-2
 -----
 Symbolic Z-matrix:
 Charge =  1 Multiplicity = 1
 C                     2.4927    1.3371   -0.034 
 C                     3.7015    0.6627   -0.014 
 C                     3.6839   -0.7081   -0.016 
 C                     2.4632   -1.3909    0.032 
 C                    -2.4632   -1.3669    0.048 
 C                    -3.6839   -0.7201    0.016 
 C                    -3.7015    0.6627    0.002 
 C                    -2.4927    1.3691   -0.034 
 C                     0.        1.4541   -0.066 
 C                     0.       -1.3915    0.054 
 C                     1.2621    0.6867   -0.005 
 C                     1.2375   -0.7191    0.025 
 C                    -1.2621    0.7027   -0.027 
 C                    -1.2375   -0.7071    0.027 
 H                     2.4881    2.4193   -0.036 
 H                     4.6368    1.1844    0.017 
 H                     4.6093   -1.2767   -0.03 
 H                     2.4675   -2.5084    0.034 
 H                     0.       -2.4766    0.056 
 H                    -2.4675   -2.4364    0.05 
 H                    -4.6093   -1.2527   -0.026 
 H                    -4.6368    1.2204    0.031 
 H                    -2.4881    2.4753   -0.036 
 H                     0.004     2.1105   -0.9196 
 H                    -0.004     2.1105    0.7996 
 
                          Input orientation:                          
 ---------------------------------------------------------------------
 Center     Atomic      Atomic             Coordinates (Angstroms)
 Number     Number       Type             X           Y           Z
 ---------------------------------------------------------------------
      1          6           0        2.492700    1.337100   -0.034000
      2          6           0        3.701500    0.662700   -0.014000
      3          6           0        3.683900   -0.708100   -0.016000
      4          6           0        2.463200   -1.390900    0.032000
      5          6           0       -2.463200   -1.366900    0.048000
      6          6           0       -3.683900   -0.720100    0.016000
      7          6           0       -3.701500    0.662700    0.002000
      8          6           0       -2.492700    1.369100   -0.034000
      9          6           0        0.000000    1.454100   -0.066000
     10          6           0        0.000000   -1.391500    0.054000
     11          6           0        1.262100    0.686700   -0.005000
     12          6           0        1.237500   -0.719100    0.025000
     13          6           0       -1.262100    0.702700   -0.027000
     14          6           0       -1.237500   -0.707100    0.027000
     15          1           0        2.488100    2.419300   -0.036000
     16          1           0        4.636800    1.184400    0.017000
     17          1           0        4.609300   -1.276700   -0.030000
     18          1           0        2.467500   -2.508400    0.034000
     19          1           0        0.000000   -2.476600    0.056000
     20          1           0       -2.467500   -2.436400    0.050000
     21          1           0       -4.609300   -1.252700   -0.026000
     22          1           0       -4.636800    1.220400    0.031000
     23          1           0       -2.488100    2.475300   -0.036000
     24          1           0        0.004000    2.110500   -0.919600
     25          1           0       -0.004000    2.110500    0.799600
 ---------------------------------------------------------------------
                    Distance matrix (angstroms):
                    1          2          3          4          5
     1  C    0.000000
     2  C    1.384346   0.000000
     3  C    2.366881   1.370914   0.000000
     4  C    2.728958   2.398494   1.399510   0.000000
     5  C    5.646174   6.490504   6.182633   4.926484   0.000000
     6  C    6.510373   7.513799   7.367879   6.183613   1.381840
     7  C    6.230909   7.403017   7.511561   6.497823   2.377978
     8  C    4.985503   6.234382   6.516554   5.672998   2.737387
     9  C    2.495649   3.785515   4.271853   3.764437   3.746784
    10  C    3.696830   4.233847   3.747406   2.463298   2.463330
    11  C    1.392206   2.439535   2.794764   2.400090   4.254168
    12  C    2.409765   2.825277   2.446768   1.397750   3.757041
    13  C    3.808023   4.963778   5.143286   4.273699   2.394057
    14  C    4.254041   5.125598   4.921588   3.763348   1.392163
    15  H    1.082212   2.135057   3.348278   3.810888   6.233598
    16  H    2.150136   1.071409   2.119119   3.370005   7.544541
    17  H    3.363326   2.141408   1.086217   2.150030   7.073505
    18  H    3.846184   3.403077   2.173295   1.117510   5.061128
    19  H    4.556968   4.853989   4.087040   2.691965   2.701639
    20  H    6.232972   6.903990   6.389922   5.040357   1.069511
    21  H    7.559466   8.528675   8.311068   7.074088   2.150410
    22  H    7.130751   8.357051   8.541392   7.564978   3.379193
    23  H    5.109195   6.449585   6.944640   6.282316   3.843199
    24  H    2.752465   4.072805   4.722570   4.383265   4.372143
    25  H    2.743455   4.060640   4.712782   4.351562   4.324914
                    6          7          8          9         10
     6  C    0.000000
     7  C    1.382983   0.000000
     8  C    2.405455   1.400534   0.000000
     9  C    4.278433   3.785768   2.494354   0.000000
    10  C    3.744775   4.233621   3.720512   2.848129   0.000000
    11  C    5.142222   4.963663   3.816416   1.478350   2.432137
    12  C    4.921408   5.128706   4.275331   2.502496   1.408676
    13  C    2.809150   2.439900   1.399469   1.469360   2.446453
    14  C    2.446459   2.819268   2.426902   2.492156   1.414404
    15  H    6.924747   6.434146   5.090314   2.668924   4.552026
    16  H    8.535875   8.354618   7.132074   4.645378   5.304389
    17  H    8.311984   8.534149   7.578831   5.357631   4.611495
    18  H    6.406096   6.936387   6.296286   4.669043   2.708583
    19  H    4.081423   4.853784   4.583782   3.932593   1.085102
    20  H    2.103918   3.336088   3.806510   4.608471   2.679625
    21  H    1.068547   2.119821   3.369554   5.345467   4.612083
    22  H    2.161894   1.089338   2.150233   4.643699   5.321885
    23  H    3.412217   2.181583   1.106211   2.689682   4.599009
    24  H    4.742178   4.083651   2.750904   1.076805   3.634820
    25  H    4.708289   4.050160   2.727305   1.086343   3.580494
                   11         12         13         14         15
    11  C    0.000000
    12  C    1.406335   0.000000
    13  C    2.524347   2.876147   0.000000
    14  C    2.862115   2.475030   1.411048   0.000000
    15  H    2.122720   3.378946   4.124415   4.863994   0.000000
    16  H    3.411274   3.895974   5.918699   6.171327   2.478850
    17  H    3.880633   3.418037   6.196077   5.874756   4.261448
    18  H    3.415139   2.171307   4.921870   4.119679   4.928240
    19  H    3.406330   2.149691   3.421657   2.159485   5.492626
    20  H    4.864843   4.083720   3.363461   2.122241   6.938529
    21  H    6.183450   5.871320   3.876511   3.416068   7.991043
    22  H    5.923103   6.186202   3.414671   3.907750   7.225375
    23  H    4.155003   4.907954   2.155288   3.419889   4.976515
    24  H    2.108676   3.228069   2.093238   3.221218   2.654592
    25  H    2.068235   3.185587   2.061064   3.171325   2.646535
                   16         17         18         19         20
    16  H    0.000000
    17  H    2.461702   0.000000
    18  H    4.282864   2.471536   0.000000
    19  H    5.907991   4.763696   2.467803   0.000000
    20  H    7.973855   7.171639   4.935551   2.467835   0.000000
    21  H    9.561991   9.218632   7.187592   4.769728   2.448311
    22  H    9.273680   9.577557   8.023406   5.930291   4.251871
    23  H    7.241093   8.028115   7.028523   5.542600   4.912496
    24  H    4.816401   5.785611   5.320942   4.689701   5.265238
    25  H    4.796577   5.783070   5.294213   4.646982   5.225422
                   21         22         23         24         25
    21  H    0.000000
    22  H    2.473910   0.000000
    23  H    4.289239   2.489212   0.000000
    24  H    5.778596   4.820056   2.669155   0.000000
    25  H    5.762076   4.779734   2.646140   1.719219   0.000000
 Stoichiometry    C14H11(1+)
 Framework group  C1[X(C14H11)]
 Deg. of freedom    69
 Full point group                 C1      NOp   1
 Largest Abelian subgroup         C1      NOp   1
 Largest concise Abelian subgroup C1      NOp   1
                         Standard orientation:                         
 ---------------------------------------------------------------------
 Center     Atomic      Atomic             Coordinates (Angstroms)
 Number     Number       Type             X           Y           Z
 ---------------------------------------------------------------------
      1          6           0        2.489007   -1.336029   -0.003525
      2          6           0        3.699661   -0.664693   -0.009763
      3          6           0        3.685931    0.705701    0.025419
      4          6           0        2.467065    1.392840   -0.003481
      5          6           0       -2.459405    1.382879   -0.009659
      6          6           0       -3.681856    0.738877    0.009268
      7          6           0       -3.703327   -0.643803   -0.010135
      8          6           0       -2.496453   -1.354212    0.006223
      9          6           0       -0.003942   -1.446865    0.030898
     10          6           0        0.003837    1.400794   -0.020261
     11          6           0        1.260190   -0.681712   -0.014193
     12          6           0        1.239493    0.724465   -0.010140
     13          6           0       -1.263995   -0.691249    0.012741
     14          6           0       -1.235530    0.719371   -0.007206
     15          1           0        2.481360   -2.417944   -0.027683
     16          1           0        4.633421   -1.188079   -0.055342
     17          1           0        4.612957    1.271231    0.051211
     18          1           0        2.474512    2.510045    0.021532
     19          1           0        0.006893    2.485621    0.003977
     20          1           0       -2.460693    2.452122    0.014211
     21          1           0       -4.605663    1.272866    0.066087
     22          1           0       -4.640253   -1.198046   -0.050637
     23          1           0       -2.494968   -2.460145   -0.018535
     24          1           0       -0.000049   -2.123726    0.868366
     25          1           0       -0.011561   -2.082124   -0.850311
 ---------------------------------------------------------------------
 Rotational constants (GHZ):           2.1770041           0.4445951           0.3700281
 Standard basis: 6-311++G(d,p) (5D, 7F)
 There are   399 symmetry adapted cartesian basis functions of A   symmetry.
 There are   385 symmetry adapted basis functions of A   symmetry.
   385 basis functions,   603 primitive gaussians,   399 cartesian basis functions
    47 alpha electrons       47 beta electrons
       nuclear repulsion energy       783.9041378479 Hartrees.
 NAtoms=   25 NActive=   25 NUniq=   25 SFac= 1.00D+00 NAtFMM=   60 NAOKFM=F Big=F
 Integral buffers will be    131072 words long.
 Regular integral format.
 Two-electron integral symmetry is turned on.
 Nuclear repulsion after empirical dispersion term =      783.9031628417 Hartrees.
 One-electron integrals computed using PRISM.
 NBasis=   385 RedAO= T EigKep=  1.22D-06  NBF=   385
 NBsUse=   379 1.00D-06 EigRej=  7.85D-07 NBFU=   379
 ExpMin= 3.60D-02 ExpMax= 4.56D+03 ExpMxC= 6.82D+02 IAcc=3 IRadAn=         5 AccDes= 0.00D+00
 Harris functional with IExCor= 1009 and IRadAn=       5 diagonalized for initial guess.
 HarFok:  IExCor= 1009 AccDes= 0.00D+00 IRadAn=         5 IDoV= 1 UseB2=F ITyADJ=14
 ICtDFT=  3500011 ScaDFX=  1.000000  1.000000  1.000000  1.000000
 FoFCou: FMM=F IPFlag=           0 FMFlag=      100000 FMFlg1=           0
         NFxFlg=           0 DoJE=T BraDBF=F KetDBF=T FulRan=T
         wScrn=  0.000000 ICntrl=       500 IOpCl=  0 I1Cent=   200000004 NGrid=           0
         NMat0=    1 NMatS0=      1 NMatT0=    0 NMatD0=    1 NMtDS0=    0 NMtDT0=    0
 Petite list used in FoFCou.
 Requested convergence on RMS density matrix=1.00D-08 within 128 cycles.
 Requested convergence on MAX density matrix=1.00D-06.
 Requested convergence on             energy=1.00D-06.
 No special actions if energy rises.
 SCF Done:  E(RM062X) =  -539.756679040     A.U. after   15 cycles
            NFock= 15  Conv=0.49D-08     -V/T= 2.0037
 DoSCS=F DFT=T ScalE2(SS,OS)=  1.000000  1.000000
 ExpMin= 3.60D-02 ExpMax= 4.56D+03 ExpMxC= 6.82D+02 IAcc=3 IRadAn=         5 AccDes= 0.00D+00
 HarFok:  IExCor=  205 AccDes= 0.00D+00 IRadAn=         5 IDoV=-2 UseB2=F ITyADJ=14
 ICtDFT= 12500011 ScaDFX=  1.000000  1.000000  1.000000  1.000000
 Range of M.O.s used for correlation:    15   379
 NBasis=   385 NAE=    47 NBE=    47 NFC=    14 NFV=     0
 NROrb=    365 NOA=    33 NOB=    33 NVA=   332 NVB=   332

 **** Warning!!: The largest alpha MO coefficient is  0.13895516D+03

 Orbital symmetries:
       Occupied  (A) (A) (A) (A) (A) (A) (A) (A) (A) (A) (A) (A)
                 (A) (A) (A) (A) (A) (A) (A) (A) (A) (A) (A) (A)
                 (A) (A) (A) (A) (A) (A) (A) (A) (A) (A) (A) (A)
                 (A) (A) (A) (A) (A) (A) (A) (A) (A) (A) (A)
       Virtual   (A) (A) (A) (A) (A) (A) (A) (A) (A) (A) (A) (A)
                 (A) (A) (A) (A) (A) (A) (A) (A) (A) (A) (A) (A)
                 (A) (A) (A) (A) (A) (A) (A) (A) (A) (A) (A) (A)
                 (A) (A) (A) (A) (A) (A) (A) (A) (A) (A) (A) (A)
                 (A) (A) (A) (A) (A) (A) (A) (A) (A) (A) (A) (A)
                 (A) (A) (A) (A) (A) (A) (A) (A) (A) (A) (A) (A)
                 (A) (A) (A) (A) (A) (A) (A) (A) (A) (A) (A) (A)
                 (A) (A) (A) (A) (A) (A) (A) (A) (A) (A) (A) (A)
                 (A) (A) (A) (A) (A) (A) (A) (A) (A) (A) (A) (A)
                 (A) (A) (A) (A) (A) (A) (A) (A) (A) (A) (A) (A)
                 (A) (A) (A) (A) (A) (A) (A) (A) (A) (A) (A) (A)
                 (A) (A) (A) (A) (A) (A) (A) (A) (A) (A) (A) (A)
                 (A) (A) (A) (A) (A) (A) (A) (A) (A) (A) (A) (A)
                 (A) (A) (A) (A) (A) (A) (A) (A) (A) (A) (A) (A)
                 (A) (A) (A) (A) (A) (A) (A) (A) (A) (A) (A) (A)
                 (A) (A) (A) (A) (A) (A) (A) (A) (A) (A) (A) (A)
                 (A) (A) (A) (A) (A) (A) (A) (A) (A) (A) (A) (A)
                 (A) (A) (A) (A) (A) (A) (A) (A) (A) (A) (A) (A)
                 (A) (A) (A) (A) (A) (A) (A) (A) (A) (A) (A) (A)
                 (A) (A) (A) (A) (A) (A) (A) (A) (A) (A) (A) (A)
                 (A) (A) (A) (A) (A) (A) (A) (A) (A) (A) (A) (A)
                 (A) (A) (A) (A) (A) (A) (A) (A) (A) (A) (A) (A)
                 (A) (A) (A) (A) (A) (A) (A) (A) (A) (A) (A) (A)
                 (A) (A) (A) (A) (A) (A) (A) (A) (A) (A) (A) (A)
                 (A) (A) (A) (A) (A) (A) (A) (A) (A) (A) (A) (A)
                 (A) (A) (A) (A) (A) (A) (A) (A) (A) (A) (A) (A)
                 (A) (A) (A) (A) (A) (A) (A) (A) (A) (A) (A) (A)
                 (A) (A) (A) (A) (A) (A) (A) (A)
     4 initial guesses have been made.
 Convergence on wavefunction:    0.001000000000000
 Iteration     1 Dimension     4 NMult     0 NNew      4
 CISAX will form     4 AO SS matrices at one time.
 Iteration     2 Dimension     6 NMult     4 NNew      2
 Iteration     3 Dimension     8 NMult     6 NNew      2
 Iteration     4 Dimension    10 NMult     8 NNew      2
 Iteration     5 Dimension    12 NMult    10 NNew      2
 Iteration     6 Dimension    14 NMult    12 NNew      2
 ***********************************************************************
 Excited states from <AA,BB:AA,BB> singles matrix:
 ***********************************************************************
 
 Ground to excited state transition densities written to RWF  633
 Ground to excited state transition electric dipole moments (Au):
       state          X           Y           Z        Dip. S.      Osc.
         1        -0.0198     -0.6333     -0.0001      0.4015      0.0285
 Ground to excited state transition velocity dipole moments (Au):
       state          X           Y           Z        Dip. S.      Osc.
         1         0.0025      0.0753     -0.0000      0.0057      0.0355
 Ground to excited state transition magnetic dipole moments (Au):
       state          X           Y           Z
         1        -0.0108     -0.0044      0.0080
 Ground to excited state transition velocity quadrupole moments (Au):
       state          XX          YY          ZZ          XY          XZ          YZ
         1         0.3008      0.0397     -0.0090      0.0168      0.0017     -0.0009
 <0|del|b> * <b|rxdel|0> + <0|del|b> * <b|delr+rdel|0>
 Rotatory Strengths (R) in cgs (10**-40 erg-esu-cm/Gauss)
       state          XX          YY          ZZ    R(velocity)    E-M Angle
         1        -1.5215     -0.0953     -0.7745     -0.7971      109.73
 1/2[<0|r|b>*<b|rxdel|0> + (<0|rxdel|b>*<b|r|0>)*]
 Rotatory Strengths (R) in cgs (10**-40 erg-esu-cm/Gauss)
       state          XX          YY          ZZ     R(length)
         1        -0.1512     -1.9846      0.0004     -0.7118
  1/2[<0|del|b>*<b|r|0> + (<0|r|b>*<b|del|0>)*] (Au)
       state          X           Y           Z        Dip. S.   Osc.(frdel)
         1        -0.0000     -0.0477      0.0000      0.0477      0.0318

 Excitation energies and oscillator strengths:
 
 Excited State   1:      Singlet-A      2.9011 eV  427.37 nm  f=0.0285  <S**2>=0.000
      47 -> 48         0.70408
 This state for optimization and/or second-order correction.
 Total Energy, E(TD-HF/TD-DFT) =  -539.650065686    
 Copying the excited state density for this state as the 1-particle RhoCI density.
 SavETr:  write IOETrn=   770 NScale= 10 NData=  16 NLR=1 NState=    1 LETran=      28.

 **********************************************************************

            Population analysis using the SCF Density.

 **********************************************************************

 Orbital symmetries:
       Occupied  (A) (A) (A) (A) (A) (A) (A) (A) (A) (A) (A) (A)
                 (A) (A) (A) (A) (A) (A) (A) (A) (A) (A) (A) (A)
                 (A) (A) (A) (A) (A) (A) (A) (A) (A) (A) (A) (A)
                 (A) (A) (A) (A) (A) (A) (A) (A) (A) (A) (A)
       Virtual   (A) (A) (A) (A) (A) (A) (A) (A) (A) (A) (A) (A)
                 (A) (A) (A) (A) (A) (A) (A) (A) (A) (A) (A) (A)
                 (A) (A) (A) (A) (A) (A) (A) (A) (A) (A) (A) (A)
                 (A) (A) (A) (A) (A) (A) (A) (A) (A) (A) (A) (A)
                 (A) (A) (A) (A) (A) (A) (A) (A) (A) (A) (A) (A)
                 (A) (A) (A) (A) (A) (A) (A) (A) (A) (A) (A) (A)
                 (A) (A) (A) (A) (A) (A) (A) (A) (A) (A) (A) (A)
                 (A) (A) (A) (A) (A) (A) (A) (A) (A) (A) (A) (A)
                 (A) (A) (A) (A) (A) (A) (A) (A) (A) (A) (A) (A)
                 (A) (A) (A) (A) (A) (A) (A) (A) (A) (A) (A) (A)
                 (A) (A) (A) (A) (A) (A) (A) (A) (A) (A) (A) (A)
                 (A) (A) (A) (A) (A) (A) (A) (A) (A) (A) (A) (A)
                 (A) (A) (A) (A) (A) (A) (A) (A) (A) (A) (A) (A)
                 (A) (A) (A) (A) (A) (A) (A) (A) (A) (A) (A) (A)
                 (A) (A) (A) (A) (A) (A) (A) (A) (A) (A) (A) (A)
                 (A) (A) (A) (A) (A) (A) (A) (A) (A) (A) (A) (A)
                 (A) (A) (A) (A) (A) (A) (A) (A) (A) (A) (A) (A)
                 (A) (A) (A) (A) (A) (A) (A) (A) (A) (A) (A) (A)
                 (A) (A) (A) (A) (A) (A) (A) (A) (A) (A) (A) (A)
                 (A) (A) (A) (A) (A) (A) (A) (A) (A) (A) (A) (A)
                 (A) (A) (A) (A) (A) (A) (A) (A) (A) (A) (A) (A)
                 (A) (A) (A) (A) (A) (A) (A) (A) (A) (A) (A) (A)
                 (A) (A) (A) (A) (A) (A) (A) (A) (A) (A) (A) (A)
                 (A) (A) (A) (A) (A) (A) (A) (A) (A) (A) (A) (A)
                 (A) (A) (A) (A) (A) (A) (A) (A) (A) (A) (A) (A)
                 (A) (A) (A) (A) (A) (A) (A) (A) (A) (A) (A) (A)
                 (A) (A) (A) (A) (A) (A) (A) (A) (A) (A) (A) (A)
                 (A) (A) (A) (A) (A) (A) (A) (A)
 The electronic state is 1-A.
 Alpha  occ. eigenvalues --  -10.77396 -10.73088 -10.72951 -10.72282 -10.72221
 Alpha  occ. eigenvalues --  -10.71667 -10.71229 -10.70984 -10.70762 -10.70473
 Alpha  occ. eigenvalues --  -10.70143 -10.69661 -10.69500 -10.69370  -1.16813
 Alpha  occ. eigenvalues --   -1.12868  -1.07314  -1.06117  -1.01360  -1.00619
 Alpha  occ. eigenvalues --   -0.95941  -0.91479  -0.86314  -0.86144  -0.83741
 Alpha  occ. eigenvalues --   -0.78627  -0.76378  -0.74368  -0.69942  -0.69218
 Alpha  occ. eigenvalues --   -0.68970  -0.68249  -0.68144  -0.64622  -0.63856
 Alpha  occ. eigenvalues --   -0.63616  -0.61801  -0.60518  -0.59986  -0.59290
 Alpha  occ. eigenvalues --   -0.56544  -0.55305  -0.54614  -0.52618  -0.46863
 Alpha  occ. eigenvalues --   -0.46124  -0.44758
 Alpha virt. eigenvalues --   -0.26016  -0.14360  -0.14167  -0.12564  -0.11180
 Alpha virt. eigenvalues --   -0.10034  -0.09259  -0.08067  -0.07930  -0.07466
 Alpha virt. eigenvalues --   -0.07192  -0.07092  -0.05640  -0.05565  -0.05288
 Alpha virt. eigenvalues --   -0.03891  -0.03769  -0.03238  -0.03054  -0.02130
 Alpha virt. eigenvalues --   -0.01467  -0.00935   0.00251   0.00540   0.00720
 Alpha virt. eigenvalues --    0.01122   0.01508   0.02033   0.02292   0.02327
 Alpha virt. eigenvalues --    0.02486   0.02686   0.02880   0.03328   0.03376
 Alpha virt. eigenvalues --    0.04241   0.04508   0.04696   0.05183   0.05393
 Alpha virt. eigenvalues --    0.06009   0.06342   0.06534   0.07003   0.07289
 Alpha virt. eigenvalues --    0.07907   0.08233   0.08361   0.08602   0.08919
 Alpha virt. eigenvalues --    0.09570   0.09671   0.09970   0.10613   0.11190
 Alpha virt. eigenvalues --    0.11246   0.12227   0.12275   0.12871   0.13156
 Alpha virt. eigenvalues --    0.13222   0.13611   0.14111   0.14510   0.16164
 Alpha virt. eigenvalues --    0.16260   0.16765   0.17519   0.17578   0.17804
 Alpha virt. eigenvalues --    0.18295   0.19225   0.19379   0.19499   0.19843
 Alpha virt. eigenvalues --    0.21517   0.21756   0.22892   0.23367   0.23463
 Alpha virt. eigenvalues --    0.23664   0.24795   0.25054   0.27036   0.27858
 Alpha virt. eigenvalues --    0.28914   0.29187   0.30295   0.31691   0.36331
 Alpha virt. eigenvalues --    0.36890   0.38467   0.39289   0.40864   0.41424
 Alpha virt. eigenvalues --    0.42019   0.42574   0.42897   0.43834   0.44263
 Alpha virt. eigenvalues --    0.45105   0.45410   0.46119   0.46412   0.48348
 Alpha virt. eigenvalues --    0.48593   0.48890   0.49023   0.50345   0.50872
 Alpha virt. eigenvalues --    0.51449   0.51738   0.52202   0.52712   0.54065
 Alpha virt. eigenvalues --    0.54182   0.54760   0.55764   0.55954   0.58257
 Alpha virt. eigenvalues --    0.58437   0.59121   0.61460   0.62201   0.62524
 Alpha virt. eigenvalues --    0.63067   0.63614   0.64610   0.65459   0.67170
 Alpha virt. eigenvalues --    0.70464   0.70903   0.71172   0.72207   0.72744
 Alpha virt. eigenvalues --    0.75574   0.75850   0.76093   0.76628   0.76807
 Alpha virt. eigenvalues --    0.77150   0.77608   0.78171   0.79905   0.80530
 Alpha virt. eigenvalues --    0.81394   0.81862   0.82321   0.83163   0.84984
 Alpha virt. eigenvalues --    0.86939   0.87481   0.88397   0.89335   0.90363
 Alpha virt. eigenvalues --    0.91044   0.92309   0.93156   0.95043   0.96649
 Alpha virt. eigenvalues --    0.97084   1.00470   1.00982   1.01871   1.02368
 Alpha virt. eigenvalues --    1.03073   1.05143   1.05288   1.06665   1.09345
 Alpha virt. eigenvalues --    1.20168   1.22948   1.24085   1.26347   1.29254
 Alpha virt. eigenvalues --    1.30480   1.32045   1.34026   1.35517   1.35968
 Alpha virt. eigenvalues --    1.39301   1.40910   1.41490   1.43530   1.43769
 Alpha virt. eigenvalues --    1.44142   1.45616   1.46064   1.47047   1.47525
 Alpha virt. eigenvalues --    1.48049   1.48297   1.52930   1.54082   1.55450
 Alpha virt. eigenvalues --    1.56082   1.56574   1.57095   1.58461   1.61638
 Alpha virt. eigenvalues --    1.62644   1.63362   1.63653   1.66451   1.68057
 Alpha virt. eigenvalues --    1.68334   1.69685   1.70031   1.74331   1.76397
 Alpha virt. eigenvalues --    1.77179   1.78231   1.80106   1.81283   1.81957
 Alpha virt. eigenvalues --    1.83093   1.83489   1.84074   1.84357   1.84622
 Alpha virt. eigenvalues --    1.85123   1.85975   1.86392   1.88592   1.91779
 Alpha virt. eigenvalues --    1.92037   1.94247   1.95530   1.98102   1.98531
 Alpha virt. eigenvalues --    2.01131   2.03387   2.04015   2.08513   2.12704
 Alpha virt. eigenvalues --    2.13110   2.13926   2.15833   2.20458   2.22350
 Alpha virt. eigenvalues --    2.24038   2.29472   2.30812   2.34105   2.36086
 Alpha virt. eigenvalues --    2.37115   2.38221   2.39786   2.42562   2.46641
 Alpha virt. eigenvalues --    2.47795   2.48110   2.48728   2.52491   2.54225
 Alpha virt. eigenvalues --    2.55616   2.56955   2.58114   2.58646   2.59772
 Alpha virt. eigenvalues --    2.60007   2.61378   2.62014   2.63642   2.63915
 Alpha virt. eigenvalues --    2.64613   2.65084   2.65511   2.66102   2.68225
 Alpha virt. eigenvalues --    2.68544   2.71169   2.73327   2.74029   2.75352
 Alpha virt. eigenvalues --    2.76705   2.80038   2.80202   2.82408   2.83595
 Alpha virt. eigenvalues --    2.86496   2.87240   2.92794   2.97199   3.00162
 Alpha virt. eigenvalues --    3.00795   3.06486   3.11092   3.13248   3.14673
 Alpha virt. eigenvalues --    3.22488   3.25306   3.27886   3.29504   3.31891
 Alpha virt. eigenvalues --    3.33547   3.35542   3.43947   3.46593   3.47110
 Alpha virt. eigenvalues --    3.48843   3.52176   3.57541   3.66990   3.67421
 Alpha virt. eigenvalues --    3.74828   3.92793   3.93109   3.95952   3.97150
 Alpha virt. eigenvalues --    4.02816   4.05635   4.06384   4.12358   4.37184
 Alpha virt. eigenvalues --    4.63856   4.70383   4.72056  23.44544  23.60319
 Alpha virt. eigenvalues --   23.83062  23.87251  23.88077  23.91366  23.92232
 Alpha virt. eigenvalues --   23.95665  23.99335  24.01236  24.01500  24.03169
 Alpha virt. eigenvalues --   24.13146  24.14147
          Condensed to atoms (all electrons):
               1          2          3          4          5          6
     1  C    8.855038   0.373949  -0.637865   2.169785  -0.036293  -0.099464
     2  C    0.373949   7.152037   0.356163  -0.962933  -0.044029  -0.016940
     3  C   -0.637865   0.356163   6.612705   0.528474  -0.115806   0.018962
     4  C    2.169785  -0.962933   0.528474  11.565522  -0.210653  -0.132177
     5  C   -0.036293  -0.044029  -0.115806  -0.210653  10.628786   0.540897
     6  C   -0.099464  -0.016940   0.018962  -0.132177   0.540897   6.747837
     7  C   -0.011688   0.005709  -0.012577  -0.035591  -0.871662   0.373935
     8  C    0.457089  -0.005195  -0.101040  -0.050367   2.221419  -0.596958
     9  C   -1.183432  -0.806302   0.359042  -0.122998  -0.738301   0.310554
    10  C   -1.408376   0.169029  -0.267023  -2.687484  -2.444338  -0.394568
    11  C    0.175730  -0.908601   1.066228  -0.480798  -1.532697  -0.166332
    12  C   -2.222833   1.137389  -1.315026  -1.716778  -0.153273  -0.154531
    13  C    0.166027  -0.130307  -0.161943  -1.778857  -0.792654   1.049158
    14  C   -1.108892  -0.220018  -0.206158  -0.481873  -0.846417  -1.364475
    15  H    0.363170  -0.095994  -0.003870   0.025890   0.006087   0.001370
    16  H   -0.021685   0.390704  -0.017848   0.014537  -0.001535  -0.000337
    17  H   -0.022809  -0.023801   0.379968  -0.064892   0.000058   0.000439
    18  H    0.049446   0.003279  -0.081291   0.448111   0.010068  -0.004618
    19  H   -0.050956  -0.009564   0.053194  -0.093981  -0.068492   0.055415
    20  H    0.007890   0.002142  -0.004982   0.008936   0.473736  -0.097566
    21  H   -0.001358  -0.000379   0.000393   0.000047  -0.073923   0.384117
    22  H    0.000709   0.000388  -0.000308  -0.001907   0.017098  -0.015503
    23  H    0.005805  -0.002466   0.000788   0.006246   0.020536  -0.000571
    24  H    0.043826   0.009971   0.002808  -0.010431  -0.009920   0.003748
    25  H    0.044862   0.024241  -0.004308  -0.018501  -0.017089  -0.007252
               7          8          9         10         11         12
     1  C   -0.011688   0.457089  -1.183432  -1.408376   0.175730  -2.222833
     2  C    0.005709  -0.005195  -0.806302   0.169029  -0.908601   1.137389
     3  C   -0.012577  -0.101040   0.359042  -0.267023   1.066228  -1.315026
     4  C   -0.035591  -0.050367  -0.122998  -2.687484  -0.480798  -1.716778
     5  C   -0.871662   2.221419  -0.738301  -2.444338  -1.532697  -0.153273
     6  C    0.373935  -0.596958   0.310554  -0.394568  -0.166332  -0.154531
     7  C    6.899536   0.327417  -0.524927   0.183669  -0.227959  -0.230256
     8  C    0.327417   8.996081  -1.310834  -1.491293   0.176600  -1.019344
     9  C   -0.524927  -1.310834   9.532574   0.443498   1.580453  -2.254486
    10  C    0.183669  -1.491293   0.443498   9.430624  -0.500903   2.542472
    11  C   -0.227959   0.176600   1.580453  -0.500903  14.342058  -3.265144
    12  C   -0.230256  -1.019344  -2.254486   2.542472  -3.265144  15.886592
    13  C   -0.754372   0.017779   1.678823  -0.407317   0.860370  -4.299160
    14  C    0.986770  -2.102587  -1.528139   2.267446  -4.477501   2.560151
    15  H   -0.002651   0.005579   0.071489  -0.007543  -0.031100   0.001610
    16  H    0.000314   0.000625   0.003122  -0.010531   0.019218  -0.030911
    17  H   -0.000319  -0.001313  -0.003161   0.018483  -0.016540   0.079178
    18  H    0.001234   0.007128  -0.024891   0.015310  -0.005940  -0.058794
    19  H   -0.005907  -0.052863   0.083114   0.426975   0.073627  -0.065300
    20  H    0.000119   0.058628  -0.032109   0.014220  -0.012548  -0.014692
    21  H   -0.014289  -0.034089  -0.003407   0.024441  -0.005415   0.006054
    22  H    0.375032  -0.014608   0.002075  -0.012535   0.002608  -0.009402
    23  H   -0.079078   0.349731   0.063533  -0.006530  -0.003581   0.007111
    24  H    0.012049   0.039520   0.340662   0.002400  -0.000662  -0.061701
    25  H    0.020142   0.042211   0.375896   0.002441   0.017647  -0.071910
              13         14         15         16         17         18
     1  C    0.166027  -1.108892   0.363170  -0.021685  -0.022809   0.049446
     2  C   -0.130307  -0.220018  -0.095994   0.390704  -0.023801   0.003279
     3  C   -0.161943  -0.206158  -0.003870  -0.017848   0.379968  -0.081291
     4  C   -1.778857  -0.481873   0.025890   0.014537  -0.064892   0.448111
     5  C   -0.792654  -0.846417   0.006087  -0.001535   0.000058   0.010068
     6  C    1.049158  -1.364475   0.001370  -0.000337   0.000439  -0.004618
     7  C   -0.754372   0.986770  -0.002651   0.000314  -0.000319   0.001234
     8  C    0.017779  -2.102587   0.005579   0.000625  -0.001313   0.007128
     9  C    1.678823  -1.528139   0.071489   0.003122  -0.003161  -0.024891
    10  C   -0.407317   2.267446  -0.007543  -0.010531   0.018483   0.015310
    11  C    0.860370  -4.477501  -0.031100   0.019218  -0.016540  -0.005940
    12  C   -4.299160   2.560151   0.001610  -0.030911   0.079178  -0.058794
    13  C   13.981126  -2.766498  -0.009826   0.002540  -0.005017  -0.014000
    14  C   -2.766498  14.815143   0.006634  -0.008569   0.003906  -0.016420
    15  H   -0.009826   0.006634   0.444465  -0.009331   0.001593   0.000114
    16  H    0.002540  -0.008569  -0.009331   0.420544  -0.007354   0.001981
    17  H   -0.005017   0.003906   0.001593  -0.007354   0.422947  -0.009188
    18  H   -0.014000  -0.016420   0.000114   0.001981  -0.009188   0.447150
    19  H    0.088211  -0.057781   0.000305  -0.000627   0.001582  -0.005622
    20  H   -0.014163  -0.050880  -0.000129   0.000018  -0.000151   0.001142
    21  H   -0.024665   0.089046   0.000016  -0.000006   0.000010  -0.000129
    22  H    0.024044  -0.031373  -0.000120   0.000006  -0.000006   0.000003
    23  H   -0.032581  -0.000018   0.000417  -0.000106   0.000012  -0.000088
    24  H    0.012115  -0.052289   0.000653   0.000019   0.000046  -0.000013
    25  H    0.011329  -0.079463  -0.002360   0.001169  -0.000302   0.000381
              19         20         21         22         23         24
     1  C   -0.050956   0.007890  -0.001358   0.000709   0.005805   0.043826
     2  C   -0.009564   0.002142  -0.000379   0.000388  -0.002466   0.009971
     3  C    0.053194  -0.004982   0.000393  -0.000308   0.000788   0.002808
     4  C   -0.093981   0.008936   0.000047  -0.001907   0.006246  -0.010431
     5  C   -0.068492   0.473736  -0.073923   0.017098   0.020536  -0.009920
     6  C    0.055415  -0.097566   0.384117  -0.015503  -0.000571   0.003748
     7  C   -0.005907   0.000119  -0.014289   0.375032  -0.079078   0.012049
     8  C   -0.052863   0.058628  -0.034089  -0.014608   0.349731   0.039520
     9  C    0.083114  -0.032109  -0.003407   0.002075   0.063533   0.340662
    10  C    0.426975   0.014220   0.024441  -0.012535  -0.006530   0.002400
    11  C    0.073627  -0.012548  -0.005415   0.002608  -0.003581  -0.000662
    12  C   -0.065300  -0.014692   0.006054  -0.009402   0.007111  -0.061701
    13  C    0.088211  -0.014163  -0.024665   0.024044  -0.032581   0.012115
    14  C   -0.057781  -0.050880   0.089046  -0.031373  -0.000018  -0.052289
    15  H    0.000305  -0.000129   0.000016  -0.000120   0.000417   0.000653
    16  H   -0.000627   0.000018  -0.000006   0.000006  -0.000106   0.000019
    17  H    0.001582  -0.000151   0.000010  -0.000006   0.000012   0.000046
    18  H   -0.005622   0.001142  -0.000129   0.000003  -0.000088  -0.000013
    19  H    0.449150  -0.006190   0.001517  -0.000541   0.000181   0.000752
    20  H   -0.006190   0.459343  -0.010812   0.001930   0.000157   0.000081
    21  H    0.001517  -0.010812   0.423931  -0.006874   0.001413   0.000139
    22  H   -0.000541   0.001930  -0.006874   0.417835  -0.008001   0.000054
    23  H    0.000181   0.000157   0.001413  -0.008001   0.435593   0.000106
    24  H    0.000752   0.000081   0.000139   0.000054   0.000106   0.491130
    25  H    0.000459   0.000419  -0.000420   0.001145  -0.001099  -0.070283
              25
     1  C    0.044862
     2  C    0.024241
     3  C   -0.004308
     4  C   -0.018501
     5  C   -0.017089
     6  C   -0.007252
     7  C    0.020142
     8  C    0.042211
     9  C    0.375896
    10  C    0.002441
    11  C    0.017647
    12  C   -0.071910
    13  C    0.011329
    14  C   -0.079463
    15  H   -0.002360
    16  H    0.001169
    17  H   -0.000302
    18  H    0.000381
    19  H    0.000459
    20  H    0.000419
    21  H   -0.000420
    22  H    0.001145
    23  H   -0.001099
    24  H   -0.070283
    25  H    0.486883
 Mulliken charges:
               1
     1  C    0.092324
     2  C   -0.398471
     3  C   -0.448680
     4  C    0.082673
     5  C    0.038397
     6  C   -0.435140
     7  C   -0.414651
     8  C    0.080685
     9  C   -0.311850
    10  C    0.097432
    11  C   -0.678819
    12  C    0.722985
    13  C   -0.700162
    14  C    0.670256
    15  H    0.233533
    16  H    0.254044
    17  H    0.246629
    18  H    0.235646
    19  H    0.183345
    20  H    0.215460
    21  H    0.244642
    22  H    0.258249
    23  H    0.242490
    24  H    0.245221
    25  H    0.243764
 Sum of Mulliken charges =   1.00000
 Mulliken charges with hydrogens summed into heavy atoms:
               1
     1  C    0.325857
     2  C   -0.144427
     3  C   -0.202051
     4  C    0.318319
     5  C    0.253857
     6  C   -0.190498
     7  C   -0.156402
     8  C    0.323175
     9  C    0.177134
    10  C    0.280777
    11  C   -0.678819
    12  C    0.722985
    13  C   -0.700162
    14  C    0.670256
 Electronic spatial extent (au):  <R**2>=           2846.7030
 Charge=              1.0000 electrons
 Dipole moment (field-independent basis, Debye):
    X=             -0.0249    Y=              0.2196    Z=             -0.0065  Tot=              0.2211
 Quadrupole moment (field-independent basis, Debye-Ang):
   XX=            -30.3652   YY=            -57.1572   ZZ=            -83.8202
   XY=              0.1759   XZ=             -0.1137   YZ=              0.3621
 Traceless Quadrupole moment (field-independent basis, Debye-Ang):
   XX=             26.7490   YY=             -0.0430   ZZ=            -26.7060
   XY=              0.1759   XZ=             -0.1137   YZ=              0.3621
 Octapole moment (field-independent basis, Debye-Ang**2):
  XXX=             -0.5168  YYY=              5.2926  ZZZ=              0.0651  XYY=             -0.0277
  XXY=             -3.8123  XXZ=              0.0923  XZZ=              0.0118  YZZ=             -3.0847
  YYZ=              0.2891  XYZ=             -0.1204
 Hexadecapole moment (field-independent basis, Debye-Ang**3):
 XXXX=          -2103.6447 YYYY=           -605.7615 ZZZZ=            -98.5862 XXXY=             -1.7147
 XXXZ=             -3.0716 YYYX=              3.2531 YYYZ=              1.6977 ZZZX=             -0.1582
 ZZZY=              0.1445 XXYY=           -508.6837 XXZZ=           -588.3092 YYZZ=           -143.5826
 XXYZ=              7.3846 YYXZ=             -0.1618 ZZXY=             -0.9459
 N-N= 7.839031628417D+02 E-N=-2.804323307153D+03  KE= 5.377752299083D+02
 Unable to Open any file for archive entry.
 1\1\GINC-GADI-CPU-CLX-0572\SP\RM062X TD-FC\6-311++G(d,p)\C14H11(1+)\TS
 1578\27-Jul-2022\0\\#n M062X/6-311++G(d,p) TD(NStates=1) EmpiricalDisp
 ersion=GD3 SP\\SP_-2\\1,1\C,0,2.4927,1.3371,-0.034\C,0,3.7015,0.6627,-
 0.014\C,0,3.6839,-0.7081,-0.016\C,0,2.4632,-1.3909,0.032\C,0,-2.4632,-
 1.3669,0.048\C,0,-3.6839,-0.7201,0.016\C,0,-3.7015,0.6627,0.002\C,0,-2
 .4927,1.3691,-0.034\C,0,0.,1.4541,-0.066\C,0,0.,-1.3915,0.054\C,0,1.26
 21,0.6867,-0.005\C,0,1.2375,-0.7191,0.025\C,0,-1.2621,0.7027,-0.027\C,
 0,-1.2375,-0.7071,0.027\H,0,2.4881,2.4193,-0.036\H,0,4.6368,1.1844,0.0
 17\H,0,4.6093,-1.2767,-0.03\H,0,2.4675,-2.5084,0.034\H,0,0.,-2.4766,0.
 056\H,0,-2.4675,-2.4364,0.05\H,0,-4.6093,-1.2527,-0.026\H,0,-4.6368,1.
 2204,0.031\H,0,-2.4881,2.4753,-0.036\H,0,0.004,2.1105,-0.9196\H,0,-0.0
 04,2.1105,0.7996\\Version=ES64L-G16RevC.01\State=1-A\HF=-539.756679\RM
 SD=4.888e-09\PG=C01 [X(C14H11)]\\@
 The archive entry for this job was punched.


 BRING ME INTO THE COMPANY OF THOSE WHO SEEK TRUTH,
 AND DELIVER ME FROM THOSE WHO HAVE FOUND IT.
 Job cpu time:       0 days  1 hours 14 minutes  0.9 seconds.
 Elapsed time:       0 days  0 hours  2 minutes 20.6 seconds.
 File lengths (MBytes):  RWF=    460 Int=      0 D2E=      0 Chk=     15 Scr=      1
 Normal termination of Gaussian 16 at Wed Jul 27 10:25:05 2022.
